Membrane in water
40347
    1TMC1    C1    1   3.795   2.637  11.391 -0.3104 -0.1106 -0.1324
    1TMC1    C2    2   3.842   2.732  11.301  0.3557  0.2482  0.3717
    1TMC1    C3    3   3.829   2.703  11.165  0.0889  0.4816  0.1700
    1TMC1    C4    4   3.713   2.538  11.345 -0.5112  0.3721 -0.2531
    1TMC1    C5    5   3.687   2.537  11.216  0.1407  0.5701  0.1977
    1TMC1    C6    6   3.741   2.614  11.113 -0.4837 -0.5045 -0.1056
    1TMC1     C    7   3.864   2.640  11.520 -0.1233 -0.1930  0.4443
    1TMC1     O    8   3.939   2.732  11.539  0.3302  0.3770 -0.5052
    1TMC1     H    9   3.901   2.815  11.339  2.9038 -1.9890  1.3171
    1TMC1    H1   10   3.659   2.468  11.408 -0.7910  0.0318 -0.8685
    1TMC1    H2   11   3.725   2.601  11.007  0.5801  1.0456 -0.4565
    1TMC1    C7   12   3.612   2.429  11.154  0.5398 -0.4449  0.0535
    1TMC1    C8   13   3.901   2.793  11.073 -0.5176 -0.4075 -0.8571
    1TMC1    O1   14   3.507   2.451  11.093  0.7462 -0.0081  0.0632
    1TMC1    O2   15   3.852   2.818  10.965  0.0915 -0.6618 -0.5164
    1TMC1    O3   16   3.710   2.355  11.106 -0.3655  0.1813 -0.1433
    1TMC1    H3   17   3.789   2.356  11.164 -1.4402  1.5084  1.2971
    1TMC1    O5   18   4.027   2.828  11.125 -0.0574 -0.1421  0.0354
    1TMC1    H5   19   4.056   2.797  11.213 -2.0495  1.4561  1.2387
    2MPD2     C   20   4.000   2.421  11.960 -0.1457 -0.2080  0.1182
    2MPD2    C1   21   4.020   2.546  11.914 -0.2242  0.6026  0.1338
    2MPD2    C2   22   3.964   2.579  11.787 -0.1065 -0.5671  0.8862
    2MPD2    C3   23   3.887   2.491  11.716 -0.0626  0.8193  0.1918
    2MPD2    C4   24   3.867   2.365  11.764  0.0093  0.3933  0.0816
    2MPD2    C5   25   3.922   2.337  11.886  0.5092 -0.3226  0.8469
    2MPD2     H   26   3.991   2.679  11.756 -0.7028 -0.9481 -0.8776
    2MPD2    H1   27   3.822   2.288  11.701  0.2934  0.6804 -0.4660
    2MPD2    H2   28   4.028   2.378  12.056 -1.3348 -2.3002 -0.4818
    2MPD2    H3   29   3.896   2.240  11.927 -2.9027 -0.8065 -2.4496
    2MPD2     N   30   3.835   2.523  11.590  0.5715  0.2126  0.6315
    2MPD2    H5   31   3.777   2.452  11.547  2.4899 -0.5652 -0.6671
    2MPD2    N1   32   4.093   2.639  11.987  0.5276 -0.1794  0.2671
    2MPD2    H7   33   4.105   2.735  11.955  2.6288  0.6868  3.7163
    3TMC1    C1   34   3.052   3.824   9.972  0.5253 -0.0976  0.2868
    3TMC1    C2   35   3.028   3.694   9.928  0.0560  0.8816 -0.4765
    3TMC1    C3   36   3.049   3.660   9.797 -0.4959 -0.2359  0.1626
    3TMC1    C4   37   3.089   3.918   9.877  0.1715  0.0661 -0.4492
    3TMC1    C5   38   3.107   3.877   9.746  0.4243  0.0813  0.1642
    3TMC1    C6   39   3.086   3.750   9.698 -0.7830  0.3117 -0.0547
    3TMC1     C   40   3.009   3.854  10.109  0.5653 -0.4016  0.1567
    3TMC1     O   41   2.964   3.760  10.173 -0.4365  0.0355 -0.3934
    3TMC1     H   42   2.975   3.624   9.991 -0.4084  2.4104  0.8423
    3TMC1    H1   43   3.092   4.026   9.890  1.9779 -0.2531  1.7510
    3TMC1    H2   44   3.091   3.719   9.594 -1.1651  0.1676 -0.0305
    3TMC1    C7   45   3.127   3.977   9.645 -0.3414  0.0177 -0.5774
    3TMC1    C8   46   3.046   3.524   9.756 -0.3730  0.4212  0.0202
    3TMC1    O1   47   3.175   4.084   9.673  0.1134  0.0381  0.1292
    3TMC1    O2   48   3.058   3.490   9.639 -0.4608  0.2592 -0.0473
    3TMC1    O3   49   3.014   3.966   9.574  0.0650  0.0626 -0.2125
    3TMC1    H3   50   2.987   3.873   9.557  1.0596 -0.0179 -1.3620
    3TMC1    O5   51   3.092   3.452   9.861  1.1580 -0.6337 -0.0396
    3TMC1    H5   52   3.085   3.490   9.951 -3.1278  3.8109 -2.2556
    4MPD2     C   53   3.095   4.076  10.560 -0.1238  0.1209 -0.1590
    4MPD2    C1   54   3.090   4.177  10.463  0.0255  0.2774  0.3937
    4MPD2    C2   55   3.084   4.141  10.328  0.4719  0.2316  0.1890
    4MPD2    C3   56   3.047   4.014  10.288  0.1924 -0.2352 -0.3440
    4MPD2    C4   57   3.030   3.920  10.391  0.2430  0.8236 -0.4596
    4MPD2    C5   58   3.055   3.954  10.525 -0.1217  0.5946  0.2581
    4MPD2     H   59   3.085   4.220  10.254 -1.3929  0.7531  0.7339
    4MPD2    H1   60   3.005   3.817  10.373  4.0248 -0.0963 -0.4629
    4MPD2    H2   61   3.128   4.095  10.661  1.1143  0.4173 -0.6192
    4MPD2    H3   62   3.051   3.879  10.603 -2.1616 -0.5072 -0.8952
    4MPD2     N   63   3.036   3.984  10.153 -0.1670 -0.2498  0.4570
    4MPD2    H5   64   3.068   4.052  10.085  1.5511 -0.4281  1.0815
    4MPD2    N1   65   3.120   4.312  10.507  0.7431  0.8705 -0.4631
    4MPD2    H7   66   3.135   4.375  10.428 -1.8053 -0.8950 -2.3304
    5TCq1    O1   67   2.767   0.856  11.295 -0.1840  0.3778  0.1580
    5TCq1    C1   68   2.845   0.774  11.231 -0.0778 -0.0292 -0.7172
    5TCq1    O2   69   2.894   0.670  11.267  0.9089 -0.0418 -0.0016
    5TCq1    C2   70   2.905   0.854  11.125 -0.1522 -0.2938  0.3936
    5TCq1    C3   71   2.833   0.959  11.068  0.1059  0.4282 -0.6422
    5TCq1    C4   72   2.898   1.050  10.989 -0.7313  0.0107  0.4488
    5TCq1    C5   73   3.031   1.037  10.973  0.7001  0.0435 -0.5798
    5TCq1    C6   74   3.098   0.935  11.034 -0.3159  0.1244 -0.1439
    5TCq1    C7   75   3.042   0.838  11.103 -0.8377 -0.6389  0.3131
    5TCq1    C8   76   3.240   0.949  11.069 -0.2282 -0.2205  0.6123
    5TCq1    O4   77   3.306   0.847  11.089 -0.7076 -0.0930  0.2970
    5TCq1    C9   78   2.826   1.163  10.932 -0.2332  0.2295 -0.3583
    5TCq1    O5   79   2.900   1.247  10.875 -0.2436 -0.7411 -0.7836
    5TCq1    O6   80   2.703   1.170  10.944 -0.1792  0.1064 -0.0399
    5TCq1    H1   81   2.748   0.946  11.260 -0.1017 -0.6614 -2.5822
    5TCq1    H2   82   2.726   0.973  11.080  0.4257  0.9313  1.7699
    5TCq1    H3   83   3.082   1.115  10.917 -0.2031  1.3119  0.3798
    5TCq1    H4   84   3.097   0.760  11.154  0.1228 -0.5313 -0.5665
    6MPD2     C   85   3.422   1.260  11.013 -0.2156 -0.0544  0.1238
    6MPD2    C1   86   3.403   1.132  11.046 -0.8140 -0.2682 -0.8680
    6MPD2    C2   87   3.520   1.055  11.078 -0.2358  0.4661  1.0529
    6MPD2    C3   88   3.647   1.116  11.067 -1.2126 -0.0491  0.1730
    6MPD2    C4   89   3.657   1.243  11.022 -0.0774  0.3636 -0.1124
    6MPD2    C5   90   3.542   1.318  10.996  0.2041  0.0315  0.1502
    6MPD2     H   91   3.514   0.954  11.115 -0.7659 -0.6287 -1.9804
    6MPD2    H1   92   3.753   1.286  10.996  0.4837 -0.0388  1.2731
    6MPD2    H2   93   3.331   1.316  10.989 -0.8413 -0.9140  0.5037
    6MPD2    H3   94   3.553   1.420  10.961  1.7226 -0.3823 -0.5900
    6MPD2     N   95   3.759   1.036  11.073  0.2651 -0.5387 -0.0132
    6MPD2    H5   96   3.741   0.936  11.072 -0.4653 -0.4172  0.7157
    6MPD2    N1   97   3.274   1.078  11.048  0.0607 -0.1687  0.4337
    6MPD2    H7   98   3.201   1.142  11.017 -0.2482  0.0277  1.5650
    7TCq1    O1   99   1.457   0.972  13.758  0.0382 -0.4071 -0.1364
    7TCq1    C1  100   1.351   0.883  13.773  0.2106 -0.0115 -0.8288
    7TCq1    O2  101   1.309   0.842  13.880  0.3072  0.2462 -0.6262
    7TCq1    C2  102   1.378   0.778  13.678  0.2336 -0.5405 -0.3084
    7TCq1    C3  103   1.363   0.794  13.544  0.3853 -0.2207  0.9013
    7TCq1    C4  104   1.384   0.688  13.468  0.1163 -0.0316 -0.0509
    7TCq1    C5  105   1.420   0.564  13.515  0.8079 -0.1179  0.5613
    7TCq1    C6  106   1.438   0.549  13.653  0.4032 -0.6515 -0.7279
    7TCq1    C7  107   1.402   0.656  13.734  0.1863  0.1113  0.4285
    7TCq1    C8  108   1.469   0.413  13.704 -0.3303 -0.0142 -0.4275
    7TCq1    O4  109   1.438   0.321  13.634 -0.0229 -0.1241  0.3164
    7TCq1    C9  110   1.356   0.702  13.328 -0.0182 -0.1260 -0.0495
    7TCq1    O5  111   1.353   0.821  13.284 -0.2862 -0.4346  0.0853
    7TCq1    O6  112   1.365   0.601  13.254 -1.2422 -0.1545  0.6921
    7TCq1    H1  113   1.503   0.985  13.673 -0.3543 -2.5973 -0.6996
    7TCq1    H2  114   1.353   0.898  13.514 -0.2339 -0.2329  1.0702
    7TCq1    H3  115   1.439   0.480  13.449 -1.4487 -1.2864  1.4145
    7TCq1    H4  116   1.434   0.654  13.837  0.9888 -0.5603  0.1656
    8MPD2     C  117   1.618   0.118  14.094 -0.2094  0.1913 -0.4201
    8MPD2    C1  118   1.571   0.076  13.965 -0.4379  0.5171  0.6961
    8MPD2    C2  119   1.543   0.178  13.876 -0.4580  0.9754 -0.3032
    8MPD2    C3  120   1.564   0.313  13.910 -0.4939  0.3668 -0.1193
    8MPD2    C4  121   1.626   0.346  14.023 -0.0466  0.7188  0.2427
    8MPD2    C5  122   1.651   0.252  14.115  0.0292  0.1366 -0.2749
    8MPD2     H  123   1.501   0.152  13.779  0.7862  1.6229 -1.0179
    8MPD2    H1  124   1.648   0.451  14.041  0.8267  0.4168  0.9500
    8MPD2    H2  125   1.661   0.042  14.159  0.3366  0.5893 -0.3180
    8MPD2    H3  126   1.687   0.285  14.211 -0.2151 -0.4290  0.0109
    8MPD2     N  127   1.528   0.422  13.826  0.4495  0.2793 -0.7938
    8MPD2    H5  128   1.556   0.514  13.860  1.5855  0.0379 -1.0838
    8MPD2    N1  129   1.544   4.679  13.940  0.0914 -0.0397 -0.3883
    8MPD2    H7  130   1.590   4.606  13.994  0.9177  0.4306 -0.4457
    9TMC1    C1  131   4.163   3.997  10.934 -0.8942  0.3641  0.0716
    9TMC1    C2  132   4.078   3.901  10.982  0.1812 -0.5494  0.5300
    9TMC1    C3  133   4.037   3.807  10.891  0.4350  0.1665  0.2443
    9TMC1    C4  134   4.209   3.998  10.804  0.0877  0.2109  0.2739
    9TMC1    C5  135   4.170   3.902  10.718  0.1598  0.6076  0.8438
    9TMC1    C6  136   4.077   3.803  10.757 -0.7707 -0.0412  0.3550
    9TMC1     C  137   4.260   4.061  11.025  0.0366  0.0693 -0.1154
    9TMC1     O  138   4.353   4.130  10.982 -0.2451 -0.0642 -0.3364
    9TMC1     H  139   4.038   3.902  11.083  0.7760  1.9289  0.7415
    9TMC1    H1  140   4.283   4.071  10.772  0.0472 -1.2895 -3.2293
    9TMC1    H2  141   4.042   3.724  10.692 -0.5159 -1.2017  1.6303
    9TMC1    C7  142   4.215   3.915  10.584  0.7510  0.1109  0.0178
    9TMC1    C8  143   3.975   3.681  10.943 -0.0061 -0.6067 -0.1535
    9TMC1    O1  144   4.233   4.026  10.530  0.3127 -0.1585 -0.2876
    9TMC1    O2  145   3.960   3.586  10.868 -0.3457  0.3285  0.5440
    9TMC1    O3  146   4.188   3.806  10.510  0.2597 -0.2615 -0.0814
    9TMC1    H3  147   4.175   3.727  10.567 -0.7082 -0.0915 -0.0651
    9TMC1    O5  148   3.927   3.694  11.073  0.4180  0.1559  0.2337
    9TMC1    H5  149   3.956   3.770  11.128  0.6107  0.3479 -0.1283
   10MPD2     C  150   4.408   4.131  11.287  0.6801 -0.6521 -0.0473
   10MPD2    C1  151   4.295   4.056  11.279 -0.3165  0.8318 -0.7497
   10MPD2    C2  152   4.250   4.000  11.400 -0.3727 -0.8631 -0.3293
   10MPD2    C3  153   4.311   4.015  11.526  0.1180 -0.3775 -0.4078
   10MPD2    C4  154   4.414   4.106  11.522  0.4702  0.1200  0.1610
   10MPD2    C5  155   4.452   4.169  11.407  0.6383  0.2423  0.0512
   10MPD2     H  156   4.166   3.933  11.386 -0.6884 -0.8870  1.7222
   10MPD2    H1  157   4.467   4.134  11.612  1.7549 -1.6976 -0.0255
   10MPD2    H2  158   4.462   4.168  11.200 -1.1222  2.3883  0.1079
   10MPD2    H3  159   4.538   4.235  11.397  0.4373  0.3430 -0.9905
   10MPD2     N  160   4.274   3.959  11.649  0.0293  0.0706 -0.3984
   10MPD2    H5  161   4.327   4.006  11.721  3.4344 -1.6525 -1.8118
   10MPD2    N1  162   4.228   4.030  11.158 -0.4581  0.5244  0.5523
   10MPD2    H7  163   4.158   3.956  11.169 -0.2173  0.0797 -0.8545
   11TCq1    O1  164   0.401   3.827  15.049 -0.4188  0.1814 -0.0347
   11TCq1    C1  165   0.403   3.890  14.929  0.3467  0.2850  0.1597
   11TCq1    O2  166   0.423   4.009  14.908  0.3002  0.0394 -0.4522
   11TCq1    C2  167   0.413   3.792  14.821  0.2291  0.1619 -0.4879
   11TCq1    C3  168   0.463   3.666  14.859  0.3037 -0.0534  0.4082
   11TCq1    C4  169   0.436   3.559  14.773  0.2723 -0.2452 -0.2570
   11TCq1    C5  170   0.368   3.573  14.659  0.1574  0.2508  0.0061
   11TCq1    C6  171   0.333   3.700  14.625  0.3101 -0.2302  0.4560
   11TCq1    C7  172   0.344   3.807  14.707  0.3600  0.2900  0.9491
   11TCq1    C8  173   0.230   3.726  14.526  0.4401  0.2426  0.0667
   11TCq1    O4  174   0.218   3.841  14.488 -0.0330 -0.0641 -0.2900
   11TCq1    C9  175   0.482   3.427  14.808  0.3790 -0.3676 -0.1266
   11TCq1    O5  176   0.410   3.334  14.757 -0.0034 -0.3021  0.2431
   11TCq1    O6  177   0.546   3.413  14.913 -0.4911  0.2183 -0.1369
   11TCq1    H1  178   0.381   3.734  15.023 -1.0409 -0.2952  2.1388
   11TCq1    H2  179   0.523   3.643  14.946 -0.8618 -1.9657  0.6968
   11TCq1    H3  180   0.340   3.486  14.600 -1.0436  0.1254  0.7582
   11TCq1    H4  181   0.303   3.903  14.679 -3.0704 -1.2814  0.6174
   12MPD2     C  182   0.020   3.745  14.320 -0.1140  0.4899 -0.1571
   12MPD2    C1  183   0.066   3.623  14.371 -0.2613 -0.1548 -0.5644
   12MPD2    C2  184   4.733   3.510  14.325  0.2456  0.1740 -0.4185
   12MPD2    C3  185   4.638   3.510  14.222 -0.2134 -0.5359  0.2831
   12MPD2    C4  186   4.610   3.636  14.167 -0.6674 -0.2486 -0.6904
   12MPD2    C5  187   4.670   3.746  14.217  0.2696  0.5376  0.1640
   12MPD2     H  188   0.038   3.420  14.367 -1.2372 -0.4872 -0.2777
   12MPD2    H1  189   4.551   3.635  14.076  0.3599  0.3805 -1.3597
   12MPD2    H2  190   0.056   3.843  14.349 -0.7912  1.3611 -2.3026
   12MPD2    H3  191   4.641   3.838  14.168 -0.7310 -1.3496 -2.7659
   12MPD2     N  192   4.576   3.398  14.174  0.3235  0.3751  0.4022
   12MPD2    H5  193   4.529   3.409  14.085  0.5586 -1.1299  0.0883
   12MPD2    N1  194   0.168   3.617  14.468 -0.3960 -0.0622 -0.1224
   12MPD2    H7  195   0.195   3.522  14.493 -0.1424  0.4193  1.4641
   13TCq1    O1  196   3.970   4.373  10.533 -0.5689 -0.2398  0.1451
   13TCq1    C1  197   4.006   4.279  10.624 -0.3865  0.0793 -0.7317
   13TCq1    O2  198   4.032   4.305  10.740 -0.0640 -0.8379 -0.1291
   13TCq1    C2  199   3.918   4.168  10.590  0.0864  0.0788 -0.0682
   13TCq1    C3  200   3.946   4.103  10.475  0.3179  0.4169 -0.8581
   13TCq1    C4  201   3.891   3.978  10.464 -0.3620  0.5260 -1.4096
   13TCq1    C5  202   3.822   3.918  10.564  1.0361 -0.2308 -0.3260
   13TCq1    C6  203   3.805   3.984  10.676 -0.5210 -0.4520 -0.7254
   13TCq1    C7  204   3.852   4.113  10.685  0.3183 -0.1618  1.3359
   13TCq1    C8  205   3.732   3.932  10.793 -0.2717  0.5194 -0.0465
   13TCq1    O4  206   3.709   4.006  10.891 -0.4663  0.1748  0.0479
   13TCq1    C9  207   3.902   3.900  10.339 -0.0436  0.5729 -1.2449
   13TCq1    O5  208   3.862   3.783  10.353 -0.1113 -0.0857  0.0581
   13TCq1    O6  209   3.944   3.960  10.238 -0.5154  0.9550  0.0975
   13TCq1    H1  210   3.923   4.333  10.457 -0.1793  1.2374 -0.8627
   13TCq1    H2  211   4.008   4.150  10.400  2.5937 -2.3084 -0.6454
   13TCq1    H3  212   3.790   3.816  10.547 -2.7674  1.3204 -2.4208
   13TCq1    H4  213   3.835   4.171  10.775 -0.0393  0.7345  0.7049
   14MPD2     C  214   3.525   3.633  10.784 -0.3115 -0.8178 -0.5724
   14MPD2    C1  215   3.588   3.742  10.847 -0.0256  0.1378 -0.0997
   14MPD2    C2  216   3.564   3.770  10.978  0.2731  0.3609  0.3038
   14MPD2    C3  217   3.476   3.696  11.050  0.8661 -0.1565 -0.2504
   14MPD2    C4  218   3.402   3.603  10.985 -0.1983  0.0863  0.0743
   14MPD2    C5  219   3.437   3.566  10.860  0.0095  0.1443  0.1370
   14MPD2     H  220   3.626   3.846  11.024 -0.6354 -0.4699  2.8868
   14MPD2    H1  221   3.322   3.550  11.035 -1.1471  0.0653 -1.4319
   14MPD2    H2  222   3.529   3.612  10.678 -0.7745  0.4134 -0.8317
   14MPD2    H3  223   3.379   3.483  10.821  0.7428  0.4819 -1.6674
   14MPD2     N  224   3.450   3.734  11.179 -0.0383 -0.3236  0.8035
   14MPD2    H5  225   3.504   3.811  11.216  2.3918 -1.2234 -0.8049
   14MPD2    N1  226   3.665   3.822  10.760  0.3020  0.7861  0.1606
   14MPD2    H7  227   3.670   3.792  10.663 -0.8420 -2.2219  1.0150
   15TCq1    O1  228   1.250   2.672   1.991  0.3214  0.0040  0.2137
   15TCq1    C1  229   1.296   2.637   1.871  0.1733  0.5476 -0.1112
   15TCq1    O2  230   1.404   2.588   1.847  0.2793 -0.2587 -0.0019
   15TCq1    C2  231   1.188   2.633   1.770  0.4572 -0.3354 -0.0414
   15TCq1    C3  232   1.103   2.737   1.760  0.4400  0.3989  0.2118
   15TCq1    C4  233   1.009   2.731   1.656  1.4694  0.6357 -0.4444
   15TCq1    C5  234   0.995   2.621   1.580 -0.4215 -0.2682 -0.2863
   15TCq1    C6  235   1.092   2.525   1.590 -0.3791  0.4004  0.1561
   15TCq1    C7  236   1.194   2.528   1.682  0.3975 -0.2859  0.2549
   15TCq1    C8  237   1.107   2.421   1.487 -0.1451  0.5936 -0.2708
   15TCq1    O4  238   1.206   2.350   1.497  0.3507  0.3832 -0.0653
   15TCq1    C9  239   0.920   2.842   1.626 -0.4308  0.3445 -0.5478
   15TCq1    O5  240   0.918   2.940   1.706 -0.0123 -0.3416  0.1191
   15TCq1    O6  241   0.865   2.843   1.511  0.6440 -0.3569  0.5791
   15TCq1    H1  242   1.152   2.682   1.992  0.2907 -0.2792 -0.7914
   15TCq1    H2  243   1.109   2.813   1.837 -1.3906  0.5910  0.1742
   15TCq1    H3  244   0.923   2.628   1.499  0.8025  4.3801 -0.9638
   15TCq1    H4  245   1.282   2.467   1.697 -0.0518 -1.0589 -0.2829
   16MPD2     C  246   0.920   2.381   1.176  0.4372 -0.1123  0.5093
   16MPD2    C1  247   1.006   2.347   1.280  0.9870 -0.7084  0.4430
   16MPD2    C2  248   1.103   2.248   1.250  0.6401  0.6242 -0.4781
   16MPD2    C3  249   1.100   2.191   1.124 -0.7071  0.1223  0.1736
   16MPD2    C4  250   1.006   2.221   1.030 -0.2010  0.9436 -0.1186
   16MPD2    C5  251   0.914   2.316   1.062 -0.5123  0.3164 -0.5729
   16MPD2     H  252   1.172   2.215   1.327 -1.0915  1.2578  1.3238
   16MPD2    H1  253   1.004   2.169   0.935 -0.8026 -1.7119  1.3474
   16MPD2    H2  254   0.869   2.475   1.193 -0.9731 -0.6092 -1.0721
   16MPD2    H3  255   0.838   2.354   0.995  1.0045 -2.7678 -4.0390
   16MPD2     N  256   1.203   2.092   1.103  0.1008  0.1213 -0.2677
   16MPD2    H5  257   1.268   2.094   1.181  2.9209 -1.0670 -2.6159
   16MPD2    N1  258   1.012   2.429   1.392 -0.0376  0.2889  0.2826
   16MPD2    H7  259   0.953   2.512   1.398  1.3143  1.1910  1.2142
   17TMC1    C1  260   3.562   3.135  11.959 -0.3035 -0.4985 -0.0970
   17TMC1    C2  261   3.676   3.052  11.961  0.2700 -0.0700  0.0861
   17TMC1    C3  262   3.681   2.956  12.058 -0.2950 -0.2100 -0.2100
   17TMC1    C4  263   3.471   3.133  12.055  0.1204 -0.3907  0.3279
   17TMC1    C5  264   3.485   3.040  12.153 -0.1357 -0.3405  0.2915
   17TMC1    C6  265   3.587   2.946  12.151 -0.8955 -0.3034 -0.0235
   17TMC1     C  266   3.521   3.223  11.845  0.4949 -0.2493 -0.6856
   17TMC1     O  267   3.432   3.311  11.850  0.1414 -0.7910 -0.2327
   17TMC1     H  268   3.754   3.056  11.885  0.0474  0.9207 -0.0850
   17TMC1    H1  269   3.393   3.209  12.061  1.5131  1.0529  0.3087
   17TMC1    H2  270   3.584   2.863  12.221 -1.5033 -0.7304 -0.5604
   17TMC1    C7  271   3.375   3.012  12.242  0.0645  1.1902  0.4402
   17TMC1    C8  272   3.800   2.866  12.063  0.5104  0.1135  0.5135
   17TMC1    O1  273   3.383   2.911  12.313  0.3394  0.5878 -0.3719
   17TMC1    O2  274   3.888   2.866  11.974 -0.0246  0.7670  0.6237
   17TMC1    O3  275   3.262   3.046  12.180  0.4208 -0.0865 -0.0472
   17TMC1    H3  276   3.268   3.111  12.107  0.6023  0.0828  0.1223
   17TMC1    O5  277   3.830   2.850  12.192  0.1721 -0.6106  0.3478
   17TMC1    H5  278   3.766   2.876  12.262  0.0734 -0.0182  0.0426
   18MPD2     C  279   3.536   3.408  11.623  0.1869 -0.2823 -0.3388
   18MPD2    C1  280   3.620   3.297  11.634 -0.2379 -0.6634  0.4260
   18MPD2    C2  281   3.710   3.266  11.528 -0.0500  0.7026  0.2411
   18MPD2    C3  282   3.740   3.361  11.428  0.0311 -0.0365 -0.0724
   18MPD2    C4  283   3.663   3.469  11.425  0.1938 -0.0401 -0.1392
   18MPD2    C5  284   3.555   3.487  11.511  0.6460 -0.5217  0.6594
   18MPD2     H  285   3.768   3.174  11.530 -0.9442  0.1534  0.8342
   18MPD2    H1  286   3.685   3.536  11.343 -3.3019  2.8011  1.2232
   18MPD2    H2  287   3.472   3.456  11.697  0.5575 -0.1396 -0.1115
   18MPD2    H3  288   3.505   3.582  11.496  2.6137  0.4531  0.2525
   18MPD2     N  289   3.848   3.352  11.340 -0.6038  0.1493 -0.4466
   18MPD2    H5  290   3.865   3.432  11.279  0.2722 -0.8257 -1.4869
   18MPD2    N1  291   3.611   3.205  11.748  0.5861 -0.6944  0.5012
   18MPD2    H7  292   3.671   3.123  11.746 -1.0919 -1.9276  0.7557
   19TMC2    C1  293   0.633   3.651  13.970 -0.2997 -0.9713  0.3264
   19TMC2    C2  294   0.584   3.726  13.868 -0.2972  0.7044 -0.2048
   19TMC2    C3  295   0.491   3.661  13.789 -0.0967 -0.1596  0.3166
   19TMC2    C4  296   0.603   3.519  13.988  0.4588 -0.3357  0.0275
   19TMC2    C5  297   0.511   3.462  13.907 -0.0821  0.4744 -0.2495
   19TMC2    C6  298   0.451   3.531  13.805  0.6132 -0.1522  0.3340
   19TMC2     C  299   0.716   3.730  14.067  0.3082  0.7267 -0.0652
   19TMC2     O  300   0.716   3.850  14.037 -0.0551 -0.1444  0.1044
   19TMC2     H  301   0.611   3.830  13.852  0.6493  0.7868  1.9042
   19TMC2    H1  302   0.642   3.462  14.072  1.2911  4.2597  2.7326
   19TMC2    H2  303   0.380   3.489  13.735  1.7655 -1.1857 -0.2197
   19TMC2    C7  304   0.479   3.327  13.929  1.1104  0.3422  0.7275
   19TMC2    C8  305   0.474   3.711  13.654  0.0797 -0.2806 -0.5234
   19TMC2    O1  306   0.543   3.253  14.002  0.2575  0.1419 -0.8137
   19TMC2    O2  307   0.393   3.660  13.578 -0.1621 -0.3600 -0.3912
   19TMC2    O5  308   0.574   3.791  13.621  1.0053  0.5472 -0.0420
   19TMC2    H5  309   0.555   3.823  13.530  1.4235 -1.1319 -0.7231
   20MPD2     C  310   0.934   3.837  14.245 -1.1270 -0.3117 -0.1880
   20MPD2    C1  311   0.880   3.709  14.255 -0.2281 -0.3305 -0.4932
   20MPD2    C2  312   0.944   3.620  14.340  0.1500  0.0388  0.7248
   20MPD2    C3  313   1.050   3.665  14.422 -1.0391 -0.2872  0.6763
   20MPD2    C4  314   1.079   3.800  14.427 -0.1828  0.1975  0.3529
   20MPD2    C5  315   1.024   3.881  14.336  0.4141 -0.5013  0.5381
   20MPD2     H  316   0.916   3.515  14.342 -1.5086  0.4306 -1.5865
   20MPD2    H1  317   1.145   3.842  14.502  2.5340  0.9087 -2.4803
   20MPD2    H2  318   0.908   3.909  14.169 -1.1546  0.3095  0.4064
   20MPD2    H3  319   1.048   3.987  14.344 -0.4937 -0.2326 -0.2650
   20MPD2     N  320   1.127   3.588  14.503  0.1613 -0.2625  0.0591
   20MPD2    H5  321   1.193   3.642  14.559  1.0599  0.4173 -1.6578
   20MPD2    N1  322   0.781   3.660  14.164  0.0802 -0.2995  0.1113
   20MPD2    H7  323   0.773   3.559  14.168 -0.9731 -0.1992  0.4154
   21TMC2    C1  324   3.053   3.238  14.433  0.0050  0.4824 -0.3001
   21TMC2    C2  325   3.031   3.108  14.404  0.3624 -0.3014 -0.4670
   21TMC2    C3  326   2.949   3.046  14.494 -0.0264 -0.7517 -0.6701
   21TMC2    C4  327   2.991   3.305  14.535  0.2162  0.1398 -0.2116
   21TMC2    C5  328   2.913   3.233  14.624 -1.0810  0.0431  0.5016
   21TMC2    C6  329   2.887   3.099  14.602  0.0418  0.1423 -0.1946
   21TMC2     C  330   3.167   3.297  14.373 -0.6214 -0.5245 -0.5284
   21TMC2     O  331   3.259   3.221  14.338  0.1486 -0.2570  0.1032
   21TMC2     H  332   3.072   3.051  14.321  4.0336  1.5570  0.0307
   21TMC2    H1  333   3.017   3.409  14.556  0.6113  0.3016 -1.5625
   21TMC2    H2  334   2.813   3.043  14.657 -0.3855 -1.1926 -2.1239
   21TMC2    C7  335   2.854   3.292  14.740 -0.3517  0.4605  0.5464
   21TMC2    C8  336   2.879   2.928  14.451  0.1663  0.1729 -0.8630
   21TMC2    O1  337   2.812   3.224  14.832 -0.6827  0.0736  0.1208
   21TMC2    O2  338   2.762   2.903  14.481  0.2524 -0.3290  0.3149
   21TMC2    O5  339   2.972   2.837  14.411 -0.0558 -0.1711 -0.5737
   21TMC2    H5  340   3.060   2.875  14.393 -0.2061  0.3533 -0.1745
   22MPD2     C  341   3.409   3.672  14.137  0.3677 -0.0601 -0.4187
   22MPD2    C1  342   3.446   3.545  14.164  0.0240  0.5782  0.6643
   22MPD2    C2  343   3.369   3.467  14.240  0.2175 -0.3429  1.0817
   22MPD2    C3  344   3.244   3.512  14.277  0.0276 -0.3813  0.3727
   22MPD2    C4  345   3.195   3.636  14.239 -0.3361 -0.2001  0.5820
   22MPD2    C5  346   3.283   3.718  14.177  0.5948 -0.2910  0.3418
   22MPD2     H  347   3.404   3.367  14.263 -1.4448 -1.9010 -3.1902
   22MPD2    H1  348   3.096   3.668  14.270  0.6866  2.0474  1.5876
   22MPD2    H2  349   3.474   3.729  14.072  1.6269 -1.1628 -0.1284
   22MPD2    H3  350   3.268   3.819  14.141  0.8230 -0.8964 -1.4331
   22MPD2     N  351   3.150   3.429  14.345  0.4273 -0.1266  0.3559
   22MPD2    H5  352   3.061   3.469  14.373 -0.2566 -1.7914  0.5750
   22MPD2    N1  353   3.561   3.486  14.110  0.0748  0.0654 -0.4315
   22MPD2    H7  354   3.577   3.390  14.139 -1.5795 -1.1872 -3.6205
   23TMC2    C1  355   3.989   4.318  14.555  0.5115  0.3742 -0.0158
   23TMC2    C2  356   3.970   4.411  14.453 -0.1715 -0.2840  0.0923
   23TMC2    C3  357   3.852   4.406  14.388 -0.2573 -1.0013 -0.0967
   23TMC2    C4  358   3.894   4.219  14.584  0.1734  0.6804  0.3056
   23TMC2    C5  359   3.779   4.223  14.518  0.5776 -0.0253  0.2960
   23TMC2    C6  360   3.756   4.312  14.417  0.4836  0.4134  0.2077
   23TMC2     C  361   4.101   4.337  14.644 -0.4558  0.3243 -0.0626
   23TMC2     O  362   4.107   4.293  14.756 -0.0465  0.0216  1.1695
   23TMC2     H  363   4.037   4.494  14.434  0.0322 -0.3648  0.4588
   23TMC2    H1  364   3.900   4.170  14.680  0.0559 -1.5054 -0.7992
   23TMC2    H2  365   3.665   4.303  14.358 -0.6346 -0.5605  2.0939
   23TMC2    C7  366   3.665   4.151  14.573  0.0792  0.7303 -0.1968
   23TMC2    C8  367   3.843   4.507  14.282  0.3126 -0.0015 -0.0709
   23TMC2    O1  368   3.676   4.041  14.622 -0.5466  0.3897 -0.3459
   23TMC2    O2  369   3.938   4.566  14.230  0.6730 -0.0185 -0.2422
   23TMC2    O5  370   3.714   4.523  14.245 -0.1508 -0.3221 -0.0907
   23TMC2    H5  371   3.645   4.502  14.311 -1.0838  0.7984 -0.7149
   24MPD2     C  372   4.604   4.448  14.664  0.6818  0.2271 -0.7542
   24MPD2    C1  373   4.526   4.389  14.759  0.1067  0.1482  0.1531
   24MPD2    C2  374   4.394   4.363  14.723  0.0839 -0.5736  0.6769
   24MPD2    C3  375   4.342   4.409  14.607  0.2703 -0.0097  0.6995
   24MPD2    C4  376   4.422   4.464  14.506  0.1062  0.1821 -0.5494
   24MPD2    C5  377   4.553   4.485  14.539 -0.4156 -0.3427  0.2619
   24MPD2     H  378   4.338   4.313  14.800 -1.5045  0.9972  0.5489
   24MPD2    H1  379   4.389   4.499  14.409 -0.3540  0.2252 -0.3751
   24MPD2    H2  380   4.707   4.474  14.682  0.4756 -0.6893  1.6877
   24MPD2    H3  381   4.623   4.536  14.474 -0.7385 -1.3897 -0.9138
   24MPD2     N  382   4.205   4.389  14.569 -0.2422 -0.0140  0.2952
   24MPD2    H5  383   4.185   4.419  14.474 -0.4672  0.6231  0.5413
   24MPD2    N1  384   4.579   4.350  14.883 -0.4325  0.2434  0.8277
   24MPD2    H7  385   4.519   4.293  14.942  0.4206 -0.6928  0.7942
   25TMC2    C1  386   3.048   2.649  11.815  0.9687  0.4338 -0.0042
   25TMC2    C2  387   3.043   2.781  11.828 -0.3945 -0.2233  0.5909
   25TMC2    C3  388   2.987   2.837  11.935 -0.1126  0.0991  0.1618
   25TMC2    C4  389   2.996   2.567  11.913 -0.4431 -0.0750 -0.1200
   25TMC2    C5  390   2.944   2.630  12.027  0.0375 -1.1527 -1.3055
   25TMC2    C6  391   2.936   2.764  12.038  0.2694  0.3955 -0.6651
   25TMC2     C  392   3.135   2.590  11.713  0.0353  0.0042 -0.2321
   25TMC2     O  393   3.240   2.653  11.684 -0.3749  0.0617 -0.1606
   25TMC2     H  394   3.078   2.840  11.744 -0.4752  0.5942  1.1310
   25TMC2    H1  395   3.025   2.463  11.909 -4.7221 -1.3626  2.5916
   25TMC2    H2  396   2.912   2.813  12.131 -1.2476 -1.6292  0.0315
   25TMC2    C7  397   2.923   2.552  12.146  0.7414  0.6659  0.1192
   25TMC2    C8  398   2.953   2.974  11.939  0.2535  0.3720  0.6847
   25TMC2    O1  399   2.999   2.462  12.169  0.5356  0.3825  0.6043
   25TMC2    O2  400   2.880   3.018  12.026  0.5392 -0.1545  0.0027
   25TMC2    O5  401   3.017   3.044  11.839  0.1817 -0.0280  0.0541
   25TMC2    H5  402   3.091   3.005  11.787 -1.3069 -1.9004 -0.6560
   26MPD2     C  403   3.244   2.303  11.300  0.0371  0.4037  0.1156
   26MPD2    C1  404   3.140   2.237  11.371 -0.2098 -0.0801  0.1022
   26MPD2    C2  405   3.083   2.296  11.484  0.1014  0.7175 -0.5545
   26MPD2    C3  406   3.132   2.421  11.531 -0.3702 -0.1758  0.1526
   26MPD2    C4  407   3.230   2.476  11.455  0.3823 -0.1044  0.8820
   26MPD2    C5  408   3.281   2.423  11.340  0.0124  0.0258  0.2185
   26MPD2     H  409   3.008   2.251  11.549 -0.3285  2.2478  0.0014
   26MPD2    H1  410   3.273   2.574  11.472 -0.1254  0.0556  1.2032
   26MPD2    H2  411   3.287   2.268  11.207 -0.1705 -1.3777  0.6761
   26MPD2    H3  412   3.344   2.484  11.277 -0.9504 -1.3682 -2.0680
   26MPD2     N  413   3.075   2.486  11.646 -0.1288 -0.3478  0.0700
   26MPD2    H5  414   2.985   2.452  11.680  0.0816 -0.8318  0.1475
   26MPD2    N1  415   3.109   2.106  11.329 -0.4410 -0.1562  0.3808
   26MPD2    H7  416   3.169   2.079  11.252 -1.8696 -4.1025  0.6467
   27TMC2    C1  417   1.989   4.252  11.896  0.5071 -0.1729  0.3573
   27TMC2    C2  418   2.078   4.288  11.805 -0.2218 -0.4959  0.1408
   27TMC2    C3  419   2.102   4.420  11.777 -0.1908 -0.0012  0.2465
   27TMC2    C4  420   1.912   4.346  11.953  0.3079  0.4139  0.1683
   27TMC2    C5  421   1.924   4.480  11.927 -0.2720  0.4542  0.0372
   27TMC2    C6  422   2.021   4.517  11.838  0.6044  0.7717  0.4670
   27TMC2     C  423   2.004   4.131  11.972 -0.2757  0.9058 -0.0287
   27TMC2     O  424   2.079   4.046  11.932 -0.6702 -0.1078 -0.7948
   27TMC2     H  425   2.151   4.221  11.761 -0.8994 -0.5833 -0.8575
   27TMC2    H1  426   1.829   4.320  12.017  0.1498  1.8946  0.5843
   27TMC2    H2  427   2.035   4.623  11.818 -0.0850  0.6056 -0.8488
   27TMC2    C7  428   1.913   4.545  12.055  0.0931  0.4984 -0.7280
   27TMC2    C8  429   2.159   4.466  11.651  0.0926  0.1341 -0.3332
   27TMC2    O1  430   1.949   4.467  12.140 -0.4647 -0.5883  0.1179
   27TMC2    O2  431   2.173   4.582  11.613 -0.2127  0.3482 -0.5169
   27TMC2    O5  432   2.165   4.356  11.571 -0.4144 -0.2024  0.0991
   27TMC2    H5  433   2.134   4.273  11.612 -0.3288 -0.2095  0.1483
   28MPD2     C  434   1.947   3.872  12.428 -0.1051 -0.1804 -0.3593
   28MPD2    C1  435   1.916   4.008  12.438  0.4239 -0.3555  0.1166
   28MPD2    C2  436   1.937   4.093  12.330 -0.2058  0.1445 -0.0228
   28MPD2    C3  437   1.977   4.056  12.208 -0.0347 -0.3169 -0.5694
   28MPD2    C4  438   2.006   3.921  12.197 -0.1571  0.1829 -0.1123
   28MPD2    C5  439   1.983   3.831  12.298 -0.2854 -0.2218  0.1778
   28MPD2     H  440   1.935   4.200  12.345  2.0545  0.2242 -0.2527
   28MPD2    H1  441   2.016   3.877  12.098  0.4310 -1.8520  0.8562
   28MPD2    H2  442   1.934   3.800  12.507  2.3647 -0.1054  0.1061
   28MPD2    H3  443   1.994   3.724  12.290  0.9610  0.1556 -2.8281
   28MPD2     N  444   1.967   4.154  12.102 -0.2469  0.5237 -0.2251
   28MPD2    H5  445   1.949   4.251  12.124 -2.7553  0.4291 -1.8192
   28MPD2    N1  446   1.851   4.054  12.559 -0.4787  0.5723  0.6091
   28MPD2    H7  447   1.835   3.983  12.630 -3.9664 -0.6269 -1.3892
   29TMC2    C1  448   2.009   1.917  14.116  0.2010 -0.4729  0.9964
   29TMC2    C2  449   1.942   1.987  14.205  0.2678 -0.7442  0.2260
   29TMC2    C3  450   1.989   2.110  14.246  0.1109  0.4270 -0.0366
   29TMC2    C4  451   2.124   1.964  14.063 -0.2883 -0.0712  0.1667
   29TMC2    C5  452   2.169   2.088  14.097 -0.4286  0.3088  0.2774
   29TMC2    C6  453   2.109   2.155  14.196 -0.0164  0.1359 -0.1211
   29TMC2     C  454   1.996   1.781  14.116  0.1605  0.3166  0.1073
   29TMC2     O  455   1.952   1.732  14.218 -0.0077  0.2449 -0.4460
   29TMC2     H  456   1.855   1.944  14.253 -0.6191  0.2405 -0.5127
   29TMC2    H1  457   2.191   1.903  14.004 -1.7431 -0.6490 -0.8956
   29TMC2    H2  458   2.131   2.259  14.216 -0.4808 -0.0250  1.2150
   29TMC2    C7  459   2.298   2.136  14.044 -0.3853  1.0095  0.3682
   29TMC2    C8  460   1.933   2.161  14.363 -0.0146  0.8451 -0.2048
   29TMC2    O1  461   2.342   2.074  13.948  0.2965  0.1122  0.6030
   29TMC2    O2  462   1.853   2.105  14.436 -0.3347  0.1167 -0.2740
   29TMC2    O5  463   1.929   2.295  14.352 -0.3116  0.5657 -0.1060
   29TMC2    H5  464   1.992   2.343  14.294  1.4301 -0.8714  0.6022
   30MPD2     C  465   2.030   1.356  13.838  1.0167 -0.7313  0.0687
   30MPD2    C1  466   2.014   1.372  13.974 -0.1838  0.4148  0.5325
   30MPD2    C2  467   1.999   1.499  14.026 -0.2188 -0.4358 -0.3782
   30MPD2    C3  468   2.019   1.609  13.938  0.0794 -0.0517  0.4550
   30MPD2    C4  469   2.039   1.592  13.804 -0.0788 -0.3237  0.2959
   30MPD2    C5  470   2.048   1.463  13.751  0.3021  0.6693  0.0473
   30MPD2     H  471   1.983   1.509  14.133 -1.6204  2.4389 -0.8585
   30MPD2    H1  472   2.062   1.676  13.738  0.2315 -1.5157 -1.1218
   30MPD2    H2  473   2.045   1.258  13.793  0.0715 -0.9752  0.2977
   30MPD2    H3  474   2.063   1.446  13.645 -0.1712 -1.0483  0.2527
   30MPD2     N  475   2.003   1.741  13.987  0.0132  0.0917 -0.0752
   30MPD2    H5  476   2.001   1.812  13.915 -0.4190 -1.9748 -2.0929
   30MPD2    N1  477   2.002   1.269  14.065 -0.0614  0.1614  0.1866
   30MPD2    H7  478   1.980   1.296  14.160  3.1295 -0.3588  1.1022
   31TMC2    C1  479   4.115   0.596  14.882 -0.0345 -0.4185  0.5045
   31TMC2    C2  480   3.987   0.566  14.858 -0.7590  0.0744  1.2109
   31TMC2    C3  481   3.927   0.480  14.946 -0.3475 -0.1889 -0.2270
   31TMC2    C4  482   4.178   0.553  14.994 -0.2133  0.2014 -0.3395
   31TMC2    C5  483   4.111   0.468  15.083  0.1840  0.3874 -0.2566
   31TMC2    C6  484   3.982   0.433  15.062 -0.1111 -0.1158 -0.9676
   31TMC2     C  485   4.194   0.623  14.762 -0.7038  0.1515 -0.1668
   31TMC2     O  486   4.137   0.632  14.654 -0.3832  0.1434 -0.3947
   31TMC2     H  487   3.935   0.586  14.764  2.0366  1.3136 -0.0550
   31TMC2    H1  488   4.277   0.587  15.022 -0.3646 -0.0481  0.5209
   31TMC2    H2  489   3.925   0.373  15.132 -0.5639  1.0914 -0.3031
   31TMC2    C7  490   4.174   0.425  15.210  0.1651 -0.4300 -0.6967
   31TMC2    C8  491   3.790   0.427  14.910  0.4689 -0.0450  0.1171
   31TMC2    O1  492   4.296   0.425  15.207  0.2792  0.3778  0.0136
   31TMC2    O2  493   3.714   0.492  14.843 -0.4298 -0.4628  0.1204
   31TMC2    O5  494   3.812   0.299  14.904 -0.1517 -0.0046  0.1381
   31TMC2    H5  495   3.908   0.276  14.910 -0.7216 -1.7893  2.3593
   32MPD2     C  496   4.629   0.754  14.522  0.1702 -0.1038 -0.4670
   32MPD2    C1  497   4.505   0.752  14.475 -0.1178  0.4935  0.4842
   32MPD2    C2  498   4.405   0.716  14.566  0.1591  0.2548  0.6568
   32MPD2    C3  499   4.431   0.670  14.692  0.1427  0.4760 -0.2536
   32MPD2    C4  500   4.559   0.676  14.737  0.9664  0.2886  0.3854
   32MPD2    C5  501   4.653   0.724  14.655  0.1092 -0.4165  0.2529
   32MPD2     H  502   4.303   0.707  14.530  0.1397 -1.2520  1.0672
   32MPD2    H1  503   4.582   0.643  14.838 -0.7376 -1.1689  0.3170
   32MPD2    H2  504   4.704   0.786  14.450 -0.7099  2.5060 -0.2116
   32MPD2    H3  505   0.017   0.718  14.689 -0.0166  0.1112  0.7172
   32MPD2     N  506   4.326   0.616  14.784 -0.3530 -0.3589 -0.2970
   32MPD2    H5  507   4.355   0.588  14.877  0.0009 -2.3661 -1.0024
   32MPD2    N1  508   4.486   0.791  14.335  0.0687  0.9482  0.0380
   32MPD2    H7  509   4.572   0.814  14.287  1.4011 -2.0985  0.8935
   33TMC2    C1  510   0.124   3.846  10.990 -0.3840 -0.2966  0.0250
   33TMC2    C2  511   0.242   3.853  11.066  0.1073  0.0929 -0.2101
   33TMC2    C3  512   0.332   3.934  11.013 -0.8662 -0.8180 -0.8253
   33TMC2    C4  513   0.097   3.895  10.866  0.2494  0.6155 -0.0156
   33TMC2    C5  514   0.195   3.974  10.814  0.3477  0.0506  0.0457
   33TMC2    C6  515   0.305   4.002  10.892  0.4200 -0.1721  0.3493
   33TMC2     C  516   0.007   3.779  11.047 -0.0783 -0.1900  0.0838
   33TMC2     O  517   4.679   3.708  10.974 -0.1789  0.4420  0.3131
   33TMC2     H  518   0.264   3.807  11.162  0.5605  2.9233  1.0625
   33TMC2    H1  519   0.000   3.885  10.818 -0.1326  0.4020  0.8058
   33TMC2    H2  520   0.377   4.068  10.844  0.5768  0.2899  1.2229
   33TMC2    C7  521   0.171   4.065  10.706  0.0353  0.5432 -0.8930
   33TMC2    C8  522   0.414   3.997  11.114 -0.6027 -0.8091 -0.4137
   33TMC2    O1  523   0.270   4.086  10.639  0.4953  0.0083 -0.2975
   33TMC2    O2  524   0.371   4.025  11.226 -0.1095  0.0692 -0.7913
   33TMC2    O5  525   0.520   4.053  11.045 -0.7328 -0.4463 -0.0475
   33TMC2    H5  526   0.533   4.004  10.961  0.1963 -0.4720  0.1109
   34MPD2     C  527   4.405   3.686  11.444  0.0747  0.3285 -0.1063
   34MPD2    C1  528   4.399   3.668  11.311 -0.1587 -0.0218 -0.4177
   34MPD2    C2  529   4.507   3.702  11.225  0.1323 -0.3455 -0.3803
   34MPD2    C3  530   4.623   3.766  11.271 -0.2987 -0.4298 -0.6181
   34MPD2    C4  531   4.622   3.782  11.411 -0.2945 -0.4429  0.2196
   34MPD2    C5  532   4.520   3.744  11.490 -0.2700 -0.7807 -0.6235
   34MPD2     H  533   4.488   3.684  11.120 -3.0502 -2.9197  0.6053
   34MPD2    H1  534   4.700   3.838  11.461  1.0891 -1.5213 -0.7189
   34MPD2    H2  535   4.325   3.668  11.515 -0.4829  0.8629 -0.5959
   34MPD2    H3  536   4.521   3.750  11.598 -0.8621 -1.2213 -0.5909
   34MPD2     N  537   4.726   3.808  11.182 -0.5470  0.1506 -0.6384
   34MPD2    H5  538   0.048   3.877  11.225 -1.3227  1.9408 -2.4109
   34MPD2    N1  539   4.290   3.599  11.268 -0.6334 -0.4491  0.7283
   34MPD2    H7  540   4.248   3.539  11.338 -2.1131 -0.9900 -0.6429
   35TMC2    C1  541   1.052   4.497  11.518  0.0521  0.0106 -0.5558
   35TMC2    C2  542   0.969   4.539  11.415  0.2103 -0.2312 -0.4112
   35TMC2    C3  543   0.837   4.542  11.440 -0.1609 -0.3303  0.9407
   35TMC2    C4  544   0.999   4.457  11.642 -0.4145 -0.3488 -0.5670
   35TMC2    C5  545   0.863   4.477  11.664 -0.5062  0.6327  0.4137
   35TMC2    C6  546   0.785   4.526  11.563  0.1568 -0.6197  0.1507
   35TMC2     C  547   1.178   4.570  11.513  0.2188 -0.3686 -0.5856
   35TMC2     O  548   1.220   4.617  11.412  0.2345 -0.2309 -0.1938
   35TMC2     H  549   1.017   4.565  11.321 -1.7414  1.1054 -1.0283
   35TMC2    H1  550   1.054   4.398  11.715  0.8957 -0.0837 -1.3438
   35TMC2    H2  551   0.679   4.505  11.572 -0.3373  2.2225  0.9112
   35TMC2    C7  552   0.807   4.391  11.762  1.0537  0.3770 -0.7028
   35TMC2    C8  553   0.749   4.589  11.329  0.7413  0.2567  0.3692
   35TMC2    O1  554   0.887   4.314  11.821  0.1635 -0.0156  0.1031
   35TMC2    O2  555   0.632   4.616  11.348 -0.0864 -0.0442 -0.8291
   35TMC2    O5  556   0.810   4.531  11.223 -0.3238 -0.6665  0.2073
   35TMC2    H5  557   0.890   4.476  11.237 -0.0252 -0.4614 -0.6627
   36MPD2     C  558   1.507   0.125  11.759  0.4612 -0.3434 -0.1919
   36MPD2    C1  559   1.470   0.021  11.845 -0.3737  0.6589  0.3349
   36MPD2    C2  560   1.379   4.663  11.804  0.0493 -0.3336 -0.0101
   36MPD2    C3  561   1.313   4.682  11.680 -0.2247 -0.2197 -0.2913
   36MPD2    C4  562   1.352   0.047  11.598 -0.3664  0.1319 -0.3728
   36MPD2    C5  563   1.450   0.132  11.645  0.6997 -0.6660 -0.5543
   36MPD2     H  564   1.362   4.580  11.871  0.2661 -1.8538 -1.8409
   36MPD2    H1  565   1.305   0.070  11.503 -1.1897 -3.3651 -0.8075
   36MPD2    H2  566   1.575   0.203  11.791  0.5881 -0.1744 -0.8637
   36MPD2    H3  567   1.481   0.216  11.584  3.0617  0.8023  2.6871
   36MPD2     N  568   1.219   4.590  11.638 -0.0362  0.2515 -0.5653
   36MPD2    H5  569   1.186   4.527  11.710 -0.6234  1.2829  0.0841
   36MPD2    N1  570   1.541   0.019  11.967 -0.0839  0.1085 -0.4155
   36MPD2    H7  571   1.569   0.107  12.009  2.3393 -0.4554 -0.8857
   37TMC2    C1  572   3.046   0.938  11.595  0.8014 -0.0314  0.3193
   37TMC2    C2  573   3.037   1.051  11.517 -0.2198  0.5184 -0.4421
   37TMC2    C3  574   3.154   1.094  11.464  0.6168 -0.7973 -0.4940
   37TMC2    C4  575   3.166   0.879  11.619  1.0781  0.2851  1.1365
   37TMC2    C5  576   3.278   0.938  11.578  0.7316  0.0683 -0.3763
   37TMC2    C6  577   3.278   1.045  11.497  0.8294  0.1793  0.0981
   37TMC2     C  578   2.918   0.862  11.616 -0.2367  0.0125 -0.5841
   37TMC2     O  579   2.810   0.917  11.603  0.1495 -0.1898 -0.4637
   37TMC2     H  580   2.945   1.095  11.482 -1.5156 -1.1879  0.7909
   37TMC2    H1  581   3.174   0.802  11.694  1.0401 -1.0362 -0.2156
   37TMC2    H2  582   3.360   1.058  11.428 -0.5386  0.4429 -1.4819
   37TMC2    C7  583   3.405   0.872  11.612  0.1906 -0.3869 -0.0948
   37TMC2    C8  584   3.145   1.204  11.367  0.0712 -0.0912  0.5099
   37TMC2    O1  585   3.409   0.752  11.633  0.8388 -0.5233 -0.3275
   37TMC2    O2  586   3.050   1.206  11.293 -1.2494  0.2369  0.0291
   37TMC2    O5  587   3.252   1.282  11.363  0.7556  0.4295  0.2377
   37TMC2    H5  588   3.319   1.266  11.432  1.8105  2.0304 -0.4071
   38MPD2     C  589   2.682   0.394  11.644  0.4816 -0.1255 -0.1851
   38MPD2    C1  590   2.814   0.377  11.666 -0.1338  0.0377 -0.4918
   38MPD2    C2  591   2.893   0.493  11.655  0.2639 -0.3235  0.2092
   38MPD2    C3  592   2.848   0.627  11.641  0.4958 -0.0204  0.0720
   38MPD2    C4  593   2.711   0.640  11.619  0.1093  0.1915 -0.4512
   38MPD2    C5  594   2.634   0.522  11.618 -0.4511 -0.1941 -0.0475
   38MPD2     H  595   3.000   0.483  11.669  0.0920 -2.9222 -0.2001
   38MPD2    H1  596   2.672   0.733  11.580 -1.0816  0.6208  1.7957
   38MPD2    H2  597   2.617   0.307  11.658 -1.2771  1.0324 -1.0864
   38MPD2    H3  598   2.529   0.524  11.590 -0.3681  0.1481 -0.3450
   38MPD2     N  599   2.945   0.729  11.639  0.6418 -0.1458  0.6159
   38MPD2    H5  600   3.044   0.708  11.650  0.7497  0.0460  0.0359
   38MPD2    N1  601   2.872   0.254  11.708 -0.7802 -0.1047  0.4918
   38MPD2    H7  602   2.972   0.253  11.725 -0.7025  0.3192  0.0483
   39TMC2    C1  603   1.930   1.711   1.540 -0.3564 -0.2761 -1.2043
   39TMC2    C2  604   1.898   1.812   1.632 -0.2225  0.9789 -0.2495
   39TMC2    C3  605   2.003   1.883   1.680 -0.0467  0.3728  0.1477
   39TMC2    C4  606   2.063   1.675   1.518 -0.1509 -0.6861  0.5003
   39TMC2    C5  607   2.159   1.748   1.591 -0.9065  0.1365  0.3955
   39TMC2    C6  608   2.135   1.847   1.674  0.1391 -0.6397  0.5068
   39TMC2     C  609   1.815   1.642   1.478 -0.7947 -0.1012 -0.0230
   39TMC2     O  610   1.712   1.708   1.461 -0.4303 -0.6280  1.0895
   39TMC2     H  611   1.791   1.832   1.640  0.1136  1.7172  2.3172
   39TMC2    H1  612   2.092   1.588   1.461 -2.4615 -0.8322 -0.4262
   39TMC2    H2  613   2.210   1.897   1.735 -0.2627 -0.4833  0.8774
   39TMC2    C7  614   2.294   1.711   1.577  0.0431 -0.4846 -0.3563
   39TMC2    C8  615   1.974   2.015   1.742  0.1381 -0.8079 -0.0623
   39TMC2    O1  616   2.327   1.600   1.540  0.6990 -0.3962 -0.1936
   39TMC2    O2  617   2.069   2.067   1.804  0.3741  0.3391  0.2271
   39TMC2    O5  618   1.917   2.082   1.636  0.2328 -0.2421 -0.0976
   39TMC2    H5  619   1.865   2.021   1.579  0.6330  0.9837 -1.7478
   40MPD2     C  620   1.795   1.295   1.389 -0.0926 -0.3885  0.5758
   40MPD2    C1  621   1.757   1.422   1.380 -0.3239 -0.4614 -0.2253
   40MPD2    C2  622   1.644   1.458   1.317 -0.4707  0.6760 -0.2917
   40MPD2    C3  623   1.560   1.364   1.254 -0.1373 -0.3788  0.2810
   40MPD2    C4  624   1.595   1.232   1.273 -0.4058  0.2629 -0.6048
   40MPD2    C5  625   1.711   1.208   1.328  0.2503  0.0468 -1.0819
   40MPD2     H  626   1.621   1.564   1.313 -2.7215  0.1705 -0.9895
   40MPD2    H1  627   1.535   1.151   1.233  0.7025 -0.9288  0.1534
   40MPD2    H2  628   1.884   1.260   1.439  0.0366 -2.6074 -1.2181
   40MPD2    H3  629   1.736   1.103   1.336  0.9229  0.5081  2.9941
   40MPD2     N  630   1.451   1.405   1.185  0.2637 -0.4859 -0.5024
   40MPD2    H5  631   1.384   1.338   1.148  1.5893 -1.0165 -1.9572
   40MPD2    N1  632   1.834   1.506   1.459  0.4007 -0.0913  0.0130
   40MPD2    H7  633   1.914   1.455   1.495  2.5204  1.0472 -2.9826
   41TMC2    C1  634   0.541   0.177  13.891 -0.0181  0.3479  0.2560
   41TMC2    C2  635   0.499   0.306  13.910  0.2294 -0.1286 -0.5429
   41TMC2    C3  636   0.449   0.372  13.801 -0.3565  0.0930 -0.4103
   41TMC2    C4  637   0.510   0.116  13.774 -0.6468 -0.2023 -0.1152
   41TMC2    C5  638   0.452   0.185  13.674 -0.2178 -0.4568 -0.0125
   41TMC2    C6  639   0.422   0.317  13.677  0.1767  0.6045  0.2508
   41TMC2     C  640   0.539   0.089  14.000  0.0990  0.5711 -0.0485
   41TMC2     O  641   0.594   4.717  13.980  0.2157 -0.0597 -0.3286
   41TMC2     H  642   0.506   0.356  14.006  0.9449  0.1350 -0.7306
   41TMC2    H1  643   0.550   0.016  13.768  1.1917  0.4626  1.0583
   41TMC2    H2  644   0.372   0.368  13.595  0.7231 -0.5522 -0.8035
   41TMC2    C7  645   0.460   0.140  13.536  0.1197 -0.0043  0.7422
   41TMC2    C8  646   0.387   0.491  13.832  0.1883 -0.0041  0.0221
   41TMC2    O1  647   0.372   0.165  13.458  0.0762  0.6009  0.8209
   41TMC2    O2  648   0.430   0.584  13.903 -0.1553 -0.6032 -0.0522
   41TMC2    O5  649   0.249   0.471  13.804  0.7271 -0.2447  0.1351
   41TMC2    H5  650   0.224   0.382  13.772  0.6326 -0.3104  0.3965
   42MPD2     C  651   0.594   4.726  14.278  0.1950 -0.3533  0.3365
   42MPD2    C1  652   0.512   0.094  14.251 -1.1157 -0.1370 -0.4470
   42MPD2    C2  653   0.443   0.149  14.357  0.3741  0.4741 -0.1912
   42MPD2    C3  654   0.459   0.104  14.489  0.4501 -0.7249 -0.5843
   42MPD2    C4  655   0.538   4.732  14.510 -0.5684  0.1953  0.3940
   42MPD2    C5  656   0.596   4.671  14.401  0.2287  0.1608  0.1617
   42MPD2     H  657   0.359   0.216  14.342  0.2824  0.1471 -1.1870
   42MPD2    H1  658   0.548   4.678  14.603 -2.5454 -1.6810 -0.4580
   42MPD2    H2  659   0.635   4.666  14.197  0.2530 -1.7516  1.4084
   42MPD2    H3  660   0.635   4.572  14.418 -0.5415 -0.1131  0.3588
   42MPD2     N  661   0.381   0.146  14.599 -0.0243  0.1129 -0.1484
   42MPD2    H5  662   0.374   0.085  14.680  2.1125 -0.1100 -0.1523
   42MPD2    N1  663   0.483   0.136  14.118  0.1245 -0.5067 -0.2083
   42MPD2    H7  664   0.441   0.228  14.112 -1.0489 -0.9701  0.9314
   43TMC2    C1  665   1.805   2.724   0.713 -0.5529  0.7942  0.2520
   43TMC2    C2  666   1.778   2.861   0.723  0.7970 -0.1478 -0.3172
   43TMC2    C3  667   1.801   2.924   0.846 -0.0062  0.0359 -0.7266
   43TMC2    C4  668   1.865   2.647   0.807  0.4984  0.6344  0.2514
   43TMC2    C5  669   1.893   2.718   0.923 -0.3044  0.0699  0.0999
   43TMC2    C6  670   1.854   2.853   0.945 -0.1145  0.3027  1.0167
   43TMC2     C  671   1.799   2.662   0.580  0.3449  0.6404 -0.1368
   43TMC2     O  672   1.879   2.572   0.562 -0.1617  0.0075  0.2226
   43TMC2     H  673   1.720   2.913   0.648  0.3124  1.2876  1.0424
   43TMC2    H1  674   1.896   2.547   0.779  2.3196  1.2990 -0.0868
   43TMC2    H2  675   1.859   2.904   1.041 -2.4801  1.8102  0.3324
   43TMC2    C7  676   1.981   2.661   1.019  0.1281  0.0445 -0.4311
   43TMC2    C8  677   1.741   3.057   0.860 -0.4780  0.2983 -0.2369
   43TMC2    O1  678   2.069   2.583   0.979 -0.0050 -0.2435  0.5659
   43TMC2    O2  679   1.646   3.095   0.800  0.3045 -0.1042  0.5753
   43TMC2    O5  680   1.777   3.117   0.980 -0.1027  0.9352 -1.1842
   43TMC2    H5  681   1.862   3.081   1.014  0.9240  4.1834 -0.2975
   44MPD2     C  682   1.678   2.616   0.086 -0.2009 -1.1088 -0.1579
   44MPD2    C1  683   1.799   2.586   0.158 -0.1080  0.4913 -0.1568
   44MPD2    C2  684   1.809   2.616   0.290 -0.5670  0.1196  0.2261
   44MPD2    C3  685   1.715   2.692   0.351  0.0070 -1.0103 -0.0544
   44MPD2    C4  686   1.599   2.728   0.282 -0.1015 -0.5134  0.2065
   44MPD2    C5  687   1.581   2.694   0.148  0.4230 -0.7715  0.1537
   44MPD2     H  688   1.899   2.587   0.342  0.2278  0.3103 -1.0341
   44MPD2    H1  689   1.523   2.787   0.332 -0.4186 -1.4123  0.8049
   44MPD2    H2  690   1.664   2.603  17.730 -1.0918  0.8248 -0.2853
   44MPD2    H3  691   1.492   2.731   0.097 -0.1363 -0.5133  1.3159
   44MPD2     N  692   1.717   2.730   0.490  0.3412  0.5857 -0.0437
   44MPD2    H5  693   1.640   2.781   0.532 -0.3682  0.4724 -1.2210
   44MPD2    N1  694   1.916   2.528   0.099  0.7950 -0.1115 -0.4415
   44MPD2    H7  695   1.990   2.503   0.163  2.9198 -1.0252 -3.2700
   45TMC2    C1  696   2.793   0.243   9.610 -0.1833  0.3392  0.4303
   45TMC2    C2  697   2.812   0.137   9.692 -0.0391 -0.4442  0.8886
   45TMC2    C3  698   2.855   0.163   9.819 -0.3561  0.1814  0.1004
   45TMC2    C4  699   2.832   0.372   9.643 -0.2701 -0.7185 -0.3826
   45TMC2    C5  700   2.889   0.382   9.762 -0.1246 -0.5416  0.0398
   45TMC2    C6  701   2.902   0.287   9.855 -0.6252 -0.7620 -0.3406
   45TMC2     C  702   2.719   0.207   9.491 -0.0898 -0.1276 -1.0014
   45TMC2     O  703   2.686   0.087   9.479 -0.0959 -0.4746  0.4573
   45TMC2     H  704   2.765   0.041   9.677 -1.0621  0.3143 -0.7401
   45TMC2    H1  705   2.799   0.448   9.573 -1.1584 -1.4026 -0.7042
   45TMC2    H2  706   2.933   0.316   9.955  0.6863  3.6961 -2.0267
   45TMC2    C7  707   2.942   0.510   9.806 -0.1041  0.0329 -0.0226
   45TMC2    C8  708   2.892   0.056   9.908  0.4580 -0.1155 -0.9628
   45TMC2    O1  709   2.952   0.527   9.930 -0.5044 -0.6051 -0.5118
   45TMC2    O2  710   2.980   0.068   9.986 -0.0469  0.5083 -0.2019
   45TMC2    O5  711   2.816   4.687   9.880 -0.2202 -0.6876  0.1125
   45TMC2    H5  712   2.732   4.711   9.835  0.1738 -0.6761 -0.6263
   46MPD2     C  713   2.520   0.194   9.253 -0.0016 -0.0004  0.2764
   46MPD2    C1  714   2.556   0.306   9.331 -0.1873  0.0803 -0.2271
   46MPD2    C2  715   2.496   0.425   9.293 -0.4715 -0.7663 -0.4991
   46MPD2    C3  716   2.392   0.430   9.204  0.2866  0.2673  0.2919
   46MPD2    C4  717   2.356   0.320   9.131 -0.4999  0.0070 -0.1445
   46MPD2    C5  718   2.418   0.201   9.161  0.3633  0.2162 -0.5576
   46MPD2     H  719   2.523   0.515   9.347  0.1510 -0.7707 -0.8008
   46MPD2    H1  720   2.276   0.316   9.058 -0.4650  1.7186 -0.2720
   46MPD2    H2  721   2.581   0.105   9.263  2.2457  1.6686  1.4305
   46MPD2    H3  722   2.400   0.114   9.100 -0.4985  2.3905 -3.3932
   46MPD2     N  723   2.323   0.553   9.198  1.0041 -0.1750  0.3940
   46MPD2    H5  724   2.363   0.638   9.236  2.7646  0.3250 -2.5748
   46MPD2    N1  725   2.663   0.312   9.426  0.4225 -0.1964  0.3313
   46MPD2    H7  726   2.677   0.408   9.458  1.1108  0.0412 -0.6867
   47TMC2    C1  727   0.021   1.218   8.917 -0.4008  0.2402 -0.8461
   47TMC2    C2  728   4.733   1.183   8.786  0.1004  0.4255 -0.9381
   47TMC2    C3  729   4.606   1.203   8.738  0.3600  0.2625 -0.1738
   47TMC2    C4  730   4.674   1.292   8.995 -0.3721  0.0455 -0.0203
   47TMC2    C5  731   4.558   1.322   8.932 -0.2144  0.4495 -0.1215
   47TMC2    C6  732   4.515   1.273   8.813  0.0583 -0.1024  0.9689
   47TMC2     C  733   0.162   1.224   8.951  0.0504  0.1167 -0.0567
   47TMC2     O  734   0.202   1.328   9.009 -0.2503  0.4817  0.4988
   47TMC2     H  735   0.072   1.141   8.722  0.4432 -0.9236  0.3767
   47TMC2    H1  736   4.710   1.338   9.086 -0.8820  1.0489 -0.3299
   47TMC2    H2  737   4.423   1.306   8.766 -0.0098 -0.6465  0.7244
   47TMC2    C7  738   4.471   1.408   9.010  0.4451  0.6564  0.9810
   47TMC2    C8  739   4.597   1.182   8.595 -0.5728 -0.4545  0.3182
   47TMC2    O1  740   4.523   1.467   9.103 -0.2513 -0.3743 -0.1675
   47TMC2    O2  741   4.516   1.245   8.530 -0.3844 -0.4504 -0.8534
   47TMC2    O5  742   4.647   1.060   8.556 -0.7102  0.4523 -0.3030
   47TMC2    H5  743   4.691   1.017   8.633  0.5760  0.0052 -1.2869
   48MPD2     C  744   0.444   1.147   9.024 -0.4259 -0.1645 -0.6856
   48MPD2    C1  745   0.346   1.056   8.989  0.2179  0.4539 -0.1808
   48MPD2    C2  746   0.366   0.925   9.013 -0.2303 -0.0016 -0.0662
   48MPD2    C3  747   0.486   0.875   9.066 -0.7046  0.0076  0.5632
   48MPD2    C4  748   0.585   0.968   9.098 -1.1192 -0.8395  0.0842
   48MPD2    C5  749   0.567   1.098   9.064  1.1318  0.0804 -0.1736
   48MPD2     H  750   0.289   0.848   9.010 -1.3120  1.0409  1.1690
   48MPD2    H1  751   0.676   0.938   9.147 -0.6175  0.3154 -0.1341
   48MPD2    H2  752   0.428   1.254   9.018 -0.5944 -0.2397 -1.5069
   48MPD2    H3  753   0.645   1.171   9.083 -1.6595  2.3740  2.4444
   48MPD2     N  754   0.496   0.738   9.095  0.2478  0.3361 -1.0283
   48MPD2    H5  755   0.429   0.678   9.049  0.6933 -2.0096  1.3491
   48MPD2    N1  756   0.223   1.100   8.935 -0.4841 -0.0168 -0.9902
   48MPD2    H7  757   0.166   1.023   8.902 -1.5131  0.7838 -1.0806
   49TMC2    C1  758   3.475   3.381  10.110 -0.1599  0.6024 -0.3467
   49TMC2    C2  759   3.509   3.488  10.027  0.1832 -0.1518 -0.0085
   49TMC2    C3  760   3.461   3.483   9.902 -1.0788  0.4601  0.6152
   49TMC2    C4  761   3.405   3.279  10.062 -0.6849 -0.0085 -0.0383
   49TMC2    C5  762   3.362   3.276   9.934 -0.3651  0.3135 -0.0792
   49TMC2    C6  763   3.377   3.385   9.852  0.6902 -0.0692 -0.2417
   49TMC2     C  764   3.485   3.413  10.252 -0.2669 -0.2404  0.0421
   49TMC2     O  765   3.536   3.519  10.275  0.1438 -0.6850 -0.7444
   49TMC2     H  766   3.573   3.574  10.046 -0.8562  1.0658 -1.9847
   49TMC2    H1  767   3.380   3.198  10.131 -1.0854 -0.4753 -0.7407
   49TMC2    H2  768   3.357   3.373   9.747  0.2890  1.6159 -0.3488
   49TMC2    C7  769   3.299   3.152   9.882 -0.8834  0.0772 -0.1346
   49TMC2    C8  770   3.473   3.595   9.810  0.2803  1.3390  0.1570
   49TMC2    O1  771   3.320   3.042   9.935  0.3220  0.0985 -0.3300
   49TMC2    O2  772   3.454   3.591   9.690  0.2754  0.3300 -0.1731
   49TMC2    O5  773   3.417   3.699   9.875  0.1927 -0.2486  0.0847
   49TMC2    H5  774   3.426   3.715   9.971 -1.5061 -2.1051  0.5725
   50MPD2     C  775   3.578   3.369  10.522  0.2325 -0.1523 -0.1225
   50MPD2    C1  776   3.459   3.311  10.472 -0.0386  0.3560  0.0023
   50MPD2    C2  777   3.374   3.243  10.553  0.4998  0.0892  0.5018
   50MPD2    C3  778   3.413   3.228  10.689  0.8495  0.0129 -0.0072
   50MPD2    C4  779   3.538   3.278  10.728 -0.6951  0.2137 -0.0876
   50MPD2    C5  780   3.626   3.337  10.646 -0.5830 -0.5222 -0.0832
   50MPD2     H  781   3.280   3.202  10.519  0.1989  1.0496  0.1804
   50MPD2    H1  782   3.569   3.252  10.829 -2.2251 -0.2594  0.2706
   50MPD2    H2  783   3.644   3.423  10.455 -0.6634  0.5130 -0.4666
   50MPD2    H3  784   3.719   3.385  10.677 -0.7229  0.6718 -1.5807
   50MPD2     N  785   3.327   3.173  10.792 -0.1553  0.1919  0.4581
   50MPD2    H5  786   3.366   3.170  10.885  0.4853  0.4467  0.1995
   50MPD2    N1  787   3.438   3.310  10.336 -0.0555  0.4980 -0.2355
   50MPD2    H7  788   3.376   3.236  10.306 -0.0867  0.6694 -0.5994
   51TMC2    C1  789   3.355   1.555   1.355  0.4777 -0.5109 -0.1477
   51TMC2    C2  790   3.241   1.590   1.427  0.3316 -0.2356 -0.0618
   51TMC2    C3  791   3.259   1.663   1.542 -0.1188  0.1112 -0.2211
   51TMC2    C4  792   3.481   1.611   1.382 -0.0285  0.9827  0.7742
   51TMC2    C5  793   3.489   1.700   1.488 -0.2664  1.1165 -0.2640
   51TMC2    C6  794   3.379   1.729   1.564 -0.0227 -0.4757  0.0449
   51TMC2     C  795   3.354   1.421   1.296  0.5706 -1.1103 -0.3465
   51TMC2     O  796   3.457   1.349   1.292 -0.0948 -0.0258  0.1476
   51TMC2     H  797   3.142   1.547   1.424 -0.8445  2.2808  3.0957
   51TMC2    H1  798   3.574   1.572   1.341  0.0319  2.3882 -0.4227
   51TMC2    H2  799   3.393   1.803   1.642  0.8011  1.4348 -1.9167
   51TMC2    C7  800   3.609   1.784   1.491 -0.1263 -0.5509 -0.0209
   51TMC2    C8  801   3.150   1.735   1.592 -1.1093  0.5172 -0.9586
   51TMC2    O1  802   3.713   1.737   1.450  0.3555 -0.5592 -0.3975
   51TMC2    O2  803   3.154   1.779   1.706 -0.0585  0.3867 -0.3211
   51TMC2    O5  804   3.122   1.813   1.481  1.0170 -0.1488  0.0415
   51TMC2    H5  805   3.131   1.772   1.393  1.9355 -0.4195  0.2648
   52MPD2     C  806   3.114   0.966   1.217 -0.6573 -0.3926  0.0770
   52MPD2    C1  807   3.244   0.993   1.245  0.1886  0.0460 -0.3201
   52MPD2    C2  808   3.286   1.127   1.257  0.0601 -0.1806 -0.8175
   52MPD2    C3  809   3.196   1.231   1.261  0.2893 -0.3307 -0.0807
   52MPD2    C4  810   3.063   1.202   1.232  0.3675  0.4187 -0.3952
   52MPD2    C5  811   3.030   1.075   1.198 -0.2576 -0.1968  0.0135
   52MPD2     H  812   3.392   1.149   1.268 -0.1609  0.5811 -0.2252
   52MPD2    H1  813   2.990   1.281   1.220  0.1437 -0.0545 -2.1732
   52MPD2    H2  814   3.077   0.867   1.193  0.5618 -0.4805 -1.4647
   52MPD2    H3  815   2.925   1.059   1.176 -0.6769  0.6871  1.3856
   52MPD2     N  816   3.227   1.372   1.274  0.1555  0.3555  0.2814
   52MPD2    H5  817   3.147   1.433   1.267 -0.4050 -0.5330 -1.0386
   52MPD2    N1  818   3.350   0.895   1.244  0.5371  0.3549 -0.5680
   52MPD2    H7  819   3.444   0.929   1.263  0.0146  0.6840  1.4610
   53TMC2    C1  820   4.016   0.511  11.735 -0.3266 -0.1320  0.5122
   53TMC2    C2  821   4.121   0.479  11.657  0.8056 -0.5956  0.0901
   53TMC2    C3  822   4.143   0.350  11.623  0.4382  0.4133 -0.4071
   53TMC2    C4  823   3.918   0.418  11.761  0.0134  0.0193 -0.2386
   53TMC2    C5  824   3.941   0.291  11.720 -0.4879 -0.1734  0.4224
   53TMC2    C6  825   4.051   0.255  11.653  0.2451  0.0889  0.5568
   53TMC2     C  826   4.009   0.650  11.780 -0.6469  0.5130  0.2805
   53TMC2     O  827   4.111   0.719  11.772  1.0031 -0.2628  0.0510
   53TMC2     H  828   4.190   0.554  11.620  1.1893 -1.1349 -0.2897
   53TMC2    H1  829   3.827   0.433  11.819  0.8621  0.3796  1.0019
   53TMC2    H2  830   4.056   0.158  11.605  0.5273 -0.1807  1.1199
   53TMC2    C7  831   3.843   0.193  11.761  0.0914  0.4758  0.1901
   53TMC2    C8  832   4.256   0.318  11.540 -0.5102  0.0894 -0.8498
   53TMC2    O1  833   3.730   0.232  11.794 -0.2854 -0.3391  0.4189
   53TMC2    O2  834   4.319   0.394  11.467 -0.3017 -0.0017 -0.1738
   53TMC2    O5  835   4.306   0.209  11.595  0.0763  0.0956 -0.2963
   53TMC2    H5  836   4.244   0.156  11.650 -1.6893 -1.6875 -4.0164
   54MPD2     C  837   3.896   0.925  11.780  0.1759  0.6199  0.1917
   54MPD2    C1  838   3.823   0.811  11.742  0.2255  0.5198 -0.2188
   54MPD2    C2  839   3.692   0.821  11.702  0.6231  0.2481  0.3567
   54MPD2    C3  840   3.632   0.949  11.701 -0.0471 -0.4547  0.7773
   54MPD2    C4  841   3.707   1.057  11.742  0.7076 -1.1154 -0.1388
   54MPD2    C5  842   3.841   1.047  11.767  0.3154 -0.0568  0.0908
   54MPD2     H  843   3.646   0.729  11.666 -1.1407  1.6271 -0.8710
   54MPD2    H1  844   3.659   1.155  11.742 -1.3798 -2.1279 -0.9968
   54MPD2    H2  845   3.995   0.921  11.824  0.2640 -0.7264 -0.1402
   54MPD2    H3  846   3.896   1.133  11.803  0.3665 -0.7962  1.7455
   54MPD2     N  847   3.501   0.964  11.645  0.5846 -0.3670  0.5268
   54MPD2    H5  848   3.479   1.062  11.637  2.1453 -0.0898 -0.2167
   54MPD2    N1  849   3.878   0.678  11.757  0.1176  0.3530  0.0333
   54MPD2    H7  850   3.810   0.603  11.752  1.6519 -0.9293 -1.5125
   55TMC2    C1  851   0.080   1.981   1.346  0.3944  0.2484  0.1874
   55TMC2    C2  852   0.188   1.930   1.414  0.2970  0.3441  0.0503
   55TMC2    C3  853   0.171   1.822   1.490  0.0046  0.5438 -0.4435
   55TMC2    C4  854   4.701   1.924   1.363 -0.7609 -0.2285 -0.0191
   55TMC2    C5  855   4.682   1.815   1.446 -0.5681 -0.6234  0.4443
   55TMC2    C6  856   0.049   1.765   1.514  0.7412  0.0903 -0.1445
   55TMC2     C  857   0.083   2.113   1.290 -0.3233 -0.6610 -0.3078
   55TMC2     O  858   4.714   2.173   1.307 -0.1795  0.4171  0.2352
   55TMC2     H  859   0.287   1.968   1.392  1.1392 -1.5044  0.6664
   55TMC2    H1  860   4.616   1.949   1.301 -1.4255  1.2436  1.4684
   55TMC2    H2  861   0.035   1.681   1.580  0.0086 -0.0027 -0.4138
   55TMC2    C7  862   4.556   1.739   1.452 -0.3600  0.2140 -0.4589
   55TMC2    C8  863   0.293   1.752   1.529 -0.4313 -0.4052  0.3206
   55TMC2    O1  864   4.568   1.616   1.467 -0.2185 -0.1638  0.7890
   55TMC2    O2  865   0.293   1.631   1.551 -0.5501 -0.0618 -0.3485
   55TMC2    O5  866   0.365   1.839   1.604  0.5995 -0.2826  0.1198
   55TMC2    H5  867   0.324   1.925   1.622 -0.0522 -0.5753  0.0303
   56MPD2     C  868   0.309   2.242   1.037 -0.0315  0.0231 -0.2124
   56MPD2    C1  869   0.190   2.228   1.103 -0.2481 -0.3073 -0.4638
   56MPD2    C2  870   0.075   2.291   1.059  0.1177  0.2345  0.1831
   56MPD2    C3  871   0.078   2.360   0.939 -1.0693  0.4123 -0.6106
   56MPD2    C4  872   0.195   2.371   0.864  0.4526  0.4474  0.1108
   56MPD2    C5  873   0.311   2.312   0.919 -0.2049 -0.2875  0.0653
   56MPD2     H  874   4.716   2.281   1.106 -0.2762  1.1020 -0.4534
   56MPD2    H1  875   0.199   2.418   0.767 -1.9351  0.4420  0.0200
   56MPD2    H2  876   0.394   2.190   1.077 -1.5326 -2.6600 -0.5007
   56MPD2    H3  877   0.398   2.321   0.856  0.0666  3.5042  0.9772
   56MPD2     N  878   4.700   2.435   0.914  0.3563  0.8341 -0.4341
   56MPD2    H5  879   4.619   2.427   0.974 -0.1893  0.3855 -1.2242
   56MPD2    N1  880   0.193   2.134   1.212 -0.1188  0.6997  0.3890
   56MPD2    H7  881   0.272   2.071   1.215 -0.0762  0.5183 -4.5258
   57TMC2    C1  882   4.128   3.427  13.624 -0.0851  0.8327  0.3442
   57TMC2    C2  883   4.211   3.434  13.732  0.1672  0.2510  0.0634
   57TMC2    C3  884   4.344   3.459  13.716  0.6345  0.0351 -0.5908
   57TMC2    C4  885   4.170   3.469  13.499 -0.5250  0.3901  0.4595
   57TMC2    C5  886   4.306   3.472  13.482 -0.2851  0.3654  0.3872
   57TMC2    C6  887   4.391   3.472  13.589  0.4814 -0.2075  0.4271
   57TMC2     C  888   3.983   3.452  13.645  0.0855  0.6688 -0.8477
   57TMC2     O  889   3.952   3.516  13.749  0.3365  0.0189  0.1966
   57TMC2     H  890   4.165   3.414  13.829  0.1291 -0.7751 -0.1672
   57TMC2    H1  891   4.107   3.480  13.412  1.2803  0.3954 -0.8452
   57TMC2    H2  892   4.496   3.476  13.561  0.3393  1.4238  0.0763
   57TMC2    C7  893   4.354   3.480  13.348  0.0625  0.0911  0.9752
   57TMC2    C8  894   4.439   3.476  13.826 -0.6589 -0.4572  0.1314
   57TMC2    O1  895   4.281   3.530  13.261 -0.2135 -0.5108  0.1214
   57TMC2    O2  896   4.556   3.442  13.823 -0.0791 -0.3227  0.0499
   57TMC2    O5  897   4.370   3.517  13.938 -0.4024  0.2904 -0.0852
   57TMC2    H5  898   4.281   3.555  13.921  0.3864  2.0921 -0.2409
   58MPD2     C  899   3.497   3.432  13.512  0.4086 -0.1276  0.9922
   58MPD2    C1  900   3.556   3.485  13.621 -0.2804 -0.5466 -0.5100
   58MPD2    C2  901   3.695   3.482  13.636  0.6629  0.4655 -0.1367
   58MPD2    C3  902   3.771   3.418  13.540  0.0212  0.0925 -0.2696
   58MPD2    C4  903   3.707   3.360  13.439 -0.0134 -0.9554 -0.5143
   58MPD2    C5  904   3.570   3.376  13.415 -0.1315 -0.0033 -0.4256
   58MPD2     H  905   3.740   3.536  13.719  0.3875  3.0980 -1.6856
   58MPD2    H1  906   3.771   3.319  13.361  1.2588  1.2141 -0.5957
   58MPD2    H2  907   3.390   3.441  13.500  0.6577  1.6373  0.2208
   58MPD2    H3  908   3.529   3.330  13.326 -2.6426 -0.0882  0.7740
   58MPD2     N  909   3.911   3.401  13.545  0.1658 -0.2415  0.6455
   58MPD2    H5  910   3.957   3.335  13.482  0.1555 -0.3720  0.7759
   58MPD2    N1  911   3.483   3.561  13.721  0.1173 -0.2001 -0.3427
   58MPD2    H7  912   3.546   3.608  13.786  0.0765 -0.0739 -0.3938
   59TMC2    C1  913   1.570   3.619  12.731 -0.3736  0.2332 -0.0708
   59TMC2    C2  914   1.530   3.491  12.728 -0.2835 -0.3425  0.6626
   59TMC2    C3  915   1.514   3.432  12.609 -0.1445 -0.9759 -0.5722
   59TMC2    C4  916   1.597   3.691  12.618 -0.0091 -0.5696 -0.3939
   59TMC2    C5  917   1.579   3.633  12.500  0.2527 -0.0571 -0.2780
   59TMC2    C6  918   1.543   3.501  12.496  0.3221  0.7798  0.1243
   59TMC2     C  919   1.606   3.665  12.866  0.0546  0.0112  0.6350
   59TMC2     O  920   1.675   3.583  12.929  0.6675 -0.1678 -0.0719
   59TMC2     H  921   1.499   3.439  12.818  2.7591 -0.8578  1.3838
   59TMC2    H1  922   1.634   3.793  12.626  2.2062 -1.4003  0.0063
   59TMC2    H2  923   1.524   3.458  12.398 -1.3714 -0.5175  1.0270
   59TMC2    C7  924   1.597   3.706  12.381 -0.0118  0.6040 -0.6482
   59TMC2    C8  925   1.411   3.328  12.582  1.0553 -0.0925 -0.2120
   59TMC2    O1  926   1.611   3.640  12.278 -0.5688 -0.6127  0.3160
   59TMC2    O2  927   1.299   3.326  12.632 -0.0177  0.2320  0.0824
   59TMC2    O5  928   1.458   3.241  12.496 -0.5907  0.0598  0.2719
   59TMC2    H5  929   1.553   3.258  12.480 -0.2558 -0.4042  1.7055
   60MPD2     C  930   1.587   4.010  12.992  0.5610 -0.5584  0.7845
   60MPD2    C1  931   1.639   3.884  12.986 -0.5176  0.2680 -1.0357
   60MPD2    C2  932   1.745   3.842  13.071 -0.0819  0.5262 -0.1552
   60MPD2    C3  933   1.795   3.927  13.169 -0.0497 -0.2331  0.0736
   60MPD2    C4  934   1.740   4.053  13.180 -0.0410 -0.3899  0.0744
   60MPD2    C5  935   1.640   4.091  13.096 -0.2060 -0.3719 -0.1951
   60MPD2     H  936   1.791   3.747  13.048  0.7632  0.6144  1.1669
   60MPD2    H1  937   1.774   4.122  13.257  0.7553 -0.6946 -0.0049
   60MPD2    H2  938   1.507   4.048  12.930  1.9769  1.0643 -0.0385
   60MPD2    H3  939   1.595   4.190  13.105  0.2867  0.1327 -3.4354
   60MPD2     N  940   1.898   3.895  13.261  0.0404 -0.1276 -0.3657
   60MPD2    H5  941   1.920   3.961  13.335  1.1656 -0.7385 -0.1571
   60MPD2    N1  942   1.576   3.796  12.892  0.9252 -0.4282 -0.1316
   60MPD2    H7  943   1.516   3.837  12.821  0.2814 -0.0002  0.6668
   61TMC2    C1  944   0.646   0.374  15.144  0.4565 -0.0275 -0.0709
   61TMC2    C2  945   0.546   0.331  15.228  0.2720  0.4573 -0.0758
   61TMC2    C3  946   0.543   0.387  15.349 -0.6809 -0.8279 -0.2698
   61TMC2    C4  947   0.742   0.463  15.177  0.6730  1.0873  0.1404
   61TMC2    C5  948   0.738   0.517  15.304 -0.3889  0.0818  0.2142
   61TMC2    C6  949   0.636   0.484  15.388 -0.3370 -0.2295  0.7643
   61TMC2     C  950   0.629   0.349  15.005  0.0239 -0.4633 -0.4993
   61TMC2     O  951   0.579   0.247  14.961 -0.0415  0.1210  0.0388
   61TMC2     H  952   0.466   0.275  15.180 -0.9035  1.2807  0.9143
   61TMC2    H1  953   0.830   0.470  15.115  0.1651 -0.7645 -0.7962
   61TMC2    H2  954   0.611   0.541  15.478  1.9253 -1.3898  2.1068
   61TMC2    C7  955   0.815   0.638  15.317  0.4340  0.0464 -0.2751
   61TMC2    C8  956   0.415   0.410  15.411  0.1801  0.0753  0.0310
   61TMC2    O1  957   0.850   0.688  15.209  0.0923 -0.2622 -0.2263
   61TMC2    O2  958   0.371   0.517  15.433 -0.2493 -0.3476  0.0932
   61TMC2    O5  959   0.348   0.297  15.393 -0.0752  0.3553 -0.3746
   61TMC2    H5  960   0.404   0.230  15.347 -1.3022  0.2258 -1.7009
   62MPD2     C  961   0.706   0.334  14.719 -0.5809  0.3590  0.6467
   62MPD2    C1  962   0.704   0.448  14.794  0.4623 -0.3461  0.2477
   62MPD2    C2  963   0.737   0.567  14.733 -0.5522 -0.6613  0.2156
   62MPD2    C3  964   0.779   0.572  14.605 -0.4498 -0.8975  0.2648
   62MPD2    C4  965   0.777   0.463  14.522  0.4829 -0.3696 -0.4655
   62MPD2    C5  966   0.730   0.347  14.580 -0.3092 -0.1102 -0.0017
   62MPD2     H  967   0.738   0.657  14.793 -1.0022 -0.2212 -0.4232
   62MPD2    H1  968   0.804   0.460  14.417  1.2293 -1.8084 -0.2363
   62MPD2    H2  969   0.676   0.235  14.753 -3.3202  1.2349  0.7659
   62MPD2    H3  970   0.717   0.258  14.521  0.5992 -1.1249  1.3151
   62MPD2     N  971   0.827   0.694  14.557 -0.6170  0.4815  0.3113
   62MPD2    H5  972   0.800   0.771  14.617  1.5308  1.6460 -0.2190
   62MPD2    N1  973   0.675   0.453  14.932 -0.3043 -0.2637  0.3496
   62MPD2    H7  974   0.688   0.539  14.985  1.6215  0.6022 -1.5208
   63TMC2    C1  975   0.386   0.726  10.068 -0.0835 -0.5675  0.8410
   63TMC2    C2  976   0.522   0.726  10.095 -0.2539 -1.2131 -0.6629
   63TMC2    C3  977   0.604   0.785  10.008 -0.0000 -0.2233  0.1029
   63TMC2    C4  978   0.339   0.793   9.961 -0.3384 -0.4556 -0.1602
   63TMC2    C5  979   0.419   0.857   9.877  0.2164  0.7056  0.2497
   63TMC2    C6  980   0.558   0.839   9.885  0.0834  0.1702  0.0243
   63TMC2     C  981   0.296   0.735  10.179 -0.1376 -0.2578 -0.8221
   63TMC2     O  982   0.198   0.811  10.159 -0.2260 -0.3120  0.4922
   63TMC2     H  983   0.555   0.708  10.196 -3.2197 -1.1148  0.3346
   63TMC2    H1  984   0.231   0.806   9.954 -0.4841 -0.7045  1.4523
   63TMC2    H2  985   0.627   0.859   9.805  2.9723 -0.3903  2.3752
   63TMC2    C7  986   0.360   0.942   9.784  0.1353 -0.7505  0.0067
   63TMC2    C8  987   0.749   0.767  10.033  0.0246 -0.2675  0.1209
   63TMC2    O1  988   0.279   1.021   9.829 -0.5540 -0.1182  0.4880
   63TMC2    O2  989   0.794   0.687  10.114  0.2146 -0.3947 -0.4983
   63TMC2    O5  990   0.811   0.849   9.946 -0.3512 -0.1853  0.1446
   63TMC2    H5  991   0.764   0.924   9.904 -0.3289  0.5439  1.4279
   64MPD2     C  992   0.071   0.486  10.539 -0.2195 -0.4182 -0.2311
   64MPD2    C1  993   0.194   0.426  10.528  0.1123 -0.0622 -0.0415
   64MPD2    C2  994   0.275   0.477  10.436  0.8555 -0.3183  0.3808
   64MPD2    C3  995   0.235   0.587  10.364 -0.0921 -0.7170 -0.4274
   64MPD2    C4  996   0.114   0.650  10.383  0.1215  0.0449  0.3953
   64MPD2    C5  997   0.026   0.591  10.463  1.2954  0.6015 -0.0731
   64MPD2     H  998   0.373   0.431  10.429  1.0385 -0.1720  1.9574
   64MPD2    H1  999   0.080   0.734  10.322  0.4115  0.0419  0.2264
   64MPD2    H2 1000   0.002   0.460  10.619  0.6846 -3.6563 -0.5206
   64MPD2    H3 1001   4.670   0.640  10.484  0.7560 -0.6070  0.3035
   64MPD2     N 1002   0.321   0.635  10.267  0.1227  0.4337 -0.9325
   64MPD2    H5 1003   0.400   0.573  10.249 -0.6337 -1.0023  0.7038
   64MPD2    N1 1004   0.228   0.308  10.605 -0.7853 -0.2013  0.4901
   64MPD2    H7 1005   0.323   0.274  10.606 -0.4153  0.8145  0.0785
   65TMC2    C1 1006   1.773   0.261  15.392  0.2400  0.1447  0.4435
   65TMC2    C2 1007   1.796   0.222  15.264  0.0111  0.1763 -0.6002
   65TMC2    C3 1008   1.856   0.312  15.179 -0.6446 -0.8862 -0.0691
   65TMC2    C4 1009   1.795   0.391  15.429 -0.1969  0.4098  0.1000
   65TMC2    C5 1010   1.862   0.474  15.342 -0.6860  0.0047  0.2743
   65TMC2    C6 1011   1.889   0.440  15.209 -0.3737 -0.1114 -0.3805
   65TMC2     C 1012   1.718   0.166  15.483 -0.2077 -0.1467 -0.3564
   65TMC2     O 1013   1.715   0.197  15.601 -0.1759 -0.3396  0.3253
   65TMC2     H 1014   1.775   0.124  15.224 -2.0667  0.8754 -1.2431
   65TMC2    H1 1015   1.785   0.416  15.534 -0.6578 -2.0561  0.6268
   65TMC2    H2 1016   1.953   0.504  15.151 -1.2142  0.0294 -1.1485
   65TMC2    C7 1017   1.898   0.610  15.375 -0.6705 -0.0963  0.0126
   65TMC2    C8 1018   1.928   0.262  15.062  0.5341  0.3421 -0.2405
   65TMC2    O1 1019   1.964   0.676  15.296 -0.1427  0.3216  0.2428
   65TMC2    O2 1020   1.958   0.337  14.969 -0.6713  0.2964 -0.1287
   65TMC2    O5 1021   1.955   0.128  15.072 -0.1473 -0.0158 -0.3850
   65TMC2    H5 1022   1.963   0.110  15.168  1.2173  1.0260 -0.3000
   66MPD2     C 1023   1.655   4.656  15.631 -0.4027 -0.1182  0.0268
   66MPD2    C1 1024   1.641   4.661  15.492  0.1905  0.2334 -0.6289
   66MPD2    C2 1025   1.600   4.555  15.419  0.3284  0.1058 -0.3812
   66MPD2    C3 1026   1.538   4.449  15.485 -0.2214  0.1599 -0.4376
   66MPD2    C4 1027   1.546   4.433  15.620  0.1991  0.1859 -0.3717
   66MPD2    C5 1028   1.605   4.540  15.691 -0.0419 -0.3950  0.4194
   66MPD2     H 1029   1.604   4.568  15.312 -1.1637 -1.1468 -0.5975
   66MPD2    H1 1030   1.503   4.345  15.667 -2.0855 -0.0068 -2.8365
   66MPD2    H2 1031   1.701   4.733  15.691  0.8663 -0.3589 -0.6314
   66MPD2    H3 1032   1.611   4.536  15.799  0.2906  0.5250  0.4390
   66MPD2     N 1033   1.466   4.352  15.417  1.1657 -0.2212  0.2432
   66MPD2    H5 1034   1.413   4.294  15.482  0.6603 -0.5082 -0.4230
   66MPD2    N1 1035   1.690   0.038  15.425  0.1758  0.4746  0.3541
   66MPD2    H7 1036   1.690   0.034  15.324 -1.2493 -1.4157  0.4309
   67TMC2    C1 1037   1.484   4.197  14.703 -0.2001  0.5031 -0.7456
   67TMC2    C2 1038   1.417   4.312  14.727 -0.4298  0.0844  0.0521
   67TMC2    C3 1039   1.473   4.392  14.823  0.0303  0.5161  0.7587
   67TMC2    C4 1040   1.596   4.147  14.774  0.3720  0.8210 -0.6315
   67TMC2    C5 1041   1.642   4.236  14.870 -0.6346  0.2695 -0.7784
   67TMC2    C6 1042   1.582   4.360  14.889 -0.7057 -0.3071  0.5506
   67TMC2     C 1043   1.435   4.119  14.592  0.4704  0.4050  0.3033
   67TMC2     O 1044   1.468   4.003  14.602 -0.0774  0.1574  0.1695
   67TMC2     H 1045   1.322   4.332  14.678 -0.6483  0.7260  0.7470
   67TMC2    H1 1046   1.631   4.046  14.755 -0.2772  0.0218  2.4081
   67TMC2    H2 1047   1.624   4.418  14.971  1.5501 -1.9730  0.5779
   67TMC2    C7 1048   1.756   4.195  14.948  0.7113  0.5302 -0.1174
   67TMC2    C8 1049   1.413   4.524  14.857 -0.1181  0.0271  0.1894
   67TMC2    O1 1050   1.837   4.125  14.888  0.2009  0.2184 -0.4335
   67TMC2    O2 1051   1.450   4.603  14.947  0.4489 -0.8559 -0.4453
   67TMC2    O5 1052   1.368   4.571  14.738 -0.0142 -0.3056  0.7044
   67TMC2    H5 1053   1.377   4.499  14.671 -0.6136 -0.9643  1.3391
   68MPD2     C 1054   1.368   3.999  14.329 -0.2644  0.3104 -0.1561
   68MPD2    C1 1055   1.379   4.137  14.352 -0.9824 -0.1968 -0.1537
   68MPD2    C2 1056   1.335   4.229  14.259  0.0351 -0.1972 -0.0982
   68MPD2    C3 1057   1.268   4.186  14.142  0.4314  0.1041  0.3898
   68MPD2    C4 1058   1.254   4.049  14.120  0.2642 -0.7560  0.0309
   68MPD2    C5 1059   1.312   3.964  14.212  0.5404 -0.2944  0.1194
   68MPD2     H 1060   1.321   4.333  14.286  0.3196  0.0478 -0.8798
   68MPD2    H1 1061   1.205   3.997  14.038 -1.3497 -1.7164  1.6087
   68MPD2    H2 1062   1.394   3.921  14.400 -2.5992 -1.4052 -1.1549
   68MPD2    H3 1063   1.295   3.858  14.193  2.0403 -0.6793  0.9553
   68MPD2     N 1064   1.199   4.271  14.053  0.1576 -0.5853 -0.3052
   68MPD2    H5 1065   1.139   4.226  13.984 -0.0822 -1.6917  0.6405
   68MPD2    N1 1066   1.421   4.184  14.479 -0.6818  0.3570  0.4989
   68MPD2    H7 1067   1.432   4.283  14.497 -1.1042  0.2934  1.0929
   69TMC2    C1 1068   3.543   0.432  12.227 -0.1209 -0.3553  1.3281
   69TMC2    C2 1069   3.438   0.501  12.280  0.0218  0.6995 -0.0510
   69TMC2    C3 1070   3.453   0.640  12.280  0.1362 -0.2396 -0.4629
   69TMC2    C4 1071   3.662   0.484  12.192  0.2824 -0.0041 -0.2400
   69TMC2    C5 1072   3.669   0.621  12.193 -0.1009  0.0038  0.2423
   69TMC2    C6 1073   3.568   0.701  12.246  0.2780  0.3318 -0.2363
   69TMC2     C 1074   3.526   0.288  12.229  0.8269 -0.3855 -0.1877
   69TMC2     O 1075   3.407   0.253  12.242 -0.3330 -0.5828  0.1511
   69TMC2     H 1076   3.345   0.458  12.316  0.5044 -0.9507 -0.7580
   69TMC2    H1 1077   3.739   0.423  12.146 -1.6761 -2.8467  0.2511
   69TMC2    H2 1078   3.570   0.810  12.250  0.9127  0.3294 -0.5306
   69TMC2    C7 1079   3.794   0.673  12.154  0.5091  0.1838  0.0100
   69TMC2    C8 1080   3.362   0.707  12.369  1.0803 -0.4094 -0.3762
   69TMC2    O1 1081   3.878   0.586  12.136  0.1296  0.1355 -0.1873
   69TMC2    O2 1082   3.287   0.661  12.453 -0.4104 -0.8409  0.3256
   69TMC2    O5 1083   3.360   0.836  12.357  0.2725  0.7985  0.0013
   69TMC2    H5 1084   3.392   0.869  12.271  2.2939  0.6991  0.7271
   70MPD2     C 1085   3.757   0.019  12.172  0.2272 -0.1300 -0.0895
   70MPD2    C1 1086   3.649   0.070  12.227  0.4674 -0.5273  0.6449
   70MPD2    C2 1087   3.554   4.729  12.297 -0.2632 -0.3346  0.4739
   70MPD2    C3 1088   3.584   4.596  12.315 -0.0139 -0.2717  0.2748
   70MPD2    C4 1089   3.692   4.543  12.253 -0.7433 -0.4872  0.5459
   70MPD2    C5 1090   3.782   4.629  12.192  0.6795  0.1912  0.4428
   70MPD2     H 1091   3.460   0.031  12.335 -0.7686 -0.9629 -0.1052
   70MPD2    H1 1092   3.726   4.444  12.278 -0.1418  0.0385  1.8172
   70MPD2    H2 1093   3.823   0.078  12.109 -0.3855  0.7708  0.1097
   70MPD2    H3 1094   3.866   4.575  12.149 -0.5763 -1.7471  0.4176
   70MPD2     N 1095   3.512   4.514  12.395 -0.0469  0.0360 -0.0433
   70MPD2    H5 1096   3.543   4.418  12.404  0.9232  0.1251 -2.4197
   70MPD2    N1 1097   3.636   0.206  12.205  1.0577 -0.1135  0.6595
   70MPD2    H7 1098   3.725   0.253  12.187 -0.0608  1.8625  0.2355
   71TMC2    C1 1099   0.862   1.479   1.259  0.2077  0.0555  0.1647
   71TMC2    C2 1100   0.916   1.510   1.385  0.4714 -0.1795  0.1407
   71TMC2    C3 1101   0.842   1.595   1.462 -0.2665 -0.3084 -0.1407
   71TMC2    C4 1102   0.740   1.524   1.225  0.3721 -0.0649  0.3106
   71TMC2    C5 1103   0.684   1.629   1.295 -0.4810  0.9444  0.5328
   71TMC2    C6 1104   0.723   1.656   1.422 -0.1151 -0.3307  0.3955
   71TMC2     C 1105   0.911   1.360   1.187  0.5533  0.2487 -0.5205
   71TMC2     O 1106   1.036   1.350   1.185 -0.2633  0.1099 -0.6183
   71TMC2     H 1107   1.016   1.476   1.409  0.1521 -0.2791  1.3222
   71TMC2    H1 1108   0.709   1.498   1.124 -0.1439  1.2767  0.1255
   71TMC2    H2 1109   0.676   1.731   1.483 -0.2079  0.5421 -0.7648
   71TMC2    C7 1110   0.545   1.669   1.251 -0.3229 -0.0565  0.6881
   71TMC2    C8 1111   0.915   1.632   1.578 -0.4854  0.0960  1.1541
   71TMC2    O1 1112   0.494   1.768   1.302  0.2221  0.6703 -0.0702
   71TMC2    O2 1113   1.034   1.639   1.574 -0.4076  0.4322  0.0847
   71TMC2    O5 1114   0.834   1.698   1.665 -0.0993 -0.3031 -0.2176
   71TMC2    H5 1115   0.738   1.680   1.655 -0.7935  2.5308  1.4551
   72MPD2     C 1116   0.854   0.994   0.832  0.5981  0.7248 -0.1224
   72MPD2    C1 1117   0.968   1.072   0.863 -0.0187  0.7058  0.2547
   72MPD2    C2 1118   0.970   1.164   0.969 -0.1196 -0.0336  0.4133
   72MPD2    C3 1119   0.844   1.187   1.026 -0.0171  0.1431  0.0687
   72MPD2    C4 1120   0.731   1.116   0.992 -0.0016  0.4953  0.0209
   72MPD2    C5 1121   0.735   1.019   0.892 -0.0561 -0.3399 -0.5183
   72MPD2     H 1122   1.061   1.215   0.999  0.7104 -1.8443  0.9958
   72MPD2    H1 1123   0.637   1.139   1.039 -1.0115 -2.7420 -0.4167
   72MPD2    H2 1124   0.859   0.923   0.750  3.3684  2.2145 -1.2195
   72MPD2    H3 1125   0.638   0.974   0.873 -0.8352  1.0165  0.2368
   72MPD2     N 1126   0.816   1.284   1.124 -0.5336 -0.6214  0.2860
   72MPD2    H5 1127   0.721   1.287   1.158 -1.2753  1.2830 -1.9032
   72MPD2    N1 1128   1.089   1.063   0.791 -0.6424  0.5995 -0.5032
   72MPD2    H7 1129   1.163   1.123   0.826 -0.5814 -0.2292  0.7906
   73TMC2    C1 1130   0.915   2.942  13.917 -0.8627 -0.3904 -0.2161
   73TMC2    C2 1131   0.963   2.885  13.800 -0.0400 -0.1821  0.4953
   73TMC2    C3 1132   1.061   2.789  13.811  0.1538  0.5754  0.0676
   73TMC2    C4 1133   0.979   2.928  14.037  0.2212 -0.9059  0.2785
   73TMC2    C5 1134   1.089   2.848  14.032 -0.8344 -0.1881  0.4622
   73TMC2    C6 1135   1.128   2.772  13.927  0.3978  0.1340 -0.3049
   73TMC2     C 1136   0.902   3.084  13.903 -0.3576  0.1640  0.4001
   73TMC2     O 1137   0.967   3.154  13.981  0.2837 -0.6011  0.2033
   73TMC2     H 1138   0.902   2.892  13.710 -0.4967 -0.4202  0.7856
   73TMC2    H1 1139   0.947   2.987  14.122 -1.1928 -0.4480 -0.5667
   73TMC2    H2 1140   1.220   2.716  13.934  0.6970  1.0640  2.9650
   73TMC2    C7 1141   1.206   2.906  14.100  0.4807  0.0537  0.2951
   73TMC2    C8 1142   1.068   2.707  13.692  0.3643  0.1209  0.2121
   73TMC2    O1 1143   1.301   2.836  14.132 -0.2375  0.1290  0.4099
   73TMC2    O2 1144   0.968   2.691  13.622  0.1952  0.4177  0.0502
   73TMC2    O5 1145   1.166   2.615  13.725 -0.4907 -0.4012 -0.4667
   73TMC2    H5 1146   1.250   2.658  13.753 -1.3348 -0.2362  1.8681
   74MPD2     C 1147   0.770   3.484  13.612  0.6774 -0.7533  0.5531
   74MPD2    C1 1148   0.851   3.477  13.726  0.2095  0.0945  0.2167
   74MPD2    C2 1149   0.873   3.359  13.789 -0.4891  0.3605  0.3234
   74MPD2    C3 1150   0.813   3.244  13.735 -1.3196 -0.3502  0.5024
   74MPD2    C4 1151   0.732   3.253  13.625 -0.5276 -0.3172 -0.4082
   74MPD2    C5 1152   0.712   3.373  13.567 -0.7496 -0.4299 -0.5183
   74MPD2     H 1153   0.933   3.349  13.879  0.2942 -0.5058 -0.2903
   74MPD2    H1 1154   0.682   3.165  13.587 -0.4823 -0.2312 -0.6622
   74MPD2    H2 1155   0.755   3.583  13.570 -0.6061 -0.7567  1.0112
   74MPD2    H3 1156   0.643   3.370  13.484 -0.4673  1.3199 -0.8202
   74MPD2     N 1157   0.823   3.117  13.794 -0.2957 -0.1615 -0.6368
   74MPD2    H5 1158   0.767   3.048  13.745 -0.5964 -1.7194  1.8840
   74MPD2    N1 1159   0.927   3.591  13.759 -0.0683 -0.4065  0.4353
   74MPD2    H7 1160   0.920   3.675  13.702  0.8773 -0.7472 -0.1760
   75TMC2    C1 1161   1.105   4.487  13.983 -0.5059 -0.2521  1.0052
   75TMC2    C2 1162   1.092   4.613  14.026 -0.2421 -0.3129 -0.1469
   75TMC2    C3 1163   0.979   4.678  13.995 -0.0092 -0.4191 -0.3437
   75TMC2    C4 1164   1.016   4.427  13.904 -0.6894  0.4144  0.3179
   75TMC2    C5 1165   0.899   4.496  13.869  0.5213  0.5486 -0.6504
   75TMC2    C6 1166   0.882   4.624  13.919 -0.2873  0.7105  0.7125
   75TMC2     C 1167   1.209   4.410  14.054  0.1075 -0.4392 -0.8897
   75TMC2     O 1168   1.306   4.478  14.091  0.4822 -0.5715  0.6025
   75TMC2     H 1169   1.164   4.650  14.097  1.6139  0.8158 -2.6204
   75TMC2    H1 1170   1.021   4.323  13.873 -1.7697  0.3970  0.1954
   75TMC2    H2 1171   0.812   4.698  13.881  1.3011  1.6994 -0.2639
   75TMC2    C7 1172   0.800   4.433  13.781  0.0760  0.4809  0.4301
   75TMC2    C8 1173   0.924   0.028  14.097  0.3995  0.3618  0.0757
   75TMC2    O1 1174   0.835   4.349  13.700  0.3302 -0.1643  0.7759
   75TMC2    O2 1175   0.954   0.027  14.214 -0.0769 -1.0608  0.8647
   75TMC2    O5 1176   0.872   0.144  14.034 -0.5685 -0.0702  0.0631
   75TMC2    H5 1177   0.877   0.150  13.937  2.0444  1.7541  0.3193
   76TMC2    C1 1178   4.133   4.607  12.377 -0.6070 -0.8605 -0.3826
   76TMC2    C2 1179   4.011   4.673  12.406 -0.3145  0.0387 -0.3458
   76TMC2    C3 1180   3.927   4.607  12.496 -0.0017  0.4277 -0.4775
   76TMC2    C4 1181   4.176   4.495  12.435  0.1479  0.3635 -0.4215
   76TMC2    C5 1182   4.090   4.444  12.531 -0.2402 -0.1468 -0.1451
   76TMC2    C6 1183   3.964   4.492  12.552  0.0599  0.1476 -0.6396
   76TMC2     C 1184   4.204   4.659  12.265 -0.0832  0.4342  0.0248
   76TMC2     O 1185   4.143   0.012  12.209 -0.7599  0.0576  0.1819
   76TMC2     H 1186   3.978   0.016  12.343  1.2449  0.4679 -0.6227
   76TMC2    H1 1187   4.266   4.440  12.409  2.1188  2.3454  2.0657
   76TMC2    H2 1188   3.884   4.448  12.610  0.6026 -1.0281 -0.7753
   76TMC2    C7 1189   4.143   4.393  12.657  0.2412  0.0562  0.1333
   76TMC2    C8 1190   3.820   4.686  12.557  0.4282  0.0922  0.7054
   76TMC2    O1 1191   4.063   4.404  12.750 -0.9384 -0.1560  0.3728
   76TMC2    O2 1192   3.727   4.629  12.621  0.9058  0.2057 -0.4446
   76TMC2    O5 1193   3.891   0.049  12.608  0.3327  0.4834  0.1485
   76TMC2    H5 1194   3.984   0.054  12.578  1.0539 -1.2923  2.1192
   77MPD2     C 1195   4.605   0.025  11.973 -0.1307 -0.8165  0.1454
   77MPD2    C1 1196   4.494   0.096  12.004  0.1634  0.4676 -0.0388
   77MPD2    C2 1197   4.396   0.041  12.088 -0.5136 -0.7810 -0.7031
   77MPD2    C3 1198   4.420   4.656  12.143 -0.2213 -0.8115  0.2445
   77MPD2    C4 1199   4.538   4.589  12.122  0.3279  0.2507 -0.0932
   77MPD2    C5 1200   4.630   4.644  12.039 -0.3640 -0.1813 -0.7981
   77MPD2     H 1201   4.309   0.103  12.108 -0.6025 -1.3015  0.5466
   77MPD2    H1 1202   4.565   4.498  12.175 -2.3594 -0.0195  0.7879
   77MPD2    H2 1203   4.686   0.055  11.907 -0.3778 -0.3149  0.0784
   77MPD2    H3 1204   4.720   4.585  12.033  0.2299  0.4935  1.6270
   77MPD2     N 1205   4.333   4.605  12.241  0.4208  0.3712 -0.7509
   77MPD2    H5 1206   4.374   4.531  12.297  1.3073  0.5387 -1.1782
   77MPD2    N1 1207   4.462   0.225  11.951 -0.6764  0.2333 -0.6144
   77MPD2    H7 1208   4.387   0.273  12.000  0.0399 -0.1104  0.8227
   78TMC2    C1 1209   0.841   0.965   1.341 -0.2460  0.2823 -0.0074
   78TMC2    C2 1210   0.738   0.885   1.306 -0.6465 -0.4628 -0.3219
   78TMC2    C3 1211   0.750   0.798   1.203  0.4156  1.0498 -0.0525
   78TMC2    C4 1212   0.958   0.961   1.268 -0.5451 -0.6716  0.0180
   78TMC2    C5 1213   0.972   0.858   1.175 -0.3856  0.4688  0.0954
   78TMC2    C6 1214   0.866   0.784   1.135  0.4452 -0.0988  0.1707
   78TMC2     C 1215   0.801   1.082   1.421 -0.2338  0.2244 -0.0094
   78TMC2     O 1216   0.682   1.118   1.430  0.3335 -0.3746  0.2030
   78TMC2     H 1217   0.650   0.875   1.369  1.0056  0.1294  2.0676
   78TMC2    H1 1218   1.039   1.033   1.276  0.9556 -2.4539  0.9486
   78TMC2    H2 1219   0.877   0.698   1.071  0.0949 -1.8364  2.4444
   78TMC2    C7 1220   1.109   0.848   1.112  0.0315 -0.1652  0.3211
   78TMC2    C8 1221   0.668   0.680   1.198 -0.3414  0.4137 -0.2766
   78TMC2    O1 1222   1.194   0.924   1.161  0.1737 -0.2352 -0.0924
   78TMC2    O2 1223   0.716   0.571   1.186 -0.1228  0.2619  0.4558
   78TMC2    O5 1224   0.541   0.706   1.232 -0.2268 -0.2320 -0.5943
   78TMC2    H5 1225   0.519   0.801   1.234  0.8868 -0.0051  0.6867
   79MPD1     C 1226   0.942   1.388   1.831  0.3498  0.0431 -1.0110
   79MPD1    C1 1227   0.820   1.357   1.772  0.4274 -0.1958 -0.1808
   79MPD1    C2 1228   0.811   1.253   1.680  0.5513  0.5129 -0.0422
   79MPD1    C3 1229   0.919   1.201   1.619 -0.1202  0.3147 -0.6578
   79MPD1    C4 1230   1.046   1.243   1.665 -0.5182 -0.3026  0.1580
   79MPD1    C5 1231   1.049   1.332   1.767  0.1254  0.6632  0.3291
   79MPD1     H 1232   0.715   1.225   1.639 -0.0416 -0.2591  1.8765
   79MPD1    H1 1233   1.145   1.219   1.626 -1.9694 -1.5741 -2.8073
   79MPD1    H2 1234   0.947   1.462   1.910  0.0701  0.2802 -1.2145
   79MPD1    H3 1235   1.151   1.355   1.795 -0.1589  0.0074  1.8762
   79MPD1     N 1236   0.911   1.117   1.507  0.1444  0.6087 -0.3785
   79MPD1    H5 1237   0.998   1.070   1.482 -1.7783 -3.0864 -0.1832
   79MPD1    N1 1238   0.699   1.389   1.836  0.6648 -0.3592 -1.0996
   79MPD1    H6 1239   0.617   1.375   1.777  1.8061  0.8874 -2.9802
   79MPD1    H7 1240   0.702   1.484   1.871  0.2517 -1.0745  0.9044
   80TMC2    C1 1241   3.890   4.428  11.478 -0.5995  0.7707 -1.0548
   80TMC2    C2 1242   4.019   4.439  11.527  0.9306  0.5776  0.0657
   80TMC2    C3 1243   4.082   4.321  11.563  0.0775  0.0977 -0.1069
   80TMC2    C4 1244   3.820   4.309  11.477  0.0464  0.6341  0.4375
   80TMC2    C5 1245   3.886   4.198  11.530  0.0287  0.2793 -0.2579
   80TMC2    C6 1246   4.019   4.200  11.572 -0.2945 -0.0712 -0.1735
   80TMC2     C 1247   3.829   4.554  11.472 -0.2332 -0.3348  0.5852
   80TMC2     O 1248   3.904   4.646  11.431  0.1832  0.2343 -0.3583
   80TMC2     H 1249   4.064   4.536  11.545  2.2322  0.4544 -2.5165
   80TMC2    H1 1250   3.716   4.297  11.451  0.2455  3.1841 -1.5196
   80TMC2    H2 1251   4.077   4.114  11.604  1.9172  2.1754  1.8979
   80TMC2    C7 1252   3.825   4.068  11.516  0.1845 -0.1856  0.6995
   80TMC2    C8 1253   4.209   4.328  11.634 -0.3528 -0.9367 -0.2265
   80TMC2    O1 1254   3.894   3.983  11.458 -0.3394  0.2565 -0.3308
   80TMC2    O2 1255   4.223   4.285  11.747  0.0042  0.3436  0.3835
   80TMC2    O5 1256   4.285   4.422  11.571  1.0203  1.1682  0.0045
   80TMC2    H5 1257   4.257   4.426  11.477  0.8723  0.0151  0.0020
   81MPD2     C 1258   3.672   0.061  11.525  0.1514  0.1880 -0.3775
   81MPD2    C1 1259   3.626   4.669  11.547 -0.1436 -0.3842  1.1433
   81MPD2    C2 1260   3.500   4.651  11.585 -0.1746 -0.7182  0.3454
   81MPD2    C3 1261   3.408   0.017  11.583 -0.0640 -0.3117 -0.3891
   81MPD2    C4 1262   3.457   0.142  11.562  0.5655 -0.2081 -0.1419
   81MPD2    C5 1263   3.585   0.166  11.533  0.3885  0.0230  0.3317
   81MPD2     H 1264   3.467   4.549  11.604  1.4862 -1.7294 -2.1760
   81MPD2    H1 1265   3.384   0.221  11.577  1.1866 -0.0915  2.3123
   81MPD2    H2 1266   3.774   0.096  11.513  0.1313  0.3572 -0.0258
   81MPD2    H3 1267   3.620   0.268  11.522 -2.3033  0.7007 -2.0169
   81MPD2     N 1268   3.272   0.004  11.611 -0.4390  0.9721 -0.2276
   81MPD2    H5 1269   3.228   0.096  11.617  0.3073  1.2720  0.6060
   81MPD2    N1 1270   3.710   4.555  11.531  0.3019  0.2582 -0.1283
   81MPD2    H7 1271   3.666   4.469  11.562 -0.4581  1.2613  1.5634
   82TMC2    C1 1272   2.202   3.230  11.046  0.1962  0.1323  1.5436
   82TMC2    C2 1273   2.315   3.162  10.988 -0.7234  0.5062  0.4099
   82TMC2    C3 1274   2.381   3.082  11.074  0.1682  0.3462 -0.3124
   82TMC2    C4 1275   2.165   3.206  11.175 -0.2468  0.1259 -0.5534
   82TMC2    C5 1276   2.239   3.116  11.248 -0.1037 -0.2593  0.6358
   82TMC2    C6 1277   2.348   3.054  11.206  0.0929  0.2093 -0.0697
   82TMC2     C 1278   2.126   3.332  10.985 -0.2166  0.9770 -0.5044
   82TMC2     O 1279   2.033   3.381  11.047 -0.1265  0.1491 -0.3532
   82TMC2     H 1280   2.338   3.169  10.882  2.2549  0.0519  1.0297
   82TMC2    H1 1281   2.072   3.249  11.210 -0.9887 -2.4816  0.6703
   82TMC2    H2 1282   2.393   2.966  11.252  0.7738  0.9831  0.7277
   82TMC2    C7 1283   2.209   3.130  11.388  0.6433  0.3642 -0.5581
   82TMC2    C8 1284   2.493   3.007  11.008  0.3107 -0.5295 -0.2641
   82TMC2    O1 1285   2.119   3.208  11.417  0.5959  0.4991  0.6440
   82TMC2    O2 1286   2.523   3.007  10.890 -0.1559 -0.1023  0.1023
   82TMC2    O5 1287   2.592   2.991  11.098  0.3440  0.3608  0.1782
   82TMC2    H5 1288   2.575   3.040  11.182 -1.8737 -0.2631  0.0872
   83MPD2     C 1289   2.165   3.765  10.696 -0.2559  0.7643 -0.3242
   83MPD2    C1 1290   2.075   3.725  10.793  0.5948 -0.0144 -0.3550
   83MPD2    C2 1291   2.075   3.601  10.849 -0.2458  0.4284 -0.1210
   83MPD2    C3 1292   2.176   3.511  10.819 -0.1408 -0.0536 -0.1568
   83MPD2    C4 1293   2.271   3.554  10.729 -0.6665 -0.4179  0.5059
   83MPD2    C5 1294   2.266   3.677  10.668  0.5687  0.1043 -0.1573
   83MPD2     H 1295   1.988   3.578  10.910  0.0881 -1.3702 -0.3346
   83MPD2    H1 1296   2.363   3.497  10.719 -0.3943 -0.1918  1.7087
   83MPD2    H2 1297   2.146   3.850  10.631 -0.2903  0.7563 -0.3247
   83MPD2    H3 1298   2.345   3.698  10.597  0.3892 -0.6544 -0.5883
   83MPD2     N 1299   2.197   3.384  10.885  0.5022  0.5302  0.0898
   83MPD2    H5 1300   2.274   3.334  10.842 -0.1731 -1.3297  1.0307
   83MPD2    N1 1301   1.968   3.815  10.822  0.1119 -0.7066  0.4721
   83MPD2    H7 1302   1.994   3.911  10.801  2.2324 -1.5748 -0.9327
   84TMC2    C1 1303   2.993   3.114  11.085  0.1584  0.1550 -0.2219
   84TMC2    C2 1304   3.091   3.069  11.174 -0.0634 -0.2055  0.0089
   84TMC2    C3 1305   3.211   3.031  11.124 -0.3659 -0.2865  0.1301
   84TMC2    C4 1306   3.027   3.122  10.948  0.8454  0.6826 -0.7676
   84TMC2    C5 1307   3.155   3.080  10.912  0.7536 -0.3643  0.4486
   84TMC2    C6 1308   3.247   3.031  10.998  0.2577 -1.0542 -0.3640
   84TMC2     C 1309   2.873   3.178  11.144  0.1710  0.4468 -0.0584
   84TMC2     O 1310   2.868   3.181  11.267  0.3790  0.2732  0.1492
   84TMC2     H 1311   3.075   3.051  11.279  0.4168 -1.3130 -0.1129
   84TMC2    H1 1312   2.957   3.151  10.871 -0.6141  1.0284  0.7122
   84TMC2    H2 1313   3.343   2.993  10.965  1.4111  3.5548 -2.2420
   84TMC2    C7 1314   3.195   3.126  10.786 -0.5568  0.5339  0.2413
   84TMC2    C8 1315   3.285   2.944  11.205 -0.2852 -0.5001  0.5384
   84TMC2    O1 1316   3.106   3.147  10.707  0.5779 -0.2380  0.2493
   84TMC2    O2 1317   3.346   2.849  11.163 -0.3767  0.0429 -0.2939
   84TMC2    O5 1318   3.326   3.011  11.312  0.5083 -0.0342 -0.5191
   84TMC2    H5 1319   3.288   3.101  11.317 -0.6210 -0.6309  1.5720
   85TMC2    C1 1320   3.982   1.048  15.905 -0.0906 -0.7288 -0.1786
   85TMC2    C2 1321   3.957   1.169  15.847 -0.2159  0.6734  0.0839
   85TMC2    C3 1322   4.055   1.237  15.781 -0.1552  0.3301 -0.4307
   85TMC2    C4 1323   4.109   0.998  15.908  0.1386 -0.1140 -0.7109
   85TMC2    C5 1324   4.210   1.067  15.841 -0.6921 -0.0046 -0.2526
   85TMC2    C6 1325   4.180   1.181  15.771 -0.1136 -0.5030  0.0437
   85TMC2     C 1326   3.890   1.008  16.003  0.4918  0.6926 -0.8569
   85TMC2     O 1327   3.804   1.087  16.041  0.6809  1.0105 -0.1922
   85TMC2     H 1328   3.852   1.191  15.837 -0.1016  1.6405  0.9126
   85TMC2    H1 1329   4.127   0.903  15.957 -0.0020 -0.2995 -1.0195
   85TMC2    H2 1330   4.262   1.233  15.723 -0.3328  0.9954  1.3082
   85TMC2    C7 1331   4.307   0.974  15.792 -0.0238  0.3515  0.4536
   85TMC2    C8 1332   4.033   1.290  15.650  0.3381  0.2021  0.2905
   85TMC2    O1 1333   4.347   0.882  15.858 -0.5808  0.5083 -0.3578
   85TMC2    O2 1334   4.110   1.268  15.555 -0.4189 -0.0826 -0.3793
   85TMC2    O5 1335   3.905   1.329  15.638  0.5471 -0.2383  0.1841
   85TMC2    H5 1336   3.856   1.343  15.722  2.2079  1.7410  0.8192
   86MPD2     C 1337   3.538   0.712  16.203 -0.7364  0.5400 -0.5843
   86MPD2    C1 1338   3.598   0.650  16.100 -0.1299 -0.1432  0.3961
   86MPD2    C2 1339   3.718   0.700  16.059 -0.4435  0.8399 -0.3118
   86MPD2    C3 1340   3.767   0.818  16.104 -0.0436  0.4550 -0.1328
   86MPD2    C4 1341   3.696   0.880  16.205  0.2989 -0.2752 -0.2436
   86MPD2    C5 1342   3.586   0.817  16.261  0.2779  0.0093  0.0524
   86MPD2     H 1343   3.776   0.640  15.990 -1.2759  0.8232 -0.9998
   86MPD2    H1 1344   3.724   0.970  16.259 -2.9653  0.7363 -0.1784
   86MPD2    H2 1345   3.448   0.676  16.253  0.3396  1.6780  2.1558
   86MPD2    H3 1346   3.548   0.859  16.353 -0.7791 -2.7089  0.8564
   86MPD2     N 1347   3.877   0.872  16.033  0.0385 -0.1717 -0.4474
   86MPD2    H5 1348   3.935   0.809  15.979 -0.7778 -1.0505 -0.3033
   86MPD2    N1 1349   3.544   0.532  16.043  0.1123 -0.3069 -0.1549
   86MPD2    H7 1350   3.610   0.477  15.988 -0.9232 -3.0848  1.4111
   87TMC2    C1 1351   1.690   4.011   1.459 -0.5130  0.4037  0.2028
   87TMC2    C2 1352   1.662   3.990   1.586 -0.7098  0.3809 -0.5427
   87TMC2    C3 1353   1.650   4.105   1.660  0.3005 -0.1236  0.2383
   87TMC2    C4 1354   1.694   4.134   1.406  0.9294 -0.8212 -0.2134
   87TMC2    C5 1355   1.673   4.245   1.483 -0.7148  0.4821  0.6011
   87TMC2    C6 1356   1.653   4.231   1.615  0.1350 -0.0574 -0.0790
   87TMC2     C 1357   1.726   3.905   1.367  0.0752  0.2601  0.0012
   87TMC2     O 1358   1.741   3.933   1.250 -0.2682  0.0597  0.2105
   87TMC2     H 1359   1.657   3.896   1.640 -0.1095  0.0128 -1.1364
   87TMC2    H1 1360   1.735   4.141   1.305 -0.1868 -1.3467 -0.7012
   87TMC2    H2 1361   1.645   4.315   1.682  0.5553 -0.1709  0.1165
   87TMC2    C7 1362   1.652   4.373   1.423  0.2160 -0.6093  0.2885
   87TMC2    C8 1363   1.603   4.073   1.788 -0.2501  0.0454  0.1740
   87TMC2    O1 1364   1.660   4.373   1.300 -0.4946  0.8594  0.3443
   87TMC2    O2 1365   1.619   3.970   1.854 -0.1053  0.3730  0.1030
   87TMC2    O5 1366   1.497   4.161   1.808  0.5368  0.1238 -0.5584
   87TMC2    H5 1367   1.474   4.221   1.734 -0.4330  0.2918 -0.1169
   88MPD2     C 1368   1.682   4.708   1.567  0.4197  0.0925  0.5088
   88MPD2    C1 1369   1.633   4.608   1.481 -0.2529 -0.1899 -0.5604
   88MPD2    C2 1370   1.551   4.638   1.372  0.5299  0.2494 -0.7339
   88MPD2    C3 1371   1.530   0.026   1.334  0.0068  0.2491  0.5361
   88MPD2    C4 1372   1.595   0.128   1.406  0.1730  0.1815  0.6492
   88MPD2    C5 1373   1.671   0.097   1.515 -0.1452 -0.1165  0.0479
   88MPD2     H 1374   1.506   4.550   1.329 -0.8583  1.3968 -1.5842
   88MPD2    H1 1375   1.580   0.233   1.384 -1.3689 -0.4127 -1.1463
   88MPD2    H2 1376   1.735   4.691   1.660  4.1141  0.8844 -1.4521
   88MPD2    H3 1377   1.734   0.171   1.563  2.4959 -1.1170 -1.8366
   88MPD2     N 1378   1.457   0.055   1.210 -0.3145 -0.5902  0.0389
   88MPD2    H5 1379   1.457   0.152   1.180 -1.9536 -0.6830 -0.2760
   88MPD2    N1 1380   1.671   4.480   1.509  0.6731 -0.0256 -0.8104
   88MPD2    H7 1381   1.726   4.460   1.592  0.3900  1.2235 -0.3214
   89TMC2    C1 1382   2.889   2.293   1.588  0.0539  0.1743 -0.0852
   89TMC2    C2 1383   3.015   2.346   1.622  0.4373  0.1941 -0.3411
   89TMC2    C3 1384   3.049   2.472   1.580 -0.0850 -0.0103 -0.6862
   89TMC2    C4 1385   2.802   2.368   1.516  0.0978 -0.0730 -0.0169
   89TMC2    C5 1386   2.840   2.488   1.474 -0.3924 -0.0938  0.2121
   89TMC2    C6 1387   2.958   2.542   1.504 -0.0146 -0.6221 -0.0081
   89TMC2     C 1388   2.881   2.148   1.599 -0.6266  0.1929  0.0965
   89TMC2     O 1389   2.986   2.084   1.599 -0.1633 -0.3313  0.0439
   89TMC2     H 1390   3.090   2.293   1.680 -2.0450 -0.9951  1.8236
   89TMC2    H1 1391   2.710   2.327   1.476  0.8042 -0.1311 -1.6130
   89TMC2    H2 1392   2.994   2.637   1.469 -1.9384 -0.5680 -1.8136
   89TMC2    C7 1393   2.746   2.569   1.404  0.6881  0.4809 -0.4680
   89TMC2    C8 1394   3.177   2.537   1.619  0.8229 -0.6670 -0.7095
   89TMC2    O1 1395   2.628   2.553   1.434  0.1109 -0.1587  0.3015
   89TMC2    O2 1396   3.253   2.595   1.544 -0.2277 -0.2219 -1.0068
   89TMC2    O5 1397   3.176   2.545   1.754 -1.1407 -0.1218 -0.4595
   89TMC2    H5 1398   3.106   2.486   1.789 -0.3485  0.2486  1.7476
   90MPD2     C 1399   2.601   1.726   1.555  0.2628 -0.1568  0.6249
   90MPD2    C1 1400   2.520   1.832   1.590  0.1897  0.1085  0.0949
   90MPD2    C2 1401   2.576   1.958   1.614 -0.0396 -0.9725  0.6129
   90MPD2    C3 1402   2.709   1.985   1.588 -0.0574 -0.3315  0.3579
   90MPD2    C4 1403   2.785   1.881   1.532  0.2177 -0.1643  0.0066
   90MPD2    C5 1404   2.734   1.754   1.528 -0.4668 -1.2453  0.7069
   90MPD2     H 1405   2.505   2.034   1.643 -0.4189 -0.7222 -0.9853
   90MPD2    H1 1406   2.891   1.889   1.511 -0.0064  1.3276 -0.5938
   90MPD2    H2 1407   2.559   1.628   1.536  0.6756 -0.3538  0.7287
   90MPD2    H3 1408   2.793   1.670   1.493 -3.1749 -0.9674 -4.4006
   90MPD2     N 1409   2.745   2.116   1.613  0.0365  0.5975  0.4234
   90MPD2    H5 1410   2.681   2.184   1.650  2.3613  2.6799  0.6380
   90MPD2    N1 1411   2.379   1.826   1.582 -0.0392 -0.5194  0.2223
   90MPD2    H7 1412   2.322   1.906   1.610 -0.0744 -1.0490  1.6417
   91TMC2    C1 1413   4.134   2.363  15.979 -0.1267  0.0513 -0.2117
   91TMC2    C2 1414   4.207   2.459  16.042 -0.0091  0.8752 -0.1967
   91TMC2    C3 1415   4.148   2.577  16.065  0.2311 -0.1349 -0.3435
   91TMC2    C4 1416   4.005   2.385  15.944 -0.3802  0.3573  0.4635
   91TMC2    C5 1417   3.941   2.501  15.980 -0.2557  0.9457 -0.1960
   91TMC2    C6 1418   4.017   2.611  16.031  0.0377 -0.7042  0.4469
   91TMC2     C 1419   4.172   2.222  15.961  0.5230  0.4789  0.8987
   91TMC2     O 1420   4.097   2.148  15.897 -0.0782 -0.7543  0.0045
   91TMC2     H 1421   4.314   2.455  16.063  0.1955  0.6075 -1.2981
   91TMC2    H1 1422   3.946   2.306  15.899  3.5326 -1.6518 -1.0846
   91TMC2    H2 1423   3.982   2.710  16.056 -0.3056 -1.1045  1.5124
   91TMC2    C7 1424   3.801   2.498  16.006  0.2180 -0.8075  0.1954
   91TMC2    C8 1425   4.235   2.688  16.083  0.0198  0.6385 -0.2895
   91TMC2    O1 1426   3.767   2.574  16.096 -0.4344 -0.5014  0.6600
   91TMC2    O2 1427   4.335   2.673  16.149  0.4271  0.2276 -0.1747
   91TMC2    O5 1428   4.222   2.767  15.973 -0.4658  0.3082 -0.5083
   91TMC2    H5 1429   4.148   2.743  15.914 -0.1887  1.0990 -1.1783
   92MPD2     C 1430   4.285   1.950  15.970  0.2405 -0.0586  0.3146
   92MPD2    C1 1431   4.327   2.056  16.050 -0.1260  0.4911  0.0873
   92MPD2    C2 1432   4.442   2.045  16.122  0.2204 -0.8442 -0.2656
   92MPD2    C3 1433   4.518   1.928  16.116  0.4708 -0.1901 -0.3154
   92MPD2    C4 1434   4.467   1.819  16.044  0.5330  0.3704 -0.1377
   92MPD2    C5 1435   4.350   1.834  15.975  0.7488  0.1396  0.3014
   92MPD2     H 1436   4.475   2.131  16.178 -0.8377 -0.1094 -0.7683
   92MPD2    H1 1437   4.524   1.727  16.048  1.0649  0.8679  3.7228
   92MPD2    H2 1438   4.209   1.958  15.893  0.4343  0.5726  0.1949
   92MPD2    H3 1439   4.307   1.754  15.916  0.3585  2.2000 -2.2438
   92MPD2     N 1440   4.645   1.940  16.178  0.0147 -0.1397 -0.1855
   92MPD2    H5 1441   4.667   2.029  16.223 -0.0938 -0.4307  0.4321
   92MPD2    N1 1442   4.267   2.181  16.052  0.1283  0.0145  0.4618
   92MPD2    H7 1443   4.310   2.243  16.120 -0.1712  0.8659 -0.1286
   93TMC2    C1 1444   0.562   2.044  14.275  0.5339  0.2397  0.1174
   93TMC2    C2 1445   0.588   2.054  14.407  0.0067 -0.5041 -0.5052
   93TMC2    C3 1446   0.721   2.059  14.428 -0.6805  0.2882  0.1021
   93TMC2    C4 1447   0.651   2.056  14.171 -0.4337 -0.3033  0.0144
   93TMC2    C5 1448   0.783   2.061  14.200  0.0201 -0.2840 -0.5378
   93TMC2    C6 1449   0.824   2.061  14.335 -0.0698  0.0409  0.5056
   93TMC2     C 1450   0.420   2.045  14.250 -0.0803  0.5875  0.5060
   93TMC2     O 1451   0.346   2.077  14.340  0.0912  0.0998  0.0087
   93TMC2     H 1452   0.518   2.027  14.485 -0.2284 -1.2869 -0.9736
   93TMC2    H1 1453   0.610   2.089  14.076 -2.5411  3.2185  2.1302
   93TMC2    H2 1454   0.923   2.040  14.372  0.9420  1.3917 -1.4038
   93TMC2    C7 1455   0.879   2.111  14.107 -0.1563 -0.7722  0.0209
   93TMC2    C8 1456   0.760   1.999  14.553  0.8484  0.2538 -0.3788
   93TMC2    O1 1457   0.882   2.066  13.992  0.1767  0.1244 -0.2153
   93TMC2    O2 1458   0.720   2.034  14.663 -0.7608 -0.3714  0.1451
   93TMC2    O5 1459   0.775   1.867  14.516 -0.1832  0.2523  0.0138
   93TMC2    H5 1460   0.818   1.863  14.428  0.4305  2.0162  0.2245
   94MPD2     C 1461   0.157   1.925  14.155 -0.7460  0.1963 -0.6861
   94MPD2    C1 1462   0.269   1.950  14.077 -0.5830  0.5643 -0.3682
   94MPD2    C2 1463   0.263   1.923  13.944  0.0751  0.2565 -0.0760
   94MPD2    C3 1464   0.152   1.864  13.894 -0.2818  0.2724 -0.6570
   94MPD2    C4 1465   0.040   1.843  13.973 -0.0115  0.7780 -0.2370
   94MPD2    C5 1466   0.038   1.888  14.101  0.1528  0.1762 -0.3036
   94MPD2     H 1467   0.349   1.952  13.884  0.3553  1.1454  0.7536
   94MPD2    H1 1468   4.686   1.811  13.925 -0.7627  0.4401  1.4510
   94MPD2    H2 1469   0.151   1.962  14.257 -0.2599 -0.1884 -0.5174
   94MPD2    H3 1470   4.685   1.883  14.159 -0.1065  2.8457 -0.4632
   94MPD2     N 1471   0.140   1.835  13.751 -0.3048 -0.6040 -0.8450
   94MPD2    H5 1472   0.050   1.797  13.723  0.3250 -2.6852 -0.0020
   94MPD2    N1 1473   0.394   1.989  14.129 -0.3975  0.3248 -0.4098
   94MPD2    H7 1474   0.475   1.983  14.068  1.1238  1.5228  1.4697
   95TMC2    C1 1475   1.068   3.699  15.996  0.2721  0.2888 -0.3298
   95TMC2    C2 1476   0.959   3.621  16.039  0.1038  0.0935 -0.7610
   95TMC2    C3 1477   0.923   3.639  16.170  0.1562 -0.0936  0.0614
   95TMC2    C4 1478   1.128   3.787  16.082 -0.9510 -0.2194 -0.0478
   95TMC2    C5 1479   1.079   3.804  16.207  0.5965 -0.3042  0.7833
   95TMC2    C6 1480   0.982   3.728  16.255 -0.7014 -0.2483 -0.3295
   95TMC2     C 1481   1.100   3.726  15.852  0.1857 -0.7044  0.0760
   95TMC2     O 1482   1.170   3.827  15.827 -0.3881 -0.1002  0.1002
   95TMC2     H 1483   0.910   3.553  15.971  2.5654 -1.6150 -0.8576
   95TMC2    H1 1484   1.223   3.827  16.048 -1.0351 -1.5361 -1.8534
   95TMC2    H2 1485   0.951   3.739  16.358  1.2253  0.1787  0.2079
   95TMC2    C7 1486   1.153   3.866  16.308  0.4227  0.7559 -0.3898
   95TMC2    C8 1487   0.811   3.572  16.219  0.1565  0.1089  0.1304
   95TMC2    O1 1488   1.157   3.806  16.418 -0.2693  0.6241  0.3153
   95TMC2    O2 1489   0.820   3.454  16.253 -0.6484 -0.0819 -0.2599
   95TMC2    O5 1490   0.732   3.666  16.281  0.3501 -0.4350 -0.0792
   95TMC2    H5 1491   0.748   3.749  16.231  1.3974 -1.3530 -1.2890
   96MPD2     C 1492   0.989   3.644  15.357 -0.1329  0.6061 -0.1920
   96MPD2    C1 1493   1.069   3.742  15.420  0.5545  0.8949 -0.7323
   96MPD2    C2 1494   1.089   3.734  15.558 -0.1138 -0.4470 -0.1139
   96MPD2    C3 1495   1.042   3.629  15.632 -0.0901 -0.4010  0.6325
   96MPD2    C4 1496   0.974   3.527  15.570 -0.3543  0.6216  0.5797
   96MPD2    C5 1497   0.939   3.538  15.432 -0.3213  0.1995 -0.1755
   96MPD2     H 1498   1.126   3.819  15.615 -1.9259  0.5729 -0.4638
   96MPD2    H1 1499   0.929   3.447  15.627 -2.4938  1.6755  0.3534
   96MPD2    H2 1500   0.946   3.657  15.258  0.1057 -0.6748 -0.4546
   96MPD2    H3 1501   0.873   3.473  15.376 -0.3926 -0.0930  0.2479
   96MPD2     N 1502   1.050   3.631  15.769  0.5134 -0.0242  0.7436
   96MPD2    H5 1503   1.012   3.546  15.809 -0.7778  0.4907  0.6016
   96MPD2    N1 1504   1.125   3.844  15.340  0.0093 -0.7027  0.1237
   96MPD2    H7 1505   1.091   3.842  15.244 -0.9909 -0.3902  0.4754
   97TMC2    C1 1506   2.996   1.966   0.061 -0.3337  0.6172  0.3018
   97TMC2    C2 1507   2.930   1.938  17.697 -0.6904  0.3179 -0.3102
   97TMC2    C3 1508   2.906   2.039  17.615 -0.1507 -0.0473 -0.7580
   97TMC2    C4 1509   3.047   2.089   0.090  0.0577  0.3298  0.3002
   97TMC2    C5 1510   3.026   2.190   0.005  0.0998  0.0517 -0.3948
   97TMC2    C6 1511   2.959   2.161  17.637 -0.1777  0.0677  0.3528
   97TMC2     C 1512   3.039   1.857   0.140 -0.2198 -0.9682  0.0982
   97TMC2     O 1513   3.092   1.895   0.247 -0.1717 -0.2585  0.2901
   97TMC2     H 1514   2.875   1.847  17.677 -0.4393  0.5166 -1.8778
   97TMC2    H1 1515   3.104   2.104   0.181 -1.1552 -0.5459  1.2074
   97TMC2    H2 1516   2.937   2.243  17.569  2.4715  0.6215  0.1827
   97TMC2    C7 1517   3.145   2.277  17.742 -0.3875 -0.6113  0.5157
   97TMC2    C8 1518   2.836   2.018  17.494 -0.1746 -0.5387 -0.0985
   97TMC2    O1 1519   3.240   2.242   0.062 -0.4342  0.1063 -0.5190
   97TMC2    O2 1520   2.823   1.911  17.441 -0.3070  0.2311 -0.4164
   97TMC2    O5 1521   2.745   2.119  17.484  0.3509  0.2675  0.5775
   97TMC2    H5 1522   2.737   2.177  17.563  0.0441  1.0221 -0.0017
   98MPD2     C 1523   3.158   1.373   0.239  0.9261 -0.3676  0.0567
   98MPD2    C1 1524   3.182   1.486   0.312 -0.0928  0.0441 -0.4384
   98MPD2    C2 1525   3.147   1.614   0.261 -0.4940  0.0761 -0.3220
   98MPD2    C3 1526   3.101   1.623   0.134  0.5840  0.3008 -0.0439
   98MPD2    C4 1527   3.088   1.506   0.055 -0.1764 -0.3754 -0.0808
   98MPD2    C5 1528   3.115   1.386   0.107 -0.7297  0.6597  0.0178
   98MPD2     H 1529   3.159   1.697   0.331 -0.1590  0.3156 -0.6637
   98MPD2    H1 1530   3.063   1.520  17.702  2.2545  1.0266 -0.4673
   98MPD2    H2 1531   3.171   1.273   0.279 -0.2758 -0.0497  1.2323
   98MPD2    H3 1532   3.087   1.309   0.036 -1.8806  1.1423 -0.0614
   98MPD2     N 1533   3.064   1.743   0.069 -0.8541 -0.6093  0.2126
   98MPD2    H5 1534   3.050   1.733  17.720 -1.5252  1.4177  0.1059
   98MPD2    N1 1535   3.250   1.470   0.435 -0.0926 -0.3352  0.1317
   98MPD2    H7 1536   3.272   1.376   0.466 -0.6239 -0.1868  0.9551
   99TMC2    C1 1537   2.012   2.646   1.849  0.5718  0.1681  0.2510
   99TMC2    C2 1538   2.038   2.578   1.967  0.2537  0.2888 -0.0547
   99TMC2    C3 1539   1.944   2.586   2.064  0.1981 -0.2625  0.3187
   99TMC2    C4 1540   1.905   2.736   1.843 -0.0659 -0.2525 -0.4495
   99TMC2    C5 1541   1.816   2.740   1.947  0.5637 -0.1026  0.3989
   99TMC2    C6 1542   1.836   2.670   2.062 -0.1812 -0.6227 -0.7078
   99TMC2     C 1543   2.089   2.612   1.732 -0.5218 -0.7225 -0.0202
   99TMC2     O 1544   2.196   2.560   1.749 -0.1799  0.0034 -0.2905
   99TMC2     H 1545   2.131   2.523   1.975 -0.0075  0.0301  1.2023
   99TMC2    H1 1546   1.879   2.791   1.753 -1.3574 -0.2782 -0.0874
   99TMC2    H2 1547   1.768   2.681   2.146  0.1339 -0.5473 -0.4604
   99TMC2    C7 1548   1.696   2.816   1.935 -0.4316  0.4195 -0.0864
   99TMC2    C8 1549   1.974   2.512   2.184  0.0797  0.4507  0.0192
   99TMC2    O1 1550   1.658   2.882   2.027 -0.3024 -0.1618 -0.1862
   99TMC2    O2 1551   1.931   2.556   2.289  0.1293  0.0430 -0.4356
   99TMC2    O5 1552   2.068   2.420   2.175 -0.2981 -0.3879 -0.2449
   99TMC2    H5 1553   2.081   2.386   2.084  0.5086  0.3590 -0.4086
  100MPD2     C 1554   2.211   2.606   1.474 -0.8877  0.1756  0.1458
  100MPD2    C1 1555   2.082   2.641   1.491 -0.0627  0.1548  0.0940
  100MPD2    C2 1556   1.997   2.670   1.387  0.1028  0.7772 -0.2353
  100MPD2    C3 1557   2.046   2.660   1.255 -0.1992 -0.3257  0.0759
  100MPD2    C4 1558   2.176   2.624   1.243  0.0482  0.0749 -0.2106
  100MPD2    C5 1559   2.255   2.594   1.345  0.2244  0.2990 -0.2542
  100MPD2     H 1560   1.898   2.703   1.415 -0.3713  0.3737 -1.4164
  100MPD2    H1 1561   2.222   2.616   1.145 -0.6131 -2.5922 -0.3080
  100MPD2    H2 1562   2.282   2.586   1.554 -0.7356 -1.4288 -0.3980
  100MPD2    H3 1563   2.363   2.594   1.333  0.3429  0.3142  0.8499
  100MPD2     N 1564   1.957   2.686   1.151 -0.6691  0.1540 -0.4861
  100MPD2    H5 1565   1.881   2.748   1.175 -0.4604 -0.2952  1.3840
  100MPD2    N1 1566   2.020   2.639   1.616 -0.2071 -0.5464 -0.8252
  100MPD2    H7 1567   1.919   2.653   1.618  0.2709  2.9715 -0.8592
  101TMC2    C1 1568   2.934   3.722  12.979  0.2055  0.1751 -0.2649
  101TMC2    C2 1569   3.046   3.635  12.977 -0.8320 -1.1630  0.5003
  101TMC2    C3 1570   3.156   3.666  12.897 -0.3033 -0.1910 -0.0035
  101TMC2    C4 1571   2.938   3.826  12.899 -0.1582  0.2100 -0.0691
  101TMC2    C5 1572   3.054   3.861  12.832  0.3137 -0.0238  0.3630
  101TMC2    C6 1573   3.164   3.784  12.824  0.6056 -0.2233 -0.0071
  101TMC2     C 1574   2.808   3.670  13.034  0.9085 -0.1794 -0.1742
  101TMC2     O 1575   2.705   3.732  13.014  1.0153 -0.1963 -0.3585
  101TMC2     H 1576   3.046   3.536  13.022 -0.0396 -0.7106  1.4963
  101TMC2    H1 1577   2.843   3.873  12.877  1.2378  2.1712 -1.8032
  101TMC2    H2 1578   3.236   3.799  12.745  2.3062 -2.8753  1.0500
  101TMC2    C7 1579   3.064   3.981  12.750 -0.1024 -0.4606 -0.1858
  101TMC2    C8 1580   3.239   3.549  12.876  0.3247 -0.2530  0.2354
  101TMC2    O1 1581   3.166   3.995  12.682  0.4837  0.9771 -0.2964
  101TMC2    O2 1582   3.210   3.434  12.873 -0.0418  0.0385 -0.3598
  101TMC2    O5 1583   3.362   3.592  12.862 -0.0878  0.4883 -0.3174
  101TMC2    H5 1584   3.385   3.687  12.864  1.3414  0.1140  1.0246
  102MPD2     C 1585   2.766   3.401  13.282  0.3014  0.3034 -0.2219
  102MPD2    C1 1586   2.728   3.514  13.205 -0.4717 -0.0192 -0.7269
  102MPD2    C2 1587   2.602   3.573  13.232 -0.2001 -0.3916  0.2690
  102MPD2    C3 1588   2.510   3.516  13.328  0.9194 -0.3317 -0.0945
  102MPD2    C4 1589   2.560   3.411  13.405  0.4871  0.0769  0.7043
  102MPD2    C5 1590   2.683   3.361  13.386  0.2111  0.8621  0.1524
  102MPD2     H 1591   2.565   3.665  13.189 -0.2152 -0.0003  1.1307
  102MPD2    H1 1592   2.491   3.363  13.473  0.9779  0.3053  1.3572
  102MPD2    H2 1593   2.863   3.355  13.270 -0.1815 -0.6546 -0.3980
  102MPD2    H3 1594   2.705   3.280  13.455 -0.6682 -0.2515 -0.8683
  102MPD2     N 1595   2.388   3.583  13.358 -0.4913 -0.4808  0.4633
  102MPD2    H5 1596   2.354   3.662  13.304 -0.0830 -0.2312  0.5753
  102MPD2    N1 1597   2.825   3.560  13.118  0.3536  0.3655 -0.1522
  102MPD2    H7 1598   2.918   3.526  13.140  1.6781  2.9765 -1.6560
  103TMC2    C1 1599   0.173   4.439  12.822 -0.6719  0.2886  0.0675
  103TMC2    C2 1600   0.262   4.451  12.717 -0.3144 -0.5752 -0.4331
  103TMC2    C3 1601   0.378   4.510  12.744  0.3667 -0.3665  0.6027
  103TMC2    C4 1602   0.196   4.492  12.948  0.3681  0.0566  0.0285
  103TMC2    C5 1603   0.324   4.537  12.967 -0.2283  0.4049 -0.4828
  103TMC2    C6 1604   0.416   4.556  12.862  0.2912  0.5904  1.0695
  103TMC2     C 1605   0.042   4.391  12.781  0.4492  0.2402  0.9884
  103TMC2     O 1606   0.023   4.397  12.660  0.5319  0.5845  0.2431
  103TMC2     H 1607   0.244   4.416  12.616  0.1839  2.2567 -1.4958
  103TMC2    H1 1608   0.114   4.520  13.013  0.8095  3.4405 -0.8955
  103TMC2    H2 1609   0.514   4.599  12.877  0.1375  1.3454 -0.1212
  103TMC2    C7 1610   0.378   4.595  13.088  0.2994  0.7666 -0.9691
  103TMC2    C8 1611   0.463   4.546  12.633  0.2781 -0.7676 -0.8907
  103TMC2    O1 1612   0.292   4.636  13.166 -0.0144 -0.0910 -0.3803
  103TMC2    O2 1613   0.419   4.547  12.516  0.1565 -0.4961  0.1030
  103TMC2    O5 1614   0.582   4.587  12.671 -0.2900 -0.1317  0.5926
  103TMC2    H5 1615   0.628   4.552  12.750 -2.3640 -3.3825  0.3561
  104MPD2     C 1616   4.501   4.291  12.990  0.4835 -0.4816  0.1502
  104MPD2    C1 1617   4.561   4.342  12.880  0.4320  0.1190  0.3602
  104MPD2    C2 1618   4.489   4.355  12.766 -0.2170  0.1038 -0.2693
  104MPD2    C3 1619   4.352   4.333  12.775  0.7101 -0.8748 -0.1722
  104MPD2    C4 1620   4.293   4.281  12.887 -0.2654 -0.9426 -0.4633
  104MPD2    C5 1621   4.374   4.249  12.994 -0.4441  0.0328 -0.4388
  104MPD2     H 1622   4.536   4.385  12.673 -0.5947  1.5699  0.0164
  104MPD2    H1 1623   4.193   4.240  12.894 -0.4542 -0.1272  1.6996
  104MPD2    H2 1624   4.565   4.274  13.075  0.0926 -0.6356  0.4148
  104MPD2    H3 1625   4.331   4.198  13.080  2.1939 -1.0959  0.2123
  104MPD2     N 1626   4.278   4.375  12.661  0.1670 -0.7470 -0.3591
  104MPD2    H5 1627   4.334   4.383  12.576 -1.8890 -0.9842 -1.7298
  104MPD2    N1 1628   4.704   4.351  12.886  0.3240  0.3716  0.6725
  104MPD2    H7 1629   0.007   4.355  12.979  0.1106 -2.0711  0.8812
  105TMC2    C1 1630   2.026   3.465   0.616  0.0144  0.3210  0.5092
  105TMC2    C2 1631   1.944   3.570   0.575  0.3505 -0.0565  0.9587
  105TMC2    C3 1632   1.833   3.612   0.647  0.3013 -0.3481 -0.0343
  105TMC2    C4 1633   2.014   3.414   0.744  0.4750  0.4079 -0.2297
  105TMC2    C5 1634   1.906   3.469   0.817 -0.3086 -0.0934  0.7511
  105TMC2    C6 1635   1.816   3.561   0.771 -0.3667  0.3321  0.4258
  105TMC2     C 1636   2.123   3.402   0.525 -0.3899  0.0015  0.2901
  105TMC2     O 1637   2.193   3.319   0.585  0.4522  0.1145 -0.1490
  105TMC2     H 1638   1.965   3.618   0.480 -2.7987 -1.4170 -0.4241
  105TMC2    H1 1639   2.083   3.336   0.774  1.2482  1.1063 -0.1872
  105TMC2    H2 1640   1.729   3.591   0.828  0.5196  0.2070  1.8215
  105TMC2    C7 1641   1.900   3.438   0.956 -0.5061 -0.1309 -0.0990
  105TMC2    C8 1642   1.748   3.725   0.609 -0.0632 -0.0547  0.5418
  105TMC2    O1 1643   1.987   3.363   0.994  0.0642  0.1532  0.6368
  105TMC2    O2 1644   1.719   3.803   0.695  0.3149  0.9833  0.4335
  105TMC2    O5 1645   1.752   3.757   0.478 -0.0570 -0.1198  0.1268
  105TMC2    H5 1646   1.779   3.677   0.428  0.8043  0.7882 -0.8549
  106MPD2     C 1647   2.312   3.272   0.063  0.2891  0.8822  0.0455
  106MPD2    C1 1648   2.230   3.387   0.049  0.1028  0.4058  0.4616
  106MPD2    C2 1649   2.159   3.430   0.160 -0.0670 -0.5847  0.0057
  106MPD2    C3 1650   2.166   3.373   0.285  0.3889  0.5154 -0.0689
  106MPD2    C4 1651   2.249   3.260   0.297  0.0224  0.3433 -0.1462
  106MPD2    C5 1652   2.310   3.208   0.186  0.2180  0.4770  0.3082
  106MPD2     H 1653   2.102   3.523   0.158  0.5016 -0.1914  1.8594
  106MPD2    H1 1654   2.279   3.209   0.388 -3.1910 -0.2682  0.5449
  106MPD2    H2 1655   2.390   3.255  17.741 -0.5883  1.3071 -0.9965
  106MPD2    H3 1656   2.379   3.129   0.211 -0.3966  0.6069  2.4188
  106MPD2     N 1657   2.111   3.443   0.394  0.2226 -0.1438  0.4917
  106MPD2    H5 1658   2.040   3.514   0.378  0.1886 -0.1195  0.7380
  106MPD2    N1 1659   2.239   3.483  17.686 -0.5831  0.1574 -0.8353
  106MPD2    H7 1660   2.194   3.574  17.690  1.2216  1.0412 -0.7400
  107TMC2    C1 1661   2.266   3.446  11.699  0.0355 -0.1515 -0.2564
  107TMC2    C2 1662   2.131   3.435  11.698  0.0421  1.2705  0.5984
  107TMC2    C3 1663   2.060   3.467  11.589 -0.4438  0.3522 -0.8207
  107TMC2    C4 1664   2.335   3.469  11.586 -1.0227 -0.0770 -0.3414
  107TMC2    C5 1665   2.261   3.488  11.472 -0.0521  0.8035  0.0112
  107TMC2    C6 1666   2.122   3.492  11.473  0.3644  0.6509 -0.0865
  107TMC2     C 1667   2.339   3.425  11.816 -1.0740 -0.5138  0.0848
  107TMC2     O 1668   2.277   3.442  11.920  0.1330  0.3836 -0.0287
  107TMC2     H 1669   2.077   3.428  11.792  4.6371 -1.3442  3.0622
  107TMC2    H1 1670   2.442   3.487  11.584 -1.1027  0.3051 -0.9927
  107TMC2    H2 1671   2.062   3.509  11.384 -0.9900 -0.5723  0.5816
  107TMC2    C7 1672   2.325   3.512  11.352 -0.0460  0.7847  0.1049
  107TMC2    C8 1673   1.919   3.431  11.588 -0.5752 -0.9525  0.0957
  107TMC2    O1 1674   2.269   3.595  11.283  1.1870 -0.0011 -0.0764
  107TMC2    O2 1675   1.833   3.480  11.657 -0.1889  0.5825  0.4811
  107TMC2    O5 1676   1.908   3.321  11.503 -0.5216 -0.6722 -0.3156
  107TMC2    H5 1677   1.997   3.281  11.494 -0.6657 -0.6888 -1.6809
  108MPD2     C 1678   2.688   3.332  11.844  0.3412  0.6835 -0.7175
  108MPD2    C1 1679   2.567   3.378  11.899  0.3783  0.3739 -0.2534
  108MPD2    C2 1680   2.557   3.415  12.030  0.2133  0.6630 -0.1709
  108MPD2    C3 1681   2.667   3.402  12.110  0.0894 -0.2803 -0.9608
  108MPD2    C4 1682   2.784   3.350  12.061 -0.9349 -0.4977  0.1483
  108MPD2    C5 1683   2.801   3.314  11.932  0.3877  0.6199  0.3413
  108MPD2     H 1684   2.465   3.446  12.078  1.1195  0.3072  1.7744
  108MPD2    H1 1685   2.879   3.329  12.109 -1.1148 -0.0336  0.7040
  108MPD2    H2 1686   2.692   3.309  11.738  0.8684 -1.7291 -0.1796
  108MPD2    H3 1687   2.893   3.274  11.892 -1.4580 -2.3131 -1.0360
  108MPD2     N 1688   2.651   3.432  12.245 -0.0260  0.4800  0.5086
  108MPD2    H5 1689   2.567   3.485  12.267  0.0705 -0.1273  2.3882
  108MPD2    N1 1690   2.465   3.383  11.798  0.0502  0.4657  0.3740
  108MPD2    H7 1691   2.497   3.356  11.705  3.3557  0.2912  1.5408
  109TMC2    C1 1692   2.440   1.848   1.201 -0.3529 -0.7026  0.2563
  109TMC2    C2 1693   2.489   1.975   1.214  0.1003 -0.4423 -0.2216
  109TMC2    C3 1694   2.626   1.990   1.211 -0.3473  0.0223  0.0990
  109TMC2    C4 1695   2.528   1.741   1.163 -0.0988  0.1837  0.6667
  109TMC2    C5 1696   2.662   1.763   1.153 -0.2737  0.8314 -0.1796
  109TMC2    C6 1697   2.708   1.888   1.176 -0.5548  0.0294 -0.2331
  109TMC2     C 1698   2.295   1.837   1.200 -0.2905 -0.2124 -0.6945
  109TMC2     O 1699   2.238   1.927   1.262  0.0301 -0.0709 -0.0929
  109TMC2     H 1700   2.420   2.052   1.246  1.8211  0.9844  0.0401
  109TMC2    H1 1701   2.486   1.643   1.146  1.7714 -0.2958 -1.0992
  109TMC2    H2 1702   2.814   1.900   1.160 -0.1408 -2.0204  0.9331
  109TMC2    C7 1703   2.751   1.665   1.098 -0.1119 -0.3056  0.2461
  109TMC2    C8 1704   2.691   2.101   1.273 -0.2302 -0.2140 -0.8636
  109TMC2    O1 1705   2.870   1.691   1.110  0.0559 -0.2021 -0.3080
  109TMC2    O2 1706   2.813   2.104   1.280 -0.5144  0.2012  0.0324
  109TMC2    O5 1707   2.616   2.207   1.238 -0.7855 -0.0714 -0.2029
  109TMC2    H5 1708   2.555   2.183   1.165  0.2990  2.1418 -1.8566
  110MPD2     C 1709   1.846   1.612   1.106  0.0504  0.1736  0.3012
  110MPD2    C1 1710   1.946   1.521   1.066  0.3146 -1.1497 -0.1747
  110MPD2    C2 1711   2.077   1.567   1.086  0.1115 -0.2136  0.1581
  110MPD2    C3 1712   2.101   1.694   1.135  1.0735 -0.2314 -0.2071
  110MPD2    C4 1713   2.006   1.777   1.183  0.1043  0.2015 -0.2372
  110MPD2    C5 1714   1.875   1.743   1.153 -0.4138 -0.8852 -0.7587
  110MPD2     H 1715   2.160   1.514   1.039  1.1480  1.5504  0.0145
  110MPD2    H1 1716   2.031   1.863   1.244  2.1476 -1.3492  1.1203
  110MPD2    H2 1717   1.742   1.580   1.102  0.5816 -1.5190 -0.0325
  110MPD2    H3 1718   1.795   1.806   1.190 -1.1751 -1.6301 -1.1322
  110MPD2     N 1719   2.242   1.727   1.140  0.3783 -0.5893 -0.1211
  110MPD2    H5 1720   2.312   1.664   1.101  0.4685 -1.4959  1.4876
  110MPD2    N1 1721   1.905   1.395   1.028  0.2373 -0.2964 -0.5352
  110MPD2    H7 1722   1.806   1.373   1.034  0.0621  0.5456 -0.4129
  111TMC2    C1 1723   2.356   0.413  11.875 -0.5563 -0.2017 -0.2407
  111TMC2    C2 1724   2.260   0.315  11.893  0.4437  0.0586 -0.2106
  111TMC2    C3 1725   2.297   0.221  11.987 -0.1438  0.1658  0.2527
  111TMC2    C4 1726   2.476   0.413  11.925 -0.2826  0.7345 -0.3237
  111TMC2    C5 1727   2.506   0.317  12.013  0.3120 -0.5699 -0.0854
  111TMC2    C6 1728   2.417   0.214  12.043  0.6380 -0.1930  0.1735
  111TMC2     C 1729   2.307   0.521  11.795  0.5985  0.9169  0.0906
  111TMC2     O 1730   2.222   0.499  11.711  0.0862 -0.3742  0.5122
  111TMC2     H 1731   2.162   0.317  11.847  0.0186  0.5696  0.7103
  111TMC2    H1 1732   2.539   0.494  11.889  0.7474 -0.6048 -1.5559
  111TMC2    H2 1733   2.439   0.137  12.115  0.2172  1.2747  1.8571
  111TMC2    C7 1734   2.646   0.288  12.043  0.1037 -1.1843  0.1672
  111TMC2    C8 1735   2.216   0.111  12.018 -0.0775 -0.1209  0.1179
  111TMC2    O1 1736   2.663   0.178  12.088  0.2844  0.1610  0.1827
  111TMC2    O2 1737   2.233   0.053  12.125 -0.0915  1.0351  0.3528
  111TMC2    O5 1738   2.200   0.051  11.899 -0.4178 -0.1441 -0.5591
  111TMC2    H5 1739   2.219   0.097  11.815 -0.7562  1.7390  0.4032
  112MPD2     C 1740   2.439   0.960  11.583 -0.1927  0.0316  0.0237
  112MPD2    C1 1741   2.394   0.848  11.517  0.9858  0.8756  1.1177
  112MPD2    C2 1742   2.360   0.744  11.602 -0.4575  0.0442 -0.5956
  112MPD2    C3 1743   2.374   0.751  11.739 -0.0464 -0.1355  0.9032
  112MPD2    C4 1744   2.400   0.876  11.795 -0.5550 -0.7883 -0.2361
  112MPD2    C5 1745   2.433   0.979  11.716 -0.2347 -0.4791 -0.4716
  112MPD2     H 1746   2.342   0.650  11.550 -1.2730  0.2239 -0.6493
  112MPD2    H1 1747   2.401   0.884  11.904 -4.1999 -0.2364 -0.2346
  112MPD2    H2 1748   2.477   1.047  11.531  1.1143  0.7207  2.1141
  112MPD2    H3 1749   2.457   1.077  11.757 -0.7598 -0.4366 -0.2713
  112MPD2     N 1750   2.367   0.641  11.827  0.1151 -0.4389  0.6924
  112MPD2    H5 1751   2.421   0.650  11.912  0.4835  0.2014  0.3928
  112MPD2    N1 1752   2.390   0.831  11.381 -0.7895 -0.4280  0.5506
  112MPD2    H7 1753   2.357   0.740  11.350 -1.3946 -0.3179  0.8658
  113TMC2    C1 1754   1.026   3.170   0.789 -0.0211  0.3342 -0.3425
  113TMC2    C2 1755   1.024   3.303   0.756 -0.0639 -0.5041  0.5119
  113TMC2    C3 1756   0.912   3.348   0.689  0.6101 -0.5893 -0.2218
  113TMC2    C4 1757   0.926   3.082   0.758  0.0785  0.0944 -0.1444
  113TMC2    C5 1758   0.823   3.131   0.680  0.3489  0.3537  0.5570
  113TMC2    C6 1759   0.820   3.259   0.641  0.4319 -0.2997  0.5849
  113TMC2     C 1760   1.149   3.131   0.861  0.4438 -0.3520 -0.0328
  113TMC2     O 1761   1.204   3.215   0.927  0.4003 -0.1716 -0.2577
  113TMC2     H 1762   1.102   3.370   0.791  1.3688 -1.2144 -1.2883
  113TMC2    H1 1763   0.923   2.979   0.790  1.0039 -0.1806 -0.9434
  113TMC2    H2 1764   0.737   3.299   0.584  0.0268 -2.4596 -0.3156
  113TMC2    C7 1765   0.697   3.054   0.665  0.1912  0.5451  0.0036
  113TMC2    C8 1766   0.900   3.492   0.668  0.0468  0.1288 -0.4330
  113TMC2    O1 1767   0.614   3.122   0.607 -0.0126  0.3194 -0.3690
  113TMC2    O2 1768   0.951   3.578   0.742 -0.3191 -0.1265 -0.2278
  113TMC2    O5 1769   0.794   3.523   0.597  0.4402  0.4696 -0.3469
  113TMC2    H5 1770   0.769   3.460   0.526  0.0832  1.0551 -0.7404
  114MPD2     C 1771   1.529   2.810   1.002 -0.0517  0.2007  0.3713
  114MPD2    C1 1772   1.493   2.933   1.053 -0.2055  0.5457 -0.0369
  114MPD2    C2 1773   1.390   3.009   1.002 -0.5524 -0.5746 -0.0226
  114MPD2    C3 1774   1.313   2.949   0.899  0.5641  0.0829  0.0549
  114MPD2    C4 1775   1.345   2.827   0.855 -0.2546 -0.0936  1.0049
  114MPD2    C5 1776   1.459   2.758   0.895 -0.4876 -0.7396 -0.5645
  114MPD2     H 1777   1.363   3.108   1.037 -1.6166 -1.4928  1.7865
  114MPD2    H1 1778   1.291   2.790   0.768  2.2074  0.7513 -0.8788
  114MPD2    H2 1779   1.613   2.751   1.037  0.2629  0.9997  0.9887
  114MPD2    H3 1780   1.485   2.661   0.854 -0.7669 -0.8051 -0.5839
  114MPD2     N 1781   1.193   3.005   0.841  0.2574  0.0758 -0.0588
  114MPD2    H5 1782   1.132   2.949   0.783 -2.3558  0.1442  2.6360
  114MPD2    N1 1783   1.551   2.983   1.173 -0.1614  0.4325 -0.8159
  114MPD2    H7 1784   1.518   3.073   1.204  0.0230  0.1756  0.1347
  115TMC2    C1 1785   2.051   0.884  17.667 -0.0026  0.1650 -0.7468
  115TMC2    C2 1786   2.099   0.792   0.012 -0.6214  1.0984 -0.1241
  115TMC2    C3 1787   2.144   0.847   0.126  0.5549  0.7574  1.1144
  115TMC2    C4 1788   2.049   1.017  17.687 -0.0365  0.7461  0.8046
  115TMC2    C5 1789   2.107   1.062   0.051 -0.2299 -0.4963  0.4800
  115TMC2    C6 1790   2.152   0.983   0.151 -0.1747 -0.2825  0.6861
  115TMC2     C 1791   1.966   0.827  17.556  0.5536 -0.0100  0.5243
  115TMC2     O 1792   1.939   0.710  17.574  0.0994 -0.8134  0.2794
  115TMC2     H 1793   2.114   0.687  17.744  0.4346  1.3063 -0.4203
  115TMC2    H1 1794   1.985   1.077  17.625  0.3981  2.0691  1.6448
  115TMC2    H2 1795   2.200   1.013   0.244  1.1669  1.3912 -0.5421
  115TMC2    C7 1796   2.146   1.203   0.064 -0.4187  0.4960  0.0574
  115TMC2    C8 1797   2.164   0.751   0.242  0.1143  0.1761 -0.4433
  115TMC2    O1 1798   2.160   1.235   0.182 -0.0216  0.2800  0.1727
  115TMC2    O2 1799   2.211   0.801   0.343 -0.0593  0.5994 -0.8907
  115TMC2    O5 1800   2.056   0.670   0.235 -0.1030  0.0566 -0.3192
  115TMC2    H5 1801   2.009   0.652   0.151 -1.4419  0.1319  0.4011
  116MPD2     C 1802   1.675   0.806  17.148  0.4582  0.3033  0.3000
  116MPD2    C1 1803   1.688   0.717  17.248  0.0521 -0.3025  0.1994
  116MPD2    C2 1804   1.765   0.748  17.358  0.2278 -0.5441 -0.0820
  116MPD2    C3 1805   1.835   0.874  17.351 -0.3157  0.0176  0.3305
  116MPD2    C4 1806   1.812   0.972  17.251 -0.3936 -0.0120  0.6123
  116MPD2    C5 1807   1.730   0.938  17.151  0.1802  0.1426 -0.0171
  116MPD2     H 1808   1.764   0.681  17.444  1.6122  0.8115  0.9889
  116MPD2    H1 1809   1.861   1.068  17.243  0.1816 -0.3956 -0.5233
  116MPD2    H2 1810   1.611   0.786  17.063  0.4023  0.3683  0.3264
  116MPD2    H3 1811   1.706   1.007  17.071  1.3737 -1.9369 -2.1761
  116MPD2     N 1812   1.931   0.908  17.455  0.0312 -0.6423 -0.2108
  116MPD2    H5 1813   1.982   0.995  17.444 -0.6911 -0.4083 -1.7763
  116MPD2    N1 1814   1.594   0.608  17.249 -0.1356 -0.0086  0.5227
  116MPD2    H7 1815   1.526   0.607  17.174  2.2927  1.0357 -1.7222
  117TMC2    C1 1816   0.494   2.441  14.042  0.1996 -0.0846 -1.1897
  117TMC2    C2 1817   0.576   2.423  14.150  0.3832 -0.3944 -0.5166
  117TMC2    C3 1818   0.660   2.523  14.183  0.6283  0.9488 -0.4686
  117TMC2    C4 1819   0.481   2.558  13.981 -0.4590 -0.2799  0.0516
  117TMC2    C5 1820   0.577   2.649  14.005  0.2983  0.1986  0.9593
  117TMC2    C6 1821   0.661   2.642  14.116 -0.4880 -0.2236  0.5440
  117TMC2     C 1822   0.368   2.389  14.060  0.2643  0.2150 -0.6724
  117TMC2     O 1823   0.349   2.274  14.029  0.2646  0.5191  0.1623
  117TMC2     H 1824   0.556   2.338  14.213 -0.4537 -1.3016 -1.9994
  117TMC2    H1 1825   0.437   2.553  13.882 -0.3333  2.8567 -0.1541
  117TMC2    H2 1826   0.739   2.714  14.136 -0.2912 -0.2301 -0.2005
  117TMC2    C7 1827   0.536   2.786  13.957 -0.1310 -0.3161 -0.3114
  117TMC2    C8 1828   0.765   2.500  14.270  0.2771 -0.3932  0.2425
  117TMC2    O1 1829   0.611   2.882  13.976 -0.2299 -0.4458 -0.3558
  117TMC2    O2 1830   0.791   2.382  14.306  0.0801  0.0076  0.2717
  117TMC2    O5 1831   0.765   2.604  14.355 -0.1973 -0.1306 -0.0219
  117TMC2    H5 1832   0.720   2.687  14.327  2.0488  0.8321 -0.8201
  118MPD2     C 1833   0.212   2.902  13.819  0.4415  0.1124  0.8932
  118MPD2    C1 1834   0.338   2.913  13.864 -0.5737 -0.3019  0.5192
  118MPD2    C2 1835   0.396   3.036  13.861  0.0273  0.5755 -0.0928
  118MPD2    C3 1836   0.325   3.154  13.842  0.3056 -0.1328 -1.1304
  118MPD2    C4 1837   0.198   3.142  13.793 -0.4218 -0.5756  0.1310
  118MPD2    C5 1838   0.145   3.016  13.779 -0.2046  0.4390  0.3595
  118MPD2     H 1839   0.502   3.044  13.881  0.3243 -1.2601 -0.9485
  118MPD2    H1 1840   0.137   3.230  13.775 -0.6656 -0.8324 -0.2948
  118MPD2    H2 1841   0.157   2.808  13.812 -0.6773  0.8562 -0.3651
  118MPD2    H3 1842   0.039   3.018  13.754  0.1173 -2.5556 -1.2968
  118MPD2     N 1843   0.372   3.282  13.854 -0.0041 -0.1727  0.4055
  118MPD2    H5 1844   0.313   3.355  13.815 -0.6350 -1.2712 -0.6823
  118MPD2    N1 1845   0.409   2.793  13.895 -0.1095 -0.6368 -0.3977
  118MPD2    H7 1846   0.363   2.703  13.885 -1.4136  0.1405 -1.4691
  119TMC2    C1 1847   3.199   3.918  13.206 -0.1966  0.5453  0.0818
  119TMC2    C2 1848   3.274   3.799  13.211  0.0709 -0.1531  0.5481
  119TMC2    C3 1849   3.214   3.694  13.274 -0.1648  0.4855 -0.0449
  119TMC2    C4 1850   3.071   3.923  13.255 -0.4042  0.0297 -0.2515
  119TMC2    C5 1851   3.014   3.813  13.314  0.3729  1.0998 -0.2092
  119TMC2    C6 1852   3.085   3.694  13.318  0.4014 -0.1942  0.1533
  119TMC2     C 1853   3.273   4.031  13.148  0.2030  0.1348 -0.0613
  119TMC2     O 1854   3.373   4.005  13.079  0.3681 -0.0369  0.0081
  119TMC2     H 1855   3.368   3.802  13.157  1.0397 -1.2657  2.1462
  119TMC2    H1 1856   3.014   4.013  13.233 -0.4807  0.1650  0.5022
  119TMC2    H2 1857   3.034   3.601  13.339  0.3484 -0.7077 -2.3117
  119TMC2    C7 1858   2.881   3.817  13.368  0.3976  0.1133 -0.1593
  119TMC2    C8 1859   3.256   3.564  13.245 -0.6821  0.4589 -0.0629
  119TMC2    O1 1860   2.819   3.909  13.310 -0.0607 -0.3204 -0.8027
  119TMC2    O2 1861   3.178   3.471  13.228  0.1551  0.2221  0.2837
  119TMC2    O5 1862   3.387   3.562  13.209 -0.1480 -0.2548 -0.5133
  119TMC2    H5 1863   3.436   3.641  13.243 -2.7012  0.8442  0.5839
  120MPD2     C 1864   3.121   4.323  13.549 -0.3942 -0.1655  0.0462
  120MPD2    C1 1865   3.183   4.196  13.540 -0.5617  0.8797 -0.5208
  120MPD2    C2 1866   3.209   4.143  13.415 -0.2072 -0.0429  0.0312
  120MPD2    C3 1867   3.190   4.215  13.299 -0.3490 -0.5120  0.3760
  120MPD2    C4 1868   3.148   4.349  13.306  0.4304  0.5277 -0.1870
  120MPD2    C5 1869   3.100   4.397  13.432 -0.5307 -0.3110 -0.4394
  120MPD2     H 1870   3.248   4.043  13.403 -2.6160 -1.1417  1.2879
  120MPD2    H1 1871   3.134   4.409  13.217  0.3272  0.2468 -0.3624
  120MPD2    H2 1872   3.093   4.374  13.641  0.3448 -1.5004  1.0175
  120MPD2    H3 1873   3.058   4.496  13.437  0.7483  0.2791 -1.2429
  120MPD2     N 1874   3.225   4.158  13.172 -0.2519 -0.6908 -0.8201
  120MPD2    H5 1875   3.229   4.222  13.094  0.0210 -0.8992 -0.9742
  120MPD2    N1 1876   3.187   4.112  13.649 -0.7755 -0.0416 -0.0759
  120MPD2    H7 1877   3.132   4.139  13.731 -2.1439  0.1706 -1.0588
  121TMC2    C1 1878   4.382   0.148  13.949 -0.3687 -0.4863 -0.3328
  121TMC2    C2 1879   4.386   0.097  14.072 -0.5794 -0.4293 -0.3443
  121TMC2    C3 1880   4.285   0.021  14.117 -0.6281 -0.2400 -0.8037
  121TMC2    C4 1881   4.273   0.126  13.872  0.6604  0.0147 -0.0944
  121TMC2    C5 1882   4.169   0.061  13.919 -0.0602  0.0659  0.0981
  121TMC2    C6 1883   4.169   0.003  14.044  0.4548  0.0603 -0.9686
  121TMC2     C 1884   4.482   0.238  13.900 -0.0836  0.2628  0.1641
  121TMC2     O 1885   4.577   0.255  13.974  0.0857  0.3510  0.1523
  121TMC2     H 1886   4.477   0.108  14.130 -0.8146  3.8704 -0.8308
  121TMC2    H1 1887   4.269   0.161  13.770 -1.5322  1.1747  0.3750
  121TMC2    H2 1888   4.079   4.700  14.088  1.9559 -2.5166 -0.3326
  121TMC2    C7 1889   4.040   0.109  13.854  0.3539 -0.2348  0.1323
  121TMC2    C8 1890   4.320   4.689  14.237 -0.2915 -0.2793  0.1478
  121TMC2    O1 1891   4.047   0.215  13.796 -0.0015  0.1037 -0.0946
  121TMC2    O2 1892   4.428   4.702  14.293  0.6109 -0.0271  0.4636
  121TMC2    O5 1893   4.213   4.626  14.291  0.2351 -0.1878  0.2937
  121TMC2    H5 1894   4.135   4.658  14.240  0.1030  1.6799  1.6498
  122MPD2     C 1895   4.646   0.457  13.801  0.6068  0.9084 -0.1375
  122MPD2    C1 1896   4.517   0.423  13.749  0.8705 -0.2511  0.2600
  122MPD2    C2 1897   4.469   0.497  13.643 -0.1218  0.7270  0.1987
  122MPD2    C3 1898   4.534   0.617  13.607 -0.4432  0.3796 -0.3061
  122MPD2    C4 1899   4.639   0.667  13.684 -0.0083 -0.6524 -1.3273
  122MPD2    C5 1900   4.702   0.579  13.762  0.3263  0.7976  0.8609
  122MPD2     H 1901   4.370   0.477  13.602 -0.5769  0.3044  1.5055
  122MPD2    H1 1902   4.697   0.754  13.659  0.1184  0.0543  1.4182
  122MPD2    H2 1903   4.698   0.397  13.875 -3.5089  0.7918  2.6550
  122MPD2    H3 1904   0.053   0.604  13.818  0.4004  2.9491 -0.2115
  122MPD2     N 1905   4.477   0.698  13.498  0.0707 -0.3888  0.0179
  122MPD2    H5 1906   4.515   0.791  13.479  0.2925 -0.8939 -2.0367
  122MPD2    N1 1907   4.450   0.311  13.788 -0.3361  0.6207 -0.0866
  122MPD2    H7 1908   4.360   0.301  13.743 -0.6425 -1.0235  0.8791
  123TMC2    C1 1909   3.036   4.061  11.112  0.6398  0.1241  0.4643
  123TMC2    C2 1910   2.993   4.103  11.241  0.0535 -0.3398 -0.1456
  123TMC2    C3 1911   3.002   4.233  11.269 -0.4256 -0.8242  0.0560
  123TMC2    C4 1912   3.108   4.142  11.029 -0.0908  0.0896 -0.2846
  123TMC2    C5 1913   3.134   4.271  11.077 -0.4726 -0.5029 -0.0733
  123TMC2    C6 1914   3.075   4.321  11.194  0.2202  0.6689 -0.5936
  123TMC2     C 1915   3.036   3.917  11.083 -0.7417 -0.4377  0.2757
  123TMC2     O 1916   3.016   3.850  11.181  0.4721  0.3281  0.2308
  123TMC2     H 1917   2.953   4.029  11.310 -0.6480  0.4194  0.2605
  123TMC2    H1 1918   3.159   4.096  10.945  2.1175  1.5872  0.2289
  123TMC2    H2 1919   3.110   4.420  11.222  1.3460  0.3476 -0.8432
  123TMC2    C7 1920   3.226   4.356  11.005  0.4760 -1.2223 -0.2362
  123TMC2    C8 1921   2.951   4.281  11.396  0.5040  0.2029 -1.2687
  123TMC2    O1 1922   3.234   4.473  11.035 -0.1731  0.0641  0.0539
  123TMC2    O2 1923   2.919   4.191  11.476 -0.0239 -0.2594 -0.1718
  123TMC2    O5 1924   2.864   4.377  11.347  0.9746  0.1914  0.0804
  123TMC2    H5 1925   2.884   4.408  11.256  2.2290  0.3809  0.4197
  124MPD2     C 1926   2.955   3.478  10.855 -1.0101  0.3012 -0.0454
  124MPD2    C1 1927   2.906   3.578  10.768  0.1135  0.3560 -0.0958
  124MPD2    C2 1928   2.934   3.714  10.795 -0.0200 -0.0614  0.2496
  124MPD2    C3 1929   2.993   3.747  10.920 -0.2637 -0.2952 -0.7527
  124MPD2    C4 1930   3.053   3.644  10.995 -0.4183  0.2997  0.6302
  124MPD2    C5 1931   3.027   3.516  10.960 -0.1231 -0.0616  0.5885
  124MPD2     H 1932   2.882   3.798  10.749  0.9190  2.1750  3.2421
  124MPD2    H1 1933   3.120   3.672  11.076 -1.6752 -0.8027  2.0581
  124MPD2    H2 1934   2.944   3.373  10.834  1.3162  0.2695 -1.1309
  124MPD2    H3 1935   3.091   3.442  11.007 -0.1135 -0.8693 -0.7074
  124MPD2     N 1936   3.005   3.886  10.951  0.3399 -0.4091 -0.3637
  124MPD2    H5 1937   2.973   3.959  10.888  1.5045 -1.4384 -2.1266
  124MPD2    N1 1938   2.831   3.536  10.653  0.0444  0.2716 -0.4877
  124MPD2    H7 1939   2.823   3.435  10.641  0.8586  0.2077 -0.4911
  125TMC2    C1 1940   4.129   1.521   9.871  0.6882 -0.3798 -0.1669
  125TMC2    C2 1941   4.213   1.626   9.882 -0.2235 -0.0698 -0.8094
  125TMC2    C3 1942   4.245   1.686   9.763  0.0918 -0.2393  0.1581
  125TMC2    C4 1943   4.063   1.481   9.751  0.3294  0.8085  0.3521
  125TMC2    C5 1944   4.089   1.564   9.643 -0.8758  0.6068 -0.4810
  125TMC2    C6 1945   4.184   1.657   9.645  0.6815 -0.2541  0.1290
  125TMC2     C 1946   4.099   1.454   9.994  0.1236 -0.6038 -0.1603
  125TMC2     O 1947   4.192   1.442  10.074  0.1993  0.3174  0.3822
  125TMC2     H 1948   4.241   1.674   9.975  1.2314 -0.9776 -0.7917
  125TMC2    H1 1949   4.004   1.391   9.740  2.0078 -0.4223  1.4148
  125TMC2    H2 1950   4.196   1.727   9.563  2.0133 -0.7965 -0.1322
  125TMC2    C7 1951   4.044   1.509   9.514  0.4823  0.9708 -0.2426
  125TMC2    C8 1952   4.291   1.825   9.774  0.1105 -0.7070 -0.1057
  125TMC2    O1 1953   3.948   1.435   9.522 -0.6819  0.1693  0.2815
  125TMC2    O2 1954   4.220   1.921   9.733  0.3643  0.5621 -0.4325
  125TMC2    O5 1955   4.424   1.816   9.768  0.0106 -0.4001 -0.9550
  125TMC2    H5 1956   4.449   1.721   9.774 -0.6457 -0.4275  1.5418
  126MPD1     C 1957   3.835   1.165  10.326  0.4715 -0.2104 -0.8916
  126MPD1    C1 1958   3.775   1.166  10.204 -0.1608 -0.0142  0.0816
  126MPD1    C2 1959   3.829   1.238  10.105 -0.3150 -1.4045 -0.0261
  126MPD1    C3 1960   3.943   1.313  10.114 -0.5882  0.0850  0.6722
  126MPD1    C4 1961   4.007   1.306  10.235  0.0317  0.1024  0.2840
  126MPD1    C5 1962   3.955   1.233  10.340 -0.1604 -1.2964  0.7876
  126MPD1     H 1963   3.796   1.239  10.002  3.4316 -0.7656 -1.2418
  126MPD1    H1 1964   4.098   1.359  10.260  0.1751  0.1224 -0.2800
  126MPD1    H2 1965   3.803   1.098  10.405  0.8171  1.9323  1.0462
  126MPD1    H3 1966   4.006   1.232  10.435 -0.5995 -0.6340  1.0282
  126MPD1     N 1967   3.979   1.388  10.005  0.8452  0.3738  0.2189
  126MPD1    H5 1968   3.921   1.390   9.922  2.1643  0.6190 -0.7006
  126MPD1    N1 1969   3.673   1.073  10.176 -0.1669 -0.9815  0.7126
  126MPD1    H6 1970   3.600   1.067  10.247 -1.4583  1.1675 -0.4211
  126MPD1    H7 1971   3.623   1.081  10.087 -2.0988 -0.0855  1.8679
  127TMC2    C1 1972   0.153   0.020  10.024  0.1544  0.0173 -0.0765
  127TMC2    C2 1973   0.259   0.057  10.103  0.1211 -0.3651  0.1137
  127TMC2    C3 1974   0.265   4.732  10.232  0.6649 -0.4463  0.1214
  127TMC2    C4 1975   0.080   4.648  10.056 -0.1252  0.7382 -0.0324
  127TMC2    C5 1976   0.098   4.584  10.175  0.0349 -0.5584  0.2083
  127TMC2    C6 1977   0.200   4.620  10.266  0.0500 -0.7087 -0.0804
  127TMC2     C 1978   0.117   0.120   9.919  0.0321  0.2384  0.1241
  127TMC2     O 1979   0.185   0.219   9.915  0.1148 -0.0678 -0.0304
  127TMC2     H 1980   0.311   0.151  10.085  0.5564 -0.4834  0.7558
  127TMC2    H1 1981   0.004   4.611   9.989  1.6462 -2.5459 -0.2335
  127TMC2    H2 1982   0.208   4.585  10.369  2.9066  3.1981  1.0143
  127TMC2    C7 1983   0.005   4.481  10.212 -0.5321  0.9229 -0.4150
  127TMC2    C8 1984   0.369   0.039  10.324 -0.0745  1.0436  0.3027
  127TMC2    O1 1985   4.649   4.465  10.141 -0.1853 -0.1405  0.3195
  127TMC2    O2 1986   0.411   4.711  10.414 -0.0412 -0.4986  0.1867
  127TMC2    O5 1987   0.328   0.167  10.341  0.5190 -0.0711 -0.5122
  127TMC2    H5 1988   0.269   0.206  10.273  0.3592 -0.7700 -0.7788
  128MPD2     C 1989   4.677   0.073   9.597 -0.3434  0.7020  0.5874
  128MPD2    C1 1990   0.042   0.115   9.685  0.1659  0.5337  0.4366
  128MPD2    C2 1991   0.152   0.180   9.632  0.5001  0.2975 -0.3084
  128MPD2    C3 1992   0.152   0.223   9.504 -0.1438  0.2636 -0.3788
  128MPD2    C4 1993   0.041   0.208   9.425 -0.2316 -0.0921  0.9595
  128MPD2    C5 1994   4.677   0.126   9.472  0.7704 -0.0853 -0.1030
  128MPD2     H 1995   0.236   0.212   9.692  1.3310 -0.0342 -1.2881
  128MPD2    H1 1996   0.030   0.237   9.321 -0.7317  1.5597  1.4683
  128MPD2    H2 1997   4.601   0.003   9.630 -1.5685  1.4241 -0.6815
  128MPD2    H3 1998   4.599   0.098   9.403  0.1238  0.8306  0.2630
  128MPD2     N 1999   0.274   0.285   9.453 -0.1205  1.0670 -0.0420
  128MPD2    H5 2000   0.352   0.291   9.519 -0.4369  3.1051  0.1623
  128MPD2    N1 2001   0.027   0.076   9.821  0.4475  0.4870  1.0039
  128MPD2    H7 2002   4.693   0.007   9.837 -2.0658  2.6274 -1.2942
  129TMC2    C1 2003   3.064   4.449   1.045  0.5398  0.9296 -0.2469
  129TMC2    C2 2004   3.038   4.314   1.012 -0.4129  0.8219  0.0917
  129TMC2    C3 2005   2.919   4.284   0.959 -0.6458  0.6331 -0.1300
  129TMC2    C4 2006   2.969   4.547   1.018 -0.4029  0.0357 -0.3723
  129TMC2    C5 2007   2.844   4.512   0.961  0.4648 -0.4370  0.2695
  129TMC2    C6 2008   2.822   4.379   0.932 -0.0745 -0.4458 -0.0859
  129TMC2     C 2009   3.197   4.479   1.109 -0.2552  0.3267  0.3858
  129TMC2     O 2010   3.261   4.385   1.155 -0.3090  0.1264  0.1484
  129TMC2     H 2011   3.107   4.235   1.040  2.7556  3.3150 -0.6989
  129TMC2    H1 2012   2.984   4.650   1.050 -0.8882  0.1479 -0.5069
  129TMC2    H2 2013   2.725   4.349   0.894 -0.7630  0.7594  0.7400
  129TMC2    C7 2014   2.732   4.589   1.002 -0.3214 -0.0435  0.2736
  129TMC2    C8 2015   2.900   4.138   0.938 -0.4957  0.8035 -0.8214
  129TMC2    O1 2016   2.620   4.538   0.984 -0.5252 -0.1342  0.5311
  129TMC2    O2 2017   2.992   4.057   0.920  0.0216 -0.3417 -0.8451
  129TMC2    O5 2018   2.772   4.110   0.923  0.0910  0.2719  0.3012
  129TMC2    H5 2019   2.710   4.176   0.960  0.7889  0.6843  0.7080
  130MPD2     C 2020   3.426   4.594   1.281  0.0406 -0.3989 -0.2289
  130MPD2    C1 2021   3.330   4.668   1.214  0.0467  0.7268 -0.3638
  130MPD2    C2 2022   3.344   0.068   1.215 -0.9523 -0.0473  0.1665
  130MPD2    C3 2023   3.446   0.129   1.280 -0.1085 -0.3217  0.3878
  130MPD2    C4 2024   3.532   0.055   1.358  0.4033  0.3601  1.2354
  130MPD2    C5 2025   3.524   4.656   1.360  0.1901 -0.4344 -0.2479
  130MPD2     H 2026   3.279   0.138   1.163 -0.6007  0.7903  0.8524
  130MPD2    H1 2027   3.616   0.098   1.412  1.2256 -0.7384  0.8342
  130MPD2    H2 2028   3.413   4.488   1.297 -2.2490 -0.0181  0.3249
  130MPD2    H3 2029   3.572   4.592   1.434 -1.0833  0.9334  1.7858
  130MPD2     N 2030   3.459   0.273   1.269  0.3626  0.1304 -0.2537
  130MPD2    H5 2031   3.384   0.336   1.241 -0.5893 -0.7806  0.2160
  130MPD2    N1 2032   3.222   4.615   1.145  0.2486  0.3506 -0.1221
  130MPD2    H7 2033   3.153   4.678   1.106  0.3755  0.4099 -0.2475
  131TMC2    C1 2034   2.904   4.334   9.978 -0.3594  0.0099 -0.5510
  131TMC2    C2 2035   2.916   4.412  10.093 -0.3306  0.6900  0.3180
  131TMC2    C3 2036   3.003   4.519  10.089 -0.2639  0.2604 -0.7333
  131TMC2    C4 2037   2.973   4.358   9.862  0.3420 -0.0314 -0.0107
  131TMC2    C5 2038   3.058   4.466   9.870 -0.2173  0.1008 -0.4617
  131TMC2    C6 2039   3.080   4.544   9.981  0.5801  0.8922 -0.3424
  131TMC2     C 2040   2.828   4.213   9.987 -0.6348 -0.1478  0.4504
  131TMC2     O 2041   2.798   4.176  10.101 -0.3731  0.6802  0.7524
  131TMC2     H 2042   2.872   4.381  10.187  1.1196  1.3487  1.2075
  131TMC2    H1 2043   2.952   4.306   9.770 -0.7579 -0.1674  0.3248
  131TMC2    H2 2044   3.157   4.619   9.993  0.8915  0.4057  0.7259
  131TMC2    C7 2045   3.095   4.527   9.739 -0.0654 -0.3641 -0.0992
  131TMC2    C8 2046   3.066   4.554  10.215  0.3143  0.1199 -0.1461
  131TMC2    O1 2047   3.056   4.467   9.637 -0.1259  0.2464  0.4220
  131TMC2    O2 2048   3.062   4.478  10.312  0.4268 -0.0308  0.0536
  131TMC2    O5 2049   3.047   4.682  10.220  0.1597 -0.4926 -0.0888
  131TMC2    H5 2050   3.049   4.723  10.131  2.8457  0.6203  0.4875
  132MPD2     C 2051   2.719   3.970   9.734  0.2671 -0.3312  0.4819
  132MPD2    C1 2052   2.750   4.011   9.859 -0.0285 -0.0839  0.8534
  132MPD2    C2 2053   2.733   3.925   9.968 -0.3798  0.4937 -0.5848
  132MPD2    C3 2054   2.702   3.793   9.952  0.4948  0.2048 -0.4908
  132MPD2    C4 2055   2.683   3.743   9.823  0.7834  0.3131  0.3355
  132MPD2    C5 2056   2.679   3.838   9.719 -0.9792  0.3356  0.5063
  132MPD2     H 2057   2.746   3.959  10.070  2.2295  0.7876 -0.9937
  132MPD2    H1 2058   2.665   3.639   9.799  1.6067 -0.1775  1.9030
  132MPD2    H2 2059   2.729   4.033   9.646  0.1196  2.9650  2.8542
  132MPD2    H3 2060   2.670   3.793   9.621 -1.7857  0.9407  0.3101
  132MPD2     N 2061   2.709   3.711  10.070 -0.2904 -0.0710  0.2152
  132MPD2    H5 2062   2.747   3.757  10.153 -1.6916 -1.7146  1.7532
  132MPD2    N1 2063   2.801   4.149   9.871  0.5864 -0.5077  0.1789
  132MPD2    H7 2064   2.820   4.204   9.788 -0.2255  0.6665  0.7546
  133TMC2    C1 2065   2.309   1.541   9.824  0.1861  0.4772 -0.3603
  133TMC2    C2 2066   2.188   1.608   9.825 -0.3334 -1.0220 -0.0715
  133TMC2    C3 2067   2.173   1.741   9.875  0.1013  0.3609 -0.8120
  133TMC2    C4 2068   2.420   1.614   9.865  1.2708 -0.7485  1.0009
  133TMC2    C5 2069   2.402   1.739   9.914 -0.2637 -0.9350  0.1598
  133TMC2    C6 2070   2.281   1.808   9.924  0.6273 -0.5325 -0.4060
  133TMC2     C 2071   2.313   1.440   9.721 -0.0474 -0.4844  0.2243
  133TMC2     O 2072   2.207   1.411   9.666  0.0691  0.1237 -0.6777
  133TMC2     H 2073   2.096   1.556   9.802 -1.3998  0.7079  0.2918
  133TMC2    H1 2074   2.521   1.573   9.866  0.9628 -1.5199  1.0779
  133TMC2    H2 2075   2.269   1.908   9.963 -0.5734 -0.9266  0.2354
  133TMC2    C7 2076   2.524   1.816   9.920 -0.0192 -1.0789  0.2868
  133TMC2    C8 2077   2.040   1.796   9.889 -0.1388 -0.3660 -0.2445
  133TMC2    O1 2078   2.614   1.774   9.853  0.7962  0.0039 -0.0000
  133TMC2    O2 2079   2.019   1.885   9.971  0.5903  0.0888  0.4630
  133TMC2    O5 2080   1.954   1.751   9.790  0.2889 -0.7455  0.4805
  133TMC2    H5 2081   2.001   1.704   9.717 -0.7872  0.8820 -1.2243
  134MPD2     C 2082   2.589   1.235   9.626  0.3871  1.0386 -0.6442
  134MPD2    C1 2083   2.459   1.271   9.623 -0.2836 -0.4071 -0.4297
  134MPD2    C2 2084   2.366   1.199   9.546  0.9005 -0.5672  0.9464
  134MPD2    C3 2085   2.411   1.091   9.469 -0.0827 -0.0113 -0.4299
  134MPD2    C4 2086   2.546   1.045   9.485 -0.2210 -0.5127 -0.1468
  134MPD2    C5 2087   2.634   1.128   9.557  0.4918  0.2150 -0.0291
  134MPD2     H 2088   2.260   1.223   9.553  1.3408  1.6781 -0.0744
  134MPD2    H1 2089   2.582   0.961   9.427  0.1885  0.4628 -1.3143
  134MPD2    H2 2090   2.660   1.288   9.688  1.0961  0.4674 -0.9746
  134MPD2    H3 2091   2.735   1.090   9.563 -0.5923 -2.1158  3.7374
  134MPD2     N 2092   2.333   1.008   9.386  0.3206 -0.3699  0.3873
  134MPD2    H5 2093   2.376   0.927   9.342  0.8177 -0.0895  0.3489
  134MPD2    N1 2094   2.435   1.386   9.700  1.0479  0.0103 -0.7859
  134MPD2    H7 2095   2.509   1.431   9.752 -0.0755 -0.0219  0.8301
  135TMC2    C1 2096   3.733   1.779   9.312  0.4909  0.0846  0.4346
  135TMC2    C2 2097   3.597   1.755   9.309  0.0323 -0.1727 -0.5209
  135TMC2    C3 2098   3.544   1.737   9.433 -0.2331 -0.0126 -0.5224
  135TMC2    C4 2099   3.809   1.781   9.425 -0.1899  0.4724 -0.1632
  135TMC2    C5 2100   3.739   1.763   9.542 -0.1076 -0.3716 -0.1538
  135TMC2    C6 2101   3.610   1.740   9.552 -0.1437 -0.2470 -0.2539
  135TMC2     C 2102   3.792   1.781   9.183 -0.3328  0.3520 -0.4857
  135TMC2     O 2103   3.712   1.786   9.090 -0.3159 -0.2384 -0.1438
  135TMC2     H 2104   3.531   1.761   9.223 -3.1183 -0.3614  1.9122
  135TMC2    H1 2105   3.917   1.793   9.427 -0.2405  0.9713 -0.5971
  135TMC2    H2 2106   3.552   1.759   9.642  1.8094  1.5612  0.6322
  135TMC2    C7 2107   3.817   1.751   9.665  0.1163 -0.4422 -0.6808
  135TMC2    C8 2108   3.401   1.713   9.445 -0.0372 -0.0786 -0.1786
  135TMC2    O1 2109   3.924   1.809   9.672  0.2098  0.0111 -0.0684
  135TMC2    O2 2110   3.316   1.770   9.378  0.3692  1.0090  0.5949
  135TMC2    O5 2111   3.387   1.619   9.535 -0.0705  0.5260 -0.0985
  135TMC2    H5 2112   3.471   1.579   9.565  0.7296  0.3387 -2.6033
  136MPD2     C 2113   3.958   1.711   8.944 -0.1089  0.1659  0.3363
  136MPD2    C1 2114   4.014   1.768   9.059  0.2772 -0.4887  0.8533
  136MPD2    C2 2115   4.152   1.795   9.055  0.3758  0.6115  0.7619
  136MPD2    C3 2116   4.234   1.759   8.948 -0.1788 -0.6197  0.4212
  136MPD2    C4 2117   4.173   1.695   8.843  0.8306 -0.0357  0.2337
  136MPD2    C5 2118   4.042   1.678   8.841  0.1896 -0.4017 -0.3640
  136MPD2     H 2119   4.196   1.841   9.143  0.0024  0.2075  1.1563
  136MPD2    H1 2120   4.232   1.668   8.757 -0.7715 -1.8165 -0.3132
  136MPD2    H2 2121   3.859   1.667   8.938 -1.0153  2.2220  0.0483
  136MPD2    H3 2122   4.006   1.620   8.757  2.8755  1.0698 -2.5478
  136MPD2     N 2123   4.373   1.779   8.945 -0.5657  0.5481  0.6853
  136MPD2    H5 2124   4.418   1.752   8.859 -1.2096 -2.0666  1.1646
  136MPD2    N1 2125   3.932   1.792   9.177  0.0785 -0.3485 -0.0641
  136MPD2    H7 2126   3.985   1.826   9.257  0.4438 -1.3097  0.1055
  137TMC2    C1 2127   4.322   0.838   9.347 -0.3506  0.9502 -0.1885
  137TMC2    C2 2128   4.417   0.885   9.260 -0.0340 -0.1032 -0.0651
  137TMC2    C3 2129   4.374   0.929   9.138 -0.2144  0.3460  0.4268
  137TMC2    C4 2130   4.187   0.841   9.324  0.2735 -0.2067 -0.0593
  137TMC2    C5 2131   4.151   0.907   9.209  0.4519 -0.4994  0.2396
  137TMC2    C6 2132   4.239   0.953   9.116 -0.3272  0.1825 -0.2955
  137TMC2     C 2133   4.350   0.830   9.490  0.6949  0.5572 -0.4366
  137TMC2     O 2134   4.261   0.796   9.566  0.1341  0.2925 -0.0093
  137TMC2     H 2135   4.523   0.869   9.278  0.4648  2.6180 -0.6617
  137TMC2    H1 2136   4.124   0.784   9.391  0.0249  0.2771  0.1213
  137TMC2    H2 2137   4.209   0.989   9.018  3.1238  1.1788 -0.9665
  137TMC2    C7 2138   4.018   0.881   9.163  0.1126 -0.7239  0.4145
  137TMC2    C8 2139   4.463   0.938   9.022 -0.3371 -0.3965 -0.1237
  137TMC2    O1 2140   4.006   0.863   9.040  0.0339  0.2432 -0.6777
  137TMC2    O2 2141   4.417   0.917   8.911 -0.6393  0.2720 -0.5836
  137TMC2    O5 2142   4.577   1.000   9.046 -0.3567 -0.4596  0.7261
  137TMC2    H5 2143   4.598   1.032   9.136  0.3703 -0.8565  0.6952
  138MPD2     C 2144   4.666   0.854   9.677 -0.5534  0.6722 -0.3354
  138MPD2    C1 2145   4.529   0.832   9.664  0.1628 -0.0499  0.1268
  138MPD2    C2 2146   4.462   0.797   9.783 -0.0226  0.2840  0.6365
  138MPD2    C3 2147   4.523   0.784   9.909  0.6441  0.6339  0.4149
  138MPD2    C4 2148   4.662   0.825   9.923 -0.3210 -0.6100 -0.9411
  138MPD2    C5 2149   4.725   0.847   9.803 -0.2062  0.1348 -0.3717
  138MPD2     H 2150   4.355   0.778   9.778  0.1308 -0.8068  1.5112
  138MPD2    H1 2151   4.721   0.834  10.013 -2.6512  2.7994  0.2602
  138MPD2    H2 2152   0.001   0.866   9.598 -1.1530 -2.1780 -1.3082
  138MPD2    H3 2153   0.094   0.865   9.811  0.1876 -1.8759 -1.2280
  138MPD2     N 2154   4.449   0.736  10.023  0.3335 -0.1496  0.4909
  138MPD2    H5 2155   4.351   0.716  10.004  0.8047 -5.0347  3.1302
  138MPD2    N1 2156   4.480   0.839   9.531 -0.1919  0.0562  0.2114
  138MPD2    H7 2157   4.552   0.827   9.460  0.1886  1.0836  0.4254
  139TMC2    C1 2158   0.274   3.473  13.256 -0.2797  0.1036  0.4786
  139TMC2    C2 2159   0.324   3.533  13.143 -0.5668  0.0708 -0.5598
  139TMC2    C3 2160   0.272   3.654  13.101  0.1915 -0.2273  0.0362
  139TMC2    C4 2161   0.180   3.532  13.337 -0.9317  0.5371 -0.3865
  139TMC2    C5 2162   0.133   3.657  13.292  0.4355 -0.3855  0.1992
  139TMC2    C6 2163   0.174   3.715  13.169  0.3644  0.4139  0.5173
  139TMC2     C 2164   0.300   3.331  13.274 -0.0739 -0.4187 -0.0703
  139TMC2     O 2165   0.369   3.283  13.189 -0.4126  0.0486 -0.2796
  139TMC2     H 2166   0.401   3.479  13.090  2.7481  2.1845  2.0627
  139TMC2    H1 2167   0.153   3.479  13.428 -0.1910  0.1733 -0.3786
  139TMC2    H2 2168   0.145   3.817  13.146 -3.3214 -0.2756  2.1113
  139TMC2    C7 2169   0.037   3.722  13.376  0.5212  0.3179 -0.1874
  139TMC2    C8 2170   0.332   3.724  12.995 -0.0595  0.0804  0.6796
  139TMC2    O1 2171   4.701   3.799  13.326  0.6274  0.0315  0.0823
  139TMC2    O2 2172   0.376   3.659  12.901 -0.3262 -0.4755 -0.1600
  139TMC2    O5 2173   0.397   3.831  13.041 -0.4995 -0.1247 -0.2665
  139TMC2    H5 2174   0.383   3.853  13.136 -0.8172  0.2135 -0.3929
  140MPD2     C 2175   0.164   3.059  13.448  0.0783 -0.1438 -0.0881
  140MPD2    C1 2176   0.276   3.131  13.412 -0.0046 -0.4040 -0.4039
  140MPD2    C2 2177   0.392   3.067  13.383  0.6491  0.6771  0.0588
  140MPD2    C3 2178   0.400   2.933  13.404 -0.1276 -0.2179 -0.4061
  140MPD2    C4 2179   0.295   2.860  13.452  0.1645 -0.1318  0.7185
  140MPD2    C5 2180   0.179   2.925  13.476  0.1001 -0.9589 -0.7201
  140MPD2     H 2181   0.466   3.114  13.319  0.0942 -0.3470 -1.3274
  140MPD2    H1 2182   0.288   2.754  13.472 -1.0312  0.5030  3.6763
  140MPD2    H2 2183   0.076   3.116  13.475 -0.1671 -0.7655  0.4101
  140MPD2    H3 2184   0.095   2.870  13.516  0.3738 -0.0915  1.0642
  140MPD2     N 2185   0.528   2.877  13.378  0.5771 -0.1501  0.0035
  140MPD2    H5 2186   0.610   2.931  13.350  1.0274 -1.5844 -1.4086
  140MPD2    N1 2187   0.250   3.268  13.388 -0.5720  0.0796 -0.3277
  140MPD2    H7 2188   0.188   3.322  13.447  0.5101 -0.2856  1.1387
  141TMC2    C1 2189   0.310   0.317  14.751 -0.2673  0.2439  0.2718
  141TMC2    C2 2190   0.257   0.221  14.833  0.3553  0.0696 -0.2759
  141TMC2    C3 2191   0.214   0.253  14.958  0.3449  0.4803  0.0743
  141TMC2    C4 2192   0.316   0.447  14.795  0.4942 -0.3423  0.2878
  141TMC2    C5 2193   0.280   0.476  14.921 -0.3694  0.5108  1.2343
  141TMC2    C6 2194   0.228   0.380  15.009  0.7064  0.2930  0.1122
  141TMC2     C 2195   0.352   0.277  14.616  0.3625  0.6157 -0.1155
  141TMC2     O 2196   0.373   0.365  14.530 -1.2674  0.3293 -0.2034
  141TMC2     H 2197   0.239   0.123  14.791 -0.4718 -0.0746  0.4282
  141TMC2    H1 2198   0.376   0.517  14.737  0.8407 -0.8454  0.0385
  141TMC2    H2 2199   0.203   0.411  15.110 -0.3087 -0.1823  0.0063
  141TMC2    C7 2200   0.354   0.586  14.989 -0.2831  0.6440 -0.4008
  141TMC2    C8 2201   0.127   0.165  15.039  0.4213  0.3820  0.0329
  141TMC2    O1 2202   0.364   0.578  15.113 -0.0912  0.8296  0.4742
  141TMC2    O2 2203   0.067   0.216  15.134  0.2121 -0.4410 -0.3167
  141TMC2    O5 2204   0.195   0.049  15.033  0.2264  0.6570 -0.2323
  141TMC2    H5 2205   0.241   0.035  14.947  0.5507  0.4632 -0.0292
  142TMC2    C1 2206   3.474   3.950  10.196  0.1012 -0.6490  0.3366
  142TMC2    C2 2207   3.406   4.032  10.113  0.4640 -0.3100 -0.2967
  142TMC2    C3 2208   3.404   4.159  10.153 -0.0743 -0.0666  0.3636
  142TMC2    C4 2209   3.546   3.991  10.302  0.3240 -0.4137  0.3672
  142TMC2    C5 2210   3.547   4.121  10.337 -0.8822  0.4276  0.2224
  142TMC2    C6 2211   3.476   4.211  10.262 -0.0984  0.5674  0.6468
  142TMC2     C 2212   3.401   3.825  10.221  0.1382 -0.0747 -0.1775
  142TMC2     O 2213   3.378   3.753  10.124 -0.0164 -0.6850  0.7463
  142TMC2     H 2214   3.349   3.995  10.029 -2.5803  1.9888  0.7600
  142TMC2    H1 2215   3.592   3.929  10.378  1.1399 -3.3646 -2.4843
  142TMC2    H2 2216   3.462   4.313  10.296  1.2155  0.8594  0.3246
  142TMC2    C7 2217   3.548   4.143  10.479 -0.2944  0.4958  0.0467
  142TMC2    C8 2218   3.301   4.236  10.083 -0.4234 -0.5312 -0.0579
  142TMC2    O1 2219   3.514   4.048  10.548 -0.1544  0.4848 -0.1365
  142TMC2    O2 2220   3.198   4.189  10.039 -0.0022  0.3554  0.6135
  142TMC2    O5 2221   3.313   4.372  10.120  0.0491 -0.1822  0.5579
  142TMC2    H5 2222   3.406   4.397  10.139  0.2219 -1.8280  1.9926
  143MPD2     C 2223   3.133   3.515  10.536 -0.5741 -1.2237  0.0664
  143MPD2    C1 2224   3.138   3.521  10.401 -0.2052 -0.2778 -0.0827
  143MPD2    C2 2225   3.213   3.612  10.330  0.2295  0.1040  0.5754
  143MPD2    C3 2226   3.281   3.706  10.406 -0.6855 -0.5740 -0.1870
  143MPD2    C4 2227   3.260   3.711  10.538 -0.4859  0.6074  0.8416
  143MPD2    C5 2228   3.195   3.615  10.609 -0.0917  0.0320 -0.3657
  143MPD2     H 2229   3.212   3.610  10.221 -1.2003  0.1139  0.5821
  143MPD2    H1 2230   3.285   3.798  10.598  0.7956 -0.3309  1.6493
  143MPD2    H2 2231   3.066   3.445  10.585 -3.5045  1.3301 -0.3167
  143MPD2    H3 2232   3.182   3.624  10.716  1.6260  2.0201 -0.3178
  143MPD2     N 2233   3.362   3.808  10.354  0.3883 -0.6512  0.1985
  143MPD2    H5 2234   3.404   3.876  10.417  1.1253 -0.3560 -0.6101
  143MPD2    N1 2235   3.079   3.399  10.349 -0.2073  0.6215 -0.1323
  143MPD2    H7 2236   3.028   3.342  10.415 -1.4038 -0.5793 -2.0727
  144TMC2    C1 2237   1.309   1.995   0.271  0.4126 -0.2291 -0.2618
  144TMC2    C2 2238   1.383   1.894   0.209  0.5644 -0.1994  0.2052
  144TMC2    C3 2239   1.500   1.849   0.257  0.5002  0.0604  0.6814
  144TMC2    C4 2240   1.356   2.056   0.385 -0.2398  0.2923  0.3394
  144TMC2    C5 2241   1.467   1.991   0.443  0.9041 -0.6615 -0.1146
  144TMC2    C6 2242   1.536   1.891   0.378 -0.6162 -0.0835  0.6170
  144TMC2     C 2243   1.166   1.980   0.244 -0.6875  0.0683 -0.3105
  144TMC2     O 2244   1.132   1.935   0.136 -0.0413 -0.2360 -0.5966
  144TMC2     H 2245   1.342   1.853   0.117 -2.6876 -0.7989  1.9156
  144TMC2    H1 2246   1.303   2.134   0.438 -1.1076  0.9046 -1.4314
  144TMC2    H2 2247   1.618   1.837   0.424  0.4737  0.9929 -0.0732
  144TMC2    C7 2248   1.532   2.045   0.563  0.1559 -0.4562 -0.2909
  144TMC2    C8 2249   1.561   1.730   0.218  0.4133 -0.1801 -0.6445
  144TMC2    O1 2250   1.623   1.977   0.603  0.2761  0.5490  0.2510
  144TMC2    O2 2251   1.607   1.649   0.295  0.1039  0.0636 -0.0045
  144TMC2    O5 2252   1.557   1.712   0.090  0.0514  0.6119  0.2722
  144TMC2    H5 2253   1.524   1.784   0.032  0.0781  1.1022  0.8710
  145MPD2     C 2254   0.665   1.991   0.373  0.2960  0.2324 -0.0385
  145MPD2    C1 2255   0.724   1.952   0.251  0.7945  0.7282  0.4457
  145MPD2    C2 2256   0.863   1.958   0.237 -0.4180 -0.2208  0.6134
  145MPD2    C3 2257   0.942   2.015   0.344 -0.0762 -0.2586  0.6848
  145MPD2    C4 2258   0.881   2.062   0.459 -0.3601 -0.2112  0.2450
  145MPD2    C5 2259   0.742   2.046   0.468 -0.4165 -0.1262  0.0661
  145MPD2     H 2260   0.906   1.917   0.147 -1.9753 -1.4739  0.4344
  145MPD2    H1 2261   0.936   2.100   0.544 -1.1039  0.6470  0.3419
  145MPD2    H2 2262   0.559   1.971   0.376  0.2450  0.4604 -0.3194
  145MPD2    H3 2263   0.697   2.090   0.556 -0.1379  0.1698  0.0644
  145MPD2     N 2264   1.087   2.023   0.350  0.3315 -0.6661  0.1867
  145MPD2    H5 2265   1.137   2.055   0.431 -1.8015 -2.2407  2.1506
  145MPD2    N1 2266   0.656   1.898   0.138 -0.0959  0.2012  0.6958
  145MPD2    H7 2267   0.722   1.879   0.063 -0.7233 -0.0414  0.2073
  146TMC2    C1 2268   1.897   1.200  12.539  0.2030  0.4397 -0.4123
  146TMC2    C2 2269   1.918   1.306  12.451  0.5069 -0.4264  0.3969
  146TMC2    C3 2270   1.961   1.276  12.320  0.1607  0.6934  0.6215
  146TMC2    C4 2271   1.914   1.070  12.499  0.2132  0.1672 -0.3283
  146TMC2    C5 2272   1.955   1.042  12.369 -0.4226  0.0841 -0.0436
  146TMC2    C6 2273   1.987   1.152  12.284 -0.1463 -0.2679 -0.4678
  146TMC2     C 2274   1.819   1.237  12.660  0.4899  0.3233  1.0256
  146TMC2     O 2275   1.764   1.348  12.664  0.2429  0.4199 -0.2408
  146TMC2     H 2276   1.899   1.410  12.473 -1.9585 -0.4889 -1.4241
  146TMC2    H1 2277   1.885   0.990  12.566 -0.8443  0.3895 -0.5089
  146TMC2    H2 2278   2.044   1.128  12.195 -0.7172  2.7018 -1.6382
  146TMC2    C7 2279   1.970   0.911  12.304  0.3501 -0.1336  0.3038
  146TMC2    C8 2280   2.040   1.372  12.256  0.9272 -0.0773  0.5891
  146TMC2    O1 2281   1.963   0.925  12.183  0.9700  0.1982 -0.5834
  146TMC2    O2 2282   2.121   1.437  12.323 -0.1858  0.3826 -0.2839
  146TMC2    O5 2283   1.983   1.414  12.141 -0.0102  0.2471 -0.1334
  146TMC2    H5 2284   1.925   1.339  12.116  0.3262 -0.6282  1.6870
  147MPD2     C 2285   2.124   0.420  12.281  0.4151  0.1331 -0.3129
  147MPD2    C1 2286   2.156   0.465  12.404  0.8255  0.2970  0.5246
  147MPD2    C2 2287   2.100   0.592  12.449  0.2537  0.1980 -0.3861
  147MPD2    C3 2288   2.041   0.678  12.356  0.2216  0.4496 -0.1920
  147MPD2    C4 2289   2.030   0.634  12.224  0.5347  0.3036  0.7661
  147MPD2    C5 2290   2.061   0.505  12.190 -0.2111  0.1668 -0.4351
  147MPD2     H 2291   2.128   0.635  12.544 -1.1634 -0.5893  0.3893
  147MPD2    H1 2292   1.997   0.699  12.143  1.1446 -0.0104  0.2634
  147MPD2    H2 2293   2.138   0.315  12.261  0.8202  0.0141  0.5817
  147MPD2    H3 2294   2.054   0.474  12.087 -0.0687 -0.6589 -0.1938
  147MPD2     N 2295   2.013   0.816  12.386  0.0007  0.1880  0.5882
  147MPD2    H5 2296   2.034   0.841  12.482 -3.4606  0.6518  1.2078
  147MPD2    N1 2297   2.229   0.381  12.487 -0.3343  0.0498 -0.4144
  147MPD2    H7 2298   2.252   0.288  12.452  0.3436  0.5884 -1.4092
  148TMC2    C1 2299   2.627   0.293  10.348 -0.4213 -0.0980  0.7506
  148TMC2    C2 2300   2.763   0.320  10.339 -0.3824  0.6178  0.2023
  148TMC2    C3 2301   2.844   0.277  10.440  1.0790 -0.5088 -0.0751
  148TMC2    C4 2302   2.564   0.231  10.450  0.0324 -0.3177 -0.0211
  148TMC2    C5 2303   2.649   0.195  10.549 -0.1759 -0.1683 -0.0203
  148TMC2    C6 2304   2.784   0.222  10.554  1.5394 -0.9627  1.1755
  148TMC2     C 2305   2.557   0.295  10.220  0.1312  0.6431  0.2479
  148TMC2     O 2306   2.596   0.370  10.132 -0.4902  0.3559 -0.2704
  148TMC2     H 2307   2.802   0.353  10.243  0.6447  0.3609  0.5368
  148TMC2    H1 2308   2.458   0.212  10.464 -0.1819  0.5827 -0.3623
  148TMC2    H2 2309   2.831   0.185  10.645  1.0918  0.1888  1.8780
  148TMC2    C7 2310   2.592   0.181  10.676 -0.3441 -0.0449  0.8947
  148TMC2    C8 2311   2.987   0.282  10.418 -0.0816 -0.3233  0.2776
  148TMC2    O1 2312   2.543   0.285  10.723 -0.2967  0.3386  0.0030
  148TMC2    O2 2313   3.040   0.352  10.333  0.4877  0.4805  0.0159
  148TMC2    O5 2314   3.044   0.212  10.518  0.6179 -0.3544 -0.5299
  148TMC2    H5 2315   2.987   0.136  10.543  0.2443 -0.0970 -0.5938
  149MPD2     C 2316   2.337   0.272  10.040  0.6567 -0.0591  0.4457
  149MPD2    C1 2317   2.375   0.160  10.109  0.0427 -0.4285  0.3272
  149MPD2    C2 2318   2.308   0.040  10.096 -1.0995 -0.0258 -0.2585
  149MPD2    C3 2319   2.225   0.020   9.993  0.1679 -1.0094 -0.6492
  149MPD2    C4 2320   2.189   0.124   9.915 -0.6543  0.4106  0.2706
  149MPD2    C5 2321   2.246   0.246   9.936 -0.1502  0.4787 -0.3798
  149MPD2     H 2322   2.336   4.699  10.164  1.9728  1.3878  0.1374
  149MPD2    H1 2323   2.112   0.122   9.839  0.4327 -0.4874 -0.8065
  149MPD2    H2 2324   2.365   0.374  10.067  0.4246 -0.0242  0.5598
  149MPD2    H3 2325   2.213   0.329   9.875  0.6446 -0.3985 -2.0142
  149MPD2     N 2326   2.155   4.634   9.973  0.2977  0.0573 -0.3215
  149MPD2    H5 2327   2.095   4.633   9.892  1.7081  0.8646 -1.3715
  149MPD2    N1 2328   2.478   0.177  10.205 -0.4363  0.1499  0.2232
  149MPD2    H7 2329   2.497   0.099  10.267  2.0266  0.0988 -0.5964
  150TMC2    C1 2330   0.159   4.130  12.388 -0.5737  0.2521  0.4427
  150TMC2    C2 2331   0.164   4.243  12.315  0.1840  0.1286 -0.0496
  150TMC2    C3 2332   0.280   4.317  12.309  0.2346 -0.3088 -0.4210
  150TMC2    C4 2333   0.271   4.078  12.447  0.2488 -0.2798 -0.7013
  150TMC2    C5 2334   0.381   4.157  12.445 -0.0924  0.1841 -0.5755
  150TMC2    C6 2335   0.392   4.281  12.384  0.2275 -0.1634 -0.1699
  150TMC2     C 2336   0.025   4.081  12.427 -0.1070 -0.0435 -0.4562
  150TMC2     O 2337   0.022   3.991  12.512  0.8003 -1.0092 -0.0007
  150TMC2     H 2338   0.074   4.294  12.284 -0.8469 -1.7790 -0.1913
  150TMC2    H1 2339   0.257   3.993  12.513  0.5830 -0.5431 -0.9709
  150TMC2    H2 2340   0.485   4.337  12.382 -0.3559  0.8032 -0.4701
  150TMC2    C7 2341   0.502   4.108  12.521  0.5890  0.5058 -1.0398
  150TMC2    C8 2342   0.282   4.447  12.241  0.0062 -0.7739 -0.1355
  150TMC2    O1 2343   0.589   4.194  12.520  0.8634 -0.0113  0.2025
  150TMC2    O2 2344   0.177   4.491  12.195  0.0189  0.0749  0.3008
  150TMC2    O5 2345   0.404   4.467  12.187  0.3081 -0.1346 -0.7178
  150TMC2    H5 2346   0.468   4.392  12.189  0.0922 -0.3454 -1.8554
  151MPD2     C 2347   4.262   4.053  12.451  0.0855 -0.1992  0.1024
  151MPD2    C1 2348   4.298   4.056  12.321  0.3126  0.1602 -0.1498
  151MPD2    C2 2349   4.426   4.095  12.287  0.1173 -0.6766  0.0565
  151MPD2    C3 2350   4.529   4.096  12.379  0.0676 -0.2490  0.3096
  151MPD2    C4 2351   4.494   4.091  12.518  0.4326  0.0520 -0.4534
  151MPD2    C5 2352   4.361   4.070  12.550 -0.2700  0.1608  0.1880
  151MPD2     H 2353   4.460   4.082  12.185 -3.4627  0.2724 -1.2323
  151MPD2    H1 2354   4.568   4.105  12.595  1.0776  1.2411 -1.2905
  151MPD2    H2 2355   4.160   4.037  12.482  1.0006 -1.3426  2.5666
  151MPD2    H3 2356   4.337   4.065  12.656  1.2695  0.1253  0.5389
  151MPD2     N 2357   4.659   4.110  12.343 -0.3077 -0.4239  0.2243
  151MPD2    H5 2358   4.687   4.151  12.255 -3.1498  1.2931  0.1310
  151MPD2    N1 2359   4.203   4.017  12.223 -0.1639 -0.4060 -0.5101
  151MPD2    H7 2360   4.141   3.942  12.254  0.0954 -0.6002 -0.4653
  152TMC2    C1 2361   4.241   3.715  12.449 -0.0175 -0.7016 -0.3422
  152TMC2    C2 2362   4.309   3.741  12.335  0.0118  0.3830 -0.0017
  152TMC2    C3 2363   4.445   3.757  12.349 -0.1346 -0.2007  0.0745
  152TMC2    C4 2364   4.303   3.717  12.567  0.5803  0.3570 -0.0329
  152TMC2    C5 2365   4.435   3.747  12.581  0.4465  0.4792  0.6704
  152TMC2    C6 2366   4.515   3.765  12.468  0.2410  1.0199 -0.4825
  152TMC2     C 2367   4.095   3.734  12.447 -0.4825 -0.3700 -0.2746
  152TMC2     O 2368   4.050   3.823  12.375 -0.4139  0.2600 -0.0125
  152TMC2     H 2369   4.259   3.743  12.239  1.7134  0.8275 -0.8882
  152TMC2    H1 2370   4.240   3.708  12.655 -0.1384  0.1139 -0.5688
  152TMC2    H2 2371   4.621   3.786  12.476  0.5676 -0.6731 -0.4262
  152TMC2    C7 2372   4.492   3.757  12.712 -0.0405 -0.5023  0.3098
  152TMC2    C8 2373   4.523   3.770  12.230 -0.4511  0.7983  0.0689
  152TMC2    O1 2374   4.431   3.691  12.791  0.2533  0.6332  0.1142
  152TMC2    O2 2375   4.452   3.786  12.133  0.2519 -0.2541 -0.0032
  152TMC2    O5 2376   4.609   3.669  12.253  0.0923  0.9253 -0.0872
  152TMC2    H5 2377   4.629   3.666  12.349 -0.0749  0.2152 -0.0698
  153MPD2     C 2378   3.864   3.564  12.669  0.0315  0.0112 -0.0971
  153MPD2    C1 2379   3.898   3.649  12.569  0.0544 -0.2147 -0.2929
  153MPD2    C2 2380   3.796   3.703  12.495 -0.2828 -0.0572 -0.6265
  153MPD2    C3 2381   3.660   3.677  12.521  0.3610  0.0464 -0.3127
  153MPD2    C4 2382   3.635   3.586  12.619 -0.9928 -0.3935  0.3845
  153MPD2    C5 2383   3.732   3.527  12.688 -0.0270  0.1078 -0.3530
  153MPD2     H 2384   3.821   3.767  12.411  2.5513  0.7812  0.8264
  153MPD2    H1 2385   3.536   3.545  12.635  0.0132 -3.0025 -0.0674
  153MPD2    H2 2386   3.940   3.515  12.729 -1.3436 -0.7867  1.0141
  153MPD2    H3 2387   3.705   3.457  12.767  1.9195 -1.2561 -0.8856
  153MPD2     N 2388   3.562   3.739  12.441 -0.6830 -0.4018  0.5521
  153MPD2    H5 2389   3.603   3.797  12.370  1.6961 -1.5380  0.9687
  153MPD2    N1 2390   4.036   3.661  12.543 -0.3403  0.6257  0.0327
  153MPD2    H7 2391   4.094   3.592  12.588  0.4279  0.6628 -0.8878
  154TMC2    C1 2392   1.982   3.033   0.466 -0.2290  0.3225  0.0222
  154TMC2    C2 2393   2.085   3.049   0.557  0.2151  0.0421 -0.0135
  154TMC2    C3 2394   2.203   2.992   0.519  0.0261  0.4574  0.4377
  154TMC2    C4 2395   1.982   2.941   0.364 -0.4044 -0.3095  0.2310
  154TMC2    C5 2396   2.092   2.869   0.336  0.0704 -0.6148  0.4690
  154TMC2    C6 2397   2.205   2.899   0.415 -0.5145  0.0244 -0.2884
  154TMC2     C 2398   1.881   3.133   0.476 -0.1297 -0.7091  0.5944
  154TMC2     O 2399   1.849   3.178   0.585  0.1223 -0.0435 -0.5008
  154TMC2     H 2400   2.075   3.118   0.640  1.7105  0.0459  0.1665
  154TMC2    H1 2401   1.897   2.938   0.296  0.5336  0.5180 -0.9913
  154TMC2    H2 2402   2.295   2.842   0.398  0.7623  1.3144  2.3086
  154TMC2    C7 2403   2.107   2.832   0.195  0.6854 -0.3381  0.0335
  154TMC2    C8 2404   2.302   2.983   0.626  0.0334 -0.2453 -1.0904
  154TMC2    O1 2405   2.021   2.880   0.125 -0.3609 -0.4250 -0.2613
  154TMC2    O2 2406   2.382   2.891   0.631  0.2114 -0.1953  0.4557
  154TMC2    O5 2407   2.325   3.106   0.671 -0.1805  0.0611  0.9562
  154TMC2    H5 2408   2.264   3.176   0.640  0.9262 -0.2234 -1.8688
  155MPD2     C 2409   1.650   3.235   0.207  0.1269  0.6714 -0.1735
  155MPD2    C1 2410   1.691   3.226   0.340  0.5486  0.2733 -0.6744
  155MPD2    C2 2411   1.623   3.300   0.431  0.1644  0.4069  0.3327
  155MPD2    C3 2412   1.520   3.383   0.401 -0.7711 -0.3394 -0.5401
  155MPD2    C4 2413   1.472   3.395   0.272 -0.0522  0.1897  0.0414
  155MPD2    C5 2414   1.537   3.315   0.181 -0.0388  0.1653 -0.1442
  155MPD2     H 2415   1.642   3.295   0.538  1.1584  2.3319  0.2403
  155MPD2    H1 2416   1.391   3.457   0.237  1.1081  1.7041  0.0147
  155MPD2    H2 2417   1.697   3.178   0.128 -0.9558 -0.8965  0.3136
  155MPD2    H3 2418   1.512   3.325   0.076  1.5568 -0.8942 -0.6186
  155MPD2     N 2419   1.474   3.456   0.514  0.2839  0.2946 -0.3594
  155MPD2    H5 2420   1.501   3.418   0.604 -0.4682 -0.0663 -0.2842
  155MPD2    N1 2421   1.803   3.143   0.363  0.1680  0.5698  0.4345
  155MPD2    H7 2422   1.848   3.116   0.275  0.0754  1.7602  0.0229
  156TMC2    C1 2423   4.332   1.381  11.191  0.0496 -0.3806 -0.3045
  156TMC2    C2 2424   4.455   1.368  11.129 -0.4460  0.0945  0.4585
  156TMC2    C3 2425   4.476   1.439  11.011 -0.2723 -0.0918 -0.2106
  156TMC2    C4 2426   4.240   1.469  11.140  0.7701  0.2672 -0.0159
  156TMC2    C5 2427   4.284   1.560  11.049 -0.1625  0.2388  0.2225
  156TMC2    C6 2428   4.396   1.536  10.977 -0.1854  0.1292  0.8438
  156TMC2     C 2429   4.338   1.393  11.332 -0.5533  0.1201 -0.5381
  156TMC2     O 2430   4.295   1.498  11.373  0.5072 -0.3512 -0.3055
  156TMC2     H 2431   4.540   1.309  11.161 -0.4887 -0.2252 -0.0096
  156TMC2    H1 2432   4.142   1.472  11.187  0.0608  1.3528 -1.5357
  156TMC2    H2 2433   4.423   1.587  10.885  0.4966 -1.5200  0.1321
  156TMC2    C7 2434   4.231   1.696  11.042 -0.0578 -0.0956 -0.2502
  156TMC2    C8 2435   4.602   1.434  10.950 -0.0014  0.0539 -0.0656
  156TMC2    O1 2436   4.311   1.786  11.016 -0.1631  0.0862 -0.3022
  156TMC2    O2 2437   4.642   1.536  10.899  0.2409  0.2029 -0.3131
  156TMC2    O5 2438   4.606   1.311  10.878 -0.3170  0.0493 -0.1126
  156TMC2    H5 2439   4.543   1.246  10.915  0.2812 -0.6888 -0.4079
  157MPD2     C 2440   4.475   1.166  11.580 -0.2790  0.2929 -0.2023
  157MPD2    C1 2441   4.413   1.276  11.530 -0.2611  0.4049 -0.1946
  157MPD2    C2 2442   4.370   1.367  11.621 -0.0827 -0.0524 -0.1828
  157MPD2    C3 2443   4.390   1.352  11.760  0.0431  0.1226  0.9773
  157MPD2    C4 2444   4.452   1.234  11.806 -0.0778  0.8137 -0.0813
  157MPD2    C5 2445   4.497   1.150  11.713  0.4510  0.4373 -0.0821
  157MPD2     H 2446   4.327   1.459  11.584 -1.2971 -0.3793  0.4221
  157MPD2    H1 2447   4.464   1.210  11.911 -0.3335  0.6956 -0.0788
  157MPD2    H2 2448   4.509   1.086  11.516  0.9692 -1.3816  2.5625
  157MPD2    H3 2449   4.534   1.052  11.741 -0.2773  0.9682  2.7875
  157MPD2     N 2450   4.325   1.437  11.854 -0.4833  0.2942  0.7445
  157MPD2    H5 2451   4.279   1.523  11.825  3.0813  1.1123 -2.4395
  157MPD2    N1 2452   4.395   1.286  11.396 -0.4954  0.2367  0.1854
  157MPD2    H7 2453   4.420   1.200  11.349  1.9900  1.2153 -0.2538
  158TMC2    C1 2454   0.003   0.154  13.570  0.1089 -0.4233  0.1391
  158TMC2    C2 2455   0.046   0.265  13.499 -0.1356  0.0625  0.0857
  158TMC2    C3 2456   4.695   0.319  13.411  0.2191  0.3144  0.3859
  158TMC2    C4 2457   4.618   0.100  13.554  0.4969  0.1710  0.0793
  158TMC2    C5 2458   4.534   0.157  13.459 -0.1926  0.6759  0.1752
  158TMC2    C6 2459   4.568   0.265  13.385  0.3654  0.6922 -0.0146
  158TMC2     C 2460   0.071   0.140  13.695 -0.8533  0.5134 -0.3858
  158TMC2     O 2461   0.128   0.242  13.733  0.0252  0.3828 -0.3793
  158TMC2     H 2462   0.140   0.318  13.514  1.1051 -2.0676 -0.1018
  158TMC2    H1 2463   4.581   0.034  13.631  1.9244 -0.3902  0.2784
  158TMC2    H2 2464   4.506   0.294  13.301  2.1753  0.1133 -1.5444
  158TMC2    C7 2465   4.401   0.119  13.453 -0.1394 -0.1726 -0.1228
  158TMC2    C8 2466   0.013   0.412  13.310 -0.3511 -0.1185  0.3310
  158TMC2    O1 2467   4.313   0.200  13.425 -0.4569 -0.0866 -0.1785
  158TMC2    O2 2468   0.132   0.426  13.286 -0.9745 -0.1325 -0.1003
  158TMC2    O5 2469   4.649   0.487  13.274 -0.1377 -0.2986 -0.9836
  158TMC2    H5 2470   4.570   0.462  13.327  2.0850 -1.8904  1.5861
  159MPD2     C 2471   0.118   4.634  14.155 -0.1399 -0.3430 -0.2662
  159MPD2    C1 2472   0.033   4.562  14.070  0.1477  0.2761 -0.9090
  159MPD2    C2 2473   0.005   4.602  13.942  0.0598  0.1454  0.0353
  159MPD2    C3 2474   0.056   4.720  13.895 -0.4779 -0.1769  0.0397
  159MPD2    C4 2475   0.136   0.058  13.980 -0.4135 -0.7006 -0.5062
  159MPD2    C5 2476   0.174   0.007  14.101 -0.0011 -0.5195  0.2468
  159MPD2     H 2477   4.673   4.549  13.880  1.0489  0.2447 -1.1846
  159MPD2    H1 2478   0.172   0.155  13.948 -0.1462 -0.0369  1.8158
  159MPD2    H2 2479   0.139   4.604  14.257 -0.8387 -1.0219 -0.3247
  159MPD2    H3 2480   0.255   0.056  14.152 -0.5856 -1.3533  1.9547
  159MPD2     N 2481   0.038   0.021  13.762 -0.2088  0.4637 -0.4446
  159MPD2    H5 2482   4.729   4.683  13.713  0.6214  0.9011 -1.9206
  159MPD2    N1 2483   4.703   4.458  14.133  0.0201 -1.1772 -0.6215
  159MPD2    H7 2484   4.735   4.420  14.221 -0.1175 -1.5755 -0.7419
  160TMC2    C1 2485   4.036   2.885   1.608  0.3996 -0.2157 -0.4055
  160TMC2    C2 2486   3.938   2.810   1.674 -0.0605  0.1225  0.4054
  160TMC2    C3 2487   3.952   2.677   1.669 -0.1642  0.1225  0.5264
  160TMC2    C4 2488   4.139   2.828   1.535 -0.0887 -0.2325 -0.5836
  160TMC2    C5 2489   4.135   2.694   1.518 -1.1024  0.1596  0.0408
  160TMC2    C6 2490   4.038   2.615   1.578 -0.0632  0.2438  0.8314
  160TMC2     C 2491   4.024   3.029   1.614 -0.0639  0.4785  0.9302
  160TMC2     O 2492   3.948   3.072   1.702 -0.2672 -0.3640  0.1941
  160TMC2     H 2493   3.864   2.861   1.734 -1.0294 -0.7574 -0.0144
  160TMC2    H1 2494   4.216   2.896   1.499  0.2678  0.1960  1.0112
  160TMC2    H2 2495   4.026   2.507   1.580  0.8538  0.0554 -3.6133
  160TMC2    C7 2496   4.246   2.631   1.442 -0.5808 -0.8631  0.7865
  160TMC2    C8 2497   3.865   2.589   1.746 -0.3297  0.8025 -0.1991
  160TMC2    O1 2498   4.236   2.511   1.442  0.1061  0.1433  0.3262
  160TMC2    O2 2499   3.743   2.576   1.723 -0.6011  0.3263  0.0664
  160TMC2    O5 2500   3.955   2.499   1.803  0.1363  0.1337 -0.3717
  160TMC2    H5 2501   4.047   2.532   1.811  0.4284 -0.2922 -2.1060
  161MPD2     C 2502   4.036   3.320   1.596 -0.2456  0.3600 -0.0123
  161MPD2    C1 2503   4.065   3.235   1.486  0.5083  0.5456 -0.0742
  161MPD2    C2 2504   4.082   3.289   1.364 -0.6838 -0.9017  0.5759
  161MPD2    C3 2505   4.051   3.420   1.339  0.7916 -0.0330 -0.5479
  161MPD2    C4 2506   4.024   3.504   1.446 -0.2699  0.5109  0.2506
  161MPD2    C5 2507   4.018   3.455   1.570  0.1178  0.4274 -0.4903
  161MPD2     H 2508   4.124   3.218   1.293  0.4903  1.1249 -0.7327
  161MPD2    H1 2509   3.988   3.603   1.419  1.8754  1.2364  0.0735
  161MPD2    H2 2510   4.019   3.283   1.696 -1.7178  0.4639 -0.2152
  161MPD2    H3 2511   3.998   3.525   1.650 -0.8904 -0.9439  0.4521
  161MPD2     N 2512   4.049   3.479   1.207  0.2595  0.8130  0.2759
  161MPD2    H5 2513   4.037   3.580   1.200  0.9115  0.7049 -2.5777
  161MPD2    N1 2514   4.077   3.096   1.503 -0.1114  0.0949 -0.2958
  161MPD2    H7 2515   4.116   3.043   1.425 -2.9443 -0.4784 -1.3262
  162TMC2    C1 2516   1.685   4.723   0.253 -0.3679  0.0198 -0.5272
  162TMC2    C2 2517   1.599   4.715   0.141 -0.9343  0.6334 -0.3085
  162TMC2    C3 2518   1.481   4.647   0.153  0.0913  0.2304 -0.3425
  162TMC2    C4 2519   1.639   4.675   0.372  0.0692 -0.3416  0.3540
  162TMC2    C5 2520   1.512   4.623   0.382  0.5535  0.2744 -0.0793
  162TMC2    C6 2521   1.431   4.603   0.269  0.0603 -1.2910 -0.5943
  162TMC2     C 2522   1.815   0.040   0.238  0.0656 -0.4089 -0.3279
  162TMC2     O 2523   1.849   0.063   0.122 -0.2115 -0.1446 -0.3744
  162TMC2     H 2524   1.644   0.006   0.047  2.2449 -1.3367  0.5673
  162TMC2    H1 2525   1.706   4.661   0.456 -0.6115 -2.0994  0.6158
  162TMC2    H2 2526   1.336   4.551   0.265  1.1148 -3.3314  0.8446
  162TMC2    C7 2527   1.466   4.571   0.510 -0.3081  0.4464  0.7711
  162TMC2    C8 2528   1.419   4.598   0.038  0.0940 -0.2099  0.4313
  162TMC2    O1 2529   1.380   4.486   0.501  0.1083 -0.6189 -0.8918
  162TMC2    O2 2530   1.301   4.563   0.036  0.4537  0.2396  0.5479
  162TMC2    O5 2531   1.521   4.531  17.738 -0.1896  0.3345 -0.8023
  162TMC2    H5 2532   1.609   4.545   0.028 -1.1087  0.3511  1.1720
  163MPD2     C 2533   2.231   0.300   0.353  1.0697 -0.5490  0.2026
  163MPD2    C1 2534   2.211   0.191   0.264  0.1618 -0.2319 -0.4960
  163MPD2    C2 2535   2.087   0.129   0.267 -0.2699 -0.5218  0.4853
  163MPD2    C3 2536   1.991   0.169   0.353  0.2857  0.5157  0.4887
  163MPD2    C4 2537   2.017   0.267   0.442  0.4199  1.1904  0.2443
  163MPD2    C5 2538   2.131   0.340   0.438 -0.3706 -0.0047 -0.4915
  163MPD2     H 2539   2.065   0.043   0.206 -0.6563  0.6791 -1.0774
  163MPD2    H1 2540   1.941   0.309   0.507 -0.7965 -2.8606  1.4554
  163MPD2    H2 2541   2.333   0.331   0.372  0.6091  0.4780  0.9461
  163MPD2    H3 2542   2.148   0.422   0.507  1.8256 -0.8345 -0.0246
  163MPD2     N 2543   1.865   0.105   0.348  0.4050  0.3472  1.0897
  163MPD2    H5 2544   1.803   0.109   0.428 -0.5970 -0.0533  0.3354
  163MPD2    N1 2545   2.315   0.141   0.184  0.6811 -0.0698  0.4475
  163MPD2    H7 2546   2.400   0.196   0.187  0.3310  0.5067 -0.2091
  164TMC2    C1 2547   3.168   4.486  10.641 -0.3552  0.4212  0.4108
  164TMC2    C2 2548   3.261   4.525  10.550 -0.2380 -0.1539 -0.4911
  164TMC2    C3 2549   3.303   4.653  10.557  0.3541  0.3069 -0.4384
  164TMC2    C4 2550   3.130   4.568  10.750  1.0049 -1.0774  0.7653
  164TMC2    C5 2551   3.166   4.699  10.745  0.1264  0.4509 -0.8081
  164TMC2    C6 2552   3.258   0.011  10.653 -0.4464  0.0178  0.3924
  164TMC2     C 2553   3.101   4.357  10.634  0.7709  0.3355 -0.3042
  164TMC2     O 2554   3.043   4.304  10.727  0.0634  0.7421  0.2564
  164TMC2     H 2555   3.308   4.463  10.474  2.7801  2.5962 -0.8846
  164TMC2    H1 2556   3.061   4.527  10.822 -0.4936  2.4214  1.2905
  164TMC2    H2 2557   3.292   0.113  10.645  0.3870 -0.2985 -0.0795
  164TMC2    C7 2558   3.118   0.041  10.848  0.8692 -0.0292  0.8185
  164TMC2    C8 2559   3.397   4.695  10.459 -0.0728  0.6434 -0.0282
  164TMC2    O1 2560   3.047   4.729  10.933 -0.0861 -0.3582 -1.0160
  164TMC2    O2 2561   3.416   4.628  10.360  0.5510 -0.2967 -0.3674
  164TMC2    O5 2562   3.500   0.013  10.524 -0.0738  0.1083  0.3517
  164TMC2    H5 2563   3.477   0.068  10.602  1.4498 -1.0646  1.6083
  165TMC2    C1 2564   4.217   1.869   1.772  0.0568  0.2853 -0.6732
  165TMC2    C2 2565   4.264   1.751   1.810  0.4116  0.4208  0.0116
  165TMC2    C3 2566   4.400   1.740   1.831  0.2653  0.4526  0.4168
  165TMC2    C4 2567   4.303   1.971   1.740  0.0256  0.0495 -0.0488
  165TMC2    C5 2568   4.437   1.951   1.746  0.1116  0.7631  0.2426
  165TMC2    C6 2569   4.488   1.834   1.784  0.6168  0.3774  0.2343
  165TMC2     C 2570   4.084   1.881   1.722  1.1358 -0.6032 -0.3350
  165TMC2     O 2571   4.029   1.778   1.688 -0.7162 -0.0074  0.1649
  165TMC2     H 2572   4.203   1.663   1.828 -1.0074  1.3153 -0.4020
  165TMC2    H1 2573   4.269   2.066   1.701 -1.9162 -0.2192  1.0097
  165TMC2    H2 2574   4.594   1.811   1.796  0.8207  0.2414 -1.8470
  165TMC2    C7 2575   4.532   2.047   1.696  0.2644  0.2606  0.1557
  165TMC2    C8 2576   4.443   1.601   1.838 -0.2068  0.6059  0.0430
  165TMC2    O1 2577   4.641   2.009   1.665  0.1229 -0.1531 -0.4756
  165TMC2    O2 2578   4.552   1.563   1.791 -0.7515 -0.0128  0.0136
  165TMC2    O5 2579   4.386   1.553   1.950 -0.0525  0.1924  0.3338
  165TMC2    H5 2580   4.320   1.614   1.989 -1.1314 -1.2915  0.8404
  166MPD2     C 2581   3.631   2.111   1.658  0.1108 -0.3119 -0.3907
  166MPD2    C1 2582   3.676   1.997   1.611  0.9099  0.0605 -0.2712
  166MPD2    C2 2583   3.812   1.955   1.632  1.0231  0.3180  0.3796
  166MPD2    C3 2584   3.899   2.033   1.710  0.4608  0.5745  1.1323
  166MPD2    C4 2585   3.842   2.152   1.761 -0.2841 -0.2521 -0.0376
  166MPD2    C5 2586   3.715   2.187   1.735 -0.0475  0.5538 -0.7968
  166MPD2     H 2587   3.839   1.863   1.583 -0.5154 -0.3673  0.8171
  166MPD2    H1 2588   3.908   2.209   1.825 -1.4830  2.2530 -1.0727
  166MPD2    H2 2589   3.528   2.141   1.643  0.4504  0.8272 -0.4787
  166MPD2    H3 2590   3.674   2.277   1.780 -2.2767 -2.5016  3.2970
  166MPD2     N 2591   4.035   2.007   1.737  0.5771 -0.3059 -0.5809
  166MPD2    H5 2592   4.086   2.072   1.796 -0.1460 -0.5217  0.2790
  166MPD2    N1 2593   3.578   1.908   1.553  0.5551 -0.2838  0.2092
  166MPD2    H7 2594   3.480   1.934   1.550  0.1626 -1.4541  2.7468
  167TMC2    C1 2595   1.819   0.019  12.771  0.4898 -0.0759 -0.1216
  167TMC2    C2 2596   1.735   0.051  12.876  0.0039  0.6655 -0.7802
  167TMC2    C3 2597   1.744   4.714  12.990  0.0452 -0.1646  0.1374
  167TMC2    C4 2598   1.915   4.659  12.782 -0.1873  0.0902 -0.2135
  167TMC2    C5 2599   1.919   4.586  12.896  0.5693  0.7178 -0.0670
  167TMC2    C6 2600   1.848   4.621  13.007  0.0452 -0.4203  0.5220
  167TMC2     C 2601   1.795   0.086  12.647 -0.2185 -0.2902  0.3728
  167TMC2     O 2602   1.740   0.197  12.658 -0.0254  0.1360  0.0667
  167TMC2     H 2603   1.668   0.136  12.870 -0.5659  0.1442 -1.5880
  167TMC2    H1 2604   1.991   4.654  12.705  1.6088  2.1448  1.4523
  167TMC2    H2 2605   1.866   4.570  13.101  0.6236 -2.2283 -0.5771
  167TMC2    C7 2606   1.945   4.446  12.893  0.0385 -0.0434  0.4011
  167TMC2    C8 2607   1.674   0.024  13.106  0.0310  0.0952  0.3009
  167TMC2    O1 2608   1.889   4.379  12.976 -0.2257 -0.0768 -0.8528
  167TMC2    O2 2609   1.664   0.145  13.122 -0.9308 -0.3266  0.2486
  167TMC2    O5 2610   1.573   4.673  13.137  0.0797 -0.0483  0.3373
  167TMC2    H5 2611   1.582   4.582  13.103  0.4158  1.1210 -2.7094
  168MPD2     C 2612   1.810   0.200  12.367 -0.0224  0.6389 -0.2450
  168MPD2    C1 2613   1.845   0.068  12.397 -0.1245  0.1084 -0.3685
  168MPD2    C2 2614   1.874   4.718  12.294  0.3315  0.5854 -0.7372
  168MPD2    C3 2615   1.868   0.029  12.168 -1.2722 -0.1875  0.6096
  168MPD2    C4 2616   1.851   0.161  12.137  0.5820 -0.0492  0.4669
  168MPD2    C5 2617   1.808   0.242  12.236 -0.3911  0.7597 -0.5326
  168MPD2     H 2618   1.896   4.615  12.319 -1.3228  0.0666 -1.4025
  168MPD2    H1 2619   1.857   0.189  12.032  0.2300 -0.6513  0.2867
  168MPD2    H2 2620   1.785   0.279  12.437 -0.2306  0.3630 -0.0059
  168MPD2    H3 2621   1.771   0.344  12.225 -1.2851  0.5234  0.2998
  168MPD2     N 2622   1.889   4.677  12.056 -0.1170  0.0538  0.7670
  168MPD2    H5 2623   1.889   4.721  11.964 -0.7131  0.7112  1.0777
  168MPD2    N1 2624   1.848   0.020  12.533 -0.3073 -0.1151  0.2989
  168MPD2    H7 2625   1.884   4.663  12.542  0.2334  0.1551  0.9374
  169MPD1     C 2626   0.621   0.270   8.868 -0.5077  0.4997  0.4276
  169MPD1    C1 2627   0.705   0.244   8.971 -0.3465 -0.6513 -0.0777
  169MPD1    C2 2628   0.653   0.175   9.076  0.8011  0.4914  0.0077
  169MPD1    C3 2629   0.524   0.147   9.084  0.3476 -0.6646 -0.7910
  169MPD1    C4 2630   0.433   0.191   8.989 -0.0525 -0.1881 -0.0527
  169MPD1    C5 2631   0.492   0.251   8.879  1.2683  0.2501 -0.2507
  169MPD1     H 2632   0.724   0.137   9.149 -1.1368 -0.8159  1.1949
  169MPD1    H1 2633   0.326   0.172   8.987 -0.1009  0.2528 -1.3945
  169MPD1    H2 2634   0.660   0.305   8.772 -0.2296  0.3737  0.4946
  169MPD1    H3 2635   0.437   0.280   8.791 -1.7532 -0.8897  1.2723
  169MPD1     N 2636   0.486   0.053   9.186  0.4139  0.0924  0.2078
  169MPD1    H5 2637   0.565   0.021   9.241  1.4347 -0.3960 -1.5207
  169MPD1    N1 2638   0.843   0.261   8.950 -0.1961 -0.1439  0.3680
  169MPD1    H6 2639   0.867   0.341   8.891 -3.2908  0.8493  0.4439
  169MPD1    H7 2640   0.896   0.280   9.035  0.6336  1.6212 -0.5374
  170MPD1     C 2641   2.673   1.971  13.148 -0.1462 -0.4617 -0.3043
  170MPD1    C1 2642   2.754   2.063  13.189 -0.7045 -0.0601 -0.7093
  170MPD1    C2 2643   2.854   2.039  13.280 -0.7973  0.1849 -0.3521
  170MPD1    C3 2644   2.887   1.906  13.305  0.2365 -0.4521 -0.1845
  170MPD1    C4 2645   2.807   1.800  13.258  0.3464 -0.5030 -0.1943
  170MPD1    C5 2646   2.696   1.835  13.177  0.1791  0.6647 -0.7765
  170MPD1     H 2647   2.917   2.122  13.310  0.4580 -0.0672 -2.3067
  170MPD1    H1 2648   2.809   1.695  13.286 -2.1963 -0.5890 -0.3660
  170MPD1    H2 2649   2.591   1.990  13.080  0.6776  1.2686 -0.8023
  170MPD1    H3 2650   2.632   1.759  13.134 -0.2282  0.4440  0.1999
  170MPD1     N 2651   2.997   1.883  13.392  0.4929 -0.0413 -0.0908
  170MPD1    H5 2652   3.057   1.964  13.404  1.1354 -0.4604 -0.5140
  170MPD1    N1 2653   2.719   2.191  13.160 -0.3427  0.0565  0.4209
  170MPD1    H6 2654   2.795   2.257  13.176 -1.5026  1.1133  1.6073
  170MPD1    H7 2655   2.676   2.196  13.068  1.1400 -0.7788 -0.3191
  171MPD1     C 2656   1.893   2.759  15.012 -0.2038 -0.5917 -0.3324
  171MPD1    C1 2657   1.797   2.768  15.113  0.1597  0.2505  0.2924
  171MPD1    C2 2658   1.815   2.704  15.231  0.9088 -0.6003  0.4874
  171MPD1    C3 2659   1.915   2.612  15.242 -0.0610 -0.7870  0.1980
  171MPD1    C4 2660   2.003   2.588  15.138  0.0521  0.1183  0.1524
  171MPD1    C5 2661   1.999   2.667  15.024  0.1326  0.4837  0.3634
  171MPD1     H 2662   1.750   2.729  15.315  0.1726  2.2716 -0.9548
  171MPD1    H1 2663   2.079   2.511  15.140 -2.0765 -2.0745 -3.4038
  171MPD1    H2 2664   1.883   2.809  14.916 -1.5064 -1.4215 -0.6328
  171MPD1    H3 2665   2.071   2.660  14.943  0.0278  1.8368  0.1661
  171MPD1     N 2666   1.941   2.533  15.351 -0.0790  0.0598  0.4009
  171MPD1    H5 2667   2.027   2.482  15.332  0.5433  0.8558  1.1061
  171MPD1    N1 2668   1.706   2.876  15.100  0.2804 -0.8944  0.1516
  171MPD1    H6 2669   1.632   2.863  15.168 -1.5147 -1.7051 -1.9690
  171MPD1    H7 2670   1.675   2.880  15.003 -2.2761 -0.2132  1.0062
  172MPD1     C 2671   0.408   2.256  17.710 -0.4212 -0.0032 -0.7605
  172MPD1    C1 2672   0.375   2.391  17.712  0.0118  0.6997 -0.5543
  172MPD1    C2 2673   0.466   2.473   0.024 -0.2776 -0.0358  0.2395
  172MPD1    C3 2674   0.568   2.424   0.106  0.2832 -0.3149  0.0089
  172MPD1    C4 2675   0.598   2.290   0.099  0.4464 -0.6532 -0.2252
  172MPD1    C5 2676   0.528   2.210   0.011  0.0508 -0.1673 -0.5894
  172MPD1     H 2677   0.439   2.578   0.020  0.8224  0.1840 -1.2304
  172MPD1    H1 2678   0.689   2.250   0.144 -0.6434 -0.2082  2.3553
  172MPD1    H2 2679   0.347   2.194  17.646 -0.4278 -0.8359  0.0539
  172MPD1    H3 2680   0.557   2.109  17.738 -3.8506 -1.0914 -1.3266
  172MPD1     N 2681   0.644   2.510   0.187  0.6224 -0.0743  0.6652
  172MPD1    H5 2682   0.732   2.467   0.211  0.5471 -0.9343 -0.6329
  172MPD1    N1 2683   0.268   2.446  17.634 -0.2398 -0.1594  0.0419
  172MPD1    H6 2684   0.181   2.403  17.663 -0.0420 -0.9597 -0.5310
  172MPD1    H7 2685   0.264   2.543  17.664 -0.2924  0.3008 -1.4387
  173MPD1     C 2686   2.296   1.929  13.400  0.9596  0.2421 -0.4626
  173MPD1    C1 2687   2.251   1.999  13.507 -0.0204  0.2310  0.5999
  173MPD1    C2 2688   2.321   1.999  13.626 -0.1321 -0.4787  0.4041
  173MPD1    C3 2689   2.441   1.937  13.639  0.3917  0.1276 -0.7491
  173MPD1    C4 2690   2.490   1.872  13.527 -0.6786  0.3182 -0.0216
  173MPD1    C5 2691   2.422   1.875  13.407  0.2805  0.4289  0.0534
  173MPD1     H 2692   2.273   2.044  13.712 -0.3166 -1.9854  1.0965
  173MPD1    H1 2693   2.584   1.818  13.525  0.4539  2.3198 -0.7878
  173MPD1    H2 2694   2.239   1.908  13.310  2.4690 -2.0149 -0.9043
  173MPD1    H3 2695   2.465   1.819  13.325 -0.4225 -0.5259  0.3365
  173MPD1     N 2696   2.501   1.929  13.764 -0.2395  0.4720 -0.2874
  173MPD1    H5 2697   2.453   1.980  13.838  0.6085 -0.2859  0.8032
  173MPD1    N1 2698   2.120   2.045  13.507 -0.0521 -0.2607 -0.4748
  173MPD1    H6 2699   2.075   2.072  13.420 -2.1184 -2.0588  0.0410
  173MPD1    H7 2700   2.108   2.122  13.573 -1.6077  1.2411 -2.4900
  174MPD1     C 2701   3.447   1.648  13.976 -0.3041 -0.2829  0.7006
  174MPD1    C1 2702   3.364   1.606  14.079 -0.1230  0.6851 -0.0248
  174MPD1    C2 2703   3.241   1.672  14.082 -0.3613  0.2958 -0.4445
  174MPD1    C3 2704   3.203   1.763  13.984 -0.3694 -0.6453  0.3114
  174MPD1    C4 2705   3.286   1.802  13.890  0.3752  0.0023  0.1081
  174MPD1    C5 2706   3.419   1.746  13.886  0.5138  0.1103 -0.1846
  174MPD1     H 2707   3.179   1.646  14.167 -0.3857  1.0624 -0.2250
  174MPD1    H1 2708   3.260   1.876  13.816  0.2146  0.0834  0.2477
  174MPD1    H2 2709   3.547   1.606  13.972  0.4292  1.4233  1.0852
  174MPD1    H3 2710   3.493   1.773  13.812  2.3013 -2.3434  0.7040
  174MPD1     N 2711   3.071   1.819  13.983  0.2059  0.7232  0.7212
  174MPD1    H5 2712   3.050   1.867  13.896 -0.0804 -0.5701  0.0729
  174MPD1    N1 2713   3.407   1.509  14.174  0.2752 -0.5753  0.5289
  174MPD1    H6 2714   3.485   1.454  14.138 -1.2441 -0.3993 -2.9418
  174MPD1    H7 2715   3.334   1.440  14.193 -0.7787 -0.1686 -2.0771
  175MPD1     C 2716   0.399   2.728  15.080 -0.2327  0.0811 -0.1441
  175MPD1    C1 2717   0.528   2.738  15.128 -0.2006  0.4660  0.0648
  175MPD1    C2 2718   0.546   2.762  15.263  0.7946 -0.4872 -1.0907
  175MPD1    C3 2719   0.438   2.755  15.348  0.3476  0.3980 -0.3236
  175MPD1    C4 2720   0.312   2.740  15.304  0.2688  0.0939 -0.4769
  175MPD1    C5 2721   0.292   2.730  15.165  0.2786 -0.7143  0.0310
  175MPD1     H 2722   0.646   2.761  15.305 -0.8939 -0.6577  2.9031
  175MPD1    H1 2723   0.232   2.731  15.377  1.3271 -1.2076  0.5088
  175MPD1    H2 2724   0.378   2.721  14.974 -0.2776 -0.7148 -0.0867
  175MPD1    H3 2725   0.196   2.701  15.124 -1.6909  0.3948  3.8793
  175MPD1     N 2726   0.446   2.760  15.487 -0.3408  0.2364 -0.7921
  175MPD1    H5 2727   0.360   2.765  15.541 -0.6884 -0.6764 -1.2777
  175MPD1    N1 2728   0.639   2.739  15.042  0.3056  1.3343  0.5132
  175MPD1    H6 2729   0.616   2.674  14.967  0.5478  1.8281  0.0157
  175MPD1    H7 2730   0.727   2.717  15.090 -0.2412  0.2606  1.0253
  176MPD1     C 2731   2.193   0.194  17.546 -0.6157 -0.7212  0.9631
  176MPD1    C1 2732   2.298   0.218  17.468  0.1327 -0.3473  0.1862
  176MPD1    C2 2733   2.387   0.317  17.506 -0.6446  0.1979 -0.1301
  176MPD1    C3 2734   2.356   0.402  17.606 -0.2326  0.1587  0.6157
  176MPD1    C4 2735   2.248   0.371  17.690 -0.1798 -0.4131  0.2855
  176MPD1    C5 2736   2.169   0.260  17.663 -0.1910  0.7106  0.1834
  176MPD1     H 2737   2.475   0.336  17.446  0.5597 -1.3346  1.1715
  176MPD1    H1 2738   2.224   0.418   0.033 -0.3824  0.8845 -0.4220
  176MPD1    H2 2739   2.131   0.109  17.523 -0.7002 -0.2488 -0.5813
  176MPD1    H3 2740   2.092   0.235  17.734 -0.5385  1.2039 -0.0221
  176MPD1     N 2741   2.447   0.503  17.642 -0.5380  0.1566  0.0797
  176MPD1    H5 2742   2.520   0.528  17.576  2.0848 -2.0216  2.1347
  176MPD1    N1 2743   2.322   0.128  17.357  0.2099  0.0466  0.3096
  176MPD1    H6 2744   2.377   0.164  17.279  0.0158  0.7707  0.5046
  176MPD1    H7 2745   2.241   0.074  17.327  0.5944  0.3982 -1.3452
  177MPD1     C 2746   1.038   0.002   9.739  0.7666 -0.3347 -0.0516
  177MPD1    C1 2747   0.906   4.712   9.757 -0.1122  0.3318  0.4843
  177MPD1    C2 2748   0.818   0.047   9.687  0.0231 -0.7484 -0.5841
  177MPD1    C3 2749   0.853   0.145   9.604 -0.4556 -0.3905  0.2085
  177MPD1    C4 2750   0.985   0.186   9.605  0.2377 -0.1507  0.3124
  177MPD1    C5 2751   1.073   0.114   9.680  0.8140  0.0023  0.6443
  177MPD1     H 2752   0.713   0.021   9.684  0.3755 -2.6105  2.9820
  177MPD1    H1 2753   1.020   0.272   9.549 -0.7184 -0.0776 -0.1855
  177MPD1    H2 2754   1.118   4.682   9.783  2.2026  1.3184 -0.4920
  177MPD1    H3 2755   1.175   0.137   9.650  0.7913 -1.4369 -0.5380
  177MPD1     N 2756   0.749   0.214   9.529  0.2317  1.0505 -0.1620
  177MPD1    H5 2757   0.656   0.175   9.536  0.5127  0.2551 -0.8179
  177MPD1    N1 2758   0.857   4.602   9.827 -0.6844 -0.1484  0.1409
  177MPD1    H6 2759   0.767   4.615   9.874 -0.2150 -0.9028  1.2446
  177MPD1    H7 2760   0.925   4.569   9.894  1.0549  0.2657 -1.4233
  178MPD1     C 2761   3.607   0.829  17.734 -0.3935 -0.1084 -0.1446
  178MPD1    C1 2762   3.493   0.808  17.654  0.0249 -0.5335 -0.2017
  178MPD1    C2 2763   3.493   0.842  17.518  0.1775 -0.2242 -0.3797
  178MPD1    C3 2764   3.611   0.891  17.460 -0.1863  0.2557 -0.4248
  178MPD1    C4 2765   3.729   0.896  17.541 -0.0616 -0.4967  0.2354
  178MPD1    C5 2766   3.729   0.862  17.674 -0.4162 -0.2611 -0.1114
  178MPD1     H 2767   3.397   0.843  17.469 -0.7116 -1.2395  1.3416
  178MPD1    H1 2768   3.821   0.917  17.489 -0.3227  0.1757  0.0498
  178MPD1    H2 2769   3.607   0.830   0.091  0.1787 -0.9764 -0.1308
  178MPD1    H3 2770   3.826   0.878  17.721 -0.4112  0.4913 -0.3792
  178MPD1     N 2771   3.625   0.934  17.334  0.3979  0.0389 -0.6642
  178MPD1    H5 2772   3.717   0.969  17.308  1.3249  0.7821  3.6529
  178MPD1    N1 2773   3.371   0.799  17.719 -0.2551  0.2391 -0.5276
  178MPD1    H6 2774   3.295   0.760  17.663  1.4699 -0.3672 -2.4263
  178MPD1    H7 2775   3.375   0.750   0.057 -2.9922 -0.6462 -0.8802
  179MPD1     C 2776   2.363   4.576  16.596  0.4972  0.7739 -0.3526
  179MPD1    C1 2777   2.359   4.552  16.464 -0.2277  0.5695 -0.1165
  179MPD1    C2 2778   2.430   4.437  16.423 -0.3114  0.6291 -0.5282
  179MPD1    C3 2779   2.480   4.343  16.515  0.2808  0.0641 -0.2967
  179MPD1    C4 2780   2.483   4.371  16.645  0.2978 -0.1433 -0.0656
  179MPD1    C5 2781   2.431   4.495  16.682 -0.2398 -0.0231 -0.1881
  179MPD1     H 2782   2.446   4.406  16.320  1.7453 -0.1472  0.0266
  179MPD1    H1 2783   2.539   4.318  16.721  0.0546  0.9881  0.9091
  179MPD1    H2 2784   2.317   4.663  16.641  3.3659  0.8979  2.3078
  179MPD1    H3 2785   2.432   4.522  16.787 -1.7165 -0.2788 -0.1055
  179MPD1     N 2786   2.523   4.213  16.469  0.0747 -0.3309 -0.3050
  179MPD1    H5 2787   2.562   4.153  16.541 -0.1186 -0.5475 -0.3801
  179MPD1    N1 2788   2.314   4.642  16.372  0.4037  0.0903 -0.2008
  179MPD1    H6 2789   2.273   4.603  16.288  2.2108  0.6054 -1.3134
  179MPD1    H7 2790   2.244   4.707  16.407 -1.0138 -1.2595 -0.5100
  180MPD1     C 2791   3.058   0.307  14.759 -0.3226  0.2440 -0.0384
  180MPD1    C1 2792   3.029   0.299  14.622 -0.2567 -0.2005  0.7238
  180MPD1    C2 2793   2.922   0.370  14.565  0.0268  0.4056  0.6840
  180MPD1    C3 2794   2.823   0.410  14.648  0.0957  0.6543  0.4430
  180MPD1    C4 2795   2.839   0.396  14.789  0.0420  0.2019 -0.1304
  180MPD1    C5 2796   2.954   0.351  14.842 -0.7877  0.1700 -0.7531
  180MPD1     H 2797   2.909   0.374  14.458 -1.2760  2.9400  0.9192
  180MPD1    H1 2798   2.766   0.432  14.861  2.1011 -0.1020  2.0983
  180MPD1    H2 2799   3.147   0.266  14.805 -0.0572  1.3966  0.4797
  180MPD1    H3 2800   2.961   0.343  14.950  2.7098  0.9385 -0.9136
  180MPD1     N 2801   2.705   0.458  14.587 -0.2497  0.2415 -0.1506
  180MPD1    H5 2802   2.709   0.455  14.485  1.2321 -2.7321  0.0115
  180MPD1    N1 2803   3.131   0.250  14.543 -0.1228  0.2990 -0.3007
  180MPD1    H6 2804   3.182   0.177  14.593  1.7036  1.0247 -1.1074
  180MPD1    H7 2805   3.095   0.226  14.451 -0.7161 -2.4782  0.6595
  181MPD1     C 2806   3.585   3.221  11.122  0.5109  0.6345 -0.1092
  181MPD1    C1 2807   3.640   3.113  11.058  0.2457  0.2898  0.5194
  181MPD1    C2 2808   3.752   3.136  10.979  0.3311  0.0180 -0.4717
  181MPD1    C3 2809   3.793   3.265  10.945 -0.4069  0.6135  0.2114
  181MPD1    C4 2810   3.723   3.373  11.005 -0.5700  0.2499  0.2469
  181MPD1    C5 2811   3.617   3.349  11.094 -0.2925  0.5892  0.5024
  181MPD1     H 2812   3.818   3.051  10.963 -0.9684 -0.5623 -2.7970
  181MPD1    H1 2813   3.747   3.476  10.984 -1.6843  0.0686 -1.9184
  181MPD1    H2 2814   3.499   3.208  11.187  2.3724  1.2739  2.4686
  181MPD1    H3 2815   3.574   3.434  11.144  0.7975  1.2918  0.2445
  181MPD1     N 2816   3.899   3.295  10.854  0.2447 -0.1685 -0.0155
  181MPD1    H5 2817   3.928   3.392  10.844  0.8504 -0.2830  0.6455
  181MPD1    N1 2818   3.611   2.988  11.099 -0.5546 -0.0648 -0.5840
  181MPD1    H6 2819   3.527   2.986  11.157 -1.3229  0.3315 -1.6827
  181MPD1    H7 2820   3.605   2.928  11.017  2.5369  0.5849 -1.2702
  182MPD1     C 2821   0.651   2.580   0.614 -0.4989  0.2462  0.4288
  182MPD1    C1 2822   0.685   2.491   0.712 -0.0637  0.0574  0.6304
  182MPD1    C2 2823   0.614   2.368   0.714  1.1792  0.0539  0.2065
  182MPD1    C3 2824   0.509   2.341   0.634 -0.9189 -0.2793  0.6865
  182MPD1    C4 2825   0.473   2.445   0.550  0.8566  0.1166 -0.1615
  182MPD1    C5 2826   0.540   2.565   0.542  0.3568 -0.6671 -0.4529
  182MPD1     H 2827   0.646   2.294   0.786 -1.3424 -0.2035  1.0814
  182MPD1    H1 2828   0.389   2.435   0.483  0.1432 -1.1002  0.9301
  182MPD1    H2 2829   0.710   2.670   0.600  1.8061 -1.3164  0.0731
  182MPD1    H3 2830   0.505   2.638   0.470  1.0573  1.6084  1.5202
  182MPD1     N 2831   0.448   2.217   0.633 -0.1194 -0.7374 -0.3897
  182MPD1    H5 2832   0.381   2.199   0.559 -1.3177  2.8580 -0.1792
  182MPD1    N1 2833   0.798   2.515   0.798 -0.2980 -0.2896  0.4849
  182MPD1    H6 2834   0.820   2.613   0.810 -0.1941  0.0397 -2.4549
  182MPD1    H7 2835   0.764   2.496   0.893 -3.0517  1.8806 -0.0513
  183MPD1     C 2836   0.221   2.088  10.860 -0.0277 -0.1237  0.4028
  183MPD1    C1 2837   0.346   2.054  10.803  0.3914 -0.0926  0.6149
  183MPD1    C2 2838   0.415   2.144  10.729 -0.5787  0.1258 -0.7155
  183MPD1    C3 2839   0.357   2.266  10.683 -0.3998  0.4927  0.2619
  183MPD1    C4 2840   0.230   2.296  10.729  0.4758  0.2623 -0.8783
  183MPD1    C5 2841   0.170   2.209  10.820  0.4790  0.1114  0.3732
  183MPD1     H 2842   0.522   2.130  10.720 -0.2877  2.3157 -0.5659
  183MPD1    H1 2843   0.169   2.375  10.687  0.0465  1.7271  2.4828
  183MPD1    H2 2844   0.168   2.026  10.931 -1.2948  1.1189  0.5516
  183MPD1    H3 2845   0.076   2.244  10.861 -0.1719 -1.7619  0.4680
  183MPD1     N 2846   0.424   2.350  10.593  1.0358 -0.6391  0.1403
  183MPD1    H5 2847   0.522   2.328  10.574  0.5514 -1.3156 -1.6029
  183MPD1    N1 2848   0.403   1.930  10.846 -0.0233 -0.9261 -0.2963
  183MPD1    H6 2849   0.464   1.898  10.772 -1.1723 -0.2178 -1.5556
  183MPD1    H7 2850   0.333   1.860  10.871 -0.9541  0.1044 -0.0012
  184MPD1     C 2851   4.586   0.073  10.355  0.1192  0.5550  0.7013
  184MPD1    C1 2852   4.474   0.090  10.279 -0.0471 -1.0329  0.0277
  184MPD1    C2 2853   4.482   0.162  10.161  0.1995  0.5584  0.6982
  184MPD1    C3 2854   4.588   0.244  10.134  0.3540  0.2095 -0.3397
  184MPD1    C4 2855   4.692   0.240  10.226 -0.1832  0.3970 -0.6165
  184MPD1    C5 2856   4.695   0.149  10.332 -0.6021  0.5515  0.3543
  184MPD1     H 2857   4.396   0.161  10.095  0.3489 -2.0582  0.5513
  184MPD1    H1 2858   0.046   0.296  10.212  0.0808  0.2060  0.3260
  184MPD1    H2 2859   4.589   0.013  10.445  0.5110 -0.8226 -0.2381
  184MPD1    H3 2860   0.042   0.128  10.394  0.0607 -1.9140 -1.3897
  184MPD1     N 2861   4.603   0.331  10.030  0.1438 -0.2158  0.1649
  184MPD1    H5 2862   4.679   0.397  10.038  1.0039 -1.0344 -1.4401
  184MPD1    N1 2863   4.364   0.004  10.309  0.1184 -0.4841 -0.2891
  184MPD1    H6 2864   4.364   4.707  10.404  0.2250  0.7329  0.1615
  184MPD1    H7 2865   4.271   0.042  10.294 -0.8086 -1.7216  2.3288
  185MPD1     C 2866   4.307   0.588   8.971 -0.0915 -0.6129  0.1368
  185MPD1    C1 2867   4.216   0.555   9.076  0.4841 -0.1971  0.2259
  185MPD1    C2 2868   4.274   0.534   9.205  0.1141  0.3910 -0.1236
  185MPD1    C3 2869   4.409   0.525   9.229 -0.1342  0.0806 -0.0555
  185MPD1    C4 2870   4.490   0.533   9.120  0.2424 -0.5682 -0.2059
  185MPD1    C5 2871   4.438   0.573   8.995 -0.1564 -0.0959 -0.1111
  185MPD1     H 2872   4.205   0.508   9.285  1.0810  0.5936  0.7840
  185MPD1    H1 2873   4.598   0.529   9.130  0.0379 -2.2815  1.2922
  185MPD1    H2 2874   4.274   0.618   8.872  2.2254  1.4791  0.0182
  185MPD1    H3 2875   4.510   0.592   8.916 -3.0235  0.4319 -2.5980
  185MPD1     N 2876   4.478   0.499   9.351  0.2887  0.0434  0.0081
  185MPD1    H5 2877   4.579   0.493   9.347  0.0926 -2.5687 -1.0405
  185MPD1    N1 2878   4.083   0.528   9.063 -0.1986 -0.3215  0.2889
  185MPD1    H6 2879   4.031   0.574   9.138 -1.7725 -2.0447  0.2338
  185MPD1    H7 2880   4.038   0.564   8.979 -0.5936  0.8653  1.0024
  186MPD1     C 2881   3.247   3.495  15.606  0.5301 -0.6246  0.7293
  186MPD1    C1 2882   3.177   3.604  15.569  0.1371 -0.0644  0.2919
  186MPD1    C2 2883   3.198   3.721  15.644 -0.3727  0.0033 -0.4085
  186MPD1    C3 2884   3.286   3.733  15.748 -0.0187 -0.2342  0.3932
  186MPD1    C4 2885   3.371   3.625  15.768  0.0777  0.6834  0.3542
  186MPD1    C5 2886   3.349   3.512  15.700  0.4748  0.1101  0.3668
  186MPD1     H 2887   3.139   3.811  15.633  1.5744  1.0619 -2.2145
  186MPD1    H1 2888   3.448   3.620  15.844  0.0771 -2.3295  0.1775
  186MPD1    H2 2889   3.219   3.400  15.563 -0.4122  0.2950 -0.6567
  186MPD1    H3 2890   3.410   3.425  15.725 -0.8623 -0.4296  1.7539
  186MPD1     N 2891   3.300   3.844  15.830 -0.0777  0.4944 -0.3967
  186MPD1    H5 2892   3.378   3.846  15.895 -0.8049 -0.1590  0.4984
  186MPD1    N1 2893   3.062   3.588  15.488 -0.3393 -0.6157  0.0349
  186MPD1    H6 2894   3.054   3.673  15.434  0.7373 -1.7144 -1.8460
  186MPD1    H7 2895   3.063   3.505  15.429  2.0691 -0.6681  0.1811
  187MPD1     C 2896   3.340   1.174  17.507 -0.4276  0.9123  0.5999
  187MPD1    C1 2897   3.207   1.169  17.546 -0.0067 -0.4007  0.4048
  187MPD1    C2 2898   3.120   1.215  17.452 -0.5935 -0.6592  0.0207
  187MPD1    C3 2899   3.154   1.263  17.325 -0.1780  0.7333 -0.1598
  187MPD1    C4 2900   3.284   1.282  17.289  0.2775  0.0616  0.6551
  187MPD1    C5 2901   3.373   1.226  17.381  0.3283  0.2325 -0.4320
  187MPD1     H 2902   3.017   1.216  17.488 -1.0617 -0.8455 -1.3042
  187MPD1    H1 2903   3.314   1.323  17.193  0.9627 -0.5304  0.6189
  187MPD1    H2 2904   3.422   1.133  17.564  0.5710 -0.3850 -1.7467
  187MPD1    H3 2905   3.479   1.224  17.361  0.4919  0.2684  0.4642
  187MPD1     N 2906   3.050   1.303  17.229  0.4546  0.2882  0.0220
  187MPD1    H5 2907   3.079   1.327  17.135  1.7237 -1.1759  0.0257
  187MPD1    N1 2908   3.165   1.095  17.654 -0.2521 -0.5901 -0.5747
  187MPD1    H6 2909   3.235   1.097  17.729 -1.5407  0.7724  0.5853
  187MPD1    H7 2910   3.076   1.121  17.694  0.4961 -1.2505  1.5198
  188MPD1     C 2911   2.294   2.213  10.530  0.8813  0.0007  0.1153
  188MPD1    C1 2912   2.392   2.178  10.445 -0.6664 -0.4214 -0.1611
  188MPD1    C2 2913   2.392   2.050  10.397  0.0496 -0.4291 -0.1329
  188MPD1    C3 2914   2.292   1.955  10.420  0.0368  0.0693 -0.5395
  188MPD1    C4 2915   2.177   2.002  10.475 -0.7027  0.3704  0.0608
  188MPD1    C5 2916   2.185   2.124  10.536  0.5913 -0.2281 -0.0371
  188MPD1     H 2917   2.473   2.011  10.337 -0.2532  0.0650 -0.8561
  188MPD1    H1 2918   2.095   1.938  10.507  0.5322 -1.6599 -0.9089
  188MPD1    H2 2919   2.279   2.313  10.570 -1.6366 -0.5689  0.6401
  188MPD1    H3 2920   2.114   2.155  10.611  1.0018 -0.5479  0.4819
  188MPD1     N 2921   2.299   1.825  10.370 -0.1253  0.1586 -0.0103
  188MPD1    H5 2922   2.210   1.777  10.368  0.2878 -0.5565 -2.0065
  188MPD1    N1 2923   2.480   2.275  10.398 -0.6051  0.3801  0.0635
  188MPD1    H6 2924   2.562   2.226  10.365 -0.7048  0.6482 -0.5750
  188MPD1    H7 2925   2.510   2.323  10.483 -0.8749 -0.0552  0.4085
  189MPD1     C 2926   4.304   1.932   0.511 -0.3914  0.2320  0.5716
  189MPD1    C1 2927   4.378   2.028   0.448 -0.6262  0.4269 -0.8028
  189MPD1    C2 2928   4.306   2.125   0.375 -0.1755 -0.1201 -0.4753
  189MPD1    C3 2929   4.169   2.136   0.362  0.3707 -0.3171 -0.6087
  189MPD1    C4 2930   4.102   2.044   0.435 -0.4839 -0.8374  0.0860
  189MPD1    C5 2931   4.169   1.943   0.505 -0.3573 -0.4723  0.6834
  189MPD1     H 2932   4.367   2.194   0.318  0.6866 -0.6563 -0.1901
  189MPD1    H1 2933   3.995   2.028   0.436 -0.6222 -0.2612 -3.0491
  189MPD1    H2 2934   4.357   1.855   0.567  0.9588  1.1403  0.5492
  189MPD1    H3 2935   4.112   1.863   0.549  0.9788 -1.5377  0.4610
  189MPD1     N 2936   4.109   2.235   0.287 -0.1604 -0.1795 -0.5545
  189MPD1    H5 2937   4.170   2.302   0.243  0.5032 -0.8185 -0.6092
  189MPD1    N1 2938   4.513   2.040   0.473  0.1674  0.3342  0.0754
  189MPD1    H6 2939   4.552   2.094   0.396  1.5699  1.1763  1.3460
  189MPD1    H7 2940   4.556   1.949   0.463 -2.5257 -0.7302 -1.6225
  190MPD1     C 2941   2.762   0.214  15.711  0.2398 -0.1174 -0.3194
  190MPD1    C1 2942   2.816   0.336  15.749 -0.0235 -0.5658  0.0320
  190MPD1    C2 2943   2.921   0.378  15.675 -0.2361  0.3709 -0.6300
  190MPD1    C3 2944   2.966   0.329  15.554  0.6198 -0.2824  0.1310
  190MPD1    C4 2945   2.907   0.208  15.517  0.0924 -0.2443  0.5087
  190MPD1    C5 2946   2.808   0.157  15.600  0.1697  0.8284 -0.3108
  190MPD1     H 2947   2.966   0.472  15.704 -2.0665  1.5952 -1.7759
  190MPD1    H1 2948   2.928   0.154  15.425  1.6443  0.4368  0.4639
  190MPD1    H2 2949   2.686   0.162  15.768  1.0136 -3.4545 -2.3684
  190MPD1    H3 2950   2.767   0.069  15.552 -1.7748  1.9268 -0.6609
  190MPD1     N 2951   3.068   0.401  15.483  0.3924  0.4392  0.0351
  190MPD1    H5 2952   3.109   0.485  15.523 -1.6180  0.8242  1.2642
  190MPD1    N1 2953   2.783   0.402  15.868  0.2633  0.1802  0.3911
  190MPD1    H6 2954   2.791   0.503  15.856 -0.0127 -0.0353 -1.6146
  190MPD1    H7 2955   2.682   0.403  15.876  0.3818  0.2905  1.8715
  191MPD1     C 2956   2.066   1.968  13.065  0.6509 -0.1470 -0.2465
  191MPD1    C1 2957   1.999   2.050  13.159 -0.5221  0.1259 -0.4843
  191MPD1    C2 2958   2.030   2.185  13.150  0.2035 -0.5809  0.0980
  191MPD1    C3 2959   2.095   2.238  13.041 -0.6145  0.0971  0.3536
  191MPD1    C4 2960   2.153   2.154  12.947  0.3076 -0.8684 -0.3801
  191MPD1    C5 2961   2.136   2.019  12.959 -0.1541 -0.2970  0.3227
  191MPD1     H 2962   1.980   2.249  13.222  1.5025  0.3018  0.2048
  191MPD1    H1 2963   2.209   2.190  12.862  0.3653  1.5087  0.6647
  191MPD1    H2 2964   2.055   1.860  13.066 -1.9096  0.1142  0.2059
  191MPD1    H3 2965   2.179   1.958  12.881  0.6610 -0.3840  0.8380
  191MPD1     N 2966   2.106   2.375  13.032 -0.2332 -0.2782 -0.3381
  191MPD1    H5 2967   2.054   2.424  13.104  0.3181  1.5063 -1.1572
  191MPD1    N1 2968   1.948   1.984  13.269 -0.4740 -0.3884  0.5648
  191MPD1    H6 2969   1.881   2.041  13.320  0.0607 -0.7818  1.7286
  191MPD1    H7 2970   1.907   1.893  13.248 -2.4216  0.7379 -0.5111
  192MPD1     C 2971   1.501   2.934  13.197  0.0339  0.2236 -0.0372
  192MPD1    C1 2972   1.613   3.016  13.192  0.0275 -0.1614  1.2557
  192MPD1    C2 2973   1.733   2.978  13.130 -0.7119  0.0476  0.0671
  192MPD1    C3 2974   1.747   2.849  13.091  0.7156  0.9340  0.7074
  192MPD1    C4 2975   1.649   2.765  13.115 -0.2939 -0.4143  0.5465
  192MPD1    C5 2976   1.527   2.801  13.169 -0.3077 -0.3208  0.3495
  192MPD1     H 2977   1.823   3.039  13.130 -1.1702  0.7196 -0.5571
  192MPD1    H1 2978   1.657   2.659  13.090  0.6738 -0.5998  1.6047
  192MPD1    H2 2979   1.414   2.968  13.252  0.4682 -0.6117  1.1618
  192MPD1    H3 2980   1.449   2.732  13.200 -0.3464  1.2741  3.7720
  192MPD1     N 2981   1.869   2.802  13.048 -0.3320 -0.3710  0.2636
  192MPD1    H5 2982   1.863   2.701  13.038 -1.3382 -0.2356 -0.5127
  192MPD1    N1 2983   1.597   3.138  13.255 -0.1299 -0.2057 -0.4345
  192MPD1    H6 2984   1.511   3.185  13.229  0.7187  3.1146  2.7998
  192MPD1    H7 2985   1.665   3.204  13.215 -2.0381  1.2487 -1.2764
  193MPD1     C 2986   1.525   2.713  16.382  0.7284 -0.6515  0.5060
  193MPD1    C1 2987   1.630   2.756  16.321  0.0933 -1.0295 -0.2246
  193MPD1    C2 2988   1.723   2.836  16.390 -0.1116  0.4505 -0.0184
  193MPD1    C3 2989   1.686   2.890  16.515  0.1680  0.0664  0.2935
  193MPD1    C4 2990   1.561   2.858  16.568  0.1253  0.8135  0.0876
  193MPD1    C5 2991   1.490   2.760  16.503 -0.1227  0.3448 -0.4518
  193MPD1     H 2992   1.812   2.870  16.339 -1.1125 -1.0533 -2.7657
  193MPD1    H1 2993   1.530   2.887  16.667  1.6924 -1.3491  1.2254
  193MPD1    H2 2994   1.458   2.639  16.337 -0.5230  0.3303  0.7641
  193MPD1    H3 2995   1.402   2.721  16.554  0.6803 -1.0723 -0.1569
  193MPD1     N 2996   1.784   2.962  16.588  0.7773 -0.6142  0.2596
  193MPD1    H5 2997   1.877   2.955  16.548  0.9910 -1.4749  0.9116
  193MPD1    N1 2998   1.673   2.697  16.199  0.1820 -0.2537 -0.9819
  193MPD1    H6 2999   1.746   2.756  16.158  1.0165 -1.6546 -1.4894
  193MPD1    H7 3000   1.598   2.692  16.131 -1.1375  0.1106  0.4661
  194MPD1     C 3001   1.079   4.702  16.519 -0.2612 -0.4735 -0.7553
  194MPD1    C1 3002   0.942   4.694  16.486 -0.1674 -0.2086 -0.0162
  194MPD1    C2 3003   0.869   4.592  16.531 -0.6961  0.7095 -0.3796
  194MPD1    C3 3004   0.917   4.501  16.622 -1.1294 -0.0960  0.0225
  194MPD1    C4 3005   1.048   4.516  16.663 -0.5666 -0.0659  0.2751
  194MPD1    C5 3006   1.128   4.616  16.608 -0.6639 -0.6519 -0.6886
  194MPD1     H 3007   0.768   4.578  16.492  0.0513  0.4740 -2.2100
  194MPD1    H1 3008   1.082   4.443  16.735 -2.8073 -0.6938  0.6963
  194MPD1    H2 3009   1.144   0.037  16.471 -2.0269  0.5320 -1.6240
  194MPD1    H3 3010   1.233   4.622  16.634 -0.3408  1.4304 -2.5532
  194MPD1     N 3011   0.843   4.394  16.680 -0.1200  0.1977 -0.9250
  194MPD1    H5 3012   0.886   4.340  16.754 -0.7417  2.4670  1.1075
  194MPD1    N1 3013   0.893   0.046  16.396  0.1652 -0.1446  0.4805
  194MPD1    H6 3014   0.795   0.070  16.410 -0.3179 -1.7354 -0.1569
  194MPD1    H7 3015   0.951   0.129  16.388 -1.7035  0.9256 -2.0689
  195MPD1     C 3016   1.686   2.246   0.217 -0.2989  0.6571  0.2197
  195MPD1    C1 3017   1.776   2.231   0.325 -0.1709 -0.0019  0.3082
  195MPD1    C2 3018   1.837   2.104   0.339  0.2661  0.4546 -0.1421
  195MPD1    C3 3019   1.836   2.007   0.240 -0.1294 -0.5523 -0.3383
  195MPD1    C4 3020   1.761   2.033   0.126 -0.4366  0.4063 -0.9184
  195MPD1    C5 3021   1.685   2.149   0.123 -0.1974 -0.0102 -0.0549
  195MPD1     H 3022   1.888   2.092   0.434  2.3661  0.4844 -1.2673
  195MPD1    H1 3023   1.755   1.965   0.042  0.5774  0.9275 -1.4101
  195MPD1    H2 3024   1.633   2.339   0.199  0.7328  0.4339 -4.0418
  195MPD1    H3 3025   1.632   2.173   0.031  0.0050  0.4125 -0.0577
  195MPD1     N 3026   1.905   1.883   0.253  0.1073  0.3133 -0.7362
  195MPD1    H5 3027   1.890   1.813   0.181  2.2842 -1.0443  0.1275
  195MPD1    N1 3028   1.778   2.326   0.429 -0.0552  0.0040  0.4089
  195MPD1    H6 3029   1.858   2.313   0.490 -0.7636  1.0213  1.5538
  195MPD1    H7 3030   1.768   2.426   0.418  1.1758  0.2004  1.1460
  196MPD1     C 3031   1.164   0.761  17.638  0.0831 -0.0299 -0.3388
  196MPD1    C1 3032   1.243   0.871  17.661  0.0189  0.1730  0.2406
  196MPD1    C2 3033   1.299   0.897   0.038  0.1268  0.2784  0.0945
  196MPD1    C3 3034   1.276   0.808   0.142 -0.1481  0.2294 -0.6064
  196MPD1    C4 3035   1.198   0.691   0.116  0.1743  0.4064  1.0856
  196MPD1    C5 3036   1.156   0.668  17.737  0.7291  0.1936 -0.0911
  196MPD1     H 3037   1.358   0.987   0.051  0.3458  0.2316 -0.6145
  196MPD1    H1 3038   1.156   0.622   0.189  2.0200 -0.8152  0.9947
  196MPD1    H2 3039   1.105   0.743  17.549  1.5060 -0.6680 -1.1498
  196MPD1    H3 3040   1.083   0.591  17.717  3.2697 -2.1347 -0.4232
  196MPD1     N 3041   1.315   0.832   0.275 -0.5558 -0.3011 -0.5237
  196MPD1    H5 3042   1.275   0.762   0.337 -2.0734  0.3957 -0.7052
  196MPD1    N1 3043   1.248   0.964  17.562 -0.3024 -0.1912  0.1974
  196MPD1    H6 3044   1.339   1.009  17.566 -0.3047 -0.1676 -0.0147
  196MPD1    H7 3045   1.237   0.920  17.471 -3.2912  2.1152 -0.5927
  197MPD1     C 3046   0.498   2.413  17.266  0.4175  0.1201 -0.1246
  197MPD1    C1 3047   0.493   2.546  17.315  0.0964 -0.2686  0.1182
  197MPD1    C2 3048   0.529   2.654  17.229 -0.1273 -0.2588 -0.3162
  197MPD1    C3 3049   0.550   2.623  17.093 -0.2072 -0.1913  0.1518
  197MPD1    C4 3050   0.544   2.491  17.049 -0.5980  0.1140  0.4836
  197MPD1    C5 3051   0.524   2.393  17.138 -0.1143  0.9962 -1.0131
  197MPD1     H 3052   0.541   2.752  17.273  0.4774 -0.2150 -0.5704
  197MPD1    H1 3053   0.544   2.470  16.943 -0.5832 -1.5826  0.8329
  197MPD1    H2 3054   0.494   2.329  17.333  3.2178 -0.2501 -0.4375
  197MPD1    H3 3055   0.515   2.291  17.102  3.4761  0.9515 -1.8090
  197MPD1     N 3056   0.588   2.728  17.005 -0.0012  0.0301 -0.2050
  197MPD1    H5 3057   0.622   2.700  16.913 -1.0186  0.9668 -0.8654
  197MPD1    N1 3058   0.481   2.575  17.449  0.7356  0.0543 -0.6393
  197MPD1    H6 3059   0.454   2.667  17.482  0.3831 -0.2077 -0.1877
  197MPD1    H7 3060   0.427   2.505  17.500  1.3639 -0.8823 -1.2580
  198MPD1     C 3061   2.565   1.561  15.656  0.0048  0.2095 -0.6752
  198MPD1    C1 3062   2.645   1.515  15.759  0.2373 -0.2462 -0.5654
  198MPD1    C2 3063   2.774   1.561  15.762  0.0518 -0.1863  0.1149
  198MPD1    C3 3064   2.822   1.642  15.658 -0.2245  1.1981 -0.0364
  198MPD1    C4 3065   2.740   1.671  15.556  0.6567 -0.2571  0.3853
  198MPD1    C5 3066   2.610   1.631  15.552  0.3048  0.6004  0.0351
  198MPD1     H 3067   2.848   1.522  15.831 -0.2579  0.4647  0.8068
  198MPD1    H1 3068   2.772   1.733  15.472  1.1370 -0.4217  0.4448
  198MPD1    H2 3069   2.457   1.546  15.652  0.1372 -1.3269  1.0886
  198MPD1    H3 3070   2.550   1.672  15.471 -0.7140  1.6921  1.3505
  198MPD1     N 3071   2.954   1.687  15.661  0.1814 -0.2618  0.0551
  198MPD1    H5 3072   3.002   1.676  15.750  0.1990 -1.0989 -0.0609
  198MPD1    N1 3073   2.602   1.444  15.875 -0.1556 -0.4148  0.3234
  198MPD1    H6 3074   2.525   1.383  15.850 -0.3462  0.1515 -0.4599
  198MPD1    H7 3075   2.669   1.377  15.913  0.0453  0.1801  1.0286
  199MPD1     C 3076   0.443   3.473  10.350 -0.1902 -0.2463  0.2748
  199MPD1    C1 3077   0.452   3.613  10.366 -0.0887  0.1406  0.0809
  199MPD1    C2 3078   0.339   3.687  10.342  0.0717 -0.7982  0.0199
  199MPD1    C3 3079   0.232   3.619  10.284  0.0129  0.4298 -0.4217
  199MPD1    C4 3080   0.236   3.487  10.248  0.1144  0.3167 -1.0270
  199MPD1    C5 3081   0.343   3.411  10.282 -0.0284  0.5314 -0.0679
  199MPD1     H 3082   0.340   3.793  10.365  0.4263 -1.5013  3.2111
  199MPD1    H1 3083   0.152   3.432  10.208 -0.1912  0.9748 -1.2770
  199MPD1    H2 3084   0.537   3.419  10.360 -0.8212 -1.3883  0.0362
  199MPD1    H3 3085   0.344   3.304  10.266 -1.1941  0.2585  1.6667
  199MPD1     N 3086   0.106   3.683  10.269 -0.2602 -0.6138  0.2589
  199MPD1    H5 3087   0.029   3.625  10.237 -1.2998  1.2280 -0.5623
  199MPD1    N1 3088   0.572   3.679  10.402  0.1538  0.8646 -0.2411
  199MPD1    H6 3089   0.644   3.613  10.429  1.7810  2.2972 -1.0638
  199MPD1    H7 3090   0.552   3.733  10.486 -2.2793  0.9049 -0.8457
  200MPD1     C 3091   3.686   2.508  15.269 -1.0549  0.0743 -0.1831
  200MPD1    C1 3092   3.609   2.475  15.161  0.1732 -0.0014 -0.0668
  200MPD1    C2 3093   3.658   2.504  15.034  0.1300  0.3143  0.2735
  200MPD1    C3 3094   3.781   2.552  15.013 -0.0423 -0.5326 -0.6239
  200MPD1    C4 3095   3.856   2.590  15.122  0.2182 -0.4169 -0.4613
  200MPD1    C5 3096   3.806   2.567  15.250 -0.3220  0.6132  0.4558
  200MPD1     H 3097   3.590   2.485  14.951  0.0533  0.1802  0.3685
  200MPD1    H1 3098   3.953   2.637  15.111 -0.8842  2.3011  1.5246
  200MPD1    H2 3099   3.650   2.492  15.370 -1.5038  0.5459 -0.2713
  200MPD1    H3 3100   3.872   2.599  15.329  0.7154  0.7837 -0.4732
  200MPD1     N 3101   3.823   2.566  14.884  0.2785  0.1674  0.1870
  200MPD1    H5 3102   3.756   2.545  14.810  1.3214  1.0914 -1.0215
  200MPD1    N1 3103   3.474   2.438  15.180  0.3000 -0.4875  0.1500
  200MPD1    H6 3104   3.425   2.401  15.099 -0.0574 -0.4998  0.3706
  200MPD1    H7 3105   3.471   2.376  15.260 -1.0494  0.1874  0.6201
  201MPD1     C 3106   1.808   2.377  12.399  0.5965  0.7015  0.2868
  201MPD1    C1 3107   1.812   2.276  12.308  0.5645  0.5529 -0.0036
  201MPD1    C2 3108   1.748   2.147  12.340  0.9899  0.4024  0.2749
  201MPD1    C3 3109   1.674   2.132  12.448 -0.1334  0.4638 -0.0841
  201MPD1    C4 3110   1.651   2.244  12.525 -0.2389 -0.6095  0.9385
  201MPD1    C5 3111   1.711   2.363  12.495 -0.0038 -0.7060 -0.0055
  201MPD1     H 3112   1.770   2.066  12.272  0.8115 -0.2978  1.0529
  201MPD1    H1 3113   1.592   2.240  12.616  0.7859 -2.4549  1.5267
  201MPD1    H2 3114   1.859   2.470  12.379  0.9640  0.2675 -0.8190
  201MPD1    H3 3115   1.682   2.448  12.555 -0.7753 -2.1235  1.6274
  201MPD1     N 3116   1.623   2.003  12.487 -0.4730  0.2765  0.0285
  201MPD1    H5 3117   1.642   1.922  12.428 -0.8888  0.8190 -0.8513
  201MPD1    N1 3118   1.905   2.281  12.203  1.0191  0.8011 -0.5271
  201MPD1    H6 3119   1.877   2.231  12.119  0.5028 -1.2958  0.9161
  201MPD1    H7 3120   1.942   2.374  12.183  2.6145  0.0170 -1.1827
  202MPD1     C 3121   0.592   1.259  10.453 -0.5436 -0.2528 -0.1621
  202MPD1    C1 3122   0.572   1.376  10.382 -0.5655 -0.5235 -0.7093
  202MPD1    C2 3123   0.684   1.456  10.385 -0.4116 -0.1203  0.8956
  202MPD1    C3 3124   0.809   1.414  10.408 -0.2880 -0.2525 -0.1841
  202MPD1    C4 3125   0.831   1.284  10.443 -0.1232 -0.1379 -0.0769
  202MPD1    C5 3126   0.719   1.210  10.477 -0.8334 -0.3129  0.2083
  202MPD1     H 3127   0.672   1.548  10.330 -1.1361  0.4810  2.0715
  202MPD1    H1 3128   0.933   1.254  10.464  1.0810  2.0271 -2.7835
  202MPD1    H2 3129   0.505   1.203  10.483 -0.7187  1.4935  2.5069
  202MPD1    H3 3130   0.732   1.114  10.525  1.0343 -0.9288 -1.5291
  202MPD1     N 3131   0.927   1.493  10.391 -0.1671  0.7185 -0.6622
  202MPD1    H5 3132   1.017   1.453  10.414 -0.2399  0.7119 -0.3895
  202MPD1    N1 3133   0.449   1.439  10.380 -0.3974  0.9408  0.2501
  202MPD1    H6 3134   0.444   1.510  10.307  3.2099  0.1413 -0.7886
  202MPD1    H7 3135   0.372   1.376  10.358 -2.0873  3.3530 -0.7285
  203MPD1     C 3136   4.261   2.017  12.161 -0.2857  0.5889 -0.6237
  203MPD1    C1 3137   4.331   1.919  12.095  0.0302  0.3824 -0.5650
  203MPD1    C2 3138   4.401   1.833  12.171  0.1016  0.2057  0.1125
  203MPD1    C3 3139   4.418   1.838  12.306  0.2602 -0.2420 -0.1600
  203MPD1    C4 3140   4.362   1.943  12.365 -0.1209 -0.7252 -0.4244
  203MPD1    C5 3141   4.284   2.031  12.296  0.0402 -0.1321 -0.2219
  203MPD1     H 3142   4.437   1.746  12.116  0.4046 -1.0697  2.3148
  203MPD1    H1 3143   4.370   1.960  12.472  0.8773 -0.1313 -0.5963
  203MPD1    H2 3144   4.184   2.079  12.118  0.0613 -0.1175 -2.2916
  203MPD1    H3 3145   4.241   2.116  12.348  1.2208 -0.6596  1.6446
  203MPD1     N 3146   4.495   1.737  12.373 -0.6187  0.0028 -0.2707
  203MPD1    H5 3147   4.536   1.663  12.317  0.2696  0.1331  0.2064
  203MPD1    N1 3148   4.324   1.883  11.958  0.3799  0.6910  0.0238
  203MPD1    H6 3149   4.282   1.957  11.902 -0.0530  0.4391  0.0137
  203MPD1    H7 3150   4.406   1.837  11.919  0.1076 -0.8972  1.3421
  204MPD1     C 3151   0.146   3.690  17.115  0.3632  0.7619 -0.2292
  204MPD1    C1 3152   0.124   3.644  16.990  0.0209 -0.1702  0.2215
  204MPD1    C2 3153   0.070   3.517  16.981  0.4629  0.8862  0.6726
  204MPD1    C3 3154   0.023   3.454  17.095 -0.9397 -0.1610  0.2116
  204MPD1    C4 3155   0.037   3.507  17.226  0.6092  0.9312  1.0316
  204MPD1    C5 3156   0.117   3.621  17.235 -0.2200 -0.9949  0.9693
  204MPD1     H 3157   0.054   3.468  16.886 -0.2570  0.7758  0.8524
  204MPD1    H1 3158   0.003   3.474  17.324 -0.8524  0.4366  0.3565
  204MPD1    H2 3159   0.206   3.779  17.128  1.7717 -0.1064 -0.7677
  204MPD1    H3 3160   0.144   3.671  17.327  1.1766 -1.1896  0.6646
  204MPD1     N 3161   4.688   3.325  17.080 -0.3658  0.7953  0.6441
  204MPD1    H5 3162   4.683   3.289  16.985 -0.2147 -1.0672  1.3421
  204MPD1    N1 3163   0.181   3.705  16.875  0.6828  0.2296 -0.1528
  204MPD1    H6 3164   0.162   3.804  16.888 -0.1827  0.1328 -0.6972
  204MPD1    H7 3165   0.136   3.672  16.790 -1.9397  0.9400  0.9540
  205MPD1     C 3166   4.559   1.720  16.500  0.2226 -0.1109 -0.2637
  205MPD1    C1 3167   4.435   1.766  16.529 -0.3238 -0.4862 -0.1441
  205MPD1    C2 3168   4.405   1.807  16.660 -0.0495 -0.9316  0.5350
  205MPD1    C3 3169   4.494   1.779  16.757  0.1553  0.0360 -0.1271
  205MPD1    C4 3170   4.614   1.718  16.729  0.1183  0.5957 -0.0329
  205MPD1    C5 3171   4.652   1.694  16.601  0.7163  0.0123  0.5458
  205MPD1     H 3172   4.315   1.866  16.678  0.5682  0.6453 -1.5962
  205MPD1    H1 3173   4.681   1.695  16.811 -1.6000  0.1385  1.2469
  205MPD1    H2 3174   4.582   1.697  16.397 -0.1451 -1.3881 -0.0656
  205MPD1    H3 3175   0.013   1.655  16.583  0.8204  0.7101 -0.3873
  205MPD1     N 3176   4.472   1.818  16.893  0.1074 -0.2185  0.4106
  205MPD1    H5 3177   4.535   1.777  16.961 -0.1485  0.0349  0.7987
  205MPD1    N1 3178   4.345   1.801  16.424 -0.1879  0.0188  0.0797
  205MPD1    H6 3179   4.359   1.746  16.340 -0.6576 -0.3049  0.2190
  205MPD1    H7 3180   4.246   1.802  16.447 -0.0464 -1.9132  0.8122
  206MPD1     C 3181   0.574   0.140  16.117  0.0944 -0.7604  0.4115
  206MPD1    C1 3182   0.482   0.235  16.104  0.7980  0.7269 -0.0327
  206MPD1    C2 3183   0.362   0.204  16.037  0.5465 -0.3706 -1.2916
  206MPD1    C3 3184   0.324   0.071  16.028 -0.5866  0.1189  0.2588
  206MPD1    C4 3185   0.418   4.711  16.060 -0.2022 -0.6053 -0.2540
  206MPD1    C5 3186   0.540   0.011  16.101  0.7290 -0.5747 -0.5060
  206MPD1     H 3187   0.294   0.280  16.001  0.8268  0.2107 -0.5830
  206MPD1    H1 3188   0.393   4.606  16.050 -1.2930 -0.2147 -1.5440
  206MPD1    H2 3189   0.676   0.167  16.145 -0.7364  2.0650  0.6803
  206MPD1    H3 3190   0.611   4.668  16.107  1.2702  0.0092  0.9270
  206MPD1     N 3191   0.199   0.035  15.982  0.5547 -0.2606 -0.5268
  206MPD1    H5 3192   0.175   4.675  15.994 -2.3308  0.7430  1.8072
  206MPD1    N1 3193   0.524   0.371  16.110  0.7331  0.4120 -0.4603
  206MPD1    H6 3194   0.445   0.428  16.140  0.8962  1.0012 -1.1542
  206MPD1    H7 3195   0.588   0.378  16.189 -1.2111  1.4147  1.0286
  207MPD1     C 3196   2.510   2.803   9.622  0.3927 -0.1584 -0.3045
  207MPD1    C1 3197   2.518   2.935   9.649 -0.3199  0.7559 -0.1779
  207MPD1    C2 3198   2.601   2.982   9.745 -0.7146 -0.4699  0.0401
  207MPD1    C3 3199   2.692   2.902   9.811 -0.7695  0.8222 -0.2938
  207MPD1    C4 3200   2.687   2.766   9.785  0.3488  0.4680  0.6349
  207MPD1    C5 3201   2.600   2.719   9.689 -0.5645  0.2617  0.2168
  207MPD1     H 3202   2.588   3.088   9.763 -2.4058 -0.2866 -2.1526
  207MPD1    H1 3203   2.749   2.695   9.836 -2.1175 -2.2608 -0.1763
  207MPD1    H2 3204   2.435   2.754   9.561  1.5985 -3.5847  0.9450
  207MPD1    H3 3205   2.603   2.616   9.655 -2.0010 -0.1417  1.2920
  207MPD1     N 3206   2.787   2.945   9.905 -0.8028 -0.3244 -0.1136
  207MPD1    H5 3207   2.848   2.871   9.937 -1.1469 -1.3034 -1.7790
  207MPD1    N1 3208   2.413   3.018   9.594  0.1309  0.1183  0.4209
  207MPD1    H6 3209   2.455   3.111   9.594 -1.2205  0.7266 -0.5482
  207MPD1    H7 3210   2.393   2.985   9.500  2.5284 -0.6495  0.2002
  208MPD1     C 3211   0.100   0.377   0.460 -0.3769  0.2139  0.5244
  208MPD1    C1 3212   0.197   0.473   0.481  0.1122  0.7280 -0.4431
  208MPD1    C2 3213   0.190   0.591   0.408  0.4984  0.5017  1.4823
  208MPD1    C3 3214   0.094   0.615   0.315 -0.6209 -0.4573 -0.7276
  208MPD1    C4 3215   0.004   0.512   0.286 -0.0781  0.6996  0.0276
  208MPD1    C5 3216   0.011   0.395   0.356 -0.7194  0.6320  0.0178
  208MPD1     H 3217   0.265   0.667   0.426  1.2607  0.2822 -0.8112
  208MPD1    H1 3218   4.676   0.511   0.200 -0.1444 -2.3434  0.1111
  208MPD1    H2 3219   0.095   0.283   0.514 -1.1164  0.2554  0.5319
  208MPD1    H3 3220   4.681   0.316   0.325 -1.8804  2.2793 -1.6714
  208MPD1     N 3221   0.101   0.734   0.247 -0.4537 -0.1959  0.5505
  208MPD1    H5 3222   0.179   0.794   0.275  1.1307 -2.2972  0.6493
  208MPD1    N1 3223   0.308   0.455   0.573  0.0849  0.8167 -0.0939
  208MPD1    H6 3224   0.304   0.372   0.631  0.2396  1.9040  1.4687
  208MPD1    H7 3225   0.333   0.540   0.622  0.7854  0.9124 -0.6075
  209MPD1     C 3226   2.653   1.817  10.977  0.0959  0.7227  0.7309
  209MPD1    C1 3227   2.771   1.825  10.905 -0.7614  0.3674  0.4698
  209MPD1    C2 3228   2.852   1.941  10.926  0.3426  0.4726 -0.5676
  209MPD1    C3 3229   2.820   2.039  11.016  0.5356 -0.4202 -0.3458
  209MPD1    C4 3230   2.696   2.023  11.080 -0.2992 -0.3501  0.1230
  209MPD1    C5 3231   2.618   1.914  11.064  0.3861  0.4838  0.6801
  209MPD1     H 3232   2.949   1.946  10.878 -0.5281  0.4214 -2.3272
  209MPD1    H1 3233   2.648   2.094  11.147  1.2114 -0.3849  1.2562
  209MPD1    H2 3234   2.578   1.739  10.968  0.6609  0.1938  0.6509
  209MPD1    H3 3235   2.522   1.913  11.114 -0.2634  2.5978 -0.5325
  209MPD1     N 3236   2.899   2.157  11.031  0.0160 -0.2187  0.1397
  209MPD1    H5 3237   2.982   2.165  10.973  1.4073  0.3186  2.2239
  209MPD1    N1 3238   2.806   1.739  10.799 -0.1001 -0.7629  0.4214
  209MPD1    H6 3239   2.756   1.652  10.817 -0.9185 -0.1855  0.9479
  209MPD1    H7 3240   2.904   1.731  10.775 -0.2388 -1.2130 -0.0011
  210MPD1     C 3241   2.732   2.886  11.692  0.0252  0.1488  0.1079
  210MPD1    C1 3242   2.792   2.955  11.586  0.0175 -0.5016 -0.8983
  210MPD1    C2 3243   2.835   2.882  11.479 -0.2211  0.2678  0.2251
  210MPD1    C3 3244   2.825   2.744  11.481 -0.0148  0.1456 -0.4155
  210MPD1    C4 3245   2.745   2.681  11.579  0.2428  0.1556  0.2851
  210MPD1    C5 3246   2.705   2.751  11.691  0.3064 -0.1577 -0.8439
  210MPD1     H 3247   2.887   2.933  11.399 -1.3741 -0.1914 -0.8087
  210MPD1    H1 3248   2.724   2.574  11.570  1.2766 -0.0923  0.8675
  210MPD1    H2 3249   2.684   2.949  11.767  0.0068 -0.5545  0.6878
  210MPD1    H3 3250   2.658   2.699  11.774  3.1631 -2.5017 -0.6986
  210MPD1     N 3251   2.862   2.651  11.380 -0.0135  0.2776  0.1516
  210MPD1    H5 3252   2.825   2.557  11.382  0.8316  0.0205  3.7240
  210MPD1    N1 3253   2.789   3.092  11.577 -0.2725 -0.1505 -0.7436
  210MPD1    H6 3254   2.799   3.132  11.670 -0.6139 -0.9069 -0.3758
  210MPD1    H7 3255   2.869   3.124  11.524 -0.3292 -0.2451 -0.8859
  211MPD1     C 3256   0.979   1.796  16.212  0.0334 -0.0077 -0.1077
  211MPD1    C1 3257   0.957   1.930  16.174  0.1082  0.6105  0.2111
  211MPD1    C2 3258   0.824   1.968  16.161  0.6405  0.0741 -0.3799
  211MPD1    C3 3259   0.716   1.883  16.181  0.0186  0.4167 -0.1452
  211MPD1    C4 3260   0.743   1.758  16.224  0.4193 -0.5930  0.5195
  211MPD1    C5 3261   0.874   1.708  16.240  0.7988  0.2809  0.2972
  211MPD1     H 3262   0.808   2.067  16.119  0.1783  0.0069 -0.3574
  211MPD1    H1 3263   0.673   1.685  16.261  1.9731 -1.2943  2.0817
  211MPD1    H2 3264   1.083   1.768  16.226 -0.1896  0.1129  1.9005
  211MPD1    H3 3265   0.890   1.617  16.296 -2.0677 -1.3598 -1.5430
  211MPD1     N 3266   0.583   1.929  16.176  0.6709 -0.1678 -0.5938
  211MPD1    H5 3267   0.567   2.028  16.157  1.8578 -0.2326 -1.9516
  211MPD1    N1 3268   1.058   2.028  16.160  1.0635  0.4961  0.2914
  211MPD1    H6 3269   1.035   2.099  16.092  0.4107  1.0662  1.1144
  211MPD1    H7 3270   1.144   1.982  16.129  0.7695 -0.6237  1.1380
  212MPD1     C 3271   3.936   0.558  16.243 -0.6992  0.3097  0.4830
  212MPD1    C1 3272   3.940   0.418  16.220  0.6646 -0.2357  0.6856
  212MPD1    C2 3273   3.879   0.334  16.314  0.7589 -0.3788  0.8062
  212MPD1    C3 3274   3.820   0.384  16.428 -0.3322  0.1824 -0.3486
  212MPD1    C4 3275   3.824   0.520  16.450 -0.1370  0.2951  1.1501
  212MPD1    C5 3276   3.893   0.607  16.368 -0.4685  0.7836  0.1416
  212MPD1     H 3277   3.886   0.227  16.300 -0.4031 -0.3108 -0.2587
  212MPD1    H1 3278   3.768   0.571  16.528 -3.2957 -0.5997 -0.5688
  212MPD1    H2 3279   3.977   0.626  16.168 -0.4589 -2.6685 -2.0770
  212MPD1    H3 3280   3.890   0.715  16.373  1.3494  0.9106 -1.3757
  212MPD1     N 3281   3.756   0.309  16.524  0.7072  0.1296 -0.2307
  212MPD1    H5 3282   3.716   0.366  16.598  1.4439  1.9368 -1.2187
  212MPD1    N1 3283   3.977   0.376  16.095 -0.1450  0.2399  0.4001
  212MPD1    H6 3284   4.054   0.430  16.056 -0.8303  2.0739  1.5553
  212MPD1    H7 3285   4.012   0.281  16.101 -1.3469 -0.0015  3.3055
  213MPD1     C 3286   2.757   1.017  15.209  0.2254  0.6633  0.3700
  213MPD1    C1 3287   2.712   1.109  15.112  1.1259  0.8068 -0.3480
  213MPD1    C2 3288   2.581   1.091  15.072 -0.1120 -0.7559 -0.1934
  213MPD1    C3 3289   2.489   1.013  15.137  0.4199 -1.0374  0.4687
  213MPD1    C4 3290   2.538   0.942  15.246  0.8436  0.3481  0.2402
  213MPD1    C5 3291   2.671   0.948  15.284 -0.0432 -0.2806 -0.4357
  213MPD1     H 3292   2.558   1.151  14.985 -1.1442 -0.1295  0.5198
  213MPD1    H1 3293   2.472   0.868  15.288  1.6023 -0.6837 -0.3932
  213MPD1    H2 3294   2.860   1.015  15.242 -0.3713 -0.3122  2.2039
  213MPD1    H3 3295   2.704   0.892  15.371  0.6628  1.0686  0.1621
  213MPD1     N 3296   2.357   1.010  15.077 -0.1437 -0.0532 -0.0470
  213MPD1    H5 3297   2.354   1.068  14.993 -0.1531  0.2791  0.1819
  213MPD1    N1 3298   2.799   1.149  15.013  0.4478  0.0767  0.4934
  213MPD1    H6 3299   2.754   1.229  14.968  1.7578  0.8166  0.4829
  213MPD1    H7 3300   2.891   1.181  15.044  1.2080 -1.2159 -0.4052
  214MPD1     C 3301   1.476   0.466  15.086  0.0481 -0.4406 -0.6359
  214MPD1    C1 3302   1.515   0.493  14.953 -0.0257  0.4747 -0.2699
  214MPD1    C2 3303   1.620   0.582  14.934 -0.1340 -0.4702  0.5022
  214MPD1    C3 3304   1.683   0.660  15.030 -1.2470 -0.6565  0.3002
  214MPD1    C4 3305   1.641   0.628  15.161  0.6304 -0.0303  1.0621
  214MPD1    C5 3306   1.543   0.527  15.184 -0.1751  0.7818  0.2481
  214MPD1     H 3307   1.655   0.583  14.831 -0.6812 -0.7349  0.3163
  214MPD1    H1 3308   1.694   0.674  15.244  1.3416  1.5922 -0.3226
  214MPD1    H2 3309   1.400   0.393  15.114 -0.6978 -0.2979 -2.2789
  214MPD1    H3 3310   1.523   0.507  15.288  1.0979 -0.5184  0.2383
  214MPD1     N 3311   1.793   0.740  15.007  0.0322 -0.3813 -0.0432
  214MPD1    H5 3312   1.842   0.777  15.088 -2.1086  1.9530  0.1843
  214MPD1    N1 3313   1.436   0.449  14.845 -0.4783 -0.3593  0.5246
  214MPD1    H6 3314   1.399   0.355  14.855  1.4816 -1.2135 -0.1210
  214MPD1    H7 3315   1.498   0.444  14.765  0.9012 -0.0045  1.5511
  215MPD1     C 3316   1.624   2.436  11.221  0.3920 -0.0271  0.2458
  215MPD1    C1 3317   1.733   2.471  11.144  0.7521  0.0662 -0.8621
  215MPD1    C2 3318   1.854   2.479  11.194  0.4665  0.5678 -0.2089
  215MPD1    C3 3319   1.870   2.451  11.331  0.0334 -0.1612  0.0543
  215MPD1    C4 3320   1.762   2.418  11.412  0.0707  0.2655 -0.7853
  215MPD1    C5 3321   1.643   2.428  11.359 -0.5228  0.1743 -0.3580
  215MPD1     H 3322   1.944   2.500  11.137  1.3846 -2.0437  0.2758
  215MPD1    H1 3323   1.768   2.387  11.516  0.0605 -1.9293 -1.4285
  215MPD1    H2 3324   1.528   2.416  11.175 -0.3059 -0.8187  2.0434
  215MPD1    H3 3325   1.562   2.406  11.428  0.3734  2.7048  1.4884
  215MPD1     N 3326   1.992   2.485  11.394 -0.3153  0.1871 -0.3332
  215MPD1    H5 3327   2.062   2.518  11.328 -1.8051  0.9509 -1.5208
  215MPD1    N1 3328   1.717   2.489  11.005  0.0890  0.0892  0.4348
  215MPD1    H6 3329   1.626   2.528  10.980 -0.7052 -2.4656 -0.6985
  215MPD1    H7 3330   1.790   2.549  10.969  0.2731 -1.3942 -1.6421
  216MPD1     C 3331   3.926   0.442  17.192  0.4454  0.5581 -0.2646
  216MPD1    C1 3332   4.029   0.416  17.106  0.0638 -0.4584  0.9036
  216MPD1    C2 3333   4.091   0.290  17.123 -0.1106  0.3160 -0.0210
  216MPD1    C3 3334   4.069   0.214  17.235  0.5132 -0.8673 -0.7797
  216MPD1    C4 3335   3.975   0.260  17.325 -0.2869 -0.7658 -0.4046
  216MPD1    C5 3336   3.897   0.362  17.295 -0.3967 -0.5993 -0.4963
  216MPD1     H 3337   4.165   0.251  17.054  0.9890  1.2202  0.6513
  216MPD1    H1 3338   3.945   0.198  17.409 -0.2128  2.8293  2.2558
  216MPD1    H2 3339   3.876   0.537  17.203  2.8431  1.7489  0.3370
  216MPD1    H3 3340   3.819   0.389  17.365  0.4065 -0.2828  0.2746
  216MPD1     N 3341   4.148   0.094  17.247  0.0895 -0.4807 -0.5686
  216MPD1    H5 3342   4.223   0.075  17.180  0.6818  3.2005 -0.9647
  216MPD1    N1 3343   4.049   0.496  17.004  0.6868  0.1293 -0.4278
  216MPD1    H6 3344   4.014   0.590  17.020  1.5710  0.3883 -0.0375
  216MPD1    H7 3345   4.144   0.497  16.968  1.5088 -0.8776  1.7295
  217MPD1     C 3346   0.255   1.327   8.391  0.6065  0.0433  0.6437
  217MPD1    C1 3347   0.137   1.388   8.395 -0.6320  0.0046 -0.6272
  217MPD1    C2 3348   0.099   1.445   8.511  0.3543  0.3650 -0.3046
  217MPD1    C3 3349   0.174   1.441   8.626 -0.4565  0.4649 -0.4441
  217MPD1    C4 3350   0.284   1.364   8.627  0.0571 -0.3485  0.4365
  217MPD1    C5 3351   0.325   1.305   8.505  0.1439 -0.3696 -0.3136
  217MPD1     H 3352   0.009   1.505   8.499  0.4004  0.1941 -1.4449
  217MPD1    H1 3353   0.342   1.352   8.718  1.5334  2.0256 -0.2020
  217MPD1    H2 3354   0.290   1.281   8.299  1.3833  0.8285  0.5480
  217MPD1    H3 3355   0.416   1.246   8.497 -1.2877 -2.8089  1.3222
  217MPD1     N 3356   0.143   1.507   8.748 -1.0038  0.4753 -0.7181
  217MPD1    H5 3357   0.213   1.507   8.822  1.0289 -0.8008 -2.6589
  217MPD1    N1 3358   0.066   1.422   8.274 -0.4679  0.7077  0.1777
  217MPD1    H6 3359   4.718   1.475   8.282 -0.5311  0.8340 -1.3535
  217MPD1    H7 3360   0.054   1.342   8.211  1.2743 -0.4806  1.3504
  218MPD1     C 3361   1.096   2.221  13.397 -0.3070 -0.2426  0.0512
  218MPD1    C1 3362   1.115   2.113  13.315 -0.3631 -0.4585  0.1804
  218MPD1    C2 3363   1.244   2.101  13.265 -0.4470  0.0578  0.1665
  218MPD1    C3 3364   1.340   2.207  13.274 -0.0410 -0.6488 -0.2560
  218MPD1    C4 3365   1.314   2.310  13.358 -0.0861  1.2632 -1.0794
  218MPD1    C5 3366   1.194   2.310  13.425  0.1478 -0.1004  0.2106
  218MPD1     H 3367   1.274   2.014  13.207 -1.2323  0.9265 -1.5556
  218MPD1    H1 3368   1.372   2.400  13.377  4.3086 -1.8961  0.3887
  218MPD1    H2 3369   1.006   2.234  13.456 -2.8672 -1.7301 -3.5498
  218MPD1    H3 3370   1.172   2.389  13.495  0.2983  0.4805 -0.3882
  218MPD1     N 3371   1.455   2.205  13.197 -0.1698 -0.2773 -0.4526
  218MPD1    H5 3372   1.456   2.130  13.129 -1.5330  0.4337 -1.2582
  218MPD1    N1 3373   1.024   2.001  13.314  0.4092 -0.3182  0.0051
  218MPD1    H6 3374   1.035   1.937  13.237  2.5878 -0.6672  0.6079
  218MPD1    H7 3375   0.930   2.042  13.314  0.7540  0.4849  1.5700
  219MPD1     C 3376   2.203   2.684  12.570  0.4530  0.5329  0.0177
  219MPD1    C1 3377   2.199   2.554  12.530 -0.7243  0.5867 -0.2955
  219MPD1    C2 3378   2.088   2.480  12.582 -0.2683 -0.3689  0.1121
  219MPD1    C3 3379   1.998   2.529  12.672 -0.1100  0.2317  0.3078
  219MPD1    C4 3380   2.009   2.660  12.710 -0.6054  0.0859 -0.0035
  219MPD1    C5 3381   2.112   2.733  12.657 -0.2801  0.4164  0.6737
  219MPD1     H 3382   2.082   2.378  12.546  1.5024  0.0176 -1.2957
  219MPD1    H1 3383   1.938   2.714  12.771  0.4819  1.0557  0.4088
  219MPD1    H2 3384   2.276   2.755  12.532 -0.1809  0.9894 -0.3499
  219MPD1    H3 3385   2.124   2.837  12.685  5.1757  0.0507 -0.3580
  219MPD1     N 3386   1.915   2.438  12.739  0.5254  0.1535 -0.0602
  219MPD1    H5 3387   1.939   2.340  12.724  1.6766  0.5049 -0.5259
  219MPD1    N1 3388   2.292   2.507  12.438  0.8677 -0.6888  0.1887
  219MPD1    H6 3389   2.316   2.410  12.459  0.1385 -1.1731 -1.2487
  219MPD1    H7 3390   2.383   2.552  12.429  0.7408 -1.0464 -3.0104
  220MPD1     C 3391   3.094   1.722  10.104 -0.5007 -0.9734 -0.0421
  220MPD1    C1 3392   2.967   1.671  10.132  0.3476 -0.5776 -0.0703
  220MPD1    C2 3393   2.887   1.733  10.223  0.0334 -0.4416 -0.4126
  220MPD1    C3 3394   2.925   1.849  10.285 -0.0891 -0.4447 -0.4137
  220MPD1    C4 3395   3.048   1.903  10.259  0.4210 -0.3129  0.8358
  220MPD1    C5 3396   3.126   1.844  10.164  0.6535 -0.5947  0.1076
  220MPD1     H 3397   2.789   1.693  10.247  0.2935 -2.3927 -2.6863
  220MPD1    H1 3398   3.086   1.996  10.298  0.1069  0.6626 -1.1688
  220MPD1    H2 3399   3.154   1.689  10.020 -0.7070  0.4534 -0.7484
  220MPD1    H3 3400   3.224   1.883  10.140  0.1897  1.8442  2.1027
  220MPD1     N 3401   2.827   1.908  10.370 -0.0646 -0.1855  0.5365
  220MPD1    H5 3402   2.740   1.856  10.374 -0.6498  0.6978 -0.8318
  220MPD1    N1 3403   2.921   1.558  10.070 -0.2569 -0.2413 -0.3047
  220MPD1    H6 3404   2.996   1.494  10.044  0.1053 -0.0938  0.3879
  220MPD1    H7 3405   2.842   1.508  10.111  1.2746 -2.5396 -0.1508
  221MPD1     C 3406   4.112   1.686  15.375  0.4444 -0.3147  0.0016
  221MPD1    C1 3407   4.085   1.643  15.504 -0.0966  0.3018  0.9609
  221MPD1    C2 3408   4.182   1.643  15.598 -0.5740  0.3726  0.0534
  221MPD1    C3 3409   4.311   1.669  15.556  0.4077  0.1630  0.0380
  221MPD1    C4 3410   4.341   1.712  15.425 -0.2660  0.3209 -0.1979
  221MPD1    C5 3411   4.238   1.710  15.336  0.4588  0.5363  0.9786
  221MPD1     H 3412   4.170   1.598  15.695 -2.5579 -0.2100 -0.4765
  221MPD1    H1 3413   4.441   1.737  15.391  0.2201 -0.1024  0.9125
  221MPD1    H2 3414   4.033   1.700  15.302  1.2025  0.1260 -0.7347
  221MPD1    H3 3415   4.250   1.739  15.232 -1.4379 -0.3317  0.5303
  221MPD1     N 3416   4.424   1.636  15.639  0.4282 -0.8359 -0.0089
  221MPD1    H5 3417   4.514   1.670  15.608  1.0221 -1.2967  1.2110
  221MPD1    N1 3418   3.950   1.622  15.544 -0.1757 -0.2688 -0.9130
  221MPD1    H6 3419   3.950   1.547  15.612  0.6703  0.1661 -0.4349
  221MPD1    H7 3420   3.891   1.584  15.470 -0.5427  0.2106 -0.8667
  222MPD1     C 3421   3.158   4.133   0.223  0.3755 -0.2158  0.0402
  222MPD1    C1 3422   3.284   4.191   0.243  0.3802  0.2560 -0.0389
  222MPD1    C2 3423   3.289   4.328   0.265 -0.1771  0.1345 -0.8064
  222MPD1    C3 3424   3.173   4.397   0.292 -0.3774 -0.3414  0.0086
  222MPD1    C4 3425   3.049   4.338   0.274 -0.4656  0.2660 -0.3890
  222MPD1    C5 3426   3.046   4.206   0.236  0.2058  0.4460 -0.0129
  222MPD1     H 3427   3.388   4.371   0.275  1.6328 -3.3327 -4.1647
  222MPD1    H1 3428   2.954   4.388   0.291 -0.3501 -0.0371  1.1299
  222MPD1    H2 3429   3.143   4.031   0.191  1.0853 -0.3150  0.0246
  222MPD1    H3 3430   2.950   4.164   0.211  0.4906 -0.6091  0.6642
  222MPD1     N 3431   3.177   4.539   0.322  0.2179  0.0189  1.3078
  222MPD1    H5 3432   3.091   4.591   0.339 -0.1274  0.1832 -0.9319
  222MPD1    N1 3433   3.397   4.123   0.196 -0.0951 -0.1919 -1.1048
  222MPD1    H6 3434   3.482   4.156   0.243 -1.2622 -3.1772  3.1272
  222MPD1    H7 3435   3.395   4.026   0.227  1.1659 -0.8729 -3.1504
  223MPD1     C 3436   2.669   0.550   0.701  0.0745 -0.3747 -0.2930
  223MPD1    C1 3437   2.730   0.608   0.593 -0.3652 -0.6427 -0.1129
  223MPD1    C2 3438   2.815   0.531   0.523  0.2290 -0.1346  1.2215
  223MPD1    C3 3439   2.870   0.412   0.573 -0.3808 -0.3456  0.2626
  223MPD1    C4 3440   2.822   0.369   0.688  0.4440 -0.6803 -0.2700
  223MPD1    C5 3441   2.713   0.425   0.742 -0.1800  0.6348 -0.4046
  223MPD1     H 3442   2.856   0.572   0.431 -0.2720 -1.7765  0.2563
  223MPD1    H1 3443   2.860   0.283   0.743  0.5381  0.2980  1.1917
  223MPD1    H2 3444   2.589   0.586   0.765 -0.0515 -1.1192 -0.0279
  223MPD1    H3 3445   2.673   0.384   0.834 -1.6687  1.1661 -0.8043
  223MPD1     N 3446   2.971   0.350   0.495  0.1586  1.0536 -0.4696
  223MPD1    H5 3447   3.005   0.411   0.421 -2.1740  0.5443 -1.9481
  223MPD1    N1 3448   2.679   0.725   0.534  0.0518  0.3399  0.2405
  223MPD1    H6 3449   2.747   0.762   0.468  0.0139 -1.3146 -0.7260
  223MPD1    H7 3450   2.646   0.789   0.606  1.7086  3.2650 -1.6351
  224MPD1     C 3451   0.073   3.063   9.449  0.4219 -0.3082 -0.3192
  224MPD1    C1 3452   0.144   2.943   9.449 -0.3230 -0.5245 -0.1711
  224MPD1    C2 3453   0.147   2.873   9.567 -0.2033 -0.5394  0.0329
  224MPD1    C3 3454   0.096   2.928   9.687  0.4582  0.2389 -0.5201
  224MPD1    C4 3455   0.045   3.053   9.685 -0.4361 -0.0021 -0.5274
  224MPD1    C5 3456   0.030   3.121   9.567  0.5592 -0.0667 -0.0182
  224MPD1     H 3457   0.179   2.769   9.565  0.0172 -0.4976  1.3299
  224MPD1    H1 3458   4.737   3.092   9.775  2.0899  0.1901  0.6656
  224MPD1    H2 3459   0.070   3.129   9.363 -0.1154  0.2519  0.1297
  224MPD1    H3 3460   4.737   3.225   9.564  0.7314 -0.0941 -2.9676
  224MPD1     N 3461   0.098   2.860   9.811 -0.1381 -0.8784 -0.1507
  224MPD1    H5 3462   0.042   2.898   9.887  1.7121 -1.9103  1.7400
  224MPD1    N1 3463   0.165   2.871   9.331 -0.1223  0.1825  0.0595
  224MPD1    H6 3464   0.193   2.939   9.261 -0.5539  1.4450  1.0985
  224MPD1    H7 3465   0.243   2.806   9.342  1.1868  2.0752  1.8594
  225MPD1     C 3466   2.422   3.214  12.483  0.1845  0.4285  0.1694
  225MPD1    C1 3467   2.338   3.152  12.397 -0.3602 -0.5676  0.1653
  225MPD1    C2 3468   2.207   3.121  12.438  0.1004 -0.1381  0.3082
  225MPD1    C3 3469   2.167   3.149  12.568 -0.1603  0.7382 -0.0088
  225MPD1    C4 3470   2.250   3.220  12.651 -0.1830  0.3435 -0.7481
  225MPD1    C5 3471   2.375   3.255  12.612 -0.6103 -0.1423 -0.0690
  225MPD1     H 3472   2.136   3.096  12.360 -0.3297  3.2674 -0.3910
  225MPD1    H1 3473   2.214   3.250  12.749  0.7218  2.2716 -1.0037
  225MPD1    H2 3474   2.525   3.234  12.454  0.6415 -0.1845  1.3843
  225MPD1    H3 3475   2.442   3.318  12.670 -0.8016 -0.6458  0.6975
  225MPD1     N 3476   2.038   3.116  12.617  0.8361  0.3049 -0.0355
  225MPD1    H5 3477   2.013   3.152  12.708  2.2514 -0.0473  0.4838
  225MPD1    N1 3478   2.378   3.112  12.268 -0.1544 -1.0169  0.4964
  225MPD1    H6 3479   2.361   3.013  12.255 -0.0791 -1.0642  0.7621
  225MPD1    H7 3480   2.479   3.115  12.255 -0.5922  0.6841 -2.4480
  226MPD1     C 3481   0.541   2.543   9.308  0.1609  0.2188  0.1267
  226MPD1    C1 3482   0.442   2.573   9.408  0.5428 -0.2622  0.0542
  226MPD1    C2 3483   0.462   2.689   9.482 -0.1896 -0.3015  0.8018
  226MPD1    C3 3484   0.549   2.792   9.439 -0.1435 -0.0882  0.0521
  226MPD1    C4 3485   0.629   2.763   9.329 -0.0835  0.0716  0.0813
  226MPD1    C5 3486   0.623   2.639   9.270  0.4445  0.6319 -0.3198
  226MPD1     H 3487   0.405   2.712   9.571  0.5782 -1.1321  1.5175
  226MPD1    H1 3488   0.708   2.827   9.293  1.2063 -2.0644 -0.8726
  226MPD1    H2 3489   0.545   2.445   9.262  2.3356  1.0977 -1.5640
  226MPD1    H3 3490   0.702   2.611   9.201  0.3478  0.0707 -0.2007
  226MPD1     N 3491   0.547   2.910   9.512 -0.5639  0.1114 -0.7089
  226MPD1    H5 3492   0.492   2.918   9.597  0.4949 -0.9099  0.0791
  226MPD1    N1 3493   0.360   2.469   9.453  0.2064 -0.2407 -0.0715
  226MPD1    H6 3494   0.344   2.405   9.376 -1.5163 -0.3569  0.3768
  226MPD1    H7 3495   0.269   2.508   9.477 -1.0403 -1.0914 -3.4713
  227MPD1     C 3496   0.699   4.005   9.668  0.0148  0.3507 -0.3906
  227MPD1    C1 3497   0.619   3.954   9.766 -0.5754  0.7025 -0.6966
  227MPD1    C2 3498   0.586   3.819   9.764 -0.2574 -0.8997 -0.0204
  227MPD1    C3 3499   0.630   3.733   9.662  0.2858  0.1921 -0.5861
  227MPD1    C4 3500   0.729   3.786   9.578 -0.6112 -0.0578  0.3424
  227MPD1    C5 3501   0.767   3.918   9.586  0.4329  0.2577  0.0618
  227MPD1     H 3502   0.508   3.781   9.829  2.3211 -1.2408  2.8486
  227MPD1    H1 3503   0.777   3.726   9.501  0.3281 -3.7780  3.8184
  227MPD1    H2 3504   0.718   4.111   9.656 -1.2015  0.7442  1.1345
  227MPD1    H3 3505   0.825   3.961   9.505 -1.6249 -0.4458 -1.8296
  227MPD1     N 3506   0.585   3.600   9.660 -0.2512 -0.2273  1.1093
  227MPD1    H5 3507   0.510   3.578   9.725 -1.7019 -0.4012 -0.6391
  227MPD1    N1 3508   0.561   4.039   9.866 -0.5936  0.2521  0.2565
  227MPD1    H6 3509   0.563   4.140   9.850 -1.9807  0.3028  0.4245
  227MPD1    H7 3510   0.463   4.019   9.884 -0.1633 -2.0278  0.0780
  228MPD1     C 3511   3.096   0.139  12.445 -0.2647 -0.7373 -0.1226
  228MPD1    C1 3512   3.025   0.245  12.403  0.1957 -1.1136  0.1534
  228MPD1    C2 3513   2.892   0.260  12.441  0.2440 -0.4940  0.1223
  228MPD1    C3 3514   2.830   0.164  12.519 -0.5689  0.0918 -0.1729
  228MPD1    C4 3515   2.898   0.054  12.548 -0.3680 -0.4714  0.0456
  228MPD1    C5 3516   3.031   0.038  12.508  0.3435 -0.1909  0.1672
  228MPD1     H 3517   2.842   0.351  12.412 -2.6704 -2.0350  0.2323
  228MPD1    H1 3518   2.864   4.711  12.610 -0.7898  0.2822  0.8058
  228MPD1    H2 3519   3.204   0.129  12.441 -0.2663 -1.0669  0.6217
  228MPD1    H3 3520   3.089   4.692  12.544  0.3275 -0.7953 -1.2497
  228MPD1     N 3521   2.693   0.181  12.560  0.0616 -0.6854  0.0000
  228MPD1    H5 3522   2.645   0.270  12.553  2.4960  0.5584 -0.9194
  228MPD1    N1 3523   3.085   0.353  12.344 -0.5577 -0.4614  0.7013
  228MPD1    H6 3524   3.016   0.395  12.281 -0.7819 -1.5848  0.1927
  228MPD1    H7 3525   3.154   0.311  12.283  0.3012  1.4534  0.3409
  229MPD1     C 3526   2.870   4.020  14.300 -0.5491  0.1871  0.0107
  229MPD1    C1 3527   2.810   3.924  14.377  0.3047 -0.6163 -0.4302
  229MPD1    C2 3528   2.886   3.862  14.463 -0.0146 -0.7757 -0.0105
  229MPD1    C3 3529   3.027   3.862  14.457 -0.3729 -0.0626 -0.3821
  229MPD1    C4 3530   3.081   3.954  14.370  0.1360  0.4468  0.0063
  229MPD1    C5 3531   3.003   4.033  14.293 -0.1656 -0.1910  0.9557
  229MPD1     H 3532   2.836   3.804  14.539 -1.9645  0.2592 -0.5027
  229MPD1    H1 3533   3.190   3.962  14.371  0.0699  1.1668  1.5749
  229MPD1    H2 3534   2.814   4.080  14.229 -0.9298  0.9541  0.9686
  229MPD1    H3 3535   3.038   4.101  14.216 -2.3154  0.6547  0.7256
  229MPD1     N 3536   3.113   3.784  14.538 -0.2925 -0.0398  0.2031
  229MPD1    H5 3537   3.211   3.812  14.538 -0.7349  1.4922  0.9250
  229MPD1    N1 3538   2.669   3.921  14.391 -0.3831  0.2739  0.0456
  229MPD1    H6 3539   2.622   3.948  14.304  0.6716 -0.7837 -0.8552
  229MPD1    H7 3540   2.627   3.834  14.422  1.1586 -0.4723  0.0103
  230MPD1     C 3541   3.166   2.819  14.858  0.7371 -0.3954  0.1851
  230MPD1    C1 3542   3.252   2.842  14.751  0.9641 -0.5157 -0.7667
  230MPD1    C2 3543   3.281   2.980  14.730  0.1280 -0.3666 -0.1826
  230MPD1    C3 3544   3.221   3.087  14.798  0.3622 -0.3000  0.4094
  230MPD1    C4 3545   3.117   3.053  14.888 -0.1475 -0.6742  0.6113
  230MPD1    C5 3546   3.098   2.919  14.919  0.0838  0.2955 -0.2843
  230MPD1     H 3547   3.355   3.003  14.654 -0.0599 -0.4702 -0.3961
  230MPD1    H1 3548   3.050   3.123  14.936 -0.2564  1.8971 -3.2594
  230MPD1    H2 3549   3.146   2.719  14.896  1.5949 -0.3703  0.7202
  230MPD1    H3 3550   3.018   2.892  14.986 -0.1352 -2.3625 -1.6097
  230MPD1     N 3551   3.267   3.214  14.773  0.7080  0.0058  0.4448
  230MPD1    H5 3552   3.343   3.227  14.708  0.0686 -0.8503 -0.4799
  230MPD1    N1 3553   3.323   2.736  14.690  0.0796 -0.0539  0.0956
  230MPD1    H6 3554   3.286   2.642  14.703  2.3829 -1.0552 -0.6293
  230MPD1    H7 3555   3.342   2.748  14.590 -0.7800  0.0388 -0.0563
  231MPD1     C 3556   1.608   1.004  15.204 -0.6287  0.6752  0.0613
  231MPD1    C1 3557   1.517   1.057  15.120 -0.1218  0.4610  0.7269
  231MPD1    C2 3558   1.559   1.160  15.037 -0.4947  0.4662 -0.0415
  231MPD1    C3 3559   1.691   1.191  15.019  0.8670 -0.8666 -0.4351
  231MPD1    C4 3560   1.782   1.131  15.109  0.1063  0.1485  0.4894
  231MPD1    C5 3561   1.733   1.044  15.201  0.6726  0.2324 -0.0846
  231MPD1     H 3562   1.469   1.201  14.992 -0.5766  0.0331 -0.2778
  231MPD1    H1 3563   1.887   1.158  15.111  0.1809 -0.1617  0.7811
  231MPD1    H2 3564   1.584   0.924  15.273  2.9931 -0.6893 -0.2736
  231MPD1    H3 3565   1.799   1.002  15.277  2.1224 -0.7266 -1.8865
  231MPD1     N 3566   1.714   1.288  14.918  0.1262 -0.1298 -0.1263
  231MPD1    H5 3567   1.635   1.300  14.855 -1.1532 -1.1323  1.3082
  231MPD1    N1 3568   1.385   1.026  15.143  0.2503 -0.3019 -0.1882
  231MPD1    H6 3569   1.333   1.027  15.055 -0.0116  1.1500 -0.0140
  231MPD1    H7 3570   1.363   0.938  15.189  2.2071  0.5221  2.2548
  232MPD1     C 3571   3.547   3.808   0.118 -0.3251 -0.0554 -0.5498
  232MPD1    C1 3572   3.419   3.800   0.174  0.2042 -0.2240 -0.0687
  232MPD1    C2 3573   3.310   3.761   0.101  0.5250 -0.3936 -0.7096
  232MPD1    C3 3574   3.320   3.722  17.717 -0.3052 -1.1449 -0.9357
  232MPD1    C4 3575   3.445   3.716  17.665 -0.7856  0.5707  0.5420
  232MPD1    C5 3576   3.557   3.765  17.740  0.2882  0.5891  0.3681
  232MPD1     H 3577   3.208   3.763   0.139  0.1705 -0.1826 -1.6659
  232MPD1    H1 3578   3.471   3.700  17.561 -0.1468  1.8882  0.5049
  232MPD1    H2 3579   3.636   3.821   0.179 -0.2573  0.0603 -0.6755
  232MPD1    H3 3580   3.658   3.773  17.700  0.5503  0.7836  1.0598
  232MPD1     N 3581   3.205   3.669  17.654 -0.2115 -0.4239  0.2658
  232MPD1    H5 3582   3.120   3.657  17.709 -1.1950  0.8064 -0.9669
  232MPD1    N1 3583   3.400   3.845   0.307  0.6175  0.3077  0.3378
  232MPD1    H6 3584   3.317   3.800   0.344  0.3841 -0.8452 -1.5843
  232MPD1    H7 3585   3.473   3.820   0.374 -0.8319 -1.3686  1.3012
  233MPD1     C 3586   3.827   1.867  17.359  0.1035  0.4908  0.8162
  233MPD1    C1 3587   3.799   1.740  17.411 -0.0842 -0.4509 -0.1028
  233MPD1    C2 3588   3.900   1.672  17.472  0.5697  0.9017 -0.0961
  233MPD1    C3 3589   4.027   1.729  17.502 -0.1694 -0.2017 -0.5650
  233MPD1    C4 3590   4.042   1.869  17.461  0.6061 -0.0477 -0.4101
  233MPD1    C5 3591   3.943   1.932  17.391  0.3917  0.2842 -0.1719
  233MPD1     H 3592   3.878   1.572  17.507 -0.4826  0.9919 -0.4996
  233MPD1    H1 3593   4.136   1.922  17.467 -1.5064  3.5630  0.8050
  233MPD1    H2 3594   3.744   1.919  17.314  1.2602  1.6434  0.0159
  233MPD1    H3 3595   3.958   2.034  17.356  0.4614 -0.6946 -2.9671
  233MPD1     N 3596   4.128   1.665  17.580  0.1580 -0.1391  0.3420
  233MPD1    H5 3597   4.199   1.732  17.607  2.3172 -2.7012  1.0192
  233MPD1    N1 3598   3.679   1.673  17.376  1.2921 -0.1110  0.0949
  233MPD1    H6 3599   3.649   1.603  17.443 -3.8981  0.7085 -1.4102
  233MPD1    H7 3600   3.601   1.731  17.349 -1.1521 -3.8712 -0.8540
  234MPD1     C 3601   1.350   1.579   9.970 -0.2215  0.2657 -0.0329
  234MPD1    C1 3602   1.299   1.700   9.983 -0.1208  0.1272 -0.4766
  234MPD1    C2 3603   1.164   1.708  10.004 -0.0967 -0.1558  0.2146
  234MPD1    C3 3604   1.078   1.599   9.983 -0.1927 -0.2600 -0.9316
  234MPD1    C4 3605   1.141   1.477   9.962  0.3204 -0.1740 -0.2564
  234MPD1    C5 3606   1.278   1.475   9.953 -0.5360 -0.7406  0.3097
  234MPD1     H 3607   1.122   1.805  10.027 -1.1543  0.0893 -2.8773
  234MPD1    H1 3608   1.090   1.381   9.960 -0.6150  0.3358 -0.6032
  234MPD1    H2 3609   1.456   1.562   9.986 -0.3305  0.7428  1.2144
  234MPD1    H3 3610   1.329   1.380   9.944 -0.7323 -1.1172  2.9746
  234MPD1     N 3611   0.940   1.610  10.012  0.0069 -0.6566 -0.2882
  234MPD1    H5 3612   0.915   1.704  10.040 -1.2556 -1.0192 -0.1954
  234MPD1    N1 3613   1.385   1.807  10.010  0.0663  0.7056 -0.3990
  234MPD1    H6 3614   1.339   1.892   9.979 -3.5664 -1.6778 -1.6142
  234MPD1    H7 3615   1.469   1.793   9.955  0.5942 -0.4167  0.6948
  235MPD1     C 3616   2.569   2.726  10.167 -0.1679  0.1164 -0.9173
  235MPD1    C1 3617   2.501   2.810  10.083  0.4428 -0.8462  0.1814
  235MPD1    C2 3618   2.511   2.942  10.110  0.1253 -0.4228 -0.2226
  235MPD1    C3 3619   2.586   2.987  10.219 -1.0409  0.2586  0.5083
  235MPD1    C4 3620   2.649   2.895  10.299 -0.2779  0.1319  1.3219
  235MPD1    C5 3621   2.645   2.764  10.264 -0.2607  0.2902 -0.0062
  235MPD1     H 3622   2.457   3.012  10.048  2.9800  1.5970 -0.4243
  235MPD1    H1 3623   2.701   2.914  10.392 -1.1617 -0.1787  1.8693
  235MPD1    H2 3624   2.555   2.619  10.162  1.8425 -0.2636  1.0892
  235MPD1    H3 3625   2.679   2.683  10.327  0.1547 -0.1172 -0.7521
  235MPD1     N 3626   2.596   3.126  10.241  0.5852 -0.6206 -0.4955
  235MPD1    H5 3627   2.551   3.189  10.176 -0.9800 -1.6764 -0.4247
  235MPD1    N1 3628   2.407   2.759   9.998 -0.6348  0.1878  0.1720
  235MPD1    H6 3629   2.428   2.666   9.964  1.1803  1.3700 -1.9242
  235MPD1    H7 3630   2.379   2.817   9.919  0.9861 -0.4639 -0.8725
  236MPD1     C 3631   1.216   4.428   9.758 -1.0793  0.0773 -0.1385
  236MPD1    C1 3632   1.328   4.459   9.684 -0.1859 -0.3237 -0.9069
  236MPD1    C2 3633   1.452   4.440   9.738  0.5845 -0.2620  0.6382
  236MPD1    C3 3634   1.461   4.379   9.859 -0.8369 -0.1683 -0.2589
  236MPD1    C4 3635   1.347   4.335   9.925  0.0647  0.6306  0.1869
  236MPD1    C5 3636   1.228   4.373   9.881 -0.5575  0.2421  0.7212
  236MPD1     H 3637   1.537   4.483   9.686 -0.2843  0.9992  0.2700
  236MPD1    H1 3638   1.342   4.290  10.024  2.6190 -0.6083 -0.2463
  236MPD1    H2 3639   1.115   4.444   9.721 -1.2814 -0.6070  0.1222
  236MPD1    H3 3640   1.146   4.360   9.951  0.4151 -0.8448  1.6579
  236MPD1     N 3641   1.584   4.368   9.928  0.2739  0.3530 -0.4607
  236MPD1    H5 3642   1.577   4.316  10.015  0.2091  1.3570  0.1444
  236MPD1    N1 3643   1.317   4.552   9.579  0.3291  0.0082  0.2272
  236MPD1    H6 3644   1.396   4.563   9.516  0.1998 -0.8265 -0.0864
  236MPD1    H7 3645   1.228   4.545   9.529 -0.9129  1.5773  2.1919
  237MPD1     C 3646   2.264   2.571  14.725  0.4604 -0.5503  0.0091
  237MPD1    C1 3647   2.259   2.438  14.766 -1.0190 -0.2167  0.2256
  237MPD1    C2 3648   2.137   2.378  14.746  0.0311  0.4961 -0.2441
  237MPD1    C3 3649   2.019   2.452  14.697  0.7172 -0.2774 -0.4103
  237MPD1    C4 3650   2.034   2.588  14.660  0.4899 -0.0843  0.8489
  237MPD1    C5 3651   2.155   2.652  14.685 -0.4828 -0.5247  0.2222
  237MPD1     H 3652   2.131   2.273  14.772  0.1558  1.0298  1.8681
  237MPD1    H1 3653   1.954   2.653  14.628 -0.0742 -0.1222  2.1758
  237MPD1    H2 3654   2.358   2.624  14.733 -1.0789  2.2714 -0.5532
  237MPD1    H3 3655   2.153   2.756  14.654  1.0522  0.0421  2.0137
  237MPD1     N 3656   1.888   2.396  14.701 -0.3554  0.3743 -0.1479
  237MPD1    H5 3657   1.809   2.452  14.671 -0.7097 -0.0567 -0.0192
  237MPD1    N1 3658   2.379   2.367  14.777 -0.7212  0.8440  0.4057
  237MPD1    H6 3659   2.452   2.424  14.819 -0.3039  1.4711 -1.1619
  237MPD1    H7 3660   2.375   2.283  14.833  1.6107 -0.4188 -1.3465
  238MPD1     C 3661   3.959   0.461  14.454 -0.4749 -0.2731 -0.3256
  238MPD1    C1 3662   3.887   0.553  14.385 -0.0590 -0.0901 -0.5335
  238MPD1    C2 3663   3.751   0.575  14.426 -0.2427 -0.4898  0.7996
  238MPD1    C3 3664   3.688   0.489  14.513 -0.2061 -0.7740  0.3097
  238MPD1    C4 3665   3.768   0.396  14.577  0.1695 -0.3936  0.2893
  238MPD1    C5 3666   3.894   0.385  14.546  0.2795 -0.5873 -0.3073
  238MPD1     H 3667   3.696   0.655  14.379 -0.4684 -0.2987  1.3900
  238MPD1    H1 3668   3.731   0.319  14.643 -1.3401  1.1229  1.2047
  238MPD1    H2 3669   4.065   0.453  14.437 -0.2881  0.5738  0.4772
  238MPD1    H3 3670   3.952   0.330  14.619 -0.2379  1.5410  1.6993
  238MPD1     N 3671   3.550   0.490  14.540 -0.2079 -0.0838  0.0509
  238MPD1    H5 3672   3.511   0.424  14.608  1.2818 -2.2334 -1.1618
  238MPD1    N1 3673   3.954   0.641  14.305 -0.0542  0.4087  0.5312
  238MPD1    H6 3674   4.021   0.594  14.245 -1.8819 -0.6744 -0.6787
  238MPD1    H7 3675   3.884   0.687  14.247 -0.5923 -3.6562 -2.0359
  239MPD1     C 3676   3.505   1.247  14.842 -0.8909 -0.5574  0.2758
  239MPD1    C1 3677   3.621   1.264  14.772  0.0443  0.1643  0.1604
  239MPD1    C2 3678   3.631   1.349  14.669  1.1880  0.5889 -0.1982
  239MPD1    C3 3679   3.523   1.421  14.631 -0.5600  0.1560 -0.1108
  239MPD1    C4 3680   3.404   1.412  14.700  0.3009  0.2369  0.4909
  239MPD1    C5 3681   3.400   1.331  14.814  0.1791 -0.4710  0.0297
  239MPD1     H 3682   3.725   1.356  14.616 -0.1428 -0.4551 -2.7181
  239MPD1    H1 3683   3.326   1.483  14.675 -0.1665 -0.3430  0.3177
  239MPD1    H2 3684   3.497   1.186  14.932 -0.9412 -2.0345 -0.7292
  239MPD1    H3 3685   3.314   1.335  14.880  0.5344  2.3470  0.3563
  239MPD1     N 3686   3.525   1.530  14.534 -0.5245 -0.3827 -0.5982
  239MPD1    H5 3687   3.448   1.595  14.532  1.2342  1.8243  2.5337
  239MPD1    N1 3688   3.737   1.199  14.817 -0.5719 -0.6241 -0.3436
  239MPD1    H6 3689   3.792   1.172  14.736 -0.1717 -2.1868  0.4510
  239MPD1    H7 3690   3.710   1.114  14.866  3.0418 -0.5926  1.7142
  240MPD1     C 3691   2.950   1.478  13.797  0.1107 -0.0859  0.5823
  240MPD1    C1 3692   2.832   1.466  13.868 -0.9421  0.6836  0.7019
  240MPD1    C2 3693   2.840   1.411  14.000  0.8167 -0.3926  0.0663
  240MPD1    C3 3694   2.968   1.372  14.050  0.5040 -0.2228 -0.7256
  240MPD1    C4 3695   3.083   1.395  13.980 -0.3088  0.3191  0.0291
  240MPD1    C5 3696   3.067   1.452  13.856  0.2690 -0.0843 -0.5070
  240MPD1     H 3697   2.748   1.395  14.054 -1.0066  0.3645 -2.7627
  240MPD1    H1 3698   3.184   1.375  14.013 -0.8316 -0.4861  1.1458
  240MPD1    H2 3699   2.956   1.527  13.700 -2.0425 -2.3890 -0.7292
  240MPD1    H3 3700   3.157   1.485  13.806  0.6994 -1.1989 -0.4519
  240MPD1     N 3701   2.970   1.311  14.179 -0.3106  0.5910 -0.3678
  240MPD1    H5 3702   2.883   1.303  14.231 -0.3608  0.0353 -0.5320
  240MPD1    N1 3703   2.712   1.459  13.789  0.1843  0.2565 -0.0644
  240MPD1    H6 3704   2.622   1.456  13.838  0.4028 -0.9939  0.2624
  240MPD1    H7 3705   2.700   1.529  13.717 -1.3562  1.2301  1.1168
  241MPD1     C 3706   3.708   0.821  14.702 -0.2836 -0.3189  0.3023
  241MPD1    C1 3707   3.591   0.811  14.779 -0.6363 -0.3926 -0.1599
  241MPD1    C2 3708   3.479   0.864  14.733  0.2803  0.1303 -0.0711
  241MPD1    C3 3709   3.474   0.934  14.605  0.8312  0.4363 -0.3971
  241MPD1    C4 3710   3.591   0.934  14.529 -0.4949  0.5952  0.4214
  241MPD1    C5 3711   3.704   0.873  14.576 -0.0748 -1.1696 -0.4624
  241MPD1     H 3712   3.393   0.861  14.799 -0.0472  0.9270 -0.4598
  241MPD1    H1 3713   3.583   0.983  14.433 -2.7753  0.9929  0.8068
  241MPD1    H2 3714   3.801   0.792  14.747  0.6653  0.1078 -1.3750
  241MPD1    H3 3715   3.790   0.884  14.511 -0.9899  1.0442 -1.2686
  241MPD1     N 3716   3.358   0.991  14.558  0.8760  0.0172 -0.1654
  241MPD1    H5 3717   3.369   1.027  14.464  0.2404 -1.5242 -0.8369
  241MPD1    N1 3718   3.591   0.754  14.900 -0.1045  0.3616 -0.1422
  241MPD1    H6 3719   3.493   0.732  14.918  0.4396  0.5574  2.9695
  241MPD1    H7 3720   3.641   0.666  14.887  0.2911  0.9256 -2.4530
  242MPD1     C 3721   2.662   4.505  16.163 -0.2887  0.0638  0.2916
  242MPD1    C1 3722   2.627   4.599  16.070 -0.1479 -0.6865  0.0944
  242MPD1    C2 3723   2.645   4.567  15.939 -0.1640 -0.1584 -0.0003
  242MPD1    C3 3724   2.694   4.438  15.896  0.1166  0.0884 -0.0601
  242MPD1    C4 3725   2.723   4.340  15.990  0.0745 -0.5762 -0.1378
  242MPD1    C5 3726   2.704   4.381  16.123  0.0241 -0.0600  0.6104
  242MPD1     H 3727   2.628   4.652  15.873 -1.7319 -0.9988 -0.6869
  242MPD1    H1 3728   2.755   4.241  15.958  1.5160  0.2570 -1.3023
  242MPD1    H2 3729   2.647   4.517  16.270 -0.3961  0.7181  0.2053
  242MPD1    H3 3730   2.716   4.309  16.203  2.1661 -0.7003 -0.2937
  242MPD1     N 3731   2.712   4.400  15.764  0.1567  0.2233 -0.3287
  242MPD1    H5 3732   2.749   4.307  15.747  0.8834  0.6797 -1.1937
  242MPD1    N1 3733   2.607   4.727  16.099  0.3135 -0.6414 -0.2410
  242MPD1    H6 3734   2.576   4.730  16.195  0.0070 -1.1876 -0.3235
  242MPD1    H7 3735   2.547   0.048  16.041  0.2246  2.2471  2.8099
  243MPD1     C 3736   4.093   3.256  17.399 -0.1373  0.0202  0.1642
  243MPD1    C1 3737   4.097   3.385  17.442 -0.1329 -0.1978  0.0360
  243MPD1    C2 3738   4.184   3.470  17.376 -0.1872  0.4645 -0.0601
  243MPD1    C3 3739   4.246   3.435  17.259 -0.5093  0.1341 -0.2048
  243MPD1    C4 3740   4.235   3.313  17.210 -0.2551  0.3198 -0.3806
  243MPD1    C5 3741   4.155   3.223  17.277 -0.4134  0.0332  0.3436
  243MPD1     H 3742   4.205   3.559  17.433  2.1709 -0.0537 -0.1335
  243MPD1    H1 3743   4.263   3.281  17.111 -2.2060  1.6424 -1.3545
  243MPD1    H2 3744   4.043   3.175  17.451  0.7800 -0.3412  0.4960
  243MPD1    H3 3745   4.134   3.122  17.244  0.6185 -1.2046  3.4038
  243MPD1     N 3746   4.323   3.535  17.198  0.5811 -0.0578 -0.4494
  243MPD1    H5 3747   4.331   3.625  17.245 -0.5955 -0.1094 -0.1657
  243MPD1    N1 3748   4.057   3.410  17.577  0.1529  0.5444  0.9356
  243MPD1    H6 3749   4.049   3.509  17.599  0.6718  1.1071 -1.3845
  243MPD1    H7 3750   3.971   3.372  17.616 -0.4877  0.2469 -0.7904
  244MPD1     C 3751   0.044   4.401  17.328 -0.4506 -0.1640 -0.3590
  244MPD1    C1 3752   4.733   4.418  17.202  0.3261 -0.0633 -0.4321
  244MPD1    C2 3753   4.674   4.303  17.145 -0.3382 -0.8821 -0.0272
  244MPD1    C3 3754   4.659   4.182  17.212  0.6543 -0.1059  0.3591
  244MPD1    C4 3755   4.707   4.178  17.340 -0.6901  0.2468  0.1977
  244MPD1    C5 3756   0.032   4.282  17.397  0.1410  0.4790  0.2391
  244MPD1     H 3757   4.666   4.297  17.037 -0.2446  1.3182 -0.1516
  244MPD1    H1 3758   4.692   4.094  17.407  0.2436  0.7543  1.0420
  244MPD1    H2 3759   0.085   4.488  17.378 -0.2756 -0.4616  0.0147
  244MPD1    H3 3760   0.067   4.276  17.499  0.7399 -0.1394 -0.0047
  244MPD1     N 3761   4.603   4.072  17.143 -0.2283  0.0182 -0.4626
  244MPD1    H5 3762   4.588   4.091  17.044  0.0586 -1.5170 -0.8125
  244MPD1    N1 3763   0.018   4.534  17.123  0.2382 -0.3880 -0.3432
  244MPD1    H6 3764   0.046   4.619  17.171 -1.4531  1.1135 -1.9957
  244MPD1    H7 3765   4.674   4.548  17.064  2.6739  0.5647 -3.5265
  245MPD1     C 3766   1.287   4.139  13.127  0.2809  0.4558  0.1804
  245MPD1    C1 3767   1.299   4.271  13.145  0.2210 -0.4065 -1.0087
  245MPD1    C2 3768   1.333   4.316  13.272  0.8387  1.0506 -0.0646
  245MPD1    C3 3769   1.365   4.226  13.372 -0.8064  0.1906  0.6954
  245MPD1    C4 3770   1.348   4.087  13.351 -0.6238  0.6853  0.5353
  245MPD1    C5 3771   1.307   4.043  13.227 -0.5083  0.2029  0.0913
  245MPD1     H 3772   1.337   4.422  13.291  2.3423  0.8062  1.0312
  245MPD1    H1 3773   1.362   4.016  13.433 -0.8106 -1.6033 -1.4008
  245MPD1    H2 3774   1.260   4.094  13.032  0.7634 -1.3111  0.8942
  245MPD1    H3 3775   1.302   3.936  13.216  0.3463  0.2321 -0.5903
  245MPD1     N 3776   1.395   4.281  13.504  1.0622 -0.2171 -0.0646
  245MPD1    H5 3777   1.387   4.381  13.510  1.4834 -0.1456 -0.6216
  245MPD1    N1 3778   1.296   4.365  13.041 -0.1301  0.2017  0.1362
  245MPD1    H6 3779   1.265   4.456  13.072  0.2640  1.4330 -3.0326
  245MPD1    H7 3780   1.226   4.345  12.969 -0.7468  1.2815  0.4454
  246MPD1     C 3781   2.829   2.187  10.090 -0.0563 -0.3948  0.2678
  246MPD1    C1 3782   2.701   2.225  10.127 -0.2835  0.5718  0.4096
  246MPD1    C2 3783   2.598   2.136  10.097 -0.1289  0.5186 -0.1436
  246MPD1    C3 3784   2.627   2.018  10.029  0.2439 -0.1485 -0.1388
  246MPD1    C4 3785   2.762   1.986   9.999  0.5237  0.3835 -0.2168
  246MPD1    C5 3786   2.861   2.068  10.030 -0.0814 -0.4715  0.4790
  246MPD1     H 3787   2.492   2.155  10.110 -0.1805 -0.5737  1.1210
  246MPD1    H1 3788   2.790   1.890   9.957 -2.7189 -0.6276 -0.0629
  246MPD1    H2 3789   2.912   2.249  10.123  0.9098 -1.3962 -0.2873
  246MPD1    H3 3790   2.961   2.042   9.997  0.0471 -3.1601  2.9106
  246MPD1     N 3791   2.517   1.937   9.991  0.3885  0.1509 -0.4597
  246MPD1    H5 3792   2.432   1.955  10.043 -0.2850  0.1316 -1.5366
  246MPD1    N1 3793   2.676   2.352  10.173  0.0789  0.1325  0.0033
  246MPD1    H6 3794   2.751   2.402  10.219 -0.0794  0.5736 -0.2174
  246MPD1    H7 3795   2.597   2.350  10.238 -0.8683  1.7815 -1.1044
  247MPD1     C 3796   1.290   4.273  16.580  0.4613 -0.1455  0.1485
  247MPD1    C1 3797   1.290   4.137  16.609 -0.0293 -0.1503  0.8453
  247MPD1    C2 3798   1.252   4.047  16.509 -0.8562 -0.6153  0.4353
  247MPD1    C3 3799   1.230   4.084  16.379 -0.6123  0.4757  0.2405
  247MPD1    C4 3800   1.240   4.220  16.354  0.5607 -0.2843  0.1155
  247MPD1    C5 3801   1.261   4.308  16.458 -0.7824 -0.2899  0.7433
  247MPD1     H 3802   1.258   3.944  16.541  2.3496 -0.7128 -0.5637
  247MPD1    H1 3803   1.217   4.266  16.259 -1.2519 -0.5461  0.4283
  247MPD1    H2 3804   1.335   4.346  16.646  0.0336  1.2703 -1.1153
  247MPD1    H3 3805   1.258   4.414  16.434  0.4337 -0.2450  0.8147
  247MPD1     N 3806   1.190   3.995  16.274 -0.7696  0.4619 -0.1048
  247MPD1    H5 3807   1.164   4.036  16.185 -0.8266 -1.1438 -0.8125
  247MPD1    N1 3808   1.323   4.100  16.742  0.0622  0.2482  0.1212
  247MPD1    H6 3809   1.344   4.001  16.744  1.9640  0.6299 -1.4219
  247MPD1    H7 3810   1.397   4.150  16.791  0.2627  1.2975 -1.2530
  248MPD1     C 3811   2.380   2.722  17.530  0.2213 -0.1348  0.3062
  248MPD1    C1 3812   2.457   2.681  17.633 -1.0334  0.1772  0.1405
  248MPD1    C2 3813   2.397   2.685   0.005 -0.1810 -1.3172 -0.1403
  248MPD1    C3 3814   2.274   2.743   0.030  0.0494 -0.8276  0.2867
  248MPD1    C4 3815   2.194   2.761  17.673 -0.1719  0.7135 -0.3826
  248MPD1    C5 3816   2.249   2.751  17.552 -0.1697 -0.2291  0.3219
  248MPD1     H 3817   2.459   2.658   0.090 -0.3157  0.3966  0.4923
  248MPD1    H1 3818   2.089   2.785  17.685  0.1920  1.5299  1.1897
  248MPD1    H2 3819   2.409   2.708  17.427  1.8452 -0.0159  0.7358
  248MPD1    H3 3820   2.187   2.765  17.464  1.2713 -2.3007 -1.0111
  248MPD1     N 3821   2.227   2.775   0.164  0.0164 -0.0257  0.7333
  248MPD1    H5 3822   2.293   2.756   0.239  1.5259  0.4313 -0.4779
  248MPD1    N1 3823   2.572   2.618  17.612  0.6026 -0.4309 -0.0335
  248MPD1    H6 3824   2.619   2.653  17.529  1.6662  1.0263  1.1702
  248MPD1    H7 3825   2.644   2.618  17.684 -0.0063  2.0075  0.5538
  249MPD1     C 3826   2.962   2.949   9.558  0.1116  0.2500 -0.0075
  249MPD1    C1 3827   2.930   3.079   9.570  0.2628  0.5671 -0.7425
  249MPD1    C2 3828   3.012   3.157   9.653 -0.4641 -0.0258  0.2200
  249MPD1    C3 3829   3.112   3.102   9.732 -0.2079 -0.1170 -0.2878
  249MPD1    C4 3830   3.136   2.972   9.726  0.8626  0.0182  0.2538
  249MPD1    C5 3831   3.055   2.893   9.639 -0.2168  0.0243 -0.2892
  249MPD1     H 3832   2.990   3.263   9.657  0.9431  0.3624 -2.4788
  249MPD1    H1 3833   3.222   2.920   9.767 -0.9319 -3.0563  0.1267
  249MPD1    H2 3834   2.916   2.879   9.489  1.3043 -1.0145  0.4547
  249MPD1    H3 3835   3.080   2.788   9.628  1.2194  0.4533 -1.1439
  249MPD1     N 3836   3.188   3.190   9.809 -0.4629 -0.1750 -0.7844
  249MPD1    H5 3837   3.158   3.287   9.803  0.2041  0.1945  1.9514
  249MPD1    N1 3838   2.835   3.135   9.483  0.8007 -0.2888 -0.3052
  249MPD1    H6 3839   2.760   3.070   9.463  0.1335  0.2967  0.2871
  249MPD1    H7 3840   2.787   3.209   9.535 -0.3078 -1.0482 -0.2515
  250MPD2     C 3841   0.344   2.283  12.951 -0.2600  0.0015 -0.1673
  250MPD2    C1 3842   0.239   2.356  13.008  0.1997  0.1997  0.4182
  250MPD2    C2 3843   0.115   2.299  13.030  0.7441  0.2413  0.1611
  250MPD2    C3 3844   0.090   2.163  13.006  0.3825  0.6106 -0.1315
  250MPD2    C4 3845   0.190   2.089  12.949  0.1387  0.3906 -0.0860
  250MPD2    C5 3846   0.310   2.157  12.918  0.1501 -0.0442  0.4558
  250MPD2     H 3847   0.042   2.361  13.080  1.4164  1.5904 -0.5336
  250MPD2    H1 3848   0.182   1.982  12.933 -0.2670  0.4554 -0.3162
  250MPD2    H2 3849   0.439   2.331  12.931  0.3313 -0.5094  1.4734
  250MPD2    H3 3850   0.391   2.101  12.872  2.1927  2.4421  1.0534
  250MPD2     N 3851   4.702   2.096  13.024 -0.0476 -0.1167 -0.4288
  250MPD2    H5 3852   4.680   1.999  13.003 -1.6100  0.2167 -0.3595
  250MPD2    N1 3853   0.268   2.499  13.019  0.0294 -0.6966 -0.1941
  250MPD2    H7 3854   0.355   2.524  12.974  0.1493  0.3292  0.6094
  251TMC3    C1 3855   0.229   2.731  13.055 -0.8782  0.4025  0.0471
  251TMC3    C2 3856   0.131   2.823  13.073  0.0078 -0.1517 -0.5673
  251TMC3    C3 3857   0.162   2.952  13.071  0.5679 -0.4518  0.5251
  251TMC3    C4 3858   0.362   2.764  13.037 -0.0803 -0.1309 -0.8836
  251TMC3    C5 3859   0.391   2.898  13.026 -0.2388  0.2831  0.1228
  251TMC3    C6 3860   0.291   2.995  13.044 -0.1471 -0.4946  0.9368
  251TMC3     C 3861   0.190   2.593  13.073 -0.3592  0.2756  0.0139
  251TMC3     O 3862   0.088   2.580  13.140 -0.2109 -0.7380  0.2076
  251TMC3     H 3863   0.029   2.788  13.087  0.9859 -2.1155  1.8491
  251TMC3    H1 3864   0.435   2.685  13.022 -0.2341 -0.4162 -0.1270
  251TMC3    H2 3865   0.312   3.099  13.066 -0.2103  0.1268 -1.9327
  251TMC3    C7 3866   0.530   2.932  13.058  0.4682  0.2795 -0.4294
  251TMC3    C8 3867   0.069   3.043  13.129  0.2320 -0.5331  0.0451
  251TMC3    O1 3868   0.607   2.838  13.047  0.5453  0.2887 -0.3619
  251TMC3    O2 3869   4.710   3.003  13.190 -0.3899 -0.8763 -0.0464
  252TMC3    C1 3870   0.357   4.645   9.312  0.3981 -0.6563 -0.2962
  252TMC3    C2 3871   0.421   4.686   9.419 -0.4295  0.1960 -0.6457
  252TMC3    C3 3872   0.375   4.650   9.538 -0.0152  1.0064  0.0884
  252TMC3    C4 3873   0.246   4.568   9.324  0.2902  0.7322  0.1482
  252TMC3    C5 3874   0.191   4.549   9.448 -0.2554 -0.6811 -0.6167
  252TMC3    C6 3875   0.254   4.590   9.555  0.2796  0.2082 -0.3334
  252TMC3     C 3876   0.363   4.723   9.192  0.1936 -0.1679 -0.3357
  252TMC3     O 3877   0.274   4.714   9.108 -0.2652 -0.2976 -0.2068
  252TMC3     H 3878   0.517   4.736   9.415 -0.6616  0.6547 -0.5444
  252TMC3    H1 3879   0.196   4.521   9.240 -0.8162 -0.6959  1.6045
  252TMC3    H2 3880   0.207   4.597   9.652 -0.7174  0.2863 -0.8223
  252TMC3    C7 3881   0.057   4.496   9.461 -0.6331 -0.0870 -0.1201
  252TMC3    C8 3882   0.436   4.713   9.650 -0.0321 -0.2157 -1.5700
  252TMC3    O1 3883   4.723   4.504   9.362  0.6188 -0.0791  0.9025
  252TMC3    O2 3884   0.494   0.076   9.620 -0.0518 -0.2581 -0.1094
  253MPD2     C 3885   1.122   2.438  14.910  0.3030  0.7682  0.3468
  253MPD2    C1 3886   1.006   2.390  14.969  0.0806 -0.2883 -0.8273
  253MPD2    C2 3887   0.995   2.403  15.105 -0.1457 -0.8404  0.0451
  253MPD2    C3 3888   1.100   2.446  15.185 -0.1727 -0.0713  0.3360
  253MPD2    C4 3889   1.214   2.482  15.121  0.0040  0.2380  0.5846
  253MPD2    C5 3890   1.223   2.482  14.989  0.8004  0.5394  0.6272
  253MPD2     H 3891   0.908   2.356  15.149 -0.9389 -0.5618 -1.2449
  253MPD2    H1 3892   1.304   2.514  15.172  1.5540 -0.2927 -1.8117
  253MPD2    H2 3893   1.147   2.428  14.805  2.5531 -1.5513  1.1152
  253MPD2    H3 3894   1.308   2.519  14.933  0.7354  0.0977  0.2355
  253MPD2     N 3895   1.096   2.447  15.328  0.6786  0.3160 -0.1354
  253MPD2    H5 3896   1.185   2.449  15.376  0.7326 -1.2313 -0.1707
  253MPD2    N1 3897   0.893   2.337  14.896  0.0316  0.7355  0.5873
  253MPD2    H7 3898   0.826   2.295  14.960  0.4842  2.3904  2.1639
  254TMC3    C1 3899   0.969   2.415  15.542  0.0148 -0.5437 -1.0346
  254TMC3    C2 3900   0.842   2.420  15.587  0.2512  0.4716 -0.0892
  254TMC3    C3 3901   0.812   2.350  15.700 -0.2828 -0.0655 -0.0158
  254TMC3    C4 3902   1.067   2.354  15.612  0.4075 -0.1324  0.1131
  254TMC3    C5 3903   1.033   2.289  15.725 -0.2797 -0.4151 -0.7110
  254TMC3    C6 3904   0.910   2.291  15.778 -0.3129  0.0567 -0.1300
  254TMC3     C 3905   0.974   2.451  15.395  0.3193  0.5729 -0.1876
  254TMC3     O 3906   0.865   2.481  15.350  0.1375 -0.6016 -0.3406
  254TMC3     H 3907   0.773   2.494  15.548  0.9944 -0.3414 -2.9346
  254TMC3    H1 3908   1.168   2.352  15.573  1.1695 -0.5934  2.0814
  254TMC3    H2 3909   0.883   2.232  15.865 -0.6560 -2.3266 -1.8536
  254TMC3    C7 3910   1.133   2.217  15.801 -0.1585  0.1138 -0.2460
  254TMC3    C8 3911   0.672   2.351  15.745 -0.2581 -0.1715  0.0036
  254TMC3    O1 3912   1.090   2.134  15.882  0.4824  0.0317  0.3174
  254TMC3    O2 3913   0.659   2.316  15.864 -0.0682  0.4992 -0.3254
  255MPD2     C 3914   4.081   1.291  10.811 -0.3329  0.3423 -0.1956
  255MPD2    C1 3915   3.977   1.236  10.733  0.2451  0.2160 -0.8197
  255MPD2    C2 3916   4.013   1.124  10.665 -0.4186  0.5877  0.0611
  255MPD2    C3 3917   4.136   1.066  10.661 -0.3702 -0.0317  0.4602
  255MPD2    C4 3918   4.234   1.120  10.743 -0.4490 -0.0021  0.1463
  255MPD2    C5 3919   4.203   1.232  10.817 -0.3684 -0.1847  0.3400
  255MPD2     H 3920   3.945   1.081  10.592  0.4348 -1.9604  0.7448
  255MPD2    H1 3921   4.333   1.075  10.741 -0.8721 -0.8842 -1.1182
  255MPD2    H2 3922   4.058   1.390  10.849  0.1324  0.3323  0.1173
  255MPD2    H3 3923   4.279   1.273  10.883  0.1855 -2.4650  1.1303
  255MPD2     N 3924   4.163   0.989  10.552 -0.4533  0.3232  0.5332
  255MPD2    H5 3925   4.082   0.955  10.501 -1.1558  2.2908  0.3194
  255MPD2    N1 3926   3.861   1.302  10.722  0.3876  0.1003  0.5441
  255MPD2    H7 3927   3.840   1.397  10.751 -1.2599 -0.0892 -0.0725
  256TMC3    C1 3928   3.646   1.339  10.651 -0.1513  0.2117  0.3603
  256TMC3    C2 3929   3.701   1.445  10.579  0.0200  0.2848 -0.5265
  256TMC3    C3 3930   3.663   1.469  10.451 -0.1275  0.3021  0.4342
  256TMC3    C4 3931   3.534   1.281  10.601 -0.5880  0.4385 -0.0249
  256TMC3    C5 3932   3.504   1.304  10.473 -0.2851 -0.5313  0.5849
  256TMC3    C6 3933   3.560   1.393  10.392 -0.4933  0.2905 -0.8784
  256TMC3     C 3934   3.745   1.238  10.689  0.3506  0.5411  0.0128
  256TMC3     O 3935   3.722   1.120  10.666 -0.3045  0.0221 -0.2710
  256TMC3     H 3936   3.775   1.513  10.619 -0.8496  1.1703 -0.4152
  256TMC3    H1 3937   3.508   1.187  10.649 -0.7447 -0.6373 -2.2078
  256TMC3    H2 3938   3.511   1.421  10.299 -2.1977 -1.8157 -0.6094
  256TMC3    C7 3939   3.429   1.200  10.403 -0.1088  0.4469 -1.0605
  256TMC3    C8 3940   3.749   1.554  10.371 -0.3601  0.1838 -0.4660
  256TMC3    O1 3941   3.430   1.195  10.281 -0.6948 -0.1770  0.6679
  256TMC3    O2 3942   3.824   1.635  10.431  0.1959 -0.0171  0.6338
  257MPD2     C 3943   3.587   2.454  13.446 -0.0820  0.1507 -0.2674
  257MPD2    C1 3944   3.475   2.412  13.376 -0.1090 -0.5606 -0.2027
  257MPD2    C2 3945   3.435   2.284  13.379  0.1310 -0.1051  0.5522
  257MPD2    C3 3946   3.487   2.196  13.465 -0.9475 -0.4050  0.5687
  257MPD2    C4 3947   3.597   2.232  13.540  0.0283  0.0401 -0.1703
  257MPD2    C5 3948   3.648   2.362  13.527  0.2848  0.2478 -0.6415
  257MPD2     H 3949   3.356   2.246  13.315 -1.1016 -0.6393  2.3913
  257MPD2    H1 3950   3.645   2.180  13.623 -2.0885 -0.4906  0.7375
  257MPD2    H2 3951   3.609   2.560  13.453 -3.4681  0.6744  2.4386
  257MPD2    H3 3952   3.727   2.391  13.594 -0.3582  0.8454 -0.1390
  257MPD2     N 3953   3.426   2.073  13.478 -0.2143 -0.5392  0.2710
  257MPD2    H5 3954   3.367   2.035  13.405 -0.9723 -0.9416  1.0890
  257MPD2    N1 3955   3.425   2.500  13.277  0.7312 -0.4088 -0.5090
  257MPD2    H7 3956   3.468   2.592  13.277  1.7974 -0.9071 -1.5298
  258TMC3    C1 3957   3.388   1.849  13.531  0.2722 -0.2354 -0.4975
  258TMC3    C2 3958   3.256   1.866  13.496  0.2501 -0.1387 -0.3821
  258TMC3    C3 3959   3.181   1.754  13.470 -0.2369 -0.1886 -0.5854
  258TMC3    C4 3960   3.443   1.729  13.556  0.2304  0.1737 -0.2643
  258TMC3    C5 3961   3.364   1.621  13.530  0.1295 -0.5329  0.1595
  258TMC3    C6 3962   3.235   1.628  13.481  0.3481  0.4379 -0.5492
  258TMC3     C 3963   3.455   1.972  13.564  0.2072 -0.7296 -0.1543
  258TMC3     O 3964   3.524   1.986  13.668  0.8669  0.5462 -0.1294
  258TMC3     H 3965   3.215   1.966  13.504  1.5818  0.1500  2.7377
  258TMC3    H1 3966   3.550   1.727  13.571 -0.1873  1.1082  2.7526
  258TMC3    H2 3967   3.167   1.544  13.468 -0.3721  1.0840 -1.0067
  258TMC3    C7 3968   3.382   1.508  13.617  0.1441 -0.1031 -0.6729
  258TMC3    C8 3969   3.035   1.758  13.429 -0.0837  0.0716 -0.4525
  258TMC3    O1 3970   3.282   1.442  13.629 -0.0746  0.1441  0.2654
  258TMC3    O2 3971   2.977   1.650  13.435  0.1325  0.2192 -0.3741
  259MPD2     C 3972   2.065   3.861   0.679  0.6010 -0.2586  0.0763
  259MPD2    C1 3973   2.169   3.786   0.719 -0.3447 -1.0323  0.6549
  259MPD2    C2 3974   2.262   3.736   0.627 -0.8662 -0.0773 -0.1708
  259MPD2    C3 3975   2.236   3.758   0.491 -0.1271  0.1150 -0.5081
  259MPD2    C4 3976   2.130   3.841   0.457 -0.1280  0.2751  0.4782
  259MPD2    C5 3977   2.048   3.896   0.547  0.3705 -0.2853 -0.3043
  259MPD2     H 3978   2.350   3.679   0.651  0.0333  1.6462  0.6580
  259MPD2    H1 3979   2.117   3.887   0.360 -0.6315 -0.8856 -0.0005
  259MPD2    H2 3980   1.996   3.908   0.749  0.4625  0.2718 -0.4119
  259MPD2    H3 3981   1.975   3.971   0.517 -1.1152 -1.7832 -0.4539
  259MPD2     N 3982   2.331   3.728   0.395 -0.3389  0.3015 -0.5886
  259MPD2    H5 3983   2.419   3.693   0.430 -0.5574  0.3394 -0.0061
  259MPD2    N1 3984   2.156   3.738   0.852  0.7220  0.2708 -0.1438
  259MPD2    H7 3985   2.090   3.781   0.916 -0.0368 -0.3364 -0.5090
  260TMC3    C1 3986   2.436   3.697   0.199 -1.0021  0.0475 -0.6656
  260TMC3    C2 3987   2.465   3.778   0.096 -0.4138  0.4920 -1.0022
  260TMC3    C3 3988   2.562   3.740   0.010  0.5095 -0.0027 -0.3094
  260TMC3    C4 3989   2.505   3.580   0.226  0.4615 -0.4736 -0.4399
  260TMC3    C5 3990   2.614   3.557   0.145 -0.1377 -0.3939 -0.6080
  260TMC3    C6 3991   2.647   3.638   0.037  0.6111 -0.1668  0.5173
  260TMC3     C 3992   2.312   3.735   0.259 -0.1604  0.1236 -0.3483
  260TMC3     O 3993   2.224   3.784   0.194 -0.4453  0.0276  0.2589
  260TMC3     H 3994   2.393   3.852   0.063 -1.8803  0.4886  2.1868
  260TMC3    H1 3995   2.478   3.526   0.315  0.1532  0.8472  0.2741
  260TMC3    H2 3996   2.727   3.607  17.721  0.6740  1.2907 -0.0826
  260TMC3    C7 3997   2.700   3.438   0.170  0.1089  0.4162  1.2001
  260TMC3    C8 3998   2.537   3.772  17.614 -0.0709 -0.2261 -0.0694
  260TMC3    O1 3999   2.800   3.416   0.107 -0.1403  0.1887  0.8206
  260TMC3    O2 4000   2.447   3.849  17.588 -0.0657 -0.5225 -0.0560
  261MPD2     C 4001   4.134   2.628  12.956  0.0269  0.0292 -0.0860
  261MPD2    C1 4002   4.183   2.531  12.871  0.4699  0.0034 -0.1161
  261MPD2    C2 4003   4.222   2.578  12.751  0.1190 -0.2365 -0.2037
  261MPD2    C3 4004   4.206   2.708  12.712  0.4336 -0.5718 -0.3383
  261MPD2    C4 4005   4.147   2.799  12.794 -0.3838 -0.0012 -0.0145
  261MPD2    C5 4006   4.112   2.757  12.913 -0.4851 -0.9405 -1.0407
  261MPD2     H 4007   4.266   2.505  12.685  2.1550  0.2790  0.5757
  261MPD2    H1 4008   4.117   2.899  12.766 -1.4356 -0.2249  0.3168
  261MPD2    H2 4009   4.094   2.602  13.053 -2.6332  1.2208 -0.8684
  261MPD2    H3 4010   4.062   2.824  12.981  1.6860  0.3326 -0.6884
  261MPD2     N 4011   4.245   2.737  12.577 -0.6626  0.5856  0.6113
  261MPD2    H5 4012   4.285   2.657  12.527 -2.8701 -0.9324  1.2766
  261MPD2    N1 4013   4.199   2.397  12.900 -0.4332 -0.0156 -0.7611
  261MPD2    H7 4014   4.236   2.348  12.819  2.0569 -0.4442  0.6180
  262TMC3    C1 4015   4.239   2.855  12.371  0.4596  0.4711  0.0737
  262TMC3    C2 4016   4.216   2.979  12.310  0.4740  0.2421  0.1716
  262TMC3    C3 4017   4.199   2.985  12.170 -0.0717  0.6995  0.2006
  262TMC3    C4 4018   4.221   2.741  12.299  0.1610  0.7086  0.3867
  262TMC3    C5 4019   4.192   2.746  12.165 -0.4324  0.0867 -0.3280
  262TMC3    C6 4020   4.184   2.863  12.101 -0.2821  0.0487 -0.4302
  262TMC3     C 4021   4.222   2.860  12.514 -1.2181 -0.2482  0.4275
  262TMC3     O 4022   4.189   2.964  12.563  0.8057  0.4646  0.3782
  262TMC3     H 4023   4.243   3.069  12.364  1.2872  1.9439 -3.0473
  262TMC3    H1 4024   4.234   2.646  12.350 -1.5190 -0.2560 -0.9627
  262TMC3    H2 4025   4.161   2.860  11.995 -1.7042 -0.2206 -0.1081
  262TMC3    C7 4026   4.139   2.624  12.111 -0.3256  0.0053  0.0521
  262TMC3    C8 4027   4.121   3.093  12.115 -0.3837  0.2101  0.9798
  262TMC3    O1 4028   4.152   2.528  12.185  0.6165  0.2123  0.0807
  262TMC3    O2 4029   4.142   3.126  12.000  0.3499  0.0925  0.7200
  263MPD2     C 4030   0.176   1.906  11.474 -0.1512  0.1188  0.2871
  263MPD2    C1 4031   0.262   1.827  11.406 -0.2491  0.0451 -0.2753
  263MPD2    C2 4032   0.327   1.873  11.289  0.2017  0.9502  0.0988
  263MPD2    C3 4033   0.306   2.006  11.253 -0.1286  0.1938  0.2130
  263MPD2    C4 4034   0.225   2.087  11.327  0.2938 -0.2400  0.5198
  263MPD2    C5 4035   0.159   2.030  11.434  0.2798  0.0670  0.6783
  263MPD2     H 4036   0.401   1.815  11.235 -0.9193 -0.0087 -0.4089
  263MPD2    H1 4037   0.211   2.193  11.310  0.4599 -0.3916 -0.5769
  263MPD2    H2 4038   0.133   1.868  11.566 -1.5052 -0.8993 -0.7687
  263MPD2    H3 4039   0.084   2.085  11.488  0.0553 -0.8662  1.3115
  263MPD2     N 4040   0.395   2.058  11.153  0.5486 -0.1580  0.2265
  263MPD2    H5 4041   0.453   1.995  11.099 -1.3657 -1.8145  0.0966
  263MPD2    N1 4042   0.285   1.699  11.471  0.3713  0.5225  0.4519
  263MPD2    H7 4043   0.254   1.700  11.567  0.1572  1.1733  0.3764
  264TMC3    C1 4044   0.515   2.214  11.021  0.4899  1.0558 -0.0732
  264TMC3    C2 4045   0.499   2.341  10.960  0.1218 -0.0861 -0.3937
  264TMC3    C3 4046   0.605   2.403  10.901  0.5209 -0.5558  0.0532
  264TMC3    C4 4047   0.637   2.149  11.017 -0.4265 -0.9100 -0.5223
  264TMC3    C5 4048   0.748   2.227  10.968  0.1888 -0.3753  0.4252
  264TMC3    C6 4049   0.734   2.348  10.899  0.5641 -0.3808 -0.0826
  264TMC3     C 4050   0.414   2.187  11.124 -0.4909  0.0908 -0.9297
  264TMC3     O 4051   0.343   2.283  11.148 -0.0046  0.1499 -0.2835
  264TMC3     H 4052   0.402   2.376  10.927  0.0149 -0.1596 -0.1585
  264TMC3    H1 4053   0.654   2.055  11.069  1.2908 -1.1857 -1.5958
  264TMC3    H2 4054   0.810   2.410  10.853  0.9180 -0.9093 -0.2060
  264TMC3    C7 4055   0.881   2.174  10.968 -0.3195 -0.9849 -0.6119
  264TMC3    C8 4056   0.597   2.545  10.902  0.4986 -0.1327  0.2988
  264TMC3    O1 4057   0.898   2.055  10.978 -0.1660 -0.0522 -0.3473
  264TMC3    O2 4058   0.670   2.603  10.826  0.2514 -0.0118 -0.0752
  265MPD2     C 4059   2.275   1.887  15.414 -0.8360 -0.4049  0.3664
  265MPD2    C1 4060   2.243   2.000  15.344 -0.1808 -0.4639 -0.7376
  265MPD2    C2 4061   2.294   2.016  15.214 -0.4179  0.8231  0.8016
  265MPD2    C3 4062   2.376   1.918  15.158 -0.3432  0.1052 -0.0855
  265MPD2    C4 4063   2.396   1.805  15.234 -0.2136  1.1499  0.1797
  265MPD2    C5 4064   2.343   1.784  15.358 -0.1142 -1.3485  0.0414
  265MPD2     H 4065   2.281   2.110  15.160  1.6084  0.3431 -0.5020
  265MPD2    H1 4066   2.457   1.724  15.196 -0.2210  0.3295  1.9363
  265MPD2    H2 4067   2.257   1.869  15.519 -2.2687 -2.3799 -0.1964
  265MPD2    H3 4068   2.368   1.690  15.407 -0.0634 -0.8879  0.8952
  265MPD2     N 4069   2.448   1.931  15.036 -0.0025 -0.4135 -0.5832
  265MPD2    H5 4070   2.523   1.864  15.022  0.1638 -0.4474  0.4764
  265MPD2    N1 4071   2.170   2.106  15.406  0.2441 -0.6859  0.7836
  265MPD2    H7 4072   2.162   2.189  15.350  0.3248  0.2263  2.1236
  266TMC3    C1 4073   2.040   2.202  15.585 -0.6745 -0.1087 -0.1489
  266TMC3    C2 4074   2.027   2.209  15.721 -0.2311  0.4525  0.0253
  266TMC3    C3 4075   1.986   2.329  15.772 -0.2157 -0.4300  0.6314
  266TMC3    C4 4076   1.988   2.297  15.498 -0.3276  0.0227 -0.2074
  266TMC3    C5 4077   1.936   2.407  15.554 -0.2575  0.1577  0.8886
  266TMC3    C6 4078   1.930   2.428  15.690  0.0169  0.1074 -0.6445
  266TMC3     C 4079   2.120   2.093  15.532 -0.1611 -0.0715  1.2188
  266TMC3     O 4080   2.104   1.999  15.604  0.2405  0.0540  0.4051
  266TMC3     H 4081   2.066   2.127  15.780  0.0023  1.4248  1.2173
  266TMC3    H1 4082   1.988   2.277  15.391  0.0418  2.3850 -0.6484
  266TMC3    H2 4083   1.875   2.509  15.736 -2.4332 -0.2774 -2.8617
  266TMC3    C7 4084   1.872   2.512  15.475  0.3849 -0.2425 -0.4113
  266TMC3    C8 4085   1.981   2.334  15.913  0.0621 -0.4641  0.1603
  266TMC3    O1 4086   1.764   2.563  15.502  0.4374  0.2582  0.5371
  266TMC3    O2 4087   1.976   2.225  15.971  0.2478  0.0912 -0.2219
  267MPD2     C 4088   4.635   4.164   0.200  0.2415 -0.2862 -0.2153
  267MPD2    C1 4089   4.653   4.110   0.084 -0.2595 -0.1801 -0.2095
  267MPD2    C2 4090   4.598   4.171  17.724 -0.5141  0.0150  0.2699
  267MPD2    C3 4091   4.508   4.274  17.740 -1.5378  0.2950  0.4921
  267MPD2    C4 4092   4.492   4.324   0.109 -0.2025  0.0217 -0.3824
  267MPD2    C5 4093   4.559   4.273   0.216 -0.4519  0.3199 -0.2728
  267MPD2     H 4094   4.622   4.137  17.624  0.5561  0.7299  0.2770
  267MPD2    H1 4095   4.424   4.405   0.134 -0.9441 -0.2396 -1.5605
  267MPD2    H2 4096   4.685   4.125   0.287  0.5225  0.0373 -0.2314
  267MPD2    H3 4097   4.533   4.302   0.317 -1.2154 -0.5361 -0.2217
  267MPD2     N 4098   4.453   4.326  17.621 -0.6995  0.2867  0.3444
  267MPD2    H5 4099   4.464   4.266  17.540  0.1460 -0.1101  0.7481
  267MPD2    N1 4100   0.005   4.007   0.077  0.8321  0.0866 -0.0422
  267MPD2    H7 4101   0.048   3.983   0.165 -3.0335 -2.4811  1.1527
  268TMC3    C1 4102   0.160   3.842  17.746 -0.0577 -0.5681 -0.4827
  268TMC3    C2 4103   0.273   3.837  17.669  0.6075 -0.2550 -0.0226
  268TMC3    C3 4104   0.370   3.739  17.710 -0.0698  0.0238  0.6178
  268TMC3    C4 4105   0.130   3.749   0.096 -0.1546  0.5179 -0.1668
  268TMC3    C5 4106   0.219   3.653   0.130  0.2838  0.7892 -0.3930
  268TMC3    C6 4107   0.345   3.650   0.067 -0.0483  0.0982  0.7123
  268TMC3     C 4108   0.059   3.942  17.711 -0.4056  0.3622  0.0445
  268TMC3     O 4109   0.072   3.996  17.601 -0.0412  0.0062  0.4284
  268TMC3     H 4110   0.283   3.915  17.594  2.0425 -0.1692  0.2580
  268TMC3    H1 4111   0.049   3.765   0.165  0.9659 -2.8209  1.9381
  268TMC3    H2 4112   0.414   3.570   0.091 -0.3067 -0.6209 -0.9524
  268TMC3    C7 4113   0.187   3.539   0.213  0.4442  0.2045  0.4282
  268TMC3    C8 4114   0.492   3.730  17.631 -0.9976  0.0614  0.2747
  268TMC3    O1 4115   0.278   3.460   0.236 -0.1501 -0.3313 -0.4095
  268TMC3    O2 4116   0.585   3.664  17.679 -0.0329  0.6071 -0.5364
  269MPD2     C 4117   4.661   2.556  15.438 -0.1107  0.2179 -0.5553
  269MPD2    C1 4118   4.565   2.572  15.534  0.0455  0.6374 -0.8927
  269MPD2    C2 4119   4.525   2.703  15.570 -0.0599 -0.6329  0.0251
  269MPD2    C3 4120   4.576   2.813  15.500 -0.2814 -0.8301 -0.1041
  269MPD2    C4 4121   4.672   2.788  15.405  0.5575 -0.0777 -0.1120
  269MPD2    C5 4122   4.716   2.663  15.376  0.0988  0.3149 -0.4003
  269MPD2     H 4123   4.450   2.718  15.647  0.9965  0.9831  0.7232
  269MPD2    H1 4124   4.712   2.864  15.339  0.7201  1.7706  2.0869
  269MPD2    H2 4125   4.691   2.453  15.421  1.1528  0.3276  1.0785
  269MPD2    H3 4126   0.059   2.642  15.308  1.0430  4.1819 -0.4977
  269MPD2     N 4127   4.536   2.943  15.534  0.5130  0.5774  0.3427
  269MPD2    H5 4128   4.474   2.957  15.614 -0.5179  1.8426 -0.6683
  269MPD2    N1 4129   4.518   2.457  15.599 -0.6143  0.2845 -0.6537
  269MPD2    H7 4130   4.550   2.368  15.563  1.7467 -0.1967  2.6572
  270TMC3    C1 4131   4.393   2.316  15.724  0.3727  0.3411 -0.1747
  270TMC3    C2 4132   4.299   2.263  15.643  0.2809 -0.3246 -0.3975
  270TMC3    C3 4133   4.301   2.131  15.618  0.3080 -0.8899 -0.5156
  270TMC3    C4 4134   4.509   2.248  15.758  0.7119 -0.0814  0.4577
  270TMC3    C5 4135   4.512   2.115  15.719 -0.4581 -0.2416 -0.1347
  270TMC3    C6 4136   4.401   2.048  15.665  0.0884  0.0913  0.0218
  270TMC3     C 4137   4.423   2.456  15.698  0.3282  0.0553  0.4096
  270TMC3     O 4138   4.333   2.536  15.723  0.0885  0.3957  0.0169
  270TMC3     H 4139   4.216   2.324  15.608 -0.3223 -3.0590 -3.7984
  270TMC3    H1 4140   4.595   2.307  15.789  0.5836 -0.3819  1.3933
  270TMC3    H2 4141   4.391   1.941  15.654  0.5329 -0.0786  1.2479
  270TMC3    C7 4142   4.633   2.080  15.652  0.4961  1.1234 -0.6774
  270TMC3    C8 4143   4.287   2.088  15.478  0.5328 -0.0584 -0.4132
  270TMC3    O1 4144   4.737   2.123  15.700 -0.3975 -0.0909 -0.7319
  270TMC3    O2 4145   4.369   2.018  15.423 -0.5758 -0.4910  0.3646
  271MPD2     C 4146   3.895   2.498  13.861  0.0361  1.0138 -0.1541
  271MPD2    C1 4147   3.800   2.397  13.887 -0.1003  0.0930 -0.5346
  271MPD2    C2 4148   3.667   2.430  13.866  0.8873 -0.4712  0.1192
  271MPD2    C3 4149   3.629   2.547  13.798  0.8126  0.7503 -0.5535
  271MPD2    C4 4150   3.722   2.637  13.758 -0.2587  0.3021  0.4429
  271MPD2    C5 4151   3.854   2.611  13.795 -0.4558  0.0759  0.2158
  271MPD2     H 4152   3.589   2.356  13.884  0.0270  0.8126  1.6071
  271MPD2    H1 4153   3.696   2.731  13.710  0.6722 -0.4738 -1.5714
  271MPD2    H2 4154   4.000   2.491  13.887  0.1323 -1.1949 -1.1164
  271MPD2    H3 4155   3.918   2.697  13.783  1.0222 -1.2357 -1.1929
  271MPD2     N 4156   3.498   2.582  13.756 -0.3066  0.3526  0.5028
  271MPD2    H5 4157   3.483   2.678  13.727  0.7745  0.1261 -0.8200
  271MPD2    N1 4158   3.837   2.280  13.958 -0.3916  0.4700 -0.7119
  271MPD2    H7 4159   3.766   2.228  14.008 -2.6187  3.6560 -0.5644
  272TMC3    C1 4160   3.972   2.123  14.063  0.2530  0.6498  0.5344
  272TMC3    C2 4161   4.075   2.026  14.045  0.0054  0.3186 -0.2386
  272TMC3    C3 4162   4.095   1.929  14.142 -0.6668  0.0709  0.0432
  272TMC3    C4 4163   3.888   2.110  14.174 -0.1873  0.2501 -0.0492
  272TMC3    C5 4164   3.922   2.022  14.268 -0.0689 -0.1261  0.4984
  272TMC3    C6 4165   4.019   1.925  14.262 -0.2466  0.2003 -0.3267
  272TMC3     C 4166   3.969   2.235  13.974  0.6253  0.0361  0.5088
  272TMC3     O 4167   4.069   2.264  13.911 -0.3673 -0.0437 -0.0958
  272TMC3     H 4168   4.138   2.036  13.958  0.3202 -1.3343 -0.1968
  272TMC3    H1 4169   3.824   2.196  14.191 -0.4897  0.0986 -0.4233
  272TMC3    H2 4170   4.041   1.854  14.342  0.5402  0.9398  0.1092
  272TMC3    C7 4171   3.856   2.061  14.395  0.7607 -0.4246  0.9835
  272TMC3    C8 4172   4.197   1.832  14.119  0.0009  0.1646 -0.3114
  272TMC3    O1 4173   3.745   2.111  14.377 -0.3399  0.4584  0.7925
  272TMC3    O2 4174   4.250   1.838  14.003  0.2100  0.1193 -0.1815
  273MPD2     C 4175   0.629   0.534  11.679  0.2009  0.4750 -0.5723
  273MPD2    C1 4176   0.763   0.532  11.651 -1.0167  0.3096 -0.1695
  273MPD2    C2 4177   0.801   0.529  11.518  0.1137  0.2659  0.1429
  273MPD2    C3 4178   0.716   0.509  11.412 -0.4590 -0.3958  0.2109
  273MPD2    C4 4179   0.586   0.502  11.451 -0.9334 -0.0257  0.2886
  273MPD2    C5 4180   0.540   0.516  11.583  0.4634 -0.3123  0.3963
  273MPD2     H 4181   0.906   0.537  11.491  0.6053  0.8353  2.2576
  273MPD2    H1 4182   0.513   0.486  11.373 -1.2902 -0.0946  0.6346
  273MPD2    H2 4183   0.607   0.573  11.778 -1.6442  1.8792 -1.5169
  273MPD2    H3 4184   0.433   0.524  11.599  0.3097 -0.2776 -0.5904
  273MPD2     N 4185   0.753   0.531  11.277 -0.1220  0.9511  0.5921
  273MPD2    H5 4186   0.681   0.576  11.221  0.6725  0.0327 -1.1629
  273MPD2    N1 4187   0.854   0.549  11.761 -0.6073 -0.5970 -0.6576
  273MPD2    H7 4188   0.818   0.567  11.854  1.2847  3.3923 -0.6579
  274TMC3    C1 4189   0.898   0.601  11.110  0.3297 -0.3888  0.4762
  274TMC3    C2 4190   0.818   0.586  11.000  0.4396  0.2679 -0.0914
  274TMC3    C3 4191   0.830   0.684  10.907  0.0717 -0.7014  0.3071
  274TMC3    C4 4192   0.956   0.712  11.139  0.7232 -0.6776  0.6450
  274TMC3    C5 4193   0.977   0.808  11.043  0.4509  0.8531  0.2957
  274TMC3    C6 4194   0.917   0.790  10.919  0.4751  0.1969 -0.5938
  274TMC3     C 4195   0.875   0.517  11.224  0.0188  0.0954  0.0590
  274TMC3     O 4196   0.973   0.464  11.275  0.3405 -0.1781 -0.4217
  274TMC3     H 4197   0.753   0.499  10.991  1.1864 -0.0800 -2.1932
  274TMC3    H1 4198   0.995   0.725  11.239  1.5188 -0.1496  0.2651
  274TMC3    H2 4199   0.901   0.878  10.858 -0.8019  0.6397  0.3877
  274TMC3    C7 4200   0.992   0.942  11.091 -0.1995  0.4030 -0.2748
  274TMC3    C8 4201   0.750   0.665  10.782  0.5863 -0.3433  0.3445
  274TMC3    O1 4202   1.074   1.019  11.043  0.9658 -0.1034  0.3567
  274TMC3    O2 4203   0.649   0.591  10.780 -0.3971  0.4330  0.7159
  275MPD2     C 4204   0.340   3.324  14.254 -0.0586 -0.0807  0.1497
  275MPD2    C1 4205   0.389   3.254  14.361  0.2702  0.3975  0.1405
  275MPD2    C2 4206   0.339   3.128  14.396 -0.1884  0.5101  0.2061
  275MPD2    C3 4207   0.238   3.070  14.322 -0.7327  0.0986 -0.0323
  275MPD2    C4 4208   0.207   3.135  14.209 -0.7601  0.0194  0.0001
  275MPD2    C5 4209   0.249   3.258  14.180 -0.1033  0.0053  0.2325
  275MPD2     H 4210   0.375   3.086  14.489 -2.3437 -0.7249  0.4763
  275MPD2    H1 4211   0.137   3.100  14.135 -0.2006 -0.4185 -0.3147
  275MPD2    H2 4212   0.382   3.418  14.219  0.1745 -0.9225 -1.7745
  275MPD2    H3 4213   0.212   3.310  14.093 -2.0233 -1.1807  0.3557
  275MPD2     N 4214   0.174   2.949  14.369  0.4392 -0.5959 -0.5316
  275MPD2    H5 4215   0.115   2.896  14.306  0.9978 -2.5211  0.5616
  275MPD2    N1 4216   0.500   3.298  14.440  0.4377 -0.3392 -0.3546
  275MPD2    H7 4217   0.521   3.241  14.521 -1.7954  0.1357  0.5619
  276TMC3    C1 4218   0.682   3.432  14.507  0.0776  0.2012  0.8167
  276TMC3    C2 4219   0.727   3.320  14.568 -0.1478 -0.5207 -0.6211
  276TMC3    C3 4220   0.806   3.333  14.682  0.4054 -0.4470  0.5591
  276TMC3    C4 4221   0.704   3.558  14.558 -0.1105  0.0845 -0.5047
  276TMC3    C5 4222   0.788   3.566  14.671 -0.4744 -0.0281 -1.1136
  276TMC3    C6 4223   0.839   3.452  14.733  0.0547 -0.3722  0.6608
  276TMC3     C 4224   0.566   3.423  14.424 -0.5692  0.2454 -0.0163
  276TMC3     O 4225   0.528   3.530  14.377 -0.1923 -0.5148  0.2135
  276TMC3     H 4226   0.716   3.222  14.524 -3.2935 -0.9308  1.0675
  276TMC3    H1 4227   0.668   3.651  14.514  1.7401  1.0657  0.0521
  276TMC3    H2 4228   0.882   3.463  14.832  1.0596 -0.4935  0.2392
  276TMC3    C7 4229   0.855   3.687  14.717 -0.2698  0.1695 -0.3899
  276TMC3    C8 4230   0.887   3.224  14.736  0.1819  0.2346 -0.1985
  276TMC3    O1 4231   0.942   3.669  14.799 -0.1765  0.1355  1.0797
  276TMC3    O2 4232   0.992   3.248  14.794 -0.8223 -0.2710  0.2559
  277MPD2     C 4233   2.168   2.589  13.385 -0.3163  0.1127 -1.1140
  277MPD2    C1 4234   2.050   2.667  13.397 -1.3270 -0.3775 -0.2051
  277MPD2    C2 4235   1.931   2.600  13.425  0.2595 -0.1896 -0.6322
  277MPD2    C3 4236   1.927   2.460  13.439 -0.4711 -0.7060 -0.8407
  277MPD2    C4 4237   2.045   2.387  13.414  0.1060 -0.3084  0.0127
  277MPD2    C5 4238   2.158   2.453  13.384  0.0584  0.1992 -0.5465
  277MPD2     H 4239   1.835   2.650  13.421  1.4742  2.1329 -0.7051
  277MPD2    H1 4240   2.040   2.281  13.437  0.0789  0.1559  2.0709
  277MPD2    H2 4241   2.266   2.629  13.362  1.0350 -1.6064  1.7817
  277MPD2    H3 4242   2.251   2.398  13.384  0.7171  1.3112 -0.1900
  277MPD2     N 4243   1.802   2.398  13.480 -0.1587  0.6566 -0.1322
  277MPD2    H5 4244   1.734   2.471  13.500 -0.1784  1.0468 -1.5535
  277MPD2    N1 4245   2.063   2.802  13.378  0.4496 -0.2883  0.1047
  277MPD2    H7 4246   2.154   2.844  13.363 -0.5818  1.4589 -1.2419
  278TMC3    C1 4247   1.643   2.215  13.523  0.2467  0.5969 -0.6817
  278TMC3    C2 4248   1.607   2.084  13.505 -0.6592 -0.1217 -1.3861
  278TMC3    C3 4249   1.493   2.040  13.560  0.2602 -0.4157 -0.4004
  278TMC3    C4 4250   1.569   2.305  13.595  0.2581 -0.4680 -0.2453
  278TMC3    C5 4251   1.463   2.248  13.667  0.8238 -0.4383  0.4663
  278TMC3    C6 4252   1.418   2.122  13.635  0.1244 -0.3773  0.8157
  278TMC3     C 4253   1.765   2.263  13.468  0.7510 -0.5977  0.3561
  278TMC3     O 4254   1.822   2.181  13.397  0.2489  0.4305 -0.5963
  278TMC3     H 4255   1.679   2.022  13.453  2.0871  2.8673 -1.1143
  278TMC3    H1 4256   1.602   2.405  13.621 -0.0734 -0.1111 -1.2082
  278TMC3    H2 4257   1.327   2.079  13.675  0.3432 -1.6840 -0.0788
  278TMC3    C7 4258   1.398   2.333  13.764 -0.3547  0.2926 -0.3063
  278TMC3    C8 4259   1.430   1.925  13.502 -0.3323 -0.1074  0.0363
  278TMC3    O1 4260   1.451   2.443  13.786  0.0502  0.1291  0.3371
  278TMC3    O2 4261   1.328   1.881  13.553 -0.5039  0.1050  0.1823
  279MPD2     C 4262   1.170   2.439   0.212 -0.3620 -0.3535  0.2284
  279MPD2    C1 4263   1.155   2.572   0.173  0.0770 -0.2232  0.0690
  279MPD2    C2 4264   1.221   2.623   0.054  0.2326 -0.1764 -0.2969
  279MPD2    C3 4265   1.295   2.531  17.729  0.6438 -0.0588  0.6376
  279MPD2    C4 4266   1.301   2.398   0.011  0.4169 -0.1925 -0.4390
  279MPD2    C5 4267   1.237   2.357   0.122  0.0762 -0.7793  0.4307
  279MPD2     H 4268   1.226   2.729   0.033 -2.2131  0.2440  1.1928
  279MPD2    H1 4269   1.352   2.317  17.711 -1.3241 -0.7007 -1.3499
  279MPD2    H2 4270   1.119   2.396   0.298 -0.2859 -0.5773  0.1612
  279MPD2    H3 4271   1.243   2.251   0.143  0.4457 -1.3042 -2.2298
  279MPD2     N 4272   1.371   2.589  17.623  0.2363  0.2146 -0.0078
  279MPD2    H5 4273   1.337   2.682  17.600  1.8097  0.8438  0.2083
  279MPD2    N1 4274   1.081   2.641   0.263 -0.1113 -0.1691  0.6289
  279MPD2    H7 4275   1.034   2.586   0.334 -1.6670  1.1300  0.5848
  280TMC3    C1 4276   0.930   2.795   0.306 -0.2649  0.7941  0.5964
  280TMC3    C2 4277   0.844   2.684   0.291 -0.1878 -0.1081 -0.1062
  280TMC3    C3 4278   0.706   2.704   0.304  0.2056 -0.2488  0.4515
  280TMC3    C4 4279   0.883   2.924   0.313  0.6307  0.0601 -0.4879
  280TMC3    C5 4280   0.747   2.938   0.333  0.4476 -0.0963  0.5827
  280TMC3    C6 4281   0.663   2.828   0.334 -0.0280 -0.4186 -0.0361
  280TMC3     C 4282   1.063   2.773   0.253  0.4303  0.5653  0.3383
  280TMC3     O 4283   1.121   2.863   0.188  0.5668 -0.0267 -0.4402
  280TMC3     H 4284   0.870   2.594   0.237 -3.9150 -0.0657 -1.9539
  280TMC3    H1 4285   0.953   3.003   0.288  1.7481 -0.0713  2.2093
  280TMC3    H2 4286   0.558   2.844   0.359  0.5080  1.4576  1.0388
  280TMC3    C7 4287   0.684   3.040   0.253  0.3297 -0.3006 -0.6844
  280TMC3    C8 4288   0.610   2.635   0.228  0.4394  0.3610  0.3988
  280TMC3    O1 4289   0.739   3.147   0.246 -0.5388 -0.5458 -0.1586
  280TMC3    O2 4290   0.509   2.697   0.203  0.2471  0.1037  0.1914
  281TMC3    C1 4291   0.678   2.702  13.340  0.1518  0.4873  0.1284
  281TMC3    C2 4292   0.790   2.782  13.338  0.1718 -0.2768 -0.3283
  281TMC3    C3 4293   0.907   2.741  13.286  0.1911 -1.1087 -0.0105
  281TMC3    C4 4294   0.687   2.573  13.283  0.6824 -0.0893  0.2190
  281TMC3    C5 4295   0.809   2.536  13.230  0.5123  0.3757  0.1076
  281TMC3    C6 4296   0.915   2.623  13.224  0.1668 -0.1864  0.6376
  281TMC3     C 4297   0.548   2.738  13.378  0.1369  0.4819 -0.1090
  281TMC3     O 4298   0.473   2.647  13.403 -0.2845  0.2355  0.5568
  281TMC3     H 4299   0.784   2.871  13.401  1.2284  0.0879 -0.7361
  281TMC3    H1 4300   0.598   2.512  13.280  1.4125 -1.1925  1.1060
  281TMC3    H2 4301   1.001   2.602  13.162  1.0008  0.6238  1.5091
  281TMC3    C7 4302   0.809   2.409  13.158  0.3242  0.5469 -1.1520
  281TMC3    C8 4303   1.018   2.840  13.259 -0.7684 -0.3001  0.1435
  281TMC3    O1 4304   0.897   2.396  13.072  0.3423 -0.1407 -0.2173
  281TMC3    O2 4305   1.127   2.786  13.270 -0.4310  0.4414  0.0018
  282MPD2     C 4306   2.059   4.252  15.356 -0.2741  0.1194  0.3757
  282MPD2    C1 4307   1.927   4.262  15.403  0.2068 -0.1892 -0.3824
  282MPD2    C2 4308   1.827   4.249  15.303  0.3387 -0.2788 -0.3889
  282MPD2    C3 4309   1.851   4.220  15.168 -0.3570 -0.6651 -0.8262
  282MPD2    C4 4310   1.988   4.203  15.132  0.0466 -0.1191 -0.0656
  282MPD2    C5 4311   2.088   4.211  15.225  0.4100  0.2200  0.1580
  282MPD2     H 4312   1.729   4.281  15.338 -0.7622 -2.7491 -1.1742
  282MPD2    H1 4313   2.020   4.178  15.032 -0.4812 -0.6572 -0.0976
  282MPD2    H2 4314   2.144   4.255  15.423  1.5023 -2.3964 -1.7804
  282MPD2    H3 4315   2.192   4.198  15.196  0.8167  1.3162  1.1383
  282MPD2     N 4316   1.748   4.234  15.078 -0.0777 -0.0847  0.0848
  282MPD2    H5 4317   1.664   4.281  15.112 -1.7048 -1.6469 -1.7692
  282MPD2    N1 4318   1.905   4.294  15.537  0.1030  0.1374 -0.2048
  282MPD2    H7 4319   1.821   4.263  15.585  0.2329  1.4389  0.8625
  283TMC3    C1 4320   1.973   4.373  15.754 -0.1414  0.0432 -0.8038
  283TMC3    C2 4321   2.042   4.464  15.830  0.6548 -0.0811 -0.4883
  283TMC3    C3 4322   2.080   4.439  15.957 -0.3889 -0.7565  0.5981
  283TMC3    C4 4323   1.930   4.259  15.818  0.2605  0.1203  0.4721
  283TMC3    C5 4324   1.950   4.239  15.944 -0.4522 -0.1664  0.1748
  283TMC3    C6 4325   2.032   4.325  16.018 -0.4535 -0.0669  0.2864
  283TMC3     C 4326   1.994   4.377  15.606 -0.4901  0.2678  0.8703
  283TMC3     O 4327   2.081   4.453  15.571  0.1353 -0.0489  0.0105
  283TMC3     H 4328   2.078   4.554  15.781 -0.0270  0.5203  0.1089
  283TMC3    H1 4329   1.869   4.188  15.764 -2.1786  1.2022  1.8387
  283TMC3    H2 4330   2.047   4.312  16.124  2.3809 -2.6067 -0.3974
  283TMC3    C7 4331   1.900   4.113  15.993  0.1003  0.1571  0.5479
  283TMC3    C8 4332   2.146   4.543  16.033  0.3604 -0.7507  0.4103
  283TMC3    O1 4333   1.785   4.080  15.963  0.6576  0.0862 -0.1037
  283TMC3    O2 4334   2.136   4.542  16.154 -0.2079 -0.3581  0.6236
  284MPD2     C 4335   0.125   3.330  11.872 -0.0904 -0.3812 -0.2323
  284MPD2    C1 4336   0.251   3.283  11.826  0.1578 -0.2469 -0.1340
  284MPD2    C2 4337   0.268   3.145  11.812  0.1829  0.1817 -0.4270
  284MPD2    C3 4338   0.162   3.059  11.833  0.7914 -0.0274  0.6045
  284MPD2    C4 4339   0.037   3.110  11.868 -0.7679  0.4959 -0.4817
  284MPD2    C5 4340   0.023   3.243  11.880 -0.9884 -0.2910 -0.4653
  284MPD2     H 4341   0.364   3.099  11.792 -0.5541 -1.8196  0.6094
  284MPD2    H1 4342   4.685   3.049  11.876 -0.4044  0.0312  0.1206
  284MPD2    H2 4343   0.104   3.435  11.887 -0.1137 -0.1190 -2.2082
  284MPD2    H3 4344   4.669   3.290  11.912  0.2278  1.6832  0.1761
  284MPD2     N 4345   0.171   2.919  11.829 -0.5080 -0.3191  0.4836
  284MPD2    H5 4346   0.081   2.874  11.840  0.0760 -1.9868 -1.5203
  284MPD2    N1 4347   0.359   3.370  11.795  0.1767 -0.0895  0.0215
  284MPD2    H7 4348   0.443   3.321  11.765  1.0310  1.1218  0.4014
  285TMC3    C1 4349   0.501   3.565  11.788 -0.3189 -0.1742  0.3474
  285TMC3    C2 4350   0.570   3.507  11.683 -0.6376 -0.1467  0.1476
  285TMC3    C3 4351   0.679   3.574  11.644 -0.3113 -1.1429  0.0654
  285TMC3    C4 4352   0.536   3.681  11.851  0.0565 -0.1626 -0.1124
  285TMC3    C5 4353   0.647   3.741  11.803 -0.8135  0.5287 -0.0965
  285TMC3    C6 4354   0.725   3.688  11.703  0.2113  0.5734  0.9065
  285TMC3     C 4355   0.372   3.508  11.819 -0.2691 -0.0530 -0.5774
  285TMC3     O 4356   0.297   3.578  11.882  0.3112 -0.3381 -0.1966
  285TMC3     H 4357   0.541   3.413  11.636  0.7520 -0.5736  0.1572
  285TMC3    H1 4358   0.482   3.724  11.934  0.4514 -0.9378  0.5500
  285TMC3    H2 4359   0.818   3.737  11.675 -0.0389 -1.0492 -2.7914
  285TMC3    C7 4360   0.656   3.889  11.815  0.2340  0.4723  0.0131
  285TMC3    C8 4361   0.722   3.544  11.508 -0.3995 -0.2750 -0.4695
  285TMC3    O1 4362   0.746   3.936  11.747 -0.2274 -0.1676 -0.1331
  285TMC3    O2 4363   0.642   3.482  11.435  0.1168 -0.1156 -0.4608
  286MPD2     C 4364   0.845   2.067   1.509  0.6451 -0.1389 -0.0364
  286MPD2    C1 4365   0.798   2.063   1.379  0.2848  0.1563 -0.4842
  286MPD2    C2 4366   0.863   1.978   1.287 -0.1098 -0.7301  0.5498
  286MPD2    C3 4367   0.975   1.905   1.332 -0.3736 -0.4898  0.5510
  286MPD2    C4 4368   1.026   1.926   1.459  0.1111 -0.0929  0.1841
  286MPD2    C5 4369   0.960   2.004   1.554 -0.4828 -0.9836 -0.8366
  286MPD2     H 4370   0.846   1.975   1.180 -1.1115 -0.0855  0.6878
  286MPD2    H1 4371   1.119   1.879   1.487 -0.4649 -2.6534 -2.2433
  286MPD2    H2 4372   0.801   2.132   1.583  2.0947 -0.3460  0.9880
  286MPD2    H3 4373   1.003   2.024   1.651  0.8885  0.9167 -1.8331
  286MPD2     N 4374   1.053   1.820   1.247  0.5077 -0.4978  0.7182
  286MPD2    H5 4375   1.134   1.781   1.293  0.6280 -0.7446  0.2957
  286MPD2    N1 4376   0.688   2.139   1.328 -0.3528 -1.1421  0.1452
  286MPD2    H7 4377   0.676   2.135   1.227 -0.0171 -0.5194  0.0771
  287TMC3    C1 4378   1.110   1.699   1.059  0.1643  0.9427  0.7843
  287TMC3    C2 4379   1.064   1.620   0.958 -0.6253  0.0966  0.1998
  287TMC3    C3 4380   1.136   1.514   0.919 -0.2282  0.4799  0.0631
  287TMC3    C4 4381   1.214   1.662   1.137 -0.0523  0.2899  0.4024
  287TMC3    C5 4382   1.287   1.552   1.095 -0.3372  0.0410  0.0528
  287TMC3    C6 4383   1.252   1.482   0.984  0.1295 -0.1905  0.1847
  287TMC3     C 4384   1.003   1.766   1.131 -0.0722  0.7875 -0.5069
  287TMC3     O 4385   0.893   1.772   1.082  0.0060 -0.1940 -0.2562
  287TMC3     H 4386   0.969   1.641   0.910  0.0689 -2.9419 -2.4735
  287TMC3    H1 4387   1.253   1.723   1.217 -3.0133  0.0561  1.9996
  287TMC3    H2 4388   1.301   1.392   0.950 -1.2902 -0.6527 -0.6534
  287TMC3    C7 4389   1.418   1.538   1.158 -0.2884 -0.0516  0.0908
  287TMC3    C8 4390   1.123   1.480   0.776  0.0908  0.1214 -0.0721
  287TMC3    O1 4391   1.478   1.643   1.165 -0.0493  0.0989 -0.3622
  287TMC3    O2 4392   1.017   1.506   0.731 -0.3096  0.4241  0.8413
  288TMC3    C1 4393   2.849   1.871  14.056  0.8081 -0.0523  0.0232
  288TMC3    C2 4394   2.777   1.906  14.165  0.3105  0.1310  0.0870
  288TMC3    C3 4395   2.641   1.905  14.158 -0.7635 -0.5785 -0.2477
  288TMC3    C4 4396   2.793   1.847  13.933  0.2299  0.3443 -0.7271
  288TMC3    C5 4397   2.662   1.861  13.924 -0.6425 -0.4167  0.0715
  288TMC3    C6 4398   2.583   1.888  14.031  0.3047 -1.0461 -0.0537
  288TMC3     C 4399   2.982   1.821  14.089  0.1499 -0.5006 -0.9552
  288TMC3     O 4400   2.990   1.772  14.203  0.1109  0.0004  0.1513
  288TMC3     H 4401   2.815   1.913  14.266 -1.2232  0.7814  0.6112
  288TMC3    H1 4402   2.854   1.809  13.852 -0.3753 -1.0271 -0.5306
  288TMC3    H2 4403   2.476   1.902  14.016  0.6474  3.0046  1.1696
  288TMC3    C7 4404   2.606   1.843  13.790 -0.1441  0.0455  0.4560
  288TMC3    C8 4405   2.564   1.961  14.263  0.3855  0.1870 -0.3032
  288TMC3    O1 4406   2.684   1.791  13.718  0.5740  0.0123 -0.2398
  288TMC3    O2 4407   2.622   2.042  14.331  0.6659  0.6582  0.4449
  289MPD2     C 4408   2.568   0.878  14.771  0.6864  0.6809 -0.1458
  289MPD2    C1 4409   2.586   0.947  14.654 -0.4415  0.0086  0.5261
  289MPD2    C2 4410   2.479   0.952  14.563 -0.1790  0.5983  0.1440
  289MPD2    C3 4411   2.352   0.902  14.595 -0.3739 -0.5292 -0.3356
  289MPD2    C4 4412   2.334   0.830  14.713 -0.3625  0.1732 -0.6340
  289MPD2    C5 4413   2.441   0.814  14.798  0.3897 -0.1791 -0.4890
  289MPD2     H 4414   2.487   0.988  14.461  0.6397 -1.3591 -0.4741
  289MPD2    H1 4415   2.244   0.770  14.727 -0.7543  0.9994  0.4127
  289MPD2    H2 4416   2.649   0.876  14.842  1.2765 -0.8757 -0.8655
  289MPD2    H3 4417   2.431   0.755  14.889  0.8709  0.2659 -0.1416
  289MPD2     N 4418   2.240   0.906  14.509  0.2396 -0.1491  0.1033
  289MPD2    H5 4419   2.147   0.876  14.534 -0.3876 -0.0100 -2.0153
  289MPD2    N1 4420   2.717   1.001  14.626 -0.0204  0.3212 -0.0781
  289MPD2    H7 4421   2.786   0.973  14.696 -1.1589 -0.4980  0.7333
  290TMC3    C1 4422   2.101   0.991  14.340 -0.6386 -0.5438  0.0158
  290TMC3    C2 4423   2.089   1.082  14.236 -0.0056  0.4155  0.2686
  290TMC3    C3 4424   1.990   1.063  14.148  1.0455 -0.6239 -0.7387
  290TMC3    C4 4425   2.023   0.876  14.341  0.2282  1.1134  0.1347
  290TMC3    C5 4426   1.927   0.867  14.247 -0.2772 -0.4087  0.0529
  290TMC3    C6 4427   1.900   0.957  14.148 -0.5918  0.1084 -0.7942
  290TMC3     C 4428   2.229   0.997  14.408  0.5242 -0.5154  0.1948
  290TMC3     O 4429   2.309   1.075  14.360 -0.0523 -0.7637  0.9524
  290TMC3     H 4430   2.151   1.171  14.240  2.4661 -1.3003  0.2547
  290TMC3    H1 4431   2.058   0.784  14.387 -1.3998  1.2618  1.6819
  290TMC3    H2 4432   1.826   0.937  14.072 -2.3305  2.9849  0.1607
  290TMC3    C7 4433   1.839   0.747  14.246  0.4176 -0.5688 -0.3302
  290TMC3    C8 4434   1.988   1.141  14.032 -0.0063 -0.3723 -0.6353
  290TMC3    O1 4435   1.755   0.754  14.158  0.4042  0.2761 -0.1342
  290TMC3    O2 4436   1.991   1.084  13.923 -0.0829  0.0595 -0.6347
  291MPD2     C 4437   1.720   1.155  17.601  0.8244  0.2941 -0.0356
  291MPD2    C1 4438   1.697   1.120  17.731  0.3209 -0.3805 -0.6019
  291MPD2    C2 4439   1.730   1.206   0.084 -0.4530 -0.5587 -0.2630
  291MPD2    C3 4440   1.780   1.329   0.040 -0.2665 -0.7173  0.1236
  291MPD2    C4 4441   1.790   1.366  17.657  0.0061 -0.4985  0.4119
  291MPD2    C5 4442   1.766   1.276  17.565  0.1852  0.5363 -0.9565
  291MPD2     H 4443   1.715   1.186   0.190 -1.0284 -0.8276 -0.3977
  291MPD2    H1 4444   1.829   1.460  17.619  2.1992 -1.8040 -0.6324
  291MPD2    H2 4445   1.697   1.078  17.528 -2.5174 -1.1635  2.5749
  291MPD2    H3 4446   1.777   1.295  17.459 -2.0950 -0.4736 -1.3573
  291MPD2     N 4447   1.836   1.423   0.134  0.3913 -0.7011 -1.3595
  291MPD2    H5 4448   1.867   1.514   0.101  0.3934  0.1604  1.0546
  291MPD2    N1 4449   1.649   0.995   0.019  0.1564  0.1656  0.3536
  291MPD2    H7 4450   1.651   0.979   0.119  0.7423 -4.0928 -0.3375
  292TMC3    C1 4451   1.618   0.764   0.013  0.2229 -0.1751 -0.0518
  292TMC3    C2 4452   1.670   0.758   0.139 -0.4472 -0.1115 -1.2548
  292TMC3    C3 4453   1.664   0.647   0.211  0.1044 -0.3810 -0.0616
  292TMC3    C4 4454   1.544   0.658  17.708  0.3970  0.1030 -0.4875
  292TMC3    C5 4455   1.544   0.548   0.030  0.0709 -0.1321 -0.7235
  292TMC3    C6 4456   1.607   0.535   0.153 -0.5805  0.3101  0.5173
  292TMC3     C 4457   1.602   0.889  17.694 -0.1116  0.3656 -0.5605
  292TMC3     O 4458   1.564   0.883  17.577 -0.4582  0.0766  0.2749
  292TMC3     H 4459   1.726   0.842   0.180  1.3384 -2.4765  1.1726
  292TMC3    H1 4460   1.500   0.666  17.609 -1.2527 -2.6976  0.0218
  292TMC3    H2 4461   1.608   0.443   0.210 -2.7049  0.7792  1.3223
  292TMC3    C7 4462   1.497   0.431  17.716 -0.1940  0.3723 -0.6577
  292TMC3    C8 4463   1.708   0.653   0.355  0.4460 -0.3493  0.9860
  292TMC3    O1 4464   1.537   0.330   0.018  1.4729  0.6218  0.6363
  292TMC3    O2 4465   1.778   0.747   0.399  0.5059 -0.1161  0.1085
  293MPD2     C 4466   3.488   2.454  12.760 -1.2520 -0.7570  0.4519
  293MPD2    C1 4467   3.446   2.371  12.857  0.7767  1.1379 -0.0010
  293MPD2    C2 4468   3.529   2.354  12.964  0.2259 -0.9840 -0.3109
  293MPD2    C3 4469   3.650   2.418  12.983  0.3739  0.4028  0.5789
  293MPD2    C4 4470   3.689   2.506  12.882  0.4011  0.3263 -0.4932
  293MPD2    C5 4471   3.608   2.519  12.773 -0.0869  0.2923  0.3476
  293MPD2     H 4472   3.496   2.286  13.042 -0.3657 -1.8011 -1.2775
  293MPD2    H1 4473   3.777   2.569  12.891 -0.2972  1.2012  0.2049
  293MPD2    H2 4474   3.435   2.457  12.666 -0.7896 -0.2077  0.2115
  293MPD2    H3 4475   3.633   2.586  12.693  0.8257  0.0462  0.4199
  293MPD2     N 4476   3.717   2.403  13.109  0.2549 -0.5546 -0.4116
  293MPD2    H5 4477   3.686   2.326  13.168 -2.8801  0.0743 -1.2309
  293MPD2    N1 4478   3.316   2.313  12.837 -0.0424 -0.6848 -0.0877
  293MPD2    H7 4479   3.262   2.346  12.758 -0.7588  0.2006  0.7698
  294TMC3    C1 4480   3.127   2.176  12.901 -0.0826  0.9179  0.3011
  294TMC3    C2 4481   3.097   2.051  12.943 -0.1875 -0.1122  0.1480
  294TMC3    C3 4482   2.978   1.999  12.890 -0.0855  0.1183  0.2627
  294TMC3    C4 4483   3.035   2.255  12.841 -0.3339 -0.4719 -0.3158
  294TMC3    C5 4484   2.909   2.204  12.806  0.5660 -0.1139  0.0732
  294TMC3    C6 4485   2.873   2.077  12.835 -0.5428 -0.2429  0.0090
  294TMC3     C 4486   3.261   2.225  12.925 -0.6936 -0.0026  0.3300
  294TMC3     O 4487   3.319   2.152  13.005  0.2656  0.9172 -0.3360
  294TMC3     H 4488   3.168   1.980  12.983  1.3293  1.1736 -0.2392
  294TMC3    H1 4489   3.062   2.360  12.840 -1.0523 -0.2781  0.5320
  294TMC3    H2 4490   2.776   2.031  12.822 -0.7722 -0.9204  4.1467
  294TMC3    C7 4491   2.811   2.288  12.742 -0.6039  0.1971  0.6967
  294TMC3    C8 4492   2.969   1.857  12.874  0.6161  0.7858 -0.0076
  294TMC3    O1 4493   2.692   2.258  12.765 -0.2682 -0.4972  0.0541
  294TMC3    O2 4494   3.018   1.787  12.959 -0.1434  0.0766  0.1606
  295MPD2     C 4495   4.244   0.657   0.899  0.0368 -0.2374 -0.3230
  295MPD2    C1 4496   4.126   0.703   0.849 -0.5223  0.6991 -0.9152
  295MPD2    C2 4497   4.014   0.714   0.929  0.6090 -0.6622  0.1415
  295MPD2    C3 4498   4.018   0.668   1.058 -0.6304 -0.1142 -0.1125
  295MPD2    C4 4499   4.138   0.640   1.117  0.1734 -0.2286  0.1649
  295MPD2    C5 4500   4.244   0.632   1.033  0.2940 -0.2489  0.0719
  295MPD2     H 4501   3.918   0.740   0.888  1.8135  3.1018 -0.3213
  295MPD2    H1 4502   4.144   0.618   1.222 -0.3278  0.5921  0.3670
  295MPD2    H2 4503   4.331   0.638   0.838  1.7438  3.2881  0.9777
  295MPD2    H3 4504   4.344   0.609   1.069  0.4401  1.3951  0.7291
  295MPD2     N 4505   3.905   0.680   1.142 -0.2786  0.3190  0.4542
  295MPD2    H5 4506   3.914   0.654   1.240  1.3260  0.1633  0.2732
  295MPD2    N1 4507   4.105   0.736   0.713 -0.0207  0.2962  0.3088
  295MPD2    H7 4508   4.018   0.782   0.691 -0.2697 -0.7863 -1.0025
  296TMC3    C1 4509   3.692   0.688   1.215  0.4566 -0.0430  0.6259
  296TMC3    C2 4510   3.577   0.766   1.221  0.6017  0.6967  0.0851
  296TMC3    C3 4511   3.464   0.697   1.244  0.5164  0.1244 -0.2988
  296TMC3    C4 4512   3.691   0.552   1.239  0.3344 -0.5884 -0.2813
  296TMC3    C5 4513   3.570   0.491   1.256  0.3834  0.0536 -0.6206
  296TMC3    C6 4514   3.452   0.554   1.253 -0.0394 -0.5629 -0.0817
  296TMC3     C 4515   3.778   0.725   1.107 -0.2150  0.0986  0.7388
  296TMC3     O 4516   3.745   0.804   1.023  0.1966 -0.4873 -0.0710
  296TMC3     H 4517   3.587   0.872   1.205 -0.5121  1.0849  2.0731
  296TMC3    H1 4518   3.785   0.497   1.245  1.6207  1.3158 -2.6647
  296TMC3    H2 4519   3.372   0.508   1.311  1.0121 -1.3579  0.7275
  296TMC3    C7 4520   3.572   0.346   1.290  0.8172 -0.6806 -0.2394
  296TMC3    C8 4521   3.335   0.764   1.255 -1.1977  0.1270  0.6505
  296TMC3    O1 4522   3.687   0.309   1.318 -0.2777 -0.1099  0.5891
  296TMC3    O2 4523   3.235   0.693   1.256 -0.8674 -0.2653 -0.2139
  297MPD2     C 4524   0.882   2.606  16.218  0.7679  0.3979  0.0814
  297MPD2    C1 4525   0.904   2.656  16.093  0.3843  0.3515 -0.1470
  297MPD2    C2 4526   1.017   2.734  16.073 -0.6586 -0.1483 -0.3064
  297MPD2    C3 4527   1.104   2.778  16.170 -0.4015 -0.1785  0.6033
  297MPD2    C4 4528   1.077   2.728  16.300  0.3453 -0.2569  0.5684
  297MPD2    C5 4529   0.967   2.646  16.320  0.0200  0.2557 -0.6389
  297MPD2     H 4530   1.025   2.784  15.977 -0.7014 -3.1534 -1.8771
  297MPD2    H1 4531   1.130   2.763  16.388  1.4863 -1.0771  0.2127
  297MPD2    H2 4532   0.793   2.555  16.252  0.4551  1.3082  0.6096
  297MPD2    H3 4533   0.944   2.629  16.425 -0.5131  0.2243 -0.7628
  297MPD2     N 4534   1.213   2.865  16.138 -0.2564  0.2019 -0.1009
  297MPD2    H5 4535   1.232   2.883  16.040  0.5213  1.8411  0.3484
  297MPD2    N1 4536   0.815   2.653  15.987 -0.0002  0.1635  0.4043
  297MPD2    H7 4537   0.828   2.714  15.906  0.4936 -0.4767 -0.0016
  298TMC3    C1 4538   0.606   2.647  15.898 -0.7224 -0.5908  0.3346
  298TMC3    C2 4539   0.640   2.682  15.770  0.7133 -0.3111 -0.5391
  298TMC3    C3 4540   0.548   2.760  15.703  0.3973  0.9797  0.5054
  298TMC3    C4 4541   0.482   2.681  15.945  0.0163 -0.3449 -0.6543
  298TMC3    C5 4542   0.390   2.742  15.876 -0.3648 -0.3143 -0.6666
  298TMC3    C6 4543   0.419   2.791  15.751 -0.0666  0.3778 -0.1262
  298TMC3     C 4544   0.693   2.594  15.998 -0.0527  0.2982 -0.5481
  298TMC3     O 4545   0.634   2.526  16.080  0.8370  0.5386  0.1598
  298TMC3     H 4546   0.738   2.674  15.725  1.1205 -0.4590  0.3571
  298TMC3    H1 4547   0.448   2.646  16.041  1.9925 -0.2270  0.0995
  298TMC3    H2 4548   0.359   2.863  15.697 -2.1862 -1.4350 -0.1737
  298TMC3    C7 4549   0.291   2.808  15.961 -0.0488 -0.4239  0.7319
  298TMC3    C8 4550   0.566   2.748  15.561 -0.0621 -0.2216  0.1228
  298TMC3    O1 4551   0.324   2.831  16.077  0.0597 -0.3288 -0.1265
  298TMC3    O2 4552   0.679   2.721  15.524  0.3489  0.0724  0.5346
  299MPD2     C 4553   1.712   3.976   9.879 -0.5987  0.1246 -0.2292
  299MPD2    C1 4554   1.657   3.862   9.927 -0.7993 -0.6651  0.6327
  299MPD2    C2 4555   1.520   3.835   9.915  0.0342 -0.5608 -0.1874
  299MPD2    C3 4556   1.438   3.933   9.852  1.1493  0.5405 -1.0112
  299MPD2    C4 4557   1.496   4.043   9.794 -0.6262 -0.6804  0.2357
  299MPD2    C5 4558   1.633   4.066   9.813 -0.2855  0.2234  0.0019
  299MPD2     H 4559   1.478   3.745   9.959  0.3640  1.0139  3.4026
  299MPD2    H1 4560   1.456   4.112   9.720 -1.3876 -0.7809  0.5476
  299MPD2    H2 4561   1.818   3.994   9.867  0.0497 -2.8771  1.0204
  299MPD2    H3 4562   1.677   4.150   9.760  0.3423  0.9251  1.6370
  299MPD2     N 4563   1.302   3.914   9.819  0.6672  0.2218  0.1874
  299MPD2    H5 4564   1.262   3.993   9.770 -0.7241 -1.2920 -1.0992
  299MPD2    N1 4565   1.751   3.776   9.996 -0.1723 -0.2891  0.2614
  299MPD2    H7 4566   1.848   3.803  10.011 -0.0998  0.1707 -1.0161
  300TMC3    C1 4567   1.092   3.816   9.781 -0.4408  0.1275  0.4105
  300TMC3    C2 4568   1.039   3.927   9.840  0.1678 -0.1240 -0.1236
  300TMC3    C3 4569   0.930   3.913   9.919  0.3270  0.7714 -0.3539
  300TMC3    C4 4570   1.028   3.696   9.800  0.1347 -0.4030  0.5425
  300TMC3    C5 4571   0.911   3.695   9.876  0.8225  0.0861 -0.0180
  300TMC3    C6 4572   0.860   3.799   9.939 -0.0235  0.0341 -0.2133
  300TMC3     C 4573   1.234   3.799   9.817 -0.3376 -0.3496 -0.5828
  300TMC3     O 4574   1.273   3.688   9.845  0.3478 -0.2723  0.3912
  300TMC3     H 4575   1.091   4.022   9.831  0.4659 -0.2214  0.5444
  300TMC3    H1 4576   1.075   3.603   9.769  0.1912  0.4286 -1.8412
  300TMC3    H2 4577   0.773   3.800  10.003 -0.8198  5.0709 -1.3578
  300TMC3    C7 4578   0.858   3.559   9.897 -0.3045  0.3065 -0.0550
  300TMC3    C8 4579   0.900   4.032  10.008 -0.4563 -0.1009  0.3833
  300TMC3    O1 4580   0.881   3.475   9.812  0.0825 -0.3817  0.2940
  300TMC3    O2 4581   0.996   4.086  10.052 -0.6224 -0.3507 -0.3006
  301MPD2     C 4582   3.925   4.296   1.163  0.1222 -0.1996  0.7418
  301MPD2    C1 4583   3.849   4.258   1.052 -0.1035  0.0002 -0.6996
  301MPD2    C2 4584   3.863   4.122   1.006 -0.3360  1.0518  0.4797
  301MPD2    C3 4585   3.956   4.033   1.056  0.0212 -0.6067  0.4640
  301MPD2    C4 4586   4.027   4.075   1.165  0.0759 -0.0993  0.7004
  301MPD2    C5 4587   4.010   4.200   1.217  0.0704 -0.7998  0.1493
  301MPD2     H 4588   3.801   4.098   0.921  0.8137 -3.0781  0.7883
  301MPD2    H1 4589   4.107   4.012   1.203  1.8958  0.4607 -2.1475
  301MPD2    H2 4590   3.918   4.394   1.208 -2.6162 -0.4156  0.7932
  301MPD2    H3 4591   4.070   4.229   1.302  0.1679  2.0461 -0.8836
  301MPD2     N 4592   3.966   3.901   1.015  0.2553  0.0695  0.2426
  301MPD2    H5 4593   4.032   3.845   1.069 -1.6444 -2.2769  0.1260
  301MPD2    N1 4594   3.753   4.339   0.987  0.3476  0.0964 -0.1017
  301MPD2    H7 4595   3.714   4.306   0.899  3.1882  2.0383 -2.1025
  302TMC3    C1 4596   3.911   3.699   0.902  0.2560  0.2948 -0.3983
  302TMC3    C2 4597   3.966   3.624   1.004 -0.6132  0.0239 -0.0780
  302TMC3    C3 4598   4.000   3.490   0.978  0.2005 -0.0899  0.0705
  302TMC3    C4 4599   3.877   3.642   0.784  0.3872  0.4182 -0.0771
  302TMC3    C5 4600   3.910   3.514   0.764  0.4416 -0.1732 -0.1132
  302TMC3    C6 4601   3.977   3.434   0.857  0.4051 -0.4363  0.8034
  302TMC3     C 4602   3.893   3.841   0.908  0.3513 -0.4151  0.4788
  302TMC3     O 4603   3.826   3.884   0.812  0.1606  0.2996 -0.3173
  302TMC3     H 4604   3.993   3.679   1.093 -2.2066  2.8163 -1.3347
  302TMC3    H1 4605   3.836   3.699   0.702 -1.9812  0.3388  1.0332
  302TMC3    H2 4606   3.985   3.326   0.854 -1.5519 -0.5597  0.0232
  302TMC3    C7 4607   3.842   3.449   0.666 -0.4152 -0.1362 -0.6139
  302TMC3    C8 4608   4.046   3.408   1.090  0.1059 -0.0489  0.4377
  302TMC3    O1 4609   3.906   3.365   0.603  0.1577  0.7896  0.2721
  302TMC3    O2 4610   4.054   3.287   1.078  0.2116  0.0515 -0.0696
  303MPD2     C 4611   3.684   3.056  10.394  0.0249  0.6162  0.0762
  303MPD2    C1 4612   3.677   2.925  10.339  0.7683  0.5454  0.1713
  303MPD2    C2 4613   3.788   2.868  10.282 -0.3351  0.1262 -0.1906
  303MPD2    C3 4614   3.899   2.946  10.263  0.2913 -0.8795 -0.8145
  303MPD2    C4 4615   3.901   3.076  10.312 -0.2067  0.9127 -0.6482
  303MPD2    C5 4616   3.798   3.134  10.376 -0.0339 -0.3278 -0.0319
  303MPD2     H 4617   3.790   2.764  10.253 -0.5096  0.1284 -0.2107
  303MPD2    H1 4618   3.990   3.136  10.293  0.9239 -0.3777  0.6068
  303MPD2    H2 4619   3.609   3.094  10.463 -1.3330 -0.4305 -0.8295
  303MPD2    H3 4620   3.803   3.235  10.415  1.6091 -0.9667  1.4239
  303MPD2     N 4621   4.019   2.907  10.204 -0.0887  0.7630 -0.0272
  303MPD2    H5 4622   4.084   2.983  10.189  1.2924 -0.9915 -2.7184
  303MPD2    N1 4623   3.564   2.853  10.386  0.2817 -0.4864  0.3678
  303MPD2    H7 4624   3.498   2.888  10.455  2.0333  1.4012  1.1085
  304TMC3    C1 4625   3.451   2.655  10.434 -0.0273 -0.3378 -0.3464
  304TMC3    C2 4626   3.369   2.560  10.381  0.3723 -0.1661  0.3998
  304TMC3    C3 4627   3.334   2.452  10.457 -0.6419 -0.3899  0.2419
  304TMC3    C4 4628   3.505   2.648  10.561 -0.5755  0.1404 -0.4011
  304TMC3    C5 4629   3.465   2.542  10.642 -0.6195  0.0324 -0.7037
  304TMC3    C6 4630   3.375   2.449  10.589  0.6570  0.4806 -0.7030
  304TMC3     C 4631   3.539   2.727  10.341  0.4488 -1.2655  0.8753
  304TMC3     O 4632   3.580   2.663  10.245 -0.0666 -0.0990 -0.3273
  304TMC3     H 4633   3.334   2.571  10.279  1.5687 -0.4621 -0.0415
  304TMC3    H1 4634   3.558   2.731  10.607 -0.3337  1.0826 -2.4011
  304TMC3    H2 4635   3.348   2.358  10.641 -0.5373  1.7005  0.7897
  304TMC3    C7 4636   3.576   2.473  10.710 -0.1529 -0.1150  0.0573
  304TMC3    C8 4637   3.350   2.326  10.389 -0.3087 -0.5531  1.2547
  304TMC3    O1 4638   3.558   2.355  10.718 -0.1145 -0.3041 -0.6743
  304TMC3    O2 4639   3.320   2.328  10.271  0.5004  0.1375  0.3571
  305MPD2     C 4640   2.052   4.240  14.055 -0.5446 -0.6650 -0.5259
  305MPD2    C1 4641   2.089   4.110  14.083 -0.9592 -0.2497  0.0576
  305MPD2    C2 4642   2.095   4.013  13.983  0.4060  0.4923 -0.2484
  305MPD2    C3 4643   2.048   4.045  13.858 -0.0478  0.1675  0.4121
  305MPD2    C4 4644   1.988   4.164  13.831 -0.0050  0.4000  0.4619
  305MPD2    C5 4645   1.994   4.255  13.928  0.7744 -0.2810  0.4414
  305MPD2     H 4646   2.130   3.915  14.015  0.9134  0.0839 -2.0932
  305MPD2    H1 4647   1.947   4.190  13.734  1.8664  1.8477  0.0608
  305MPD2    H2 4648   2.048   4.320  14.127  1.1111 -0.0492 -1.1303
  305MPD2    H3 4649   1.940   4.348  13.916  0.2662 -0.7673 -0.9665
  305MPD2     N 4650   2.055   3.965  13.743  0.5794 -0.1662  0.2307
  305MPD2    H5 4651   2.018   4.006  13.658 -0.9403 -0.0197  0.9658
  305MPD2    N1 4652   2.134   4.083  14.218  0.3648  0.2294 -0.1246
  305MPD2    H7 4653   2.126   4.162  14.281 -0.2454 -1.3234  1.7275
  306TMC3    C1 4654   2.211   3.973  14.409 -0.6357  0.1305  0.0828
  306TMC3    C2 4655   2.295   3.877  14.462  0.6353 -0.5029 -0.3819
  306TMC3    C3 4656   2.358   3.904  14.578  0.2489 -0.6266  0.5197
  306TMC3    C4 4657   2.192   4.092  14.478 -0.4507 -0.2468 -0.1462
  306TMC3    C5 4658   2.265   4.124  14.590  0.2446  0.0535  0.8667
  306TMC3    C6 4659   2.360   4.031  14.633  0.3852 -0.9891 -0.1690
  306TMC3     C 4660   2.173   3.957  14.267  0.1918 -0.0661 -0.2049
  306TMC3     O 4661   2.181   3.847  14.212 -0.3196 -0.1607  0.3102
  306TMC3     H 4662   2.314   3.783  14.412  0.3339 -0.9508  0.3616
  306TMC3    H1 4663   2.115   4.165  14.457 -0.4121 -0.2866 -0.4222
  306TMC3    H2 4664   2.436   4.048  14.709 -0.3178  1.4717 -0.0357
  306TMC3    C7 4665   2.219   4.228  14.685 -0.1220 -0.0220 -0.4065
  306TMC3    C8 4666   2.462   3.809  14.605 -0.3133 -0.1712  0.3822
  306TMC3    O1 4667   2.120   4.289  14.645  0.0956  0.5787  0.6316
  306TMC3    O2 4668   2.508   3.740  14.513  0.1051  0.0172 -0.4903
  307MPD2     C 4669   4.286   1.651   1.404  0.7092 -0.3157  0.3216
  307MPD2    C1 4670   4.321   1.780   1.415  0.3015  0.2761  0.4251
  307MPD2    C2 4671   4.222   1.878   1.389  0.3461  0.9891  0.5705
  307MPD2    C3 4672   4.092   1.847   1.361 -0.1999  0.1167 -0.8321
  307MPD2    C4 4673   4.061   1.712   1.357 -0.5882  0.3648 -0.4069
  307MPD2    C5 4674   4.158   1.617   1.379  0.5691  0.2055 -0.3515
  307MPD2     H 4675   4.244   1.984   1.387  3.6125  0.3148  0.5499
  307MPD2    H1 4676   3.963   1.685   1.318 -0.4041 -1.2975  0.2739
  307MPD2    H2 4677   4.356   1.570   1.418  1.2119 -0.2677 -1.8474
  307MPD2    H3 4678   4.136   1.512   1.371  0.2921  0.2340  0.0475
  307MPD2     N 4679   3.985   1.934   1.325  0.4277 -0.0409 -0.1799
  307MPD2    H5 4680   3.900   1.881   1.311  0.4798 -0.4577  1.1604
  307MPD2    N1 4681   4.451   1.821   1.434  0.1820  0.0798 -0.1370
  307MPD2    H7 4682   4.464   1.922   1.437  1.5509 -0.1079  0.2520
  308TMC3    C1 4683   3.659   2.150   1.202 -0.7092  0.5788  0.3331
  308TMC3    C2 4684   3.636   2.277   1.245 -0.7174 -0.1129  0.6030
  308TMC3    C3 4685   3.729   2.330   1.330 -0.0768  0.4808 -0.6767
  308TMC3    C4 4686   3.753   2.070   1.260  0.0969  0.1481  0.1040
  308TMC3    C5 4687   3.856   2.134   1.334 -0.1984 -0.3636 -0.1391
  308TMC3    C6 4688   3.846   2.264   1.367  0.4413 -0.0350  0.6060
  308TMC3     C 4689   3.667   2.148   1.054 -1.0164 -0.0106  0.0429
  308TMC3     O 4690   3.690   2.035   1.015 -0.7746  0.3792 -0.8104
  308TMC3     H 4691   3.560   2.341   1.201  0.2374  1.1595  0.8009
  308TMC3    H1 4692   3.765   1.971   1.219 -0.4659 -0.0987  0.5506
  308TMC3    H2 4693   3.901   2.312   1.447  3.0448 -1.9987 -0.0550
  308TMC3    C7 4694   3.986   2.067   1.349 -0.0762 -0.3765 -0.1030
  308TMC3    C8 4695   3.731   2.475   1.320 -0.3535 -0.5345 -1.1974
  308TMC3    O1 4696   4.072   2.132   1.404 -0.6426  0.1010 -0.3653
  308TMC3    O2 4697   3.636   2.540   1.365 -0.3708  1.2583 -0.9685
  309MPD2     C 4698   4.122   2.723  17.153  0.1458 -0.5634  0.3586
  309MPD2    C1 4699   4.079   2.827  17.066  0.1645 -0.7113  0.0369
  309MPD2    C2 4700   3.982   2.918  17.109 -0.1149 -0.1610 -0.2247
  309MPD2    C3 4701   3.926   2.903  17.232  0.6370 -0.4445 -0.3622
  309MPD2    C4 4702   3.968   2.806  17.319  0.0584 -0.3556  0.3590
  309MPD2    C5 4703   4.065   2.715  17.275  0.1216  0.0275 -0.0470
  309MPD2     H 4704   3.956   3.002  17.045  0.3496  0.2030  0.0629
  309MPD2    H1 4705   3.925   2.790  17.417 -2.1877 -0.7512 -0.6901
  309MPD2    H2 4706   4.201   2.653  17.129  1.1795  0.5499  0.5055
  309MPD2    H3 4707   4.100   2.642  17.348 -0.6535 -0.1574  0.1407
  309MPD2     N 4708   3.817   2.973  17.280  0.0927  0.0055 -0.7068
  309MPD2    H5 4709   3.789   2.964  17.378  0.9351 -0.3943 -0.4982
  309MPD2    N1 4710   4.131   2.840  16.936  0.6707 -0.2826 -0.4236
  309MPD2    H7 4711   4.122   2.927  16.883  0.7583  0.9387  1.5831
  310TMC3    C1 4712   4.234   2.780  16.745 -0.6099  0.4059 -0.5286
  310TMC3    C2 4713   4.166   2.840  16.645 -0.0013 -0.1733 -0.2984
  310TMC3    C3 4714   4.220   2.839  16.517 -0.1239  0.7674  0.4826
  310TMC3    C4 4715   4.358   2.727  16.723  0.0284  0.0336  0.3269
  310TMC3    C5 4716   4.405   2.719  16.594  0.4310  0.3452  0.0772
  310TMC3    C6 4717   4.342   2.776  16.480  0.2772  0.4102 -0.5018
  310TMC3     C 4718   4.173   2.733  16.864  0.0132 -0.3463 -0.1567
  310TMC3     O 4719   4.191   2.617  16.894  0.1475  0.8312  0.3175
  310TMC3     H 4720   4.073   2.891  16.665  1.6747  2.8172 -0.2007
  310TMC3    H1 4721   4.414   2.679  16.803 -1.2372 -0.8844  0.6602
  310TMC3    H2 4722   4.384   2.785  16.381 -2.2979  0.4520 -1.5892
  310TMC3    C7 4723   4.495   2.609  16.555 -0.2443  0.0625 -0.4488
  310TMC3    C8 4724   4.133   2.891  16.408  0.0135 -0.0322  0.2351
  310TMC3    O1 4725   4.484   2.576  16.436 -0.0045  0.3803  0.0699
  310TMC3    O2 4726   4.011   2.890  16.431  0.1578 -0.4108 -0.5407
  311MPD2     C 4727   1.177   3.878  12.877  0.0904  0.2316  0.0160
  311MPD2    C1 4728   1.154   3.999  12.813 -0.2649  0.3468  0.2585
  311MPD2    C2 4729   1.022   4.051  12.823 -0.6164  0.1747 -0.3193
  311MPD2    C3 4730   0.933   3.987  12.900  0.2895 -0.2445  0.1070
  311MPD2    C4 4731   0.962   3.876  12.971  0.4014  0.6937  0.7376
  311MPD2    C5 4732   1.079   3.816  12.957  0.2399 -0.0795 -0.0016
  311MPD2     H 4733   0.993   4.140  12.769 -1.2366 -0.2499 -0.6732
  311MPD2    H1 4734   0.885   3.831  13.034  0.6988 -2.0968 -0.8918
  311MPD2    H2 4735   1.277   3.835  12.882  1.0446  2.4556  0.1304
  311MPD2    H3 4736   1.087   3.715  12.994  0.1348 -0.5878 -1.4084
  311MPD2     N 4737   0.812   4.053  12.910  1.0244  0.5960  0.0923
  311MPD2    H5 4738   0.796   4.118  12.834 -2.3780 -0.9127 -0.4925
  311MPD2    N1 4739   1.249   4.070  12.736 -0.0147 -0.4563 -0.0187
  311MPD2    H7 4740   1.218   4.156  12.692 -0.9146 -1.1419 -0.7497
  312TMC3    C1 4741   0.626   4.141  13.017 -0.0237 -0.2639 -0.5355
  312TMC3    C2 4742   0.535   4.111  12.915  0.5294 -0.4886 -0.0155
  312TMC3    C3 4743   0.408   4.155  12.933  0.1303 -0.7926  1.0452
  312TMC3    C4 4744   0.594   4.197  13.140 -0.0011  0.0644 -0.1109
  312TMC3    C5 4745   0.461   4.238  13.151  0.3174 -0.8132 -0.7909
  312TMC3    C6 4746   0.376   4.222  13.046  0.5292  0.6162  0.1271
  312TMC3     C 4747   0.741   4.056  13.024  0.1277 -0.1693  0.4128
  312TMC3     O 4748   0.770   4.011  13.135 -0.3126 -0.0443  0.3585
  312TMC3     H 4749   0.552   4.049  12.828  3.4633  0.3492 -0.0638
  312TMC3    H1 4750   0.671   4.230  13.209 -0.9300  0.3399  0.7949
  312TMC3    H2 4751   0.283   4.275  13.059  0.1123  0.5544 -2.6114
  312TMC3    C7 4752   0.405   4.296  13.275 -0.4696 -0.3442  0.1272
  312TMC3    C8 4753   0.292   4.087  12.882 -0.6259  1.1019  0.9489
  312TMC3    O1 4754   0.280   4.313  13.280 -0.0759 -0.0586  0.6316
  312TMC3    O2 4755   0.297   4.037  12.775  0.3145  0.3331 -0.4484
  313MPD2     C 4756   0.223   3.644  11.522 -0.5485  0.1586 -0.2422
  313MPD2    C1 4757   0.331   3.701  11.455  0.5873  0.2096  0.2257
  313MPD2    C2 4758   0.385   3.643  11.343 -0.4188 -0.3703 -0.0721
  313MPD2    C3 4759   0.330   3.533  11.289 -0.1510  0.1489 -0.0959
  313MPD2    C4 4760   0.225   3.473  11.354 -0.0584 -0.1304  0.7525
  313MPD2    C5 4761   0.173   3.526  11.468 -0.3233  0.3890 -0.7259
  313MPD2     H 4762   0.466   3.692  11.290 -1.9524 -0.5949 -2.6488
  313MPD2    H1 4763   0.184   3.378  11.323  1.3632 -1.0130  1.5772
  313MPD2    H2 4764   0.193   3.683  11.618 -2.7769 -1.5868 -0.2540
  313MPD2    H3 4765   0.101   3.474  11.530 -0.5744 -0.6405 -1.8787
  313MPD2     N 4766   0.366   3.484  11.159  0.6863 -0.1388  0.2406
  313MPD2    H5 4767   0.452   3.518  11.118  0.3995  0.3604  0.0524
  313MPD2    N1 4768   0.373   3.828  11.501  0.4457 -0.1054  0.2785
  313MPD2    H7 4769   0.443   3.860  11.436 -1.2067  1.0363 -0.9378
  314TMC3    C1 4770   0.364   4.049  11.542 -0.3199  0.3010 -0.2380
  314TMC3    C2 4771   0.501   4.063  11.507 -0.1464 -0.5113  0.9939
  314TMC3    C3 4772   0.552   4.184  11.479 -0.2558 -0.3404 -0.3397
  314TMC3    C4 4773   0.288   4.158  11.543  0.2074  0.1447  0.0031
  314TMC3    C5 4774   0.333   4.275  11.492 -0.1414 -0.1292  0.0480
  314TMC3    C6 4775   0.467   4.292  11.471  0.1657  0.2447  0.0181
  314TMC3     C 4776   0.313   3.916  11.578 -0.1394  0.0529  0.3504
  314TMC3     O 4777   0.211   3.911  11.646 -0.0078  0.2685 -0.3324
  314TMC3     H 4778   0.561   3.973  11.492  0.1575  0.5026 -4.0987
  314TMC3    H1 4779   0.181   4.149  11.557 -0.1418 -0.5920 -3.0110
  314TMC3    H2 4780   0.506   4.384  11.430  1.6097 -0.7897 -0.9222
  314TMC3    C7 4781   0.238   4.308  11.389  0.0495  0.7090  0.8679
  314TMC3    C8 4782   0.676   4.197  11.403  0.8215  0.3854 -0.4201
  314TMC3    O1 4783   0.120   4.274  11.398  0.2203 -0.7432  0.2222
  314TMC3    O2 4784   0.681   4.276  11.316 -0.0373 -0.2483  0.0053
  315MPD2     C 4785   0.030   1.976  17.345  0.0741  0.2985  0.1995
  315MPD2    C1 4786   0.113   2.024  17.448 -0.4540  0.1900 -0.3234
  315MPD2    C2 4787   0.132   2.164  17.451  0.0312  0.2856 -0.5044
  315MPD2    C3 4788   0.084   2.250  17.355 -0.4735  0.5890 -0.2728
  315MPD2    C4 4789   4.733   2.201  17.265  0.1535  0.4191  0.1769
  315MPD2    C5 4790   4.716   2.065  17.251  0.5848  0.8964  0.0306
  315MPD2     H 4791   0.201   2.209  17.521  2.4495 -1.0809 -1.9892
  315MPD2    H1 4792   4.678   2.270  17.202 -0.2638 -0.4475 -0.4091
  315MPD2    H2 4793   0.009   1.871  17.326  2.5160 -0.2158  0.2979
  315MPD2    H3 4794   4.642   2.029  17.180 -1.2556  1.6302  1.5621
  315MPD2     N 4795   0.127   2.382  17.351  0.0223 -0.0292 -0.0835
  315MPD2    H5 4796   0.176   2.420  17.432  0.5918 -0.0652 -0.4057
  315MPD2    N1 4797   0.189   1.941  17.537  0.5182  0.1355  0.0964
  315MPD2    H7 4798   0.255   1.990  17.597  0.1341  2.2062 -1.1797
  316TMC3    C1 4799   0.132   2.612  17.270 -0.6079 -0.8200 -0.0629
  316TMC3    C2 4800   0.164   2.665  17.393  0.3868  0.7007  0.1693
  316TMC3    C3 4801   0.198   2.797  17.404  0.1464  0.0408  0.0879
  316TMC3    C4 4802   0.127   2.689  17.157  0.5648 -0.9793 -0.2947
  316TMC3    C5 4803   0.147   2.824  17.177  0.1270 -0.3870  0.0243
  316TMC3    C6 4804   0.192   2.876  17.297  0.2471 -0.2094 -0.2599
  316TMC3     C 4805   0.094   2.473  17.252 -0.2694  0.3643 -0.0490
  316TMC3     O 4806   0.067   2.442  17.138  0.3286  0.6732 -0.0126
  316TMC3     H 4807   0.159   2.604  17.482 -0.9807 -0.0255 -0.4064
  316TMC3    H1 4808   0.089   2.651  17.063  1.1900 -0.6618 -0.6734
  316TMC3    H2 4809   0.224   2.980  17.301 -2.6550  0.6938 -0.8025
  316TMC3    C7 4810   0.160   2.906  17.060 -0.1969 -0.2694  0.2534
  316TMC3    C8 4811   0.269   2.829  17.526 -0.3835  0.2936 -0.8429
  316TMC3    O1 4812   0.143   3.026  17.069  0.4433  0.0285 -0.1755
  316TMC3    O2 4813   0.290   2.748  17.612 -0.1713 -0.0262 -0.5593
  317MPD2     C 4814   1.753   1.278  12.939  0.1592  0.4403 -0.2285
  317MPD2    C1 4815   1.825   1.167  12.898 -0.3981  0.2506 -0.3390
  317MPD2    C2 4816   1.879   1.081  12.991  0.1814  0.7829  0.8542
  317MPD2    C3 4817   1.865   1.102  13.125  0.1718 -0.0381  0.0073
  317MPD2    C4 4818   1.795   1.218  13.165 -0.1502  0.2212 -0.6223
  317MPD2    C5 4819   1.743   1.303  13.077 -0.3819 -0.1757  0.2481
  317MPD2     H 4820   1.935   0.998  12.950 -1.7416 -0.0051 -0.1993
  317MPD2    H1 4821   1.768   1.235  13.269 -0.6232 -1.0222 -0.5314
  317MPD2    H2 4822   1.724   1.369  12.888 -2.3347 -0.6533 -0.7206
  317MPD2    H3 4823   1.691   1.393  13.110  0.4802  0.1206  0.7855
  317MPD2     N 4824   1.926   1.013  13.211  1.1638 -0.2315  0.0929
  317MPD2    H5 4825   1.979   0.936  13.171  0.7281  0.5149 -1.9171
  317MPD2    N1 4826   1.848   1.145  12.759  0.5900  0.2270  0.0384
  317MPD2    H7 4827   1.887   1.056  12.729 -0.6791 -0.9041  1.7821
  318TMC3    C1 4828   2.008   0.910  13.398  0.6653  0.3901  0.3367
  318TMC3    C2 4829   1.980   0.785  13.348 -0.5408  0.3311 -0.2868
  318TMC3    C3 4830   2.064   0.685  13.379  0.2422 -0.1257  0.2035
  318TMC3    C4 4831   2.114   0.936  13.483 -0.5210  0.5728  0.1433
  318TMC3    C5 4832   2.200   0.827  13.505 -0.0685  0.5515  0.2611
  318TMC3    C6 4833   2.171   0.704  13.459  0.4954  0.0877 -0.1098
  318TMC3     C 4834   1.936   1.017  13.346  0.2464  0.5088 -0.0634
  318TMC3     O 4835   1.909   1.115  13.412 -0.3930 -0.5535  0.1954
  318TMC3     H 4836   1.894   0.766  13.285  0.4744 -0.2974 -1.4742
  318TMC3    H1 4837   2.134   1.042  13.495  1.2405  0.2512  0.0466
  318TMC3    H2 4838   2.245   0.626  13.467 -0.4769 -0.6588  1.6489
  318TMC3    C7 4839   2.306   0.861  13.606  0.0050 -0.8617 -0.6674
  318TMC3    C8 4840   2.047   0.561  13.321  0.7776 -0.8256  0.4002
  318TMC3    O1 4841   2.312   0.981  13.644 -0.5631  0.2768  0.1253
  318TMC3    O2 4842   2.099   0.462  13.367 -0.1157 -0.2641 -0.3882
  319MPD2     C 4843   3.323   2.301  16.628 -0.7075  0.4012  0.5145
  319MPD2    C1 4844   3.230   2.215  16.689  0.6846  0.8998  1.0589
  319MPD2    C2 4845   3.159   2.125  16.612  0.2819 -0.1871 -0.2041
  319MPD2    C3 4846   3.185   2.113  16.476  0.2130  0.6104 -0.2458
  319MPD2    C4 4847   3.269   2.202  16.418 -0.8061  0.0521  0.7172
  319MPD2    C5 4848   3.336   2.296  16.493  0.1984  1.1117  0.0774
  319MPD2     H 4849   3.076   2.071  16.657 -0.8182  0.2337 -1.7301
  319MPD2    H1 4850   3.283   2.194  16.311 -1.3136 -0.0670  0.6639
  319MPD2    H2 4851   3.376   2.376  16.686  0.4539 -1.0833  1.3935
  319MPD2    H3 4852   3.400   2.374  16.454  0.9975 -0.0460 -0.9214
  319MPD2     N 4853   3.108   2.028  16.392  0.0927 -0.5509 -0.3743
  319MPD2    H5 4854   3.120   2.048  16.294  0.1081 -0.6080 -0.3839
  319MPD2    N1 4855   3.208   2.216  16.830 -0.2020 -0.7655  0.3922
  319MPD2    H7 4856   3.163   2.134  16.870  0.2028 -2.2619 -2.1710
  320TMC3    C1 4857   2.946   1.863  16.329 -0.4409  0.8450 -0.4327
  320TMC3    C2 4858   2.883   1.948  16.246  0.9370  0.6100  0.2361
  320TMC3    C3 4859   2.809   1.899  16.139  0.2065  0.1212  0.0329
  320TMC3    C4 4860   2.916   1.730  16.323  0.0369  0.1666 -0.5346
  320TMC3    C5 4861   2.827   1.686  16.223 -0.1037 -0.5490  0.2650
  320TMC3    C6 4862   2.772   1.764  16.135 -0.4063 -0.3092 -0.0885
  320TMC3     C 4863   3.039   1.917  16.427  0.0176  0.4270 -0.2491
  320TMC3     O 4864   3.046   1.862  16.537  0.4339 -0.2700 -0.1606
  320TMC3     H 4865   2.904   2.053  16.258  2.0498  0.4942 -0.6637
  320TMC3    H1 4866   2.964   1.666  16.396  2.2096  0.7554 -1.4637
  320TMC3    H2 4867   2.711   1.719  16.057  0.5810  0.0181 -1.0576
  320TMC3    C7 4868   2.871   1.553  16.173 -0.5213  0.1299  0.0974
  320TMC3    C8 4869   2.758   1.990  16.038 -0.1028 -0.5539 -0.7339
  320TMC3    O1 4870   2.983   1.542  16.119 -0.6957 -0.7597  0.3026
  320TMC3    O2 4871   2.759   2.106  16.073 -0.0283 -0.0311  0.3334
  321TMC3    C1 4872   3.210   2.291  17.051 -0.4686  0.5237  0.0537
  321TMC3    C2 4873   3.121   2.190  17.089  0.4518  0.0275 -0.4069
  321TMC3    C3 4874   3.096   2.171  17.219 -0.6996  0.1927  0.6900
  321TMC3    C4 4875   3.273   2.368  17.151  0.0444  0.0767  0.2845
  321TMC3    C5 4876   3.236   2.346  17.279 -0.3579 -0.3148  0.5232
  321TMC3    C6 4877   3.142   2.258  17.314 -0.7951  0.7976  0.5778
  321TMC3     C 4878   3.265   2.303  16.917  0.7716  0.1484 -0.5974
  321TMC3     O 4879   3.347   2.392  16.901  0.3287  0.3252 -0.0649
  321TMC3     H 4880   3.068   2.127  17.018  0.1984 -1.2957  0.9601
  321TMC3    H1 4881   3.360   2.431  17.132  0.7491 -1.0494 -0.1923
  321TMC3    H2 4882   3.105   2.243  17.415  1.9499  0.8446  1.5894
  321TMC3    C7 4883   3.346   2.336  17.379 -0.0440  0.3625 -0.0104
  321TMC3    C8 4884   3.093   2.028  17.260 -0.5606  0.0359  0.1061
  321TMC3    O1 4885   3.343   2.228  17.435  0.5898  0.1445  0.2707
  321TMC3    O2 4886   3.048   1.944  17.187  0.0682  0.0431 -0.0832
  322MPD2     C 4887   2.122   3.364  13.849  0.2306 -0.0291 -0.6014
  322MPD2    C1 4888   2.098   3.302  13.966  0.4816 -0.4015  0.7363
  322MPD2    C2 4889   2.062   3.168  13.979  0.1023  0.8013 -0.3364
  322MPD2    C3 4890   2.064   3.093  13.864  0.8679 -0.4700 -0.7294
  322MPD2    C4 4891   2.082   3.152  13.740  0.1484  0.0244  0.8620
  322MPD2    C5 4892   2.112   3.286  13.731 -0.6126 -0.5650  0.2306
  322MPD2     H 4893   2.053   3.114  14.072 -1.9901  1.3923 -0.1911
  322MPD2    H1 4894   2.084   3.098  13.647  1.8569 -1.8355  1.9724
  322MPD2    H2 4895   2.153   3.468  13.843 -1.9655  0.8042  2.4454
  322MPD2    H3 4896   2.131   3.320  13.630  0.0613  0.8995  0.8543
  322MPD2     N 4897   2.045   2.952  13.875 -0.0162 -0.5964  0.0537
  322MPD2    H5 4898   1.996   2.924  13.959  0.0161 -3.6667 -0.9418
  322MPD2    N1 4899   2.119   3.381  14.087  0.3841  0.0931 -0.2351
  322MPD2    H7 4900   2.154   3.474  14.068  2.5921 -1.3729 -3.2918
  323TMC3    C1 4901   2.213   3.415  14.294  0.0931  0.1886  0.2206
  323TMC3    C2 4902   2.306   3.499  14.237 -0.1642  0.0283  0.2864
  323TMC3    C3 4903   2.427   3.507  14.293 -0.4137  0.5125  0.3853
  323TMC3    C4 4904   2.243   3.349  14.408  0.3186  0.5252  0.0994
  323TMC3    C5 4905   2.369   3.353  14.456 -0.0306  0.4048  0.1755
  323TMC3    C6 4906   2.466   3.427  14.395  0.5620  0.1417 -0.1757
  323TMC3     C 4907   2.126   3.331  14.213  0.5095 -0.8186 -0.3475
  323TMC3     O 4908   2.090   3.220  14.255 -0.3554 -0.4361  0.7111
  323TMC3     H 4909   2.284   3.555  14.147 -0.8621 -1.9948 -0.8111
  323TMC3    H1 4910   2.164   3.286  14.447  1.1926 -1.7496 -1.7789
  323TMC3    H2 4911   2.563   3.431  14.442  0.4704  1.2346 -0.0926
  323TMC3    C7 4912   2.425   3.236  14.523 -0.3387 -0.3017 -0.3034
  323TMC3    C8 4913   2.532   3.594  14.243 -0.1597  0.1211  0.1629
  323TMC3    O1 4914   2.536   3.203  14.475  0.9914  0.1917 -0.6249
  323TMC3    O2 4915   2.651   3.578  14.273 -0.0446 -0.2355  0.6191
  324MPD2     C 4916   3.388   4.071  14.672  0.2273 -1.0664 -0.0251
  324MPD2    C1 4917   3.417   4.175  14.581 -0.1704  0.3854 -0.2014
  324MPD2    C2 4918   3.314   4.235  14.515  0.1632 -0.0445  0.6879
  324MPD2    C3 4919   3.182   4.222  14.550 -0.8852  0.5075  0.2902
  324MPD2    C4 4920   3.155   4.126  14.646 -0.2850  0.2531 -0.9321
  324MPD2    C5 4921   3.255   4.052  14.704 -0.0342  0.3999  0.3580
  324MPD2     H 4922   3.359   4.308  14.449  0.4375 -0.7136  0.1361
  324MPD2    H1 4923   3.056   4.106  14.685 -0.9753  1.9390 -1.7920
  324MPD2    H2 4924   3.469   4.015  14.717  0.1733  0.0021  1.4018
  324MPD2    H3 4925   3.234   3.968  14.769  1.0652  1.2263  1.7788
  324MPD2     N 4926   3.075   4.308  14.502  0.1812  0.6415  0.0732
  324MPD2    H5 4927   2.988   4.296  14.552  0.0378 -0.5344 -0.4581
  324MPD2    N1 4928   3.546   4.211  14.533  0.2964 -0.0992 -0.0393
  324MPD2    H7 4929   3.557   4.293  14.474 -0.7604 -0.2379 -0.4098
  325TMC3    C1 4930   2.976   4.482  14.381 -0.2598  0.7298  0.0462
  325TMC3    C2 4931   2.864   4.422  14.325 -0.5096 -0.1470 -0.0513
  325TMC3    C3 4932   2.778   4.491  14.247  0.4321 -0.5144  0.0495
  325TMC3    C4 4933   2.998   4.609  14.343  0.0100 -0.5262 -0.0185
  325TMC3    C5 4934   2.906   4.677  14.268 -0.1985  0.0867 -0.2852
  325TMC3    C6 4935   2.788   4.627  14.219 -0.0277 -0.0448  0.2299
  325TMC3     C 4936   3.090   4.400  14.398  0.4659  0.2708  0.7814
  325TMC3     O 4937   3.185   4.430  14.323  0.8094 -0.2653  0.2753
  325TMC3     H 4938   2.835   4.321  14.351 -1.5178  0.7713  2.3461
  325TMC3    H1 4939   3.091   4.653  14.377 -0.1278  0.4689 -0.9311
  325TMC3    H2 4940   2.733   4.676  14.140 -0.7715 -1.4703 -0.1458
  325TMC3    C7 4941   2.945   0.075  14.247 -0.2670  0.5559  0.1740
  325TMC3    C8 4942   2.669   4.421  14.185  0.2455  0.1494  0.2255
  325TMC3    O1 4943   3.062   0.106  14.273  0.5497  0.6439 -0.0543
  325TMC3    O2 4944   2.670   4.302  14.180  0.3771  0.0393  0.1324
  326MPD2     C 4945   0.114   1.145  11.054 -0.1001 -0.3725 -0.4129
  326MPD2    C1 4946   0.152   1.184  10.926 -0.3954 -0.1333 -0.1867
  326MPD2    C2 4947   0.234   1.292  10.915 -0.0391  0.3931  0.1187
  326MPD2    C3 4948   0.279   1.363  11.017  0.4972 -0.2774 -0.3608
  326MPD2    C4 4949   0.237   1.327  11.148 -0.6377  0.4411 -0.1184
  326MPD2    C5 4950   0.146   1.219  11.164  0.3638 -0.5115  0.1631
  326MPD2     H 4951   0.276   1.314  10.817  0.9356  1.2836  0.7299
  326MPD2    H1 4952   0.268   1.380  11.237 -1.2412  0.0857  0.3011
  326MPD2    H2 4953   0.049   1.060  11.066 -0.4717 -0.3977 -2.5288
  326MPD2    H3 4954   0.111   1.196  11.264 -1.5723  2.6850  0.2088
  326MPD2     N 4955   0.373   1.466  11.012  0.0776 -0.2026  0.4483
  326MPD2    H5 4956   0.415   1.493  11.101 -0.3879 -0.5847  0.7886
  326MPD2    N1 4957   0.123   1.127  10.803  0.1229  0.0949  0.3056
  326MPD2    H7 4958   0.179   1.154  10.722 -0.2494  2.0888  0.7139
  327TMC3    C1 4959   0.034   0.970  10.659 -0.6168  0.2884  0.5951
  327TMC3    C2 4960   4.684   1.045  10.590  0.6511 -0.0248 -0.2198
  327TMC3    C3 4961   4.705   1.060  10.454 -0.0542 -0.1112 -0.8023
  327TMC3    C4 4962   0.150   0.924  10.606 -0.1154  0.2178 -0.0157
  327TMC3    C5 4963   0.177   0.946  10.478 -0.9003  0.1745  0.0207
  327TMC3    C6 4964   0.088   1.016  10.407 -0.0274 -0.5933  0.3288
  327TMC3     C 4965   0.039   1.020  10.792 -0.0725  0.6891 -0.0142
  327TMC3     O 4966   4.698   0.975  10.873  0.3267 -0.4133 -0.2722
  327TMC3     H 4967   4.600   1.098  10.634  0.4415  1.1044 -1.9872
  327TMC3    H1 4968   0.231   0.891  10.671 -1.9692 -2.4885  0.9258
  327TMC3    H2 4969   0.113   1.045  10.305  1.0890 -0.0081  0.7761
  327TMC3    C7 4970   0.310   0.955  10.425 -0.4766 -0.0584  0.0973
  327TMC3    C8 4971   4.662   1.189  10.407 -0.1539  0.1907  0.1876
  327TMC3    O1 4972   0.333   1.033  10.339  0.1313 -0.6058  0.2299
  327TMC3    O2 4973   0.009   1.264  10.366  0.6946 -0.3227  0.1197
  328MPD2     C 4974   2.842   0.940  17.224 -0.8597 -0.0165 -0.2638
  328MPD2    C1 4975   2.732   0.870  17.251  0.1746  0.1456 -0.2443
  328MPD2    C2 4976   2.654   0.829  17.145 -0.6839 -0.2017 -0.0819
  328MPD2    C3 4977   2.692   0.865  17.015 -0.4794 -0.0644 -0.0851
  328MPD2    C4 4978   2.803   0.943  16.995 -1.0240 -0.4250  0.1936
  328MPD2    C5 4979   2.883   0.977  17.098  0.5360 -0.4249 -0.0832
  328MPD2     H 4980   2.557   0.780  17.154 -1.1548  1.1204  1.9622
  328MPD2    H1 4981   2.830   0.979  16.896  2.1918  0.1423  1.2728
  328MPD2    H2 4982   2.907   0.970  17.306 -0.1734 -1.3484 -0.3235
  328MPD2    H3 4983   2.968   1.041  17.080 -0.7172  0.5213 -2.5082
  328MPD2     N 4984   2.611   0.851  16.901  0.2362 -0.2144  0.6784
  328MPD2    H5 4985   2.636   0.899  16.816 -0.4763 -0.5009  0.2984
  328MPD2    N1 4986   2.673   0.848  17.380  0.4350 -1.2514 -0.8030
  328MPD2    H7 4987   2.583   0.802  17.386  1.2345 -2.6614  0.3610
  329TMC3    C1 4988   2.662   0.866  17.616 -0.1695 -0.2504  0.4803
  329TMC3    C2 4989   2.665   0.946  17.720  0.8288 -0.4031  0.0225
  329TMC3    C3 4990   2.637   0.897   0.093  0.6710 -0.3625 -0.1198
  329TMC3    C4 4991   2.604   0.739  17.622  0.1026  0.4083  0.0994
  329TMC3    C5 4992   2.538   0.706  17.744  0.1219 -1.0092 -0.0541
  329TMC3    C6 4993   2.559   0.783   0.102  0.1548  0.0439  0.3783
  329TMC3     C 4994   2.723   0.911  17.493 -0.1593  0.2456  0.9872
  329TMC3     O 4995   2.811   0.997  17.505 -0.2908 -0.5724 -0.3093
  329TMC3     H 4996   2.690   1.051  17.710 -0.8966 -0.0772 -0.8817
  329TMC3    H1 4997   2.623   0.670  17.541 -0.3734  0.6739 -0.2392
  329TMC3    H2 4998   2.522   0.757   0.201 -1.2235 -0.0166 -0.1586
  329TMC3    C7 4999   2.447   0.590   0.003  0.3624  0.3872  0.0064
  329TMC3    C8 5000   2.593   1.005   0.184  0.1462  0.7294 -0.5512
  329TMC3    O1 5001   2.393   0.577   0.111 -0.6199  0.2953 -0.2881
  329TMC3    O2 5002   2.490   0.980   0.244 -0.0438 -0.3383  0.2750
  330TMC3    C1 5003   0.577   0.531   9.198  0.1011  0.1045 -0.2125
  330TMC3    C2 5004   0.445   0.488   9.214  0.2909 -0.1450  0.5988
  330TMC3    C3 5005   0.423   0.401   9.316 -0.0335 -0.2875 -0.9848
  330TMC3    C4 5006   0.674   0.467   9.265  0.0131  0.4977  0.0777
  330TMC3    C5 5007   0.651   0.367   9.360  0.0950 -0.0536 -0.2435
  330TMC3    C6 5008   0.522   0.333   9.387  0.3549 -0.1991  0.1291
  330TMC3     C 5009   0.596   0.673   9.169  0.0941 -0.1067 -0.4602
  330TMC3     O 5010   0.709   0.718   9.194  0.4048  0.2089  0.3527
  330TMC3     H 5011   0.361   0.547   9.179  0.3916  0.7338  1.8450
  330TMC3    H1 5012   0.775   0.500   9.244  1.1688 -2.3778  1.0491
  330TMC3    H2 5013   0.503   0.263   9.468 -0.3384 -0.0676  0.0840
  330TMC3    C7 5014   0.772   0.319   9.442  0.0905 -0.3144  0.4130
  330TMC3    C8 5015   0.289   0.341   9.326  0.1217  0.4056  0.3352
  330TMC3    O1 5016   0.871   0.384   9.421 -0.0651 -0.3480  0.3641
  330TMC3    O2 5017   0.206   0.363   9.237 -0.2189 -0.6200 -0.2439
  331MPD2     C 5018   2.718   4.357  12.196 -0.5018  0.1793  0.6159
  331MPD2    C1 5019   2.795   4.338  12.078 -0.1406 -0.3502  0.3585
  331MPD2    C2 5020   2.895   4.242  12.080  0.2074 -0.0005 -0.0814
  331MPD2    C3 5021   2.911   4.161  12.193  0.7220  0.2135  0.5598
  331MPD2    C4 5022   2.818   4.170  12.290 -0.0091  0.9664 -0.4376
  331MPD2    C5 5023   2.728   4.263  12.294  0.2881 -0.1219  0.3726
  331MPD2     H 5024   2.971   4.253  12.004 -1.1007 -0.9506 -1.5375
  331MPD2    H1 5025   2.817   4.093  12.367  1.6953  0.7086 -0.6745
  331MPD2    H2 5026   2.638   4.430  12.204  0.5590  1.4732 -0.5493
  331MPD2    H3 5027   2.674   4.276  12.387  1.8096  3.1025  0.8102
  331MPD2     N 5028   3.021   4.079  12.200  0.0715  0.3853 -0.2728
  331MPD2    H5 5029   3.092   4.098  12.130 -1.3525  1.9237 -1.3040
  331MPD2    N1 5030   2.793   4.430  11.971  0.6800 -0.1787  0.3607
  331MPD2    H7 5031   2.741   4.516  11.988 -1.2143 -1.1914 -0.2750
  332TMC3    C1 5032   3.178   3.928  12.282 -0.5701 -0.1193 -0.2268
  332TMC3    C2 5033   3.228   3.925  12.157 -0.6971  0.1699  0.0382
  332TMC3    C3 5034   3.351   3.858  12.132 -0.1245  0.4260 -0.4299
  332TMC3    C4 5035   3.233   3.851  12.378  1.0491 -0.7727  0.4061
  332TMC3    C5 5036   3.351   3.786  12.348 -0.0216 -0.2249  0.6019
  332TMC3    C6 5037   3.417   3.790  12.230  0.1855  0.4085 -0.1674
  332TMC3     C 5038   3.046   3.988  12.303 -0.7262  0.2895 -0.5459
  332TMC3     O 5039   2.975   3.939  12.386 -0.3521  0.3619 -0.0543
  332TMC3     H 5040   3.180   3.963  12.068 -2.5117 -0.7731  0.6153
  332TMC3    H1 5041   3.187   3.842  12.476 -0.2573  1.5422 -0.0002
  332TMC3    H2 5042   3.517   3.749  12.219 -0.0451  0.0995 -1.1150
  332TMC3    C7 5043   3.424   3.734  12.465 -0.3229 -0.1675  0.2351
  332TMC3    C8 5044   3.418   3.903  12.019 -0.3489 -0.0265  0.3797
  332TMC3    O1 5045   3.356   3.692  12.559  0.0310 -1.0067 -0.2884
  332TMC3    O2 5046   3.384   4.008  11.967 -0.0284 -0.3204  0.2166
  333MPD2     C 5047   3.494   4.560  11.227 -0.6863  0.7654 -0.5012
  333MPD2    C1 5048   3.575   4.454  11.188  0.3377 -0.4798  0.2928
  333MPD2    C2 5049   3.555   4.325  11.239  0.1013 -0.0200 -0.1923
  333MPD2    C3 5050   3.439   4.298  11.309  0.2692  0.7963 -0.0133
  333MPD2    C4 5051   3.358   4.405  11.345 -0.5043 -1.1305 -0.4235
  333MPD2    C5 5052   3.384   4.534  11.307 -0.2283  0.0522  0.0970
  333MPD2     H 5053   3.625   4.245  11.220  1.7655  1.4710 -0.3269
  333MPD2    H1 5054   3.276   4.398  11.415  0.7923  0.8345  1.3104
  333MPD2    H2 5055   3.517   4.661  11.197 -0.6815  1.2264  1.0595
  333MPD2    H3 5056   3.315   4.607  11.346  1.2367  1.0369  0.8699
  333MPD2     N 5057   3.419   4.159  11.358 -0.0480 -0.2379  0.3608
  333MPD2    H5 5058   3.502   4.105  11.339  0.2000 -0.0731  0.9816
  333MPD2    N1 5059   3.699   4.492  11.124  0.0797  0.0559 -0.5041
  333MPD2    H7 5060   3.711   4.588  11.094 -2.2497 -0.1215 -1.9769
  334TMC3    C1 5061   3.920   4.458  11.041 -0.3612 -0.3485 -0.3056
  334TMC3    C2 5062   4.031   4.413  11.101 -0.1777  0.3291 -0.0011
  334TMC3    C3 5063   4.122   4.511  11.126 -0.3333  0.3295 -0.4502
  334TMC3    C4 5064   3.916   4.590  10.998 -0.1095 -0.5770 -0.8367
  334TMC3    C5 5065   4.025   4.672  11.000 -0.0834 -0.0782  0.0167
  334TMC3    C6 5066   4.131   4.639  11.077 -0.1507 -0.0487  0.0439
  334TMC3     C 5067   3.803   4.404  11.105 -0.4148  0.0256 -0.6724
  334TMC3     O 5068   3.825   4.293  11.154 -0.1201 -0.2478  0.4717
  334TMC3     H 5069   4.053   4.323  11.157 -0.7263  0.9784  1.2569
  334TMC3    H1 5070   3.824   4.630  10.958  0.1038  0.3780 -0.3787
  334TMC3    H2 5071   4.210   4.711  11.095 -0.0731 -0.5252  1.5697
  334TMC3    C7 5072   4.007   0.067  10.964 -0.3513  1.3017 -0.4101
  334TMC3    C8 5073   4.246   4.473  11.196 -0.3561  0.4876 -0.0819
  334TMC3    O1 5074   4.081   0.152  11.022 -0.8470 -0.4961 -0.6537
  334TMC3    O2 5075   4.239   4.422  11.307  0.2544  0.1902  0.1513
  335TMC3    C1 5076   3.594   0.942  17.104  0.4536  0.4548 -0.2020
  335TMC3    C2 5077   3.528   0.889  16.998 -0.0667 -0.0854 -0.1801
  335TMC3    C3 5078   3.577   0.917  16.874 -0.1579 -0.7770 -0.2843
  335TMC3    C4 5079   3.680   1.048  17.090 -0.3289  0.4449  0.7960
  335TMC3    C5 5080   3.705   1.085  16.962  0.1997  0.6130 -0.1290
  335TMC3    C6 5081   3.668   1.016  16.855  0.5528  0.4164  0.2903
  335TMC3     C 5082   3.536   0.924  17.232 -0.8211  0.3788 -0.2161
  335TMC3     O 5083   3.423   0.867  17.233 -0.5454 -0.5468  0.1603
  335TMC3     H 5084   3.455   0.811  17.014  1.2177 -1.1045  0.7263
  335TMC3    H1 5085   3.717   1.101  17.177 -1.2884 -0.3803  1.6916
  335TMC3    H2 5086   3.692   1.051  16.755 -0.7907  3.7071  1.1449
  335TMC3    C7 5087   3.791   1.197  16.939  0.2963  0.8195  0.6423
  335TMC3    C8 5088   3.526   0.855  16.748  0.5447 -0.1617 -0.0216
  335TMC3    O1 5089   3.844   1.211  16.827  0.0334  0.1302  0.4779
  335TMC3    O2 5090   3.583   0.873  16.641  0.4374  0.2373 -0.1361
  336MPD2     C 5091   2.680   3.559  16.742  0.1604  0.0307 -0.1505
  336MPD2    C1 5092   2.732   3.546  16.611 -0.3894  0.3197 -0.2878
  336MPD2    C2 5093   2.772   3.416  16.574 -0.0745  0.3242  0.1059
  336MPD2    C3 5094   2.764   3.303  16.653 -0.6068 -0.0464  0.2847
  336MPD2    C4 5095   2.724   3.326  16.782  0.2440 -0.3038  0.3385
  336MPD2    C5 5096   2.675   3.452  16.826 -0.4360 -0.4467  0.6607
  336MPD2     H 5097   2.818   3.401  16.477  1.5716 -0.1427  0.9706
  336MPD2    H1 5098   2.725   3.241  16.849  0.6721  1.1500  2.1899
  336MPD2    H2 5099   2.617   3.643  16.771  2.9213  1.1531  2.5760
  336MPD2    H3 5100   2.621   3.449  16.920 -0.8969  1.9564  0.4638
  336MPD2     N 5101   2.800   3.170  16.619 -0.5651 -0.1723 -0.5547
  336MPD2    H5 5102   2.774   3.094  16.680  1.6402  0.5144  1.2295
  336MPD2    N1 5103   2.730   3.641  16.512  0.5659 -0.4411 -0.6343
  336MPD2    H7 5104   2.762   3.619  16.418  4.6391  1.1698  0.3718
  337TMC3    C1 5105   2.666   3.831  16.404  0.2970  0.3879 -0.2464
  337TMC3    C2 5106   2.611   3.759  16.302  0.3494  0.5947  0.0618
  337TMC3    C3 5107   2.536   3.829  16.212  0.5576  0.1458 -0.1022
  337TMC3    C4 5108   2.645   3.970  16.424 -0.1217 -0.0315 -0.0547
  337TMC3    C5 5109   2.567   4.028  16.326 -0.1946  0.4509  0.0902
  337TMC3    C6 5110   2.523   3.967  16.212 -1.0553  0.1702  0.0253
  337TMC3     C 5111   2.674   3.765  16.529 -0.0153  0.1273 -0.4151
  337TMC3     O 5112   2.640   3.823  16.629 -0.3198 -1.2498 -0.1664
  337TMC3     H 5113   2.610   3.651  16.295  5.2119  0.3168  3.5506
  337TMC3    H1 5114   2.673   4.022  16.514  1.2593 -1.9771  0.6508
  337TMC3    H2 5115   2.472   4.014  16.129 -2.0310 -2.1736 -0.7125
  337TMC3    C7 5116   2.510   4.162  16.342 -0.3631  0.5209  0.2230
  337TMC3    C8 5117   2.410   3.766  16.182  0.0862  0.3256  0.0287
  337TMC3    O1 5118   2.453   4.203  16.245  0.4223 -0.2307  0.3010
  337TMC3    O2 5119   2.375   3.669  16.246  0.0355 -0.3205 -0.4075
  338MPD2     C 5120   3.781   3.136   1.008 -0.1196  0.1411  0.9514
  338MPD2    C1 5121   3.750   3.121   0.880  0.0486  0.2219  0.3678
  338MPD2    C2 5122   3.619   3.144   0.833  0.1469  0.2093 -0.1581
  338MPD2    C3 5123   3.515   3.180   0.923 -0.2729 -0.0494 -0.9672
  338MPD2    C4 5124   3.562   3.212   1.050  0.1901 -0.4847  0.4966
  338MPD2    C5 5125   3.693   3.186   1.101  0.4056 -0.0541 -0.3361
  338MPD2     H 5126   3.602   3.112   0.731 -0.2852 -2.0273  0.6120
  338MPD2    H1 5127   3.493   3.259   1.120 -0.3198 -0.4426 -0.0335
  338MPD2    H2 5128   3.882   3.106   1.034 -0.3618  0.1990  1.9540
  338MPD2    H3 5129   3.716   3.206   1.205  2.2488 -1.7907 -0.3978
  338MPD2     N 5130   3.384   3.191   0.874  0.0958 -0.4376 -0.4536
  338MPD2    H5 5131   3.366   3.167   0.777  0.4726  0.7653 -0.8256
  338MPD2    N1 5132   3.836   3.074   0.780 -0.2622  0.0445  0.4050
  338MPD2    H7 5133   3.793   3.086   0.689 -1.0226 -0.6375  0.6774
  339TMC3    C1 5134   3.149   3.227   0.893  0.4810 -0.5785  0.5741
  339TMC3    C2 5135   3.035   3.204   0.969 -0.4003  0.0358  0.1716
  339TMC3    C3 5136   2.915   3.208   0.895 -0.3161  0.8398  0.6617
  339TMC3    C4 5137   3.150   3.245   0.753  0.1596  0.0366  0.4761
  339TMC3    C5 5138   3.031   3.241   0.686 -0.2192 -0.2225  0.6158
  339TMC3    C6 5139   2.914   3.236   0.762  0.5577  0.0140  0.2089
  339TMC3     C 5140   3.277   3.220   0.957  0.0752 -0.7804  0.3680
  339TMC3     O 5141   3.274   3.216   1.077  0.4636  0.4234  0.5075
  339TMC3     H 5142   3.039   3.185   1.076 -1.2687  0.1090  0.2158
  339TMC3    H1 5143   3.238   3.266   0.693 -0.3026  0.1009 -0.1846
  339TMC3    H2 5144   2.821   3.239   0.706  0.8103  3.2385 -0.0156
  339TMC3    C7 5145   3.022   3.231   0.541 -0.7822 -0.0606  0.1479
  339TMC3    C8 5146   2.798   3.145   0.955  0.3649 -0.0757  0.1457
  339TMC3    O1 5147   2.921   3.267   0.489  0.0910 -0.6031  0.3918
  339TMC3    O2 5148   2.685   3.170   0.911  0.5512 -0.4403  0.6973
  340MPD2     C 5149   3.232   0.714  10.391  0.5448  0.7577 -1.1630
  340MPD2    C1 5150   3.297   0.782  10.293  0.0666  0.4619  0.0537
  340MPD2    C2 5151   3.346   0.911  10.322  0.2928  0.3437  0.4632
  340MPD2    C3 5152   3.327   0.964  10.449 -0.5157 -0.3094 -0.2597
  340MPD2    C4 5153   3.258   0.891  10.545  0.1637 -0.1244 -0.1787
  340MPD2    C5 5154   3.210   0.766  10.512  0.1290 -0.1599 -0.0352
  340MPD2     H 5155   3.384   0.979  10.247 -1.3845  1.0552  0.2522
  340MPD2    H1 5156   3.244   0.940  10.640  0.4650  1.3178 -0.8771
  340MPD2    H2 5157   3.195   0.615  10.367 -0.4322  0.4815  1.5798
  340MPD2    H3 5158   3.153   0.717  10.590 -0.3391  0.3748 -0.0486
  340MPD2     N 5159   3.377   1.100  10.488  0.6368  0.1216 -0.0506
  340MPD2    H5 5160   3.359   1.141  10.579  1.1616 -0.1087  0.1609
  340MPD2    N1 5161   3.317   0.716  10.166  0.2759  0.3364  0.2606
  340MPD2    H7 5162   3.275   0.624  10.154  0.3054  0.3809 -0.1746
  341TMC3    C1 5163   3.426   0.666   9.963 -0.4331  0.2537 -0.4270
  341TMC3    C2 5164   3.337   0.563   9.940  0.3700  0.5802  0.8332
  341TMC3    C3 5165   3.332   0.518   9.811 -0.1044 -0.2121  0.3333
  341TMC3    C4 5166   3.496   0.731   9.867 -0.4231 -0.6858 -0.6003
  341TMC3    C5 5167   3.484   0.688   9.737  0.0397  0.2088 -0.1266
  341TMC3    C6 5168   3.411   0.573   9.713 -0.2109 -0.7669  0.2568
  341TMC3     C 5169   3.387   0.765  10.066 -0.8849  0.1161 -1.0959
  341TMC3     O 5170   3.432   0.878  10.053 -0.3743  0.0651  0.0173
  341TMC3     H 5171   3.282   0.516  10.020 -1.3221  0.5086 -0.3681
  341TMC3    H1 5172   3.561   0.815   9.888 -2.6135  0.9496 -0.3601
  341TMC3    H2 5173   3.415   0.526   9.616  0.9642 -0.2473  0.0457
  341TMC3    C7 5174   3.586   0.738   9.641  0.0364 -0.9148 -0.6224
  341TMC3    C8 5175   3.259   0.393   9.795 -0.3259  0.0896  0.1817
  341TMC3    O1 5176   3.680   0.806   9.678  0.2429 -0.3348 -0.5020
  341TMC3    O2 5177   3.240   0.327   9.897 -0.1824 -0.7416  0.0751
  342MPD2     C 5178   0.940   3.829  17.713  0.1647  0.2680  0.1926
  342MPD2    C1 5179   1.066   3.803  17.649 -0.1750  0.1698 -0.1189
  342MPD2    C2 5180   1.134   3.908  17.583 -0.1661 -0.3625  0.1220
  342MPD2    C3 5181   1.075   4.036  17.584  0.3947  0.1495 -0.8279
  342MPD2    C4 5182   0.961   4.062  17.661  0.4126  0.0783 -0.3416
  342MPD2    C5 5183   0.887   3.955  17.720 -0.6738  0.9095  0.5246
  342MPD2     H 5184   1.224   3.882  17.528  0.5690 -0.3821  1.3222
  342MPD2    H1 5185   0.920   4.162  17.669  0.2816 -0.0292  0.2734
  342MPD2    H2 5186   0.891   3.743   0.005 -1.3143  2.0448  2.0353
  342MPD2    H3 5187   0.798   3.970   0.028 -1.1557  1.1449 -0.2608
  342MPD2     N 5188   1.135   4.151  17.520  0.2227  0.5857 -0.6849
  342MPD2    H5 5189   1.105   4.245  17.543 -0.0056  0.3966 -0.2238
  342MPD2    N1 5190   1.122   3.676  17.646  0.1614 -0.0681 -0.0339
  342MPD2    H7 5191   1.203   3.666  17.586  1.4041 -1.6974  1.9154
  343TMC3    C1 5192   1.150   3.449  17.644  0.9734  0.6908  0.2910
  343TMC3    C2 5193   1.285   3.456  17.650 -0.2747 -0.4233  0.2202
  343TMC3    C3 5194   1.355   3.378  17.571 -0.1417 -0.3341  0.1586
  343TMC3    C4 5195   1.089   3.355  17.567  0.6495  0.1673 -0.5648
  343TMC3    C5 5196   1.164   3.263  17.495 -0.0939  1.0393 -0.0402
  343TMC3    C6 5197   1.301   3.270  17.500  0.1241 -0.1109 -0.5782
  343TMC3     C 5198   1.067   3.557  17.685 -0.3412  0.5872  0.6737
  343TMC3     O 5199   0.960   3.527  17.738  0.3317 -0.4873 -0.2810
  343TMC3     H 5200   1.340   3.528  17.710  0.9701 -0.3639 -1.0081
  343TMC3    H1 5201   0.980   3.358  17.571  0.6208 -2.7992  0.5820
  343TMC3    H2 5202   1.357   3.191  17.450  1.6495 -1.1312  2.7385
  343TMC3    C7 5203   1.101   3.137  17.471 -0.7437  0.8255 -0.4045
  343TMC3    C8 5204   1.489   3.430  17.538  0.5379 -0.3381  0.1690
  343TMC3    O1 5205   1.153   3.042  17.419 -0.0846 -0.2711 -0.3884
  343TMC3    O2 5206   1.526   3.532  17.593  0.2524 -0.0156 -0.1125
  344MPD2     C 5207   2.411   3.750  10.316  0.5081 -0.7297 -0.1087
  344MPD2    C1 5208   2.325   3.797  10.212  0.1001  0.2307 -0.3283
  344MPD2    C2 5209   2.362   3.927  10.150 -0.4362 -0.0887 -0.1032
  344MPD2    C3 5210   2.470   3.997  10.189 -0.2737 -0.2089 -0.2802
  344MPD2    C4 5211   2.545   3.946  10.291  0.3639  0.9204 -0.6640
  344MPD2    C5 5212   2.505   3.829  10.364  0.2350 -0.6653  0.5347
  344MPD2     H 5213   2.309   3.961  10.062 -0.2511  1.6242  0.4316
  344MPD2    H1 5214   2.628   3.996  10.338  1.1297  0.5838 -1.6594
  344MPD2    H2 5215   2.376   3.664  10.372  0.0379 -1.8773 -2.1282
  344MPD2    H3 5216   2.564   3.811  10.454  0.4726 -0.9783  0.3169
  344MPD2     N 5217   2.517   4.115  10.132 -0.0269  0.3180 -0.6386
  344MPD2    H5 5218   2.593   4.152  10.189 -0.7182  2.6193 -1.1767
  344MPD2    N1 5219   2.205   3.732  10.172  0.6527 -0.7743 -0.8273
  344MPD2    H7 5220   2.136   3.784  10.119  1.7552  1.2584 -0.2892
  345TMC3    C1 5221   2.500   4.322  10.038 -0.2257  0.8366  0.2756
  345TMC3    C2 5222   2.537   4.376  10.157  0.1179 -0.9968 -0.6647
  345TMC3    C3 5223   2.575   4.506  10.164  0.7083 -0.6542  0.5098
  345TMC3    C4 5224   2.475   4.412   9.930 -0.3626  0.4930  0.7569
  345TMC3    C5 5225   2.521   4.540   9.938 -0.6590  0.8535 -0.1870
  345TMC3    C6 5226   2.573   4.588  10.055 -0.3101  0.4810  0.3528
  345TMC3     C 5227   2.477   4.179  10.021 -0.2920  0.8201  0.6026
  345TMC3     O 5228   2.384   4.151   9.946  0.1348 -0.3734 -0.2902
  345TMC3     H 5229   2.538   4.316  10.247  0.2270 -0.3060 -0.2093
  345TMC3    H1 5230   2.450   4.361   9.838  0.6340  1.4574 -0.0387
  345TMC3    H2 5231   2.605   4.692  10.058 -0.2501  0.4817 -0.1941
  345TMC3    C7 5232   2.511   4.642   9.833 -0.5128 -0.6325  0.7688
  345TMC3    C8 5233   2.621   4.560  10.291 -0.0312  0.0943  0.0294
  345TMC3    O1 5234   2.571   0.008   9.848  0.5711 -0.1021  0.1372
  345TMC3    O2 5235   2.646   4.680  10.286 -0.1184  0.4175  0.3782
  346MPD2     C 5236   1.921   4.730  14.237  0.1682 -0.1029  0.5389
  346MPD2    C1 5237   1.994   0.068  14.155 -0.4518  0.0147 -0.3748
  346MPD2    C2 5238   2.084   0.169  14.204  0.3539  0.1682  0.5691
  346MPD2    C3 5239   2.096   0.195  14.339 -0.4056  0.3808 -0.0885
  346MPD2    C4 5240   2.022   0.112  14.422 -0.4162  0.5197  0.2586
  346MPD2    C5 5241   1.937   0.021  14.369  0.3292 -0.6068 -0.5619
  346MPD2     H 5242   2.139   0.229  14.134 -0.1512  0.7862  0.6953
  346MPD2    H1 5243   2.044   0.116  14.528 -0.1974 -1.7289  0.2858
  346MPD2    H2 5244   1.860   4.645  14.209 -0.6609  0.2444  1.2759
  346MPD2    H3 5245   1.884   4.695  14.438  0.6532 -0.6931 -0.3886
  346MPD2     N 5246   2.183   0.294  14.375  0.2038  0.1748  0.4482
  346MPD2    H5 5247   2.245   0.328  14.303 -0.7102 -0.0691 -0.4419
  346MPD2    N1 5248   1.983   0.069  14.017 -0.0727 -0.4122  0.2186
  346MPD2    H7 5249   2.040   0.140  13.972 -1.6998  0.0868 -1.0313
  347TMC3    C1 5250   2.288   0.454  14.495 -0.3069  0.4939  0.2665
  347TMC3    C2 5251   2.309   0.517  14.373  0.6285 -0.0775  0.4894
  347TMC3    C3 5252   2.428   0.581  14.348 -0.0569 -0.5842 -0.7524
  347TMC3    C4 5253   2.377   0.465  14.593 -0.7006 -0.2988 -0.9508
  347TMC3    C5 5254   2.487   0.537  14.566 -0.2417  0.1926 -0.3091
  347TMC3    C6 5255   2.520   0.586  14.445  0.0050 -0.7679 -0.1456
  347TMC3     C 5256   2.198   0.342  14.504 -0.2935 -0.4154 -0.1480
  347TMC3     O 5257   2.133   0.318  14.606 -0.1030  0.1000  0.1030
  347TMC3     H 5258   2.228   0.519  14.300 -0.0443  1.0245  1.2587
  347TMC3    H1 5259   2.364   0.420  14.691 -0.6864 -0.4073 -0.9988
  347TMC3    H2 5260   2.612   0.644  14.437  0.6285 -1.7569 -0.1183
  347TMC3    C7 5261   2.593   0.511  14.657 -0.5196 -0.1399  0.4971
  347TMC3    C8 5262   2.479   0.517  14.229  0.1534 -0.1938 -0.1050
  347TMC3    O1 5263   2.565   0.508  14.775  0.6239 -0.4816  0.1581
  347TMC3    O2 5264   2.425   0.419  14.185  0.6131  0.4311 -0.2660
  348MPD2     C 5265   0.951   0.021  12.077 -0.0642 -0.4896 -0.2827
  348MPD2    C1 5266   1.073   0.084  12.069 -0.2667  0.5979  0.0539
  348MPD2    C2 5267   1.100   0.155  11.950  0.3430  0.5016  0.0635
  348MPD2    C3 5268   1.012   0.162  11.850  0.0536  0.7210  0.4792
  348MPD2    C4 5269   0.885   0.108  11.869 -0.3455 -0.3510 -0.6403
  348MPD2    C5 5270   0.854   0.040  11.982  0.4166 -0.4300  0.5001
  348MPD2     H 5271   1.198   0.201  11.941  0.3560  0.3494 -0.5882
  348MPD2    H1 5272   0.803   0.094  11.800 -2.2415  0.3272  1.4615
  348MPD2    H2 5273   0.921   4.696  12.160 -0.4275  0.5967  0.4189
  348MPD2    H3 5274   0.762   4.723  11.995 -0.1434 -0.3046 -3.0340
  348MPD2     N 5275   1.056   0.204  11.720  0.1098 -0.8109  0.2580
  348MPD2    H5 5276   1.144   0.253  11.708 -0.9814  0.8604 -0.9928
  348MPD2    N1 5277   1.185   0.062  12.156 -0.3823  0.0008  0.9367
  348MPD2    H7 5278   1.269   0.110  12.123  0.1047 -0.5488  1.3746
  349TMC3    C1 5279   1.327   4.684  12.290 -0.1808  0.0734  0.1350
  349TMC3    C2 5280   1.348   4.558  12.346  1.0625  0.1165 -0.1318
  349TMC3    C3 5281   1.462   4.493  12.313  0.2460  0.1085 -0.0810
  349TMC3    C4 5282   1.424   0.004  12.215 -0.5006  0.9206  0.4911
  349TMC3    C5 5283   1.540   4.673  12.184  0.2888  0.1062 -0.3539
  349TMC3    C6 5284   1.561   4.547  12.237  0.5330 -0.4145 -0.2548
  349TMC3     C 5285   1.191   4.700  12.252  1.1841  0.3657  0.6763
  349TMC3     O 5286   1.099   4.636  12.301  0.6423  0.3594  0.0677
  349TMC3     H 5287   1.277   4.500  12.403  0.6182  0.9612  0.1867
  349TMC3    H1 5288   1.423   0.109  12.190 -0.9847  1.0081  0.8869
  349TMC3    H2 5289   1.659   4.504  12.253 -0.7488 -3.5761 -0.8414
  349TMC3    C7 5290   1.543   4.646  12.043  0.2165 -0.3077 -0.0223
  349TMC3    C8 5291   1.468   4.348  12.335 -0.4340  0.6519 -0.0149
  349TMC3    O1 5292   1.540   4.527  12.014 -0.0798  0.0006 -0.9763
  349TMC3    O2 5293   1.409   4.297  12.428  0.2823 -0.1196 -0.3239
  350MPD2     C 5294   4.525   3.674  10.590 -0.1183 -0.6847 -0.6895
  350MPD2    C1 5295   4.535   3.537  10.604 -0.0359  0.5819 -0.1028
  350MPD2    C2 5296   4.664   3.480  10.615  0.8875 -0.2166  0.2982
  350MPD2    C3 5297   0.042   3.554  10.626 -0.3395 -0.4285  0.0504
  350MPD2    C4 5298   0.026   3.691  10.614 -0.3252  0.0721  0.7321
  350MPD2    C5 5299   4.642   3.747  10.594  0.4740  0.3717  0.3335
  350MPD2     H 5300   4.668   3.372  10.609 -0.3064 -0.3015  1.0380
  350MPD2    H1 5301   0.114   3.755  10.609 -0.7546  0.4633 -1.7200
  350MPD2    H2 5302   4.431   3.722  10.567 -0.6312 -0.2945  2.2065
  350MPD2    H3 5303   4.639   3.855  10.582  1.4112  0.4690  0.9420
  350MPD2     N 5304   0.167   3.491  10.639  0.1709 -0.5608  0.2210
  350MPD2    H5 5305   0.174   3.390  10.638  0.7371 -0.5314  0.8715
  350MPD2    N1 5306   4.433   3.448  10.598  0.0115 -0.7197  0.2803
  350MPD2    H7 5307   4.449   3.348  10.593  1.1382 -0.5937  1.4519
  351TMC3    C1 5308   4.210   3.376  10.589  0.6809 -0.4394 -0.1742
  351TMC3    C2 5309   4.262   3.275  10.514  0.3820 -0.4128  0.1966
  351TMC3    C3 5310   4.193   3.156  10.508  0.3639  0.0707  0.1749
  351TMC3    C4 5311   4.099   3.364  10.673 -0.2660  0.4111  0.3887
  351TMC3    C5 5312   4.037   3.243  10.665  0.3710 -0.0358 -0.2569
  351TMC3    C6 5313   4.081   3.144  10.586 -0.0423  0.1373  0.1429
  351TMC3     C 5314   4.298   3.487  10.612  0.7117  0.3772  0.5988
  351TMC3     O 5315   4.252   3.597  10.634  0.5759 -0.4760 -0.8720
  351TMC3     H 5316   4.343   3.294  10.445 -0.2409 -1.1344 -0.7315
  351TMC3    H1 5317   4.061   3.438  10.743  1.4371 -0.1398  1.9004
  351TMC3    H2 5318   4.014   3.060  10.571  2.5900 -2.3423  2.3693
  351TMC3    C7 5319   3.945   3.196  10.765 -0.1414  0.1949 -0.6081
  351TMC3    C8 5320   4.252   3.050  10.436 -0.1154 -0.0292  0.4470
  351TMC3    O1 5321   3.894   3.086  10.746 -0.9585  0.6712 -0.0092
  351TMC3    O2 5322   4.313   3.077  10.335  0.0172 -0.5607 -0.5906
  352MPD2     C 5323   3.562   0.596   0.880 -0.4754  0.1662 -0.1657
  352MPD2    C1 5324   3.440   0.538   0.909  0.6524  0.1740  0.7156
  352MPD2    C2 5325   3.444   0.398   0.921  0.0533 -0.1762 -0.1792
  352MPD2    C3 5326   3.559   0.326   0.910 -0.0773 -0.3721 -1.1827
  352MPD2    C4 5327   3.680   0.386   0.889  0.2795  0.4348  0.3425
  352MPD2    C5 5328   3.681   0.526   0.867  0.4236 -0.3462 -0.7519
  352MPD2     H 5329   3.351   0.343   0.930  0.9471 -1.4357  1.3600
  352MPD2    H1 5330   3.771   0.327   0.886 -0.1770 -0.3366  1.7525
  352MPD2    H2 5331   3.566   0.704   0.871 -0.8185  0.2758  0.9990
  352MPD2    H3 5332   3.771   0.585   0.854  2.4792 -3.0255  1.2001
  352MPD2     N 5333   3.566   0.185   0.914 -0.1634 -1.0434 -0.2618
  352MPD2    H5 5334   3.658   0.141   0.915  0.2813 -0.0842  0.6769
  352MPD2    N1 5335   3.317   0.619   0.907 -0.8279 -0.0996  0.0228
  352MPD2    H7 5336   3.331   0.719   0.898 -1.9261 -0.0473 -1.1343
  353TMC3    C1 5337   3.475   4.698   0.888 -0.6307 -0.0948  0.3248
  353TMC3    C2 5338   3.565   4.646   0.972 -0.3744 -1.0290 -0.1644
  353TMC3    C3 5339   3.582   4.511   0.966 -0.2889 -0.3191 -0.8367
  353TMC3    C4 5340   3.407   4.622   0.793  0.2493  0.1397 -0.1591
  353TMC3    C5 5341   3.432   4.489   0.793 -0.9377  0.0081 -0.4234
  353TMC3    C6 5342   3.519   4.426   0.884 -1.1384 -0.4003 -0.6821
  353TMC3     C 5343   3.460   0.103   0.875 -0.4017  0.1162 -0.3989
  353TMC3     O 5344   3.348   0.137   0.834 -0.3971  0.4953 -0.0926
  353TMC3     H 5345   3.618   4.709   1.043 -0.4773 -3.0371  1.6786
  353TMC3    H1 5346   3.353   4.666   0.710 -0.0236  2.0827  1.0691
  353TMC3    H2 5347   3.513   4.319   0.896 -1.5337 -0.2492  0.5195
  353TMC3    C7 5348   3.337   4.395   0.731  0.4867 -0.0749 -0.5089
  353TMC3    C8 5349   3.701   4.462   1.039  0.0981 -0.0548 -0.4388
  353TMC3    O1 5350   3.372   4.277   0.720 -0.3977  0.3905  0.2127
  353TMC3    O2 5351   3.743   4.528   1.135  0.3458 -0.2998  0.3795
  354TMC3    C1 5352   4.347   0.741  13.310  0.5415  0.0011  0.3480
  354TMC3    C2 5353   4.335   0.873  13.354 -1.1897 -0.2334 -0.5199
  354TMC3    C3 5354   4.318   0.974  13.261 -0.1604 -0.3354  0.4144
  354TMC3    C4 5355   4.355   0.708  13.179  0.0131  0.3819 -0.0982
  354TMC3    C5 5356   4.323   0.806  13.087 -0.3438 -0.8298 -0.5901
  354TMC3    C6 5357   4.304   0.938  13.126  0.0724  0.0964  0.4051
  354TMC3     C 5358   4.383   0.640  13.405  0.1790  1.1943 -0.2709
  354TMC3     O 5359   4.359   0.524  13.382  0.0195  0.1287 -0.7109
  354TMC3     H 5360   4.340   0.899  13.459 -0.2281 -0.5690 -0.4798
  354TMC3    H1 5361   4.345   0.605  13.145  0.8771  0.2085  0.1540
  354TMC3    H2 5362   4.304   1.015  13.050  0.6470  0.1355  0.4420
  354TMC3    C7 5363   4.400   0.793  12.970  0.5934  0.7396  0.3489
  354TMC3    C8 5364   4.411   1.079  13.286  0.8304  0.2064 -0.0052
  354TMC3    O1 5365   4.496   0.725  12.981 -0.0418  0.5617 -0.1271
  354TMC3    O2 5366   4.468   1.077  13.396 -0.0394 -1.1705 -0.0424
  355MPD2     C 5367   0.444   1.815  12.168 -0.1193 -0.4686  0.1163
  355MPD2    C1 5368   0.442   1.941  12.121  0.5641 -0.0998 -0.2287
  355MPD2    C2 5369   0.532   2.035  12.161  0.4444 -0.2269  0.3010
  355MPD2    C3 5370   0.627   1.999  12.251 -0.1909  0.7925 -0.5808
  355MPD2    C4 5371   0.637   1.867  12.292 -0.2847 -0.1748  0.5697
  355MPD2    C5 5372   0.551   1.775  12.242  1.2200 -0.9172  0.0648
  355MPD2     H 5373   0.517   2.138  12.133  1.4289 -0.5526 -1.4459
  355MPD2    H1 5374   0.726   1.822  12.336 -0.2587 -1.7711 -1.1199
  355MPD2    H2 5375   0.380   1.742  12.120 -0.5181 -0.0797  0.0565
  355MPD2    H3 5376   0.558   1.671  12.271 -2.1024 -0.4516  2.5039
  355MPD2     N 5377   0.730   2.091  12.287 -0.1188  0.1640 -0.1702
  355MPD2    H5 5378   0.816   2.043  12.314 -1.1361 -1.4815  0.1092
  355MPD2    N1 5379   0.345   1.962  12.018 -0.3206 -0.1166  0.9482
  355MPD2    H7 5380   0.259   1.908  12.026 -0.6205 -0.1517 -2.2706
  356TMC3    C1 5381   0.864   2.281  12.273  0.3899 -0.2769 -0.3737
  356TMC3    C2 5382   0.898   2.375  12.175 -0.2970  0.3803  0.7018
  356TMC3    C3 5383   1.023   2.422  12.169  0.3797 -0.0691  0.3776
  356TMC3    C4 5384   0.964   2.234  12.350 -0.4419 -0.4783  0.2893
  356TMC3    C5 5385   1.086   2.289  12.344  0.5586  0.0430 -0.1077
  356TMC3    C6 5386   1.114   2.392  12.262 -0.5400  1.1119 -0.3028
  356TMC3     C 5387   0.735   2.227  12.255 -0.0299 -0.6598 -0.2951
  356TMC3     O 5388   0.647   2.304  12.217 -0.3460 -0.0005  0.0541
  356TMC3     H 5389   0.820   2.381  12.100 -0.5438  1.0563  1.0150
  356TMC3    H1 5390   0.940   2.156  12.420 -1.7433  1.0729  1.5642
  356TMC3    H2 5391   1.214   2.430  12.249 -1.1742  1.7891 -3.0664
  356TMC3    C7 5392   1.159   2.261  12.467  0.4661  0.3478  0.5402
  356TMC3    C8 5393   1.052   2.502  12.052 -0.2379 -0.5448  0.3421
  356TMC3    O1 5394   1.136   2.154  12.529  0.4639  0.1136 -0.2272
  356TMC3    O2 5395   0.995   2.474  11.952 -0.0538  0.7390  0.1866
  357MPD2     C 5396   0.071   2.091   0.157 -0.0556  0.7055  0.2735
  357MPD2    C1 5397   0.038   1.997   0.251  0.9063  0.0725  0.2810
  357MPD2    C2 5398   4.694   1.897   0.216  0.0253  0.5923 -0.4845
  357MPD2    C3 5399   4.644   1.884   0.091  0.0588  0.6350  0.6315
  357MPD2    C4 5400   4.672   1.983   0.004  0.2711  0.0535  0.2612
  357MPD2    C5 5401   0.005   2.094   0.037 -0.3320  0.2046  0.4568
  357MPD2     H 5402   4.659   1.828   0.293  0.8871  0.3780 -0.2851
  357MPD2    H1 5403   4.629   1.972  17.657 -0.8329 -0.1756  0.7694
  357MPD2    H2 5404   0.128   2.180   0.179  0.0375  0.7330 -0.0711
  357MPD2    H3 5405   0.018   2.179  17.721  1.0001  1.2048  1.9771
  357MPD2     N 5406   4.565   1.774   0.049 -0.0327 -0.0805  0.5883
  357MPD2    H5 5407   4.522   1.785  17.709 -0.1571  0.0106  0.6588
  357MPD2    N1 5408   0.102   2.008   0.378 -0.0898  0.4535 -0.5344
  357MPD2    H7 5409   0.169   2.083   0.395 -0.9803  1.0842  0.1595
  358TMC3    C1 5410   0.165   1.933   0.596 -0.5984  0.6358 -0.4707
  358TMC3    C2 5411   0.189   1.811   0.646 -0.4958  0.6218 -0.2506
  358TMC3    C3 5412   0.302   1.785   0.716 -0.5711 -0.7183  0.0244
  358TMC3    C4 5413   0.260   2.029   0.610  0.0448 -0.5089 -0.5553
  358TMC3    C5 5414   0.375   2.001   0.681 -0.3101  0.5511  0.9096
  358TMC3    C6 5415   0.390   1.883   0.752  0.2475  0.2370 -0.7726
  358TMC3     C 5416   0.069   1.936   0.487  0.4291 -0.4389  0.6948
  358TMC3     O 5417   4.714   1.854   0.498  0.2005 -0.7247 -0.2921
  358TMC3     H 5418   0.121   1.733   0.612 -0.5643  0.4547  0.2704
  358TMC3    H1 5419   0.233   2.127   0.571 -1.2737 -0.7444 -0.2386
  358TMC3    H2 5420   0.486   1.857   0.794 -0.9445  0.8174  2.2886
  358TMC3    C7 5421   0.470   2.109   0.712 -1.0785  0.1319  0.6422
  358TMC3    C8 5422   0.341   1.648   0.744  0.2876  0.5725 -0.7658
  358TMC3    O1 5423   0.553   2.092   0.800  0.3410  0.1985 -0.1671
  358TMC3    O2 5424   0.425   1.630   0.831 -0.0927 -0.0721  0.5786
  359MPD2     C 5425   0.637   0.981  12.183  0.0177  0.2906  0.2087
  359MPD2    C1 5426   0.691   0.852  12.200  0.4335 -0.2731  0.0600
  359MPD2    C2 5427   0.612   0.752  12.248 -0.5769 -0.5540 -0.1775
  359MPD2    C3 5428   0.477   0.770  12.264  0.7269  0.9928 -1.0379
  359MPD2    C4 5429   0.418   0.896  12.241 -0.2477  0.2200 -0.1329
  359MPD2    C5 5430   0.502   0.993  12.201 -0.3420 -0.4258  1.4569
  359MPD2     H 5431   0.666   0.659  12.255  0.7228  0.1808 -0.3307
  359MPD2    H1 5432   0.311   0.911  12.251 -0.5058 -0.5041 -1.8447
  359MPD2    H2 5433   0.689   1.062  12.133 -2.4005  0.9328 -1.2610
  359MPD2    H3 5434   0.452   1.089  12.195  1.5478  0.6183  2.2935
  359MPD2     N 5435   0.394   0.662  12.306 -0.6990  0.1177 -0.0678
  359MPD2    H5 5436   0.296   0.687  12.301 -1.3834 -1.8506  3.5064
  359MPD2    N1 5437   0.818   0.810  12.161  0.3282 -0.5341 -0.2644
  359MPD2    H7 5438   0.838   0.712  12.180 -0.6262 -0.2137  2.4038
  360TMC3    C1 5439   1.023   0.798  12.032  0.5140 -0.6845  1.0920
  360TMC3    C2 5440   1.148   0.847  12.018 -0.3783 -0.8863 -0.2072
  360TMC3    C3 5441   1.217   0.789  11.913  0.2659  0.9420 -0.3941
  360TMC3    C4 5442   0.973   0.691  11.964  0.1115 -0.6610  0.3630
  360TMC3    C5 5443   1.047   0.630  11.864  0.4840 -0.4873 -0.2991
  360TMC3    C6 5444   1.169   0.686  11.834  0.2390  0.0226  0.5325
  360TMC3     C 5445   0.926   0.881  12.113 -0.5231  0.3824 -0.1676
  360TMC3     O 5446   0.952   1.003  12.115 -0.4023 -0.3882 -0.1585
  360TMC3     H 5447   1.166   0.948  12.054  1.3592 -1.4930  0.6238
  360TMC3    H1 5448   0.869   0.666  11.980 -0.3181  1.4833  0.8546
  360TMC3    H2 5449   1.224   0.640  11.753 -3.0486  0.9123 -2.2395
  360TMC3    C7 5450   0.985   0.564  11.747  0.0942 -0.1759 -0.3491
  360TMC3    C8 5451   1.329   0.871  11.865 -0.1464  0.1774 -0.3514
  360TMC3    O1 5452   1.058   0.542  11.650  0.6707  0.2222 -0.3775
  360TMC3    O2 5453   1.338   0.987  11.907 -0.1885  0.0740 -0.5000
  361MPD2     C 5454   2.225   4.522  17.053  0.0300  0.1736 -0.9314
  361MPD2    C1 5455   2.248   4.387  17.013  0.0321 -0.0201 -0.0703
  361MPD2    C2 5456   2.375   4.332  17.025  0.2504 -0.1587  0.2911
  361MPD2    C3 5457   2.485   4.399  17.069 -0.3347  0.0069 -0.0668
  361MPD2    C4 5458   2.459   4.529  17.105  0.0679 -0.0095 -0.6112
  361MPD2    C5 5459   2.332   4.586  17.103 -0.0941 -0.8051 -0.1436
  361MPD2     H 5460   2.383   4.228  16.995  1.4268  0.0649 -0.1339
  361MPD2    H1 5461   2.540   4.588  17.146 -0.4605  0.7579 -0.6691
  361MPD2    H2 5462   2.126   4.566  17.056 -0.5454 -1.2971  1.8154
  361MPD2    H3 5463   2.316   4.687  17.140  0.5281 -0.6888 -0.1899
  361MPD2     N 5464   2.621   4.355  17.089  0.1466 -0.2287  0.3591
  361MPD2    H5 5465   2.694   4.420  17.117 -1.3335  1.6128 -0.1201
  361MPD2    N1 5466   2.130   4.317  16.977 -0.2140 -0.3420 -0.5621
  361MPD2    H7 5467   2.046   4.374  16.969  0.5567  0.6590 -1.4169
  362TMC3    C1 5468   1.996   4.144  16.899  0.7600  0.2197  0.1176
  362TMC3    C2 5469   1.878   4.198  16.949  0.0306  0.6813  0.7480
  362TMC3    C3 5470   1.763   4.146  16.898 -0.0454  0.5559 -0.4516
  362TMC3    C4 5471   1.991   4.041  16.806 -0.0587  0.5743 -1.2851
  362TMC3    C5 5472   1.869   4.005  16.747  0.3189 -0.3447 -0.4519
  362TMC3    C6 5473   1.755   4.046  16.804 -0.0253  0.0551 -0.0267
  362TMC3     C 5474   2.116   4.182  16.955 -0.4814  0.0121  0.5870
  362TMC3     O 5475   2.204   4.098  16.959 -0.0815  0.3821  0.0749
  362TMC3     H 5476   1.879   4.292  17.003 -0.0276 -0.2749  2.4067
  362TMC3    H1 5477   2.084   4.000  16.767  1.1878 -0.2633  2.5344
  362TMC3    H2 5478   1.664   4.005  16.761 -1.0847  2.8066 -0.4104
  362TMC3    C7 5479   1.874   4.041  16.611 -0.2267 -0.1625  0.3222
  362TMC3    C8 5480   1.637   4.201  16.935  0.4034  0.5944 -0.0579
  362TMC3    O1 5481   1.956   4.125  16.581 -0.1214  0.1785 -0.6137
  362TMC3    O2 5482   1.546   4.125  16.919  0.0699  0.3932  0.6220
  363TMC3    C1 5483   0.484   2.554  10.488  0.6546 -0.3560 -0.0881
  363TMC3    C2 5484   0.617   2.539  10.519 -0.9286  0.1552  0.5468
  363TMC3    C3 5485   0.710   2.621  10.460  0.2320 -0.5018 -0.2247
  363TMC3    C4 5486   0.440   2.652  10.400  0.3238  0.1881 -0.1885
  363TMC3    C5 5487   0.535   2.733  10.345  0.2801 -0.0539 -0.2795
  363TMC3    C6 5488   0.669   2.720  10.368 -0.4542  0.1961 -0.0007
  363TMC3     C 5489   0.382   2.466  10.540 -0.6211  0.1026  0.0555
  363TMC3     O 5490   0.268   2.506  10.523 -0.0736  0.4120  0.0808
  363TMC3     H 5491   0.654   2.470  10.594  1.4547  1.8278  0.9388
  363TMC3    H1 5492   0.338   2.640  10.367 -0.1204  2.5126  0.3355
  363TMC3    H2 5493   0.748   2.778  10.323 -1.6558 -0.5341 -3.0585
  363TMC3    C7 5494   0.500   2.829  10.245 -0.2303 -0.1807  0.1000
  363TMC3    C8 5495   0.848   2.590  10.490 -0.2317 -0.3375  0.8821
  363TMC3    O1 5496   0.583   2.887  10.174 -0.3274  0.6911  0.1415
  363TMC3    O2 5497   0.935   2.675  10.468  0.0657 -0.0154 -0.5644
  364MPD2     C 5498   4.373   1.604  10.555  0.3404 -0.1314  0.1968
  364MPD2    C1 5499   4.504   1.600  10.509 -0.2631 -0.1931  0.2217
  364MPD2    C2 5500   4.552   1.473  10.470  0.5073 -0.3079  0.3409
  364MPD2    C3 5501   4.482   1.351  10.484 -0.0320 -0.1929 -0.5753
  364MPD2    C4 5502   4.354   1.364  10.534 -0.0490  0.1226  0.2043
  364MPD2    C5 5503   4.299   1.485  10.561 -0.6453 -0.8311 -0.1687
  364MPD2     H 5504   4.655   1.466  10.437  0.4004 -1.2077  0.1868
  364MPD2    H1 5505   4.297   1.272  10.548  0.1064  0.0435  0.3248
  364MPD2    H2 5506   4.317   1.696  10.566 -1.1926 -1.3193  2.5334
  364MPD2    H3 5507   4.197   1.496  10.593  0.3224 -2.4682  3.5159
  364MPD2     N 5508   4.539   1.224  10.458  0.0644 -0.3959  0.2923
  364MPD2    H5 5509   4.471   1.151  10.476 -0.3360 -0.0540  0.1700
  364MPD2    N1 5510   4.584   1.706  10.484  0.0678 -0.4828  0.7643
  364MPD2    H7 5511   4.663   1.685  10.424 -2.4266 -3.6170 -1.3944
  365TMC3    C1 5512   4.646   1.933  10.460  0.9135  0.3459  0.2628
  365TMC3    C2 5513   4.663   1.915  10.322 -0.4293 -0.1960  0.6902
  365TMC3    C3 5514   4.688   2.027  10.248 -0.0670 -0.3188  0.0952
  365TMC3    C4 5515   4.649   2.056  10.516  0.1890 -0.4601 -0.0768
  365TMC3    C5 5516   4.659   2.168  10.428 -0.3108 -0.3161 -0.1168
  365TMC3    C6 5517   4.689   2.153  10.298  0.1881  0.0772 -0.2400
  365TMC3     C 5518   4.563   1.834  10.526 -0.1540 -0.7785  0.2215
  365TMC3     O 5519   4.507   1.873  10.631  0.0513  0.4885  0.2575
  365TMC3     H 5520   4.666   1.816  10.279 -1.5977  0.1110 -0.1001
  365TMC3    H1 5521   4.634   2.064  10.623  0.2614 -3.9059  0.1895
  365TMC3    H2 5522   4.708   2.239  10.235 -0.4316  0.5517  0.2113
  365TMC3    C7 5523   4.671   2.305  10.480 -0.6172  0.4443  0.3526
  365TMC3    C8 5524   4.724   2.020  10.106  0.9415  0.3446  0.2473
  365TMC3    O1 5525   4.720   2.385  10.403  0.1038 -0.1892  0.0551
  365TMC3    O2 5526   0.008   2.128  10.046 -0.2159 -0.4848 -0.1310
  366MPD2     C 5527   2.479   2.570  15.193 -0.1159  0.4065 -0.1664
  366MPD2    C1 5528   2.570   2.624  15.276 -0.4070  0.4959 -0.1587
  366MPD2    C2 5529   2.645   2.543  15.355 -0.5540  0.6151  0.0944
  366MPD2    C3 5530   2.637   2.409  15.359  0.2108 -0.6653  0.7348
  366MPD2    C4 5531   2.545   2.356  15.273 -0.1567  0.6360 -0.3699
  366MPD2    C5 5532   2.468   2.432  15.186  0.5943  0.0756  0.4937
  366MPD2     H 5533   2.707   2.599  15.425 -0.5342 -0.5627  1.0122
  366MPD2    H1 5534   2.527   2.249  15.266  0.4795  0.5340 -0.4581
  366MPD2    H2 5535   2.428   2.637  15.125 -0.4624 -1.3217 -1.6241
  366MPD2    H3 5536   2.387   2.391  15.126 -0.1981  0.3147  1.4040
  366MPD2     N 5537   2.726   2.336  15.439 -0.9744  0.1090 -0.2528
  366MPD2    H5 5538   2.784   2.386  15.506 -1.1972  0.4783 -0.3361
  366MPD2    N1 5539   2.588   2.762  15.294  0.3122 -0.4308  0.0013
  366MPD2    H7 5540   2.678   2.778  15.339  0.8315 -2.0126 -0.4620
  367TMC3    C1 5541   2.564   2.993  15.282 -0.4727  0.4090 -0.6145
  367TMC3    C2 5542   2.673   2.999  15.367 -0.1352  0.3834 -0.6274
  367TMC3    C3 5543   2.693   3.124  15.426  0.0253 -0.5455  0.5814
  367TMC3    C4 5544   2.487   3.100  15.248 -0.3462  0.0013  0.4967
  367TMC3    C5 5545   2.529   3.220  15.297 -0.1297 -0.2488  0.5907
  367TMC3    C6 5546   2.620   3.233  15.397 -0.4734 -0.3580  0.2124
  367TMC3     C 5547   2.509   2.863  15.246  0.2157  0.3118  0.5782
  367TMC3     O 5548   2.403   2.859  15.191 -0.3367 -0.0347  1.0068
  367TMC3     H 5549   2.750   2.923  15.381 -0.3864 -0.1089 -1.8469
  367TMC3    H1 5550   2.392   3.093  15.195 -0.1186 -0.7764  0.2001
  367TMC3    H2 5551   2.640   3.333  15.434  1.9505 -1.2360  1.3120
  367TMC3    C7 5552   2.456   3.343  15.257  0.2049  0.2048 -0.6943
  367TMC3    C8 5553   2.796   3.130  15.523 -0.0142 -0.1122 -1.2308
  367TMC3    O1 5554   2.461   3.443  15.327  0.5198  0.1405 -0.4950
  367TMC3    O2 5555   2.891   3.053  15.508 -0.1697  0.5219 -0.8747
  368MPD2     C 5556   3.679   4.365  13.174  0.0617  0.3536  0.1575
  368MPD2    C1 5557   3.704   4.360  13.045  0.4821  0.3353 -0.1526
  368MPD2    C2 5558   3.830   4.404  13.005  0.1873  1.0432 -1.0414
  368MPD2    C3 5559   3.927   4.459  13.091 -0.6943 -0.0588  0.0890
  368MPD2    C4 5560   3.894   4.468  13.224  0.0449 -0.5291 -0.2514
  368MPD2    C5 5561   3.765   4.426  13.265  0.4571 -0.5288  0.5060
  368MPD2     H 5562   3.852   4.404  12.899 -2.3865  2.4360 -1.5688
  368MPD2    H1 5563   3.959   4.498  13.305 -0.6269  0.7452 -0.1818
  368MPD2    H2 5564   3.578   4.343  13.207 -1.0520  2.1786 -2.0312
  368MPD2    H3 5565   3.736   4.439  13.368  1.9234 -2.3007  1.1399
  368MPD2     N 5566   4.049   4.503  13.028 -0.2485 -0.3051  0.4067
  368MPD2    H5 5567   4.056   4.488  12.928 -1.7678  0.8607  0.1256
  368MPD2    N1 5568   3.601   4.324  12.961  0.4152  0.0825 -0.1312
  368MPD2    H7 5569   3.504   4.328  12.990 -0.3190 -0.2094 -2.5109
  369TMC3    C1 5570   3.495   4.326  12.749  0.2348 -0.4319 -0.0617
  369TMC3    C2 5571   3.511   4.398  12.635 -0.0314  0.6422  0.4796
  369TMC3    C3 5572   3.392   4.459  12.587 -0.5502 -0.1790 -0.2251
  369TMC3    C4 5573   3.379   4.318  12.823 -0.6127 -0.1965 -0.1148
  369TMC3    C5 5574   3.268   4.375  12.771  0.2931 -0.4338 -0.8238
  369TMC3    C6 5575   3.270   4.451  12.657  0.5131 -0.4442 -0.0790
  369TMC3     C 5576   3.621   4.303  12.828  0.0635  0.0019  0.1655
  369TMC3     O 5577   3.721   4.268  12.767 -0.1187 -0.1374  0.3942
  369TMC3     H 5578   3.609   4.423  12.595  0.4449  0.9030  1.7984
  369TMC3    H1 5579   3.369   4.249  12.906  2.4853 -0.3933  0.0949
  369TMC3    H2 5580   3.185   4.504  12.617  0.7740 -1.0396 -1.4342
  369TMC3    C7 5581   3.170   4.383  12.877  0.6437  0.1143 -0.6496
  369TMC3    C8 5582   3.409   4.549  12.479  0.1693  0.6669  0.0610
  369TMC3    O1 5583   3.163   4.290  12.958 -0.0617  0.1471  0.2770
  369TMC3    O2 5584   3.328   4.643  12.486  0.1027 -0.0242 -0.4086
  370TMC3    C1 5585   3.415   0.341  16.040  0.2105  0.0496  0.5037
  370TMC3    C2 5586   3.342   0.269  16.129  0.2249  0.1045 -0.9740
  370TMC3    C3 5587   3.307   0.139  16.094  0.1809 -0.5333  0.4335
  370TMC3    C4 5588   3.469   0.286  15.927  0.3319  0.3312 -0.0887
  370TMC3    C5 5589   3.437   0.154  15.899  0.2517  0.4520 -0.0409
  370TMC3    C6 5590   3.355   0.078  15.975 -0.5158  0.3616  0.2185
  370TMC3     C 5591   3.422   0.485  16.077 -0.0525 -0.3871 -0.2220
  370TMC3     O 5592   3.327   0.535  16.134  0.1886  0.4861 -0.0912
  370TMC3     H 5593   3.296   0.314  16.216  0.6837 -1.2917 -0.0145
  370TMC3    H1 5594   3.522   0.353  15.860  0.3383 -0.0600 -0.4767
  370TMC3    H2 5595   3.313   4.726  15.934 -1.0894  0.0698  1.4517
  370TMC3    C7 5596   3.477   0.094  15.776 -0.6299 -0.4613 -0.0281
  370TMC3    C8 5597   3.274   0.042  16.193  0.7514  0.2314  0.0747
  370TMC3    O1 5598   3.521   0.166  15.686  0.0482 -0.0171  0.4392
  370TMC3    O2 5599   3.264   4.664  16.160  0.5010 -0.1638 -0.3135
  371TMC3    C1 5600   4.521   3.185  15.512  0.1414 -0.2677  0.9664
  371TMC3    C2 5601   4.386   3.185  15.533  0.4736  0.0892  0.2311
  371TMC3    C3 5602   4.312   3.305  15.525 -0.9495 -0.5756 -0.5393
  371TMC3    C4 5603   4.589   3.301  15.484  0.4241  0.4835 -0.0869
  371TMC3    C5 5604   4.519   3.420  15.496 -0.0521 -0.1241 -0.3374
  371TMC3    C6 5605   4.383   3.423  15.522 -0.7380 -0.5820 -0.0537
  371TMC3     C 5606   4.588   3.059  15.484  0.1922  0.0665  0.5874
  371TMC3     O 5607   4.694   3.070  15.425 -0.7537  0.5222 -0.2389
  371TMC3     H 5608   4.340   3.092  15.564 -0.5047 -0.3097 -2.4104
  371TMC3    H1 5609   4.685   3.293  15.435  1.3939 -0.9754  2.0276
  371TMC3    H2 5610   4.339   3.522  15.520 -0.6976 -0.5865 -1.2352
  371TMC3    C7 5611   4.586   3.544  15.463  0.1306  0.0919 -0.5998
  371TMC3    C8 5612   4.172   3.305  15.569  0.1209 -0.6671 -0.3830
  371TMC3    O1 5613   4.524   3.635  15.412 -0.0892  0.0008  0.5190
  371TMC3    O2 5614   4.124   3.195  15.581 -0.2985  0.3808 -0.1034
  372MPD2     C 5615   4.140   4.719  13.524  0.4146 -0.1983  0.3533
  372MPD2    C1 5616   4.266   4.663  13.541  0.0379  0.1696 -0.2674
  372MPD2    C2 5617   4.280   4.538  13.598  0.1370 -0.1820  0.5308
  372MPD2    C3 5618   4.162   4.470  13.641  0.0857  0.7113  0.4318
  372MPD2    C4 5619   4.040   4.529  13.622 -0.0986 -0.0401  0.5255
  372MPD2    C5 5620   4.032   4.649  13.556  0.1914  0.9817  0.0274
  372MPD2     H 5621   4.376   4.493  13.624  0.6429  0.2121 -0.6735
  372MPD2    H1 5622   3.942   4.493  13.651  0.6515 -2.4404  0.0637
  372MPD2    H2 5623   4.112   0.083  13.504  1.2988 -0.2313 -0.9646
  372MPD2    H3 5624   3.935   4.691  13.533 -0.7819 -0.3755  1.6403
  372MPD2     N 5625   4.173   4.345  13.708 -0.1723  0.0689 -0.3317
  372MPD2    H5 5626   4.264   4.301  13.708  0.1027  0.6491 -0.5925
  372MPD2    N1 5627   4.386   4.732  13.509 -0.7455  0.6563  1.2201
  372MPD2    H7 5628   4.473   4.681  13.520 -0.9955 -0.0684 -0.1143
  373TMC3    C1 5629   4.089   4.147  13.775 -0.1929  0.4649  0.2622
  373TMC3    C2 5630   3.981   4.065  13.807 -0.4203  0.7379  0.4090
  373TMC3    C3 5631   3.981   3.933  13.768 -0.3783 -0.3363  0.2485
  373TMC3    C4 5632   4.195   4.086  13.718 -0.0372  0.2205 -0.0176
  373TMC3    C5 5633   4.182   3.962  13.676 -0.7103 -0.0284 -0.4719
  373TMC3    C6 5634   4.080   3.879  13.698 -0.6367 -0.8844  0.4607
  373TMC3     C 5635   4.067   4.280  13.757  0.3806  0.0617  0.3153
  373TMC3     O 5636   3.950   4.316  13.778 -0.6541  0.1736  0.0371
  373TMC3     H 5637   3.894   4.101  13.861  1.0377  1.2631  2.3964
  373TMC3    H1 5638   4.277   4.142  13.674  2.1579 -1.6000  1.7362
  373TMC3    H2 5639   4.095   3.773  13.683 -1.9797 -1.1593  1.0514
  373TMC3    C7 5640   4.306   3.898  13.636  0.3679  0.5770  0.4797
  373TMC3    C8 5641   3.874   3.842  13.802  0.4520 -0.0485 -0.0768
  373TMC3    O1 5642   4.299   3.804  13.559  0.4389  0.3416  0.2263
  373TMC3    O2 5643   3.830   3.782  13.703 -0.9593 -0.7563 -0.7930
  374TMC3    C1 5644   4.563   0.413   9.811  0.6637  0.5356  0.6029
  374TMC3    C2 5645   4.693   0.439   9.795 -0.5500  0.5778 -0.1283
  374TMC3    C3 5646   0.002   0.492   9.674 -0.2442  0.1651  0.3992
  374TMC3    C4 5647   4.474   0.428   9.709  0.4203 -0.0774 -0.1567
  374TMC3    C5 5648   4.530   0.459   9.584  0.7815 -0.2979 -0.0575
  374TMC3    C6 5649   4.660   0.495   9.561 -0.1591 -0.0210 -0.2294
  374TMC3     C 5650   4.517   0.331   9.922 -0.4780 -0.4149 -0.1968
  374TMC3     O 5651   4.410   0.273   9.902  0.3067  0.2876  0.2949
  374TMC3     H 5652   0.022   0.445   9.879 -1.7945  0.5570  0.8614
  374TMC3    H1 5653   4.376   0.384   9.724 -0.1667  1.2714 -0.0808
  374TMC3    H2 5654   4.702   0.525   9.466 -1.8055  2.2943 -0.2173
  374TMC3    C7 5655   4.431   0.493   9.481  0.0739 -0.0105 -0.5599
  374TMC3    C8 5656   0.145   0.523   9.656 -0.0986 -0.0951 -0.0565
  374TMC3    O1 5657   4.314   0.467   9.514 -0.5439 -0.6352  0.6375
  374TMC3    O2 5658   0.173   0.609   9.576 -0.2942 -0.2422 -0.4651
  375MPD2     C 5659   0.385   1.382  16.851 -0.5786  0.1873  0.4734
  375MPD2    C1 5660   0.298   1.274  16.838 -0.1775 -0.4127  0.1042
  375MPD2    C2 5661   0.344   1.152  16.807  0.4147  0.6376  0.2104
  375MPD2    C3 5662   0.481   1.131  16.799 -1.5687 -0.7728 -0.6951
  375MPD2    C4 5663   0.567   1.234  16.808  1.0637 -0.2149 -0.1944
  375MPD2    C5 5664   0.517   1.358  16.830  0.0703  0.8995  0.3017
  375MPD2     H 5665   0.274   1.070  16.803  0.1458  0.8572  0.4207
  375MPD2    H1 5666   0.674   1.230  16.794  1.3490  0.5143  1.8685
  375MPD2    H2 5667   0.362   1.482  16.887 -3.3849 -0.1055 -0.4986
  375MPD2    H3 5668   0.582   1.443  16.841  0.5886  0.5408 -0.0141
  375MPD2     N 5669   0.526   0.993  16.795  0.3382  0.4920  0.4618
  375MPD2    H5 5670   0.626   0.985  16.782  0.5595 -0.5405  2.8002
  375MPD2    N1 5671   0.160   1.289  16.849 -0.5672  0.1985  0.3736
  375MPD2    H7 5672   0.101   1.212  16.819  0.5245 -0.9924  1.2702
  376TMC3    C1 5673   0.525   0.755  16.773  0.0890  0.0275 -0.0497
  376TMC3    C2 5674   0.647   0.767  16.711  0.1435 -0.4066  0.6640
  376TMC3    C3 5675   0.687   0.665  16.626 -0.0848  0.1579 -0.5600
  376TMC3    C4 5676   0.439   0.652  16.752  0.1020 -0.5676 -0.3318
  376TMC3    C5 5677   0.484   0.559  16.656  0.4082 -0.4614 -0.8511
  376TMC3    C6 5678   0.602   0.569  16.591 -0.5041  0.3388  0.5010
  376TMC3     C 5679   0.445   0.876  16.806 -0.2149  0.4278  0.5021
  376TMC3     O 5680   0.326   0.865  16.835 -0.1694  0.0541  0.6088
  376TMC3     H 5681   0.720   0.846  16.729 -0.6316  0.4410  0.0507
  376TMC3    H1 5682   0.333   0.651  16.773 -0.1163 -3.4228 -1.5873
  376TMC3    H2 5683   0.650   0.486  16.539 -0.8258  0.8982 -0.6824
  376TMC3    C7 5684   0.382   0.494  16.575 -0.4922 -0.2585  0.3345
  376TMC3    C8 5685   0.821   0.654  16.582 -0.0070 -0.3847  0.3423
  376TMC3    O1 5686   0.314   0.403  16.625  0.1768  0.0437 -0.1714
  376TMC3    O2 5687   0.838   0.629  16.464  0.4851  0.1007 -0.6041
  377MPD2     C 5688   2.876   4.426  12.562 -0.2015 -0.7230  0.3768
  377MPD2    C1 5689   2.974   4.345  12.517 -0.1728  0.2833 -0.0384
  377MPD2    C2 5690   3.002   4.222  12.576 -0.0943 -0.6158 -0.2776
  377MPD2    C3 5691   2.937   4.189  12.695  0.3758  0.2202  1.5203
  377MPD2    C4 5692   2.827   4.266  12.725 -0.7224 -0.1252 -0.6415
  377MPD2    C5 5693   2.798   4.382  12.657 -0.3293 -0.3927  0.0704
  377MPD2     H 5694   3.077   4.161  12.527  1.0169  0.5071  0.0340
  377MPD2    H1 5695   2.771   4.240  12.815 -0.4074 -0.6920 -0.6074
  377MPD2    H2 5696   2.838   4.523  12.535  2.5726  0.6718  1.4918
  377MPD2    H3 5697   2.707   4.429  12.693 -0.5005 -1.5774  1.1817
  377MPD2     N 5698   2.961   4.071  12.773  0.5441 -0.3172 -0.3045
  377MPD2    H5 5699   2.893   4.046  12.844 -0.0437 -0.0064 -0.7574
  377MPD2    N1 5700   3.051   4.394  12.410  0.3648  0.2858  0.1522
  377MPD2    H7 5701   3.014   4.482  12.375 -0.1910  0.9386  2.4263
  378TMC3    C1 5702   3.165   4.612  12.114 -0.4646 -1.3189 -0.5982
  378TMC3    C2 5703   3.133   4.539  12.219  0.2435 -0.1280  0.2340
  378TMC3    C3 5704   3.198   4.418  12.237 -0.8841  0.2805 -0.7114
  378TMC3    C4 5705   3.265   4.575  12.031  0.3234  0.0757  0.0360
  378TMC3    C5 5706   3.325   4.459  12.046  0.4535 -0.1455 -0.0791
  378TMC3    C6 5707   3.295   4.374  12.149  0.3069 -0.5769 -0.4248
  378TMC3     C 5708   3.068   4.711  12.071 -0.4884 -0.2205  0.5321
  378TMC3     O 5709   2.949   4.688  12.085  0.6529  0.1192  0.1712
  378TMC3     H 5710   3.062   4.594  12.280 -1.1794 -0.2891 -1.2433
  378TMC3    H1 5711   3.284   4.630  11.940  3.3116  1.0391  1.2378
  378TMC3    H2 5712   3.348   4.281  12.163  1.4412  0.3164  1.2112
  378TMC3    C7 5713   3.453   4.445  11.974 -0.2736 -0.1173  0.0978
  378TMC3    C8 5714   3.161   4.344  12.350 -0.2063 -0.6819 -0.6391
  378TMC3    O1 5715   3.494   4.327  11.964  0.1358  0.6127 -0.5102
  378TMC3    O2 5716   3.246   4.270  12.397  0.4247  0.8070  0.1267
  379MPD2     C 5717   4.098   3.105  15.937  0.6719  0.2123 -0.0368
  379MPD2    C1 5718   4.003   3.041  16.011 -0.0545 -0.7737 -0.9271
  379MPD2    C2 5719   4.028   2.999  16.141 -0.6534 -0.0823 -0.8411
  379MPD2    C3 5720   4.159   3.006  16.188 -0.3660  0.1387  0.7798
  379MPD2    C4 5721   4.260   3.061  16.109  0.1157  0.0037  0.6374
  379MPD2    C5 5722   4.221   3.121  15.990  0.1020 -0.2044  0.0509
  379MPD2     H 5723   3.949   2.942  16.188  0.0367 -1.5425 -1.4673
  379MPD2    H1 5724   4.366   3.052  16.131  0.0535 -2.1707  0.0524
  379MPD2    H2 5725   4.084   3.146  15.838 -0.2754  1.3185  0.5531
  379MPD2    H3 5726   4.298   3.160  15.925  1.8256 -1.4580  1.3598
  379MPD2     N 5727   4.204   2.959  16.316 -0.2959 -0.4042  0.3993
  379MPD2    H5 5728   4.304   2.968  16.326 -0.5670  0.3786  2.3188
  379MPD2    N1 5729   3.881   3.011  15.941  0.1959  0.2780  0.1350
  379MPD2    H7 5730   3.880   3.037  15.842  0.4431 -0.6925 -0.1226
  380TMC3    C1 5731   3.657   2.990  15.906 -0.5529 -0.0655 -0.6401
  380TMC3    C2 5732   3.690   2.980  15.777  0.0668 -0.4071  0.3015
  380TMC3    C3 5733   3.603   3.037  15.686 -0.6373  0.5707  0.0008
  380TMC3    C4 5734   3.543   3.055  15.940 -0.6419  0.3900 -0.1036
  380TMC3    C5 5735   3.449   3.101  15.852  0.2299  0.0333 -0.4499
  380TMC3    C6 5736   3.481   3.105  15.719 -0.2030 -0.7163 -0.1721
  380TMC3     C 5737   3.764   2.987  15.998  0.4128 -0.7444 -0.1192
  380TMC3     O 5738   3.731   2.981  16.114  0.6472 -0.0975 -0.5014
  380TMC3     H 5739   3.767   2.914  15.738  1.4771  1.8593 -0.7074
  380TMC3    H1 5740   3.523   3.065  16.047 -0.6693  0.1442 -0.0868
  380TMC3    H2 5741   3.428   3.166  15.647 -0.0314 -0.4135 -0.0427
  380TMC3    C7 5742   3.328   3.151  15.903  0.4755 -0.0641  0.5196
  380TMC3    C8 5743   3.634   3.021  15.539  0.1150 -1.3445 -0.4193
  380TMC3    O1 5744   3.321   3.162  16.023 -0.1983  0.0562 -0.2646
  380TMC3    O2 5745   3.750   2.992  15.511  0.1197 -0.2403  0.3139
  381TMC3    C1 5746   3.223   4.030  15.963 -0.1782 -0.4660  0.8011
  381TMC3    C2 5747   3.349   4.088  15.984 -0.2593  0.2746 -0.0293
  381TMC3    C3 5748   3.356   4.199  16.066  0.2621  0.0834  0.2009
  381TMC3    C4 5749   3.110   4.086  16.018  0.1153  0.4323 -0.0834
  381TMC3    C5 5750   3.121   4.191  16.093 -0.2413  0.7914 -0.0523
  381TMC3    C6 5751   3.243   4.260  16.115  0.5342 -0.0985  0.5444
  381TMC3     C 5752   3.198   3.938  15.855 -0.3321 -0.2777 -0.2759
  381TMC3     O 5753   3.086   3.945  15.806 -0.2851  0.2935  0.2412
  381TMC3     H 5754   3.440   4.049  15.941 -0.7831  0.2963 -1.1586
  381TMC3    H1 5755   3.012   4.038  16.024 -0.2097  1.1232  0.0874
  381TMC3    H2 5756   3.249   4.352  16.172 -0.1594 -0.4918  1.2559
  381TMC3    C7 5757   3.043   4.187  16.218  0.4823 -0.4733 -0.0370
  381TMC3    C8 5758   3.490   4.270  16.088 -0.0372  0.4392  0.6666
  381TMC3    O1 5759   3.034   4.075  16.266 -0.0562  0.2583  0.2060
  381TMC3    O2 5760   3.572   4.240  16.004 -0.0288  0.2019 -0.3255
  382MPD2     C 5761   2.654   1.883  16.489 -0.2572  0.0827 -0.3157
  382MPD2    C1 5762   2.699   1.913  16.617  0.1479  0.1237 -0.3625
  382MPD2    C2 5763   2.718   1.813  16.707 -0.7518  0.7652  0.0620
  382MPD2    C3 5764   2.698   1.684  16.672  0.0612  0.7368 -0.8639
  382MPD2    C4 5765   2.648   1.654  16.552 -0.6721  0.4430  0.8189
  382MPD2    C5 5766   2.629   1.754  16.464 -0.4238 -0.0719 -0.6429
  382MPD2     H 5767   2.766   1.842  16.799 -0.9775 -1.6337  0.9216
  382MPD2    H1 5768   2.612   1.554  16.531  0.3319 -0.1089  1.7061
  382MPD2    H2 5769   2.652   1.954  16.407 -0.3459  0.4735  0.0251
  382MPD2    H3 5770   2.592   1.738  16.363 -2.9896  1.3792  0.0911
  382MPD2     N 5771   2.720   1.571  16.757  0.7527 -0.0826 -0.5693
  382MPD2    H5 5772   2.686   1.482  16.721 -0.5367  0.4250 -0.6175
  382MPD2    N1 5773   2.736   2.042  16.663  0.3781  0.6310 -0.4640
  382MPD2    H7 5774   2.779   2.036  16.755  0.3158  0.1003 -0.4689
  383TMC3    C1 5775   2.768   1.448  16.956 -0.7454 -0.6904 -0.1305
  383TMC3    C2 5776   2.649   1.382  16.946 -0.9208 -0.2092  0.5166
  383TMC3    C3 5777   2.621   1.299  17.041 -0.5111 -0.2321 -0.5112
  383TMC3    C4 5778   2.856   1.429  17.059  0.1464  0.6065 -0.4693
  383TMC3    C5 5779   2.828   1.327  17.145  0.5074  0.6211  0.0740
  383TMC3    C6 5780   2.716   1.256  17.136 -0.0959 -0.1549 -0.6998
  383TMC3     C 5781   2.781   1.572  16.885 -0.0473  0.5430  0.2215
  383TMC3     O 5782   2.840   1.664  16.943 -0.0774  0.0482 -0.1971
  383TMC3     H 5783   2.571   1.404  16.873 -1.7332  0.5928  1.6199
  383TMC3    H1 5784   2.949   1.483  17.070 -1.0208  2.2022  1.5482
  383TMC3    H2 5785   2.694   1.193  17.221 -0.9490 -1.1196 -1.6339
  383TMC3    C7 5786   2.912   1.308  17.256 -0.0105 -0.7451  0.1085
  383TMC3    C8 5787   2.504   1.220  17.021  0.3356  0.2001 -0.5838
  383TMC3    O1 5788   2.850   1.302  17.363 -0.6763 -0.0892 -0.4270
  383TMC3    O2 5789   2.494   1.184  16.906 -0.6872 -0.7224  1.2301
  384MPD2     C 5790   4.293   3.373  12.436 -0.2963  0.4567 -0.7030
  384MPD2    C1 5791   4.377   3.311  12.526  0.1577  0.1736  0.7795
  384MPD2    C2 5792   4.464   3.218  12.470 -0.1631  1.0036 -0.2462
  384MPD2    C3 5793   4.467   3.198  12.335 -0.0518 -0.0251  0.1473
  384MPD2    C4 5794   4.398   3.269  12.251 -0.0633 -0.1154  0.5789
  384MPD2    C5 5795   4.311   3.359  12.304 -0.0811  0.3082  0.1522
  384MPD2     H 5796   4.516   3.157  12.544  0.4673  0.7819 -0.8705
  384MPD2    H1 5797   4.411   3.261  12.144 -0.0649 -1.6698  0.6906
  384MPD2    H2 5798   4.212   3.441  12.460 -2.1431 -2.1156  0.2408
  384MPD2    H3 5799   4.248   3.415  12.236  0.3370  1.0208  0.3537
  384MPD2     N 5800   4.551   3.088  12.296 -0.2726  0.2786  0.3684
  384MPD2    H5 5801   4.604   3.050  12.374  0.1091  0.3603  0.1479
  384MPD2    N1 5802   4.361   3.319  12.662 -0.4340  0.4322 -0.0825
  384MPD2    H7 5803   4.417   3.261  12.722  0.0728  0.2005 -0.7820
  385TMC3    C1 5804   4.645   2.914  12.161 -0.1703  0.4559 -0.0010
  385TMC3    C2 5805   4.570   2.815  12.103 -0.4444 -0.0520  0.5162
  385TMC3    C3 5806   4.579   2.697  12.174  0.6432  0.5995  0.0137
  385TMC3    C4 5807   4.714   2.904  12.277  0.9526  0.9436  0.0318
  385TMC3    C5 5808   4.714   2.785  12.353 -0.4318  0.2438  0.2703
  385TMC3    C6 5809   4.642   2.681  12.294 -0.7197  0.4576 -0.2980
  385TMC3     C 5810   4.566   3.035  12.169 -0.5256 -0.5590  0.2668
  385TMC3     O 5811   4.500   3.056  12.066 -0.7532  0.2236 -0.5523
  385TMC3     H 5812   4.503   2.827  12.019 -1.7044  0.0857  1.5384
  385TMC3    H1 5813   0.024   2.992  12.319 -0.3571  1.4364  0.5151
  385TMC3    H2 5814   4.649   2.585  12.343  0.4351  1.3807  1.3451
  385TMC3    C7 5815   4.672   2.812  12.487  1.0329  0.3053 -0.1252
  385TMC3    C8 5816   4.520   2.577  12.119 -0.0759 -0.4119  0.3942
  385TMC3    O1 5817   4.681   2.930  12.508  0.0657  0.2501  0.4944
  385TMC3    O2 5818   4.499   2.490  12.207  0.1344  0.0648 -0.2752
  386TMC3    C1 5819   4.509   0.430  11.832 -0.2707  0.0788  0.0954
  386TMC3    C2 5820   4.543   0.487  11.709  0.2056 -0.2272  0.0753
  386TMC3    C3 5821   4.516   0.621  11.701 -0.4417 -0.9460 -0.1175
  386TMC3    C4 5822   4.463   0.499  11.938  0.4505 -0.4259 -0.2537
  386TMC3    C5 5823   4.414   0.628  11.916  0.6892 -0.2772  0.1961
  386TMC3    C6 5824   4.457   0.697  11.805  0.0103 -0.5076  0.2444
  386TMC3     C 5825   4.543   0.287  11.849 -0.1052 -0.1008  0.0932
  386TMC3     O 5826   4.620   0.235  11.768 -0.5076  0.1788 -0.4040
  386TMC3     H 5827   4.574   0.421  11.629 -1.2916 -0.2835 -0.4559
  386TMC3    H1 5828   4.450   0.448  12.032  0.8179 -2.9991 -1.5883
  386TMC3    H2 5829   4.433   0.797  11.773  1.0052 -0.2795  0.1911
  386TMC3    C7 5830   4.317   0.681  12.018 -0.6207 -0.4484 -0.6977
  386TMC3    C8 5831   4.530   0.680  11.571 -0.7602  0.0350 -0.9589
  386TMC3    O1 5832   4.278   0.598  12.094  0.3794 -0.4385 -0.8487
  386TMC3    O2 5833   4.448   0.764  11.555  0.6017 -0.3593  0.0444
  387MPD2     C 5834   1.918   1.222   9.985  0.1362 -0.7590  0.1331
  387MPD2    C1 5835   2.058   1.216  10.012  0.5262  0.4898 -0.1162
  387MPD2    C2 5836   2.130   1.120   9.949 -0.2286  0.1572  0.5808
  387MPD2    C3 5837   2.077   1.044   9.847  0.0695  0.3558 -0.5700
  387MPD2    C4 5838   1.945   1.069   9.805  0.8010 -0.2665  0.0029
  387MPD2    C5 5839   1.870   1.150   9.881 -0.5693 -0.2384  0.4047
  387MPD2     H 5840   2.235   1.112   9.974 -0.3142  0.3585  1.0178
  387MPD2    H1 5841   1.901   1.024   9.716 -0.3138  0.8703 -0.0307
  387MPD2    H2 5842   1.860   1.299  10.035 -0.6878  0.0513 -2.0705
  387MPD2    H3 5843   1.763   1.156   9.863 -0.1470  0.7414 -1.7409
  387MPD2     N 5844   2.165   0.950   9.787 -0.8474 -0.6216  0.2824
  387MPD2    H5 5845   2.244   0.918   9.841 -1.5780 -1.0037  1.1312
  387MPD2    N1 5846   2.126   1.285  10.117  0.3895  0.0686 -0.7117
  387MPD2    H7 5847   2.204   1.236  10.160 -0.4083  0.5343  1.2759
  388TMC3    C1 5848   2.249   1.468  10.174  0.0871 -0.2757  0.7423
  388TMC3    C2 5849   2.258   1.581  10.251  0.1487  0.2696  1.0513
  388TMC3    C3 5850   2.384   1.620  10.298 -0.0619  0.2800 -0.1816
  388TMC3    C4 5851   2.358   1.394  10.142  0.1986 -0.5137 -0.4359
  388TMC3    C5 5852   2.479   1.434  10.189  0.6765 -0.0283 -0.2438
  388TMC3    C6 5853   2.496   1.549  10.265 -0.2942 -0.2326  0.2798
  388TMC3     C 5854   2.121   1.421  10.130 -0.6635  0.1263  0.0901
  388TMC3     O 5855   2.050   1.505  10.080 -0.3578  0.1543 -0.1036
  388TMC3     H 5856   2.166   1.637  10.249  0.3513  0.5416 -1.0471
  388TMC3    H1 5857   2.350   1.323  10.060 -0.6252 -0.7762 -0.1207
  388TMC3    H2 5858   2.596   1.568  10.300  0.2131  1.2107 -1.9575
  388TMC3    C7 5859   2.599   1.348  10.167  0.7007 -0.3147 -0.6032
  388TMC3    C8 5860   2.412   1.763  10.326  0.1203 -0.0541 -0.8982
  388TMC3    O1 5861   2.707   1.405  10.174 -0.2043  0.3918 -0.8471
  388TMC3    O2 5862   2.527   1.792  10.349  0.1459 -0.5764 -0.1498
  389MPD2     C 5863   1.174   3.199  10.540 -0.5870  0.3750 -0.8655
  389MPD2    C1 5864   1.165   3.272  10.654  1.1267 -0.2814 -0.1446
  389MPD2    C2 5865   1.139   3.203  10.770 -0.5011  0.2840 -0.8270
  389MPD2    C3 5866   1.127   3.065  10.775  0.3248  0.1595  0.4470
  389MPD2    C4 5867   1.152   2.995  10.664 -0.5438 -0.0540  0.6456
  389MPD2    C5 5868   1.170   3.063  10.540 -0.1760 -0.0450 -0.0052
  389MPD2     H 5869   1.111   3.266  10.853  0.6846 -1.3359  0.7966
  389MPD2    H1 5870   1.156   2.887  10.655  0.1299  0.1375 -1.5086
  389MPD2    H2 5871   1.186   3.250  10.445  1.1089  0.5873 -0.5412
  389MPD2    H3 5872   1.187   3.006  10.449  0.0562  0.8674 -0.5284
  389MPD2     N 5873   1.094   2.995  10.892  0.2820  0.3113  0.2118
  389MPD2    H5 5874   1.080   2.895  10.879 -1.6270  0.8371 -1.6149
  389MPD2    N1 5875   1.186   3.414  10.650  1.0331 -0.0956 -0.6129
  389MPD2    H7 5876   1.239   3.451  10.571  1.4148 -0.9427 -0.7502
  390TMC3    C1 5877   1.070   2.929  11.119 -1.0793  0.4137  0.0418
  390TMC3    C2 5878   1.074   2.958  11.255 -0.3511  0.2766 -0.7884
  390TMC3    C3 5879   1.060   2.857  11.342 -0.4513  0.3579 -0.2595
  390TMC3    C4 5880   1.024   2.812  11.066  0.0758  0.7719  0.1664
  390TMC3    C5 5881   1.004   2.712  11.162  0.0885 -0.1581  0.3539
  390TMC3    C6 5882   1.022   2.732  11.299 -0.7202 -0.6451  0.0201
  390TMC3     C 5883   1.101   3.034  11.019  0.4569  0.5393 -0.4448
  390TMC3     O 5884   1.108   3.149  11.061 -0.2541  0.6148  0.3688
  390TMC3     H 5885   1.094   3.057  11.294 -4.4145  0.6172  0.4026
  390TMC3    H1 5886   1.007   2.786  10.962  0.6601 -1.5771  0.6778
  390TMC3    H2 5887   1.005   2.637  11.349 -0.0103 -0.5376  0.4676
  390TMC3    C7 5888   0.904   2.609  11.146  0.3808 -0.2666  0.7866
  390TMC3    C8 5889   1.005   2.888  11.476  1.0441 -0.1431 -0.3031
  390TMC3    O1 5890   0.938   2.506  11.092  0.2123 -0.7340  0.3949
  390TMC3    O2 5891   1.019   3.002  11.519 -0.1321 -0.2536 -0.0048
  391MPD2     C 5892   0.658   0.165  11.102  0.3846  0.2231 -0.1748
  391MPD2    C1 5893   0.783   0.181  11.055  0.5171 -0.0994  0.7282
  391MPD2    C2 5894   0.801   0.218  10.924 -0.3849  0.1331  0.1345
  391MPD2    C3 5895   0.689   0.251  10.845  0.1093 -0.5051  0.0793
  391MPD2    C4 5896   0.560   0.248  10.903  0.0405  0.0848 -0.7850
  391MPD2    C5 5897   0.551   0.200  11.029 -0.0894 -0.0494 -0.3577
  391MPD2     H 5898   0.900   0.223  10.880  1.0674  0.3990  3.4398
  391MPD2    H1 5899   0.470   0.279  10.852  0.1443  0.1469 -0.9304
  391MPD2    H2 5900   0.639   0.131  11.204  0.5940 -0.6340 -0.4220
  391MPD2    H3 5901   0.453   0.206  11.074 -0.3540 -0.1636 -0.9141
  391MPD2     N 5902   0.719   0.293  10.714 -0.1559 -0.2602 -0.3051
  391MPD2    H5 5903   0.815   0.294  10.680  0.6955  1.6398  2.1267
  391MPD2    N1 5904   0.887   0.159  11.151 -0.4589  0.5269 -0.0896
  391MPD2    H7 5905   0.841   0.153  11.241 -0.3031  1.4748  0.0515
  392TMC3    C1 5906   0.684   0.383  10.501  0.1358 -0.0294 -0.1313
  392TMC3    C2 5907   0.612   0.362  10.387  1.2092 -0.1481 -0.5319
  392TMC3    C3 5908   0.675   0.392  10.267  0.8034  0.1544 -0.5721
  392TMC3    C4 5909   0.810   0.438  10.498  0.1691  0.1507  0.2019
  392TMC3    C5 5910   0.869   0.462  10.378  0.4575  0.6795  0.0992
  392TMC3    C6 5911   0.803   0.440  10.258  0.1443  0.1196 -0.5955
  392TMC3     C 5912   0.621   0.328  10.620  0.4147  0.2159  0.0662
  392TMC3     O 5913   0.502   0.327  10.634  0.3483  0.2165 -0.1483
  392TMC3     H 5914   0.521   0.302  10.391  0.6100  0.7878 -0.2033
  392TMC3    H1 5915   0.869   0.463  10.586  0.4559  0.9442 -0.2098
  392TMC3    H2 5916   0.857   0.458  10.165 -0.4141 -2.1210 -1.3483
  392TMC3    C7 5917   0.996   0.529  10.380 -0.3610  0.0463  0.0578
  392TMC3    C8 5918   0.580   0.395  10.151 -0.3407  0.7374 -0.5470
  392TMC3    O1 5919   1.071   0.493  10.469  0.5293  0.3942  0.1142
  392TMC3    O2 5920   0.465   0.388  10.194  0.1329  0.6954 -0.2239
  393TMC3    C1 5921   4.166   3.466  11.123  0.0401 -0.0707  0.3019
  393TMC3    C2 5922   4.076   3.418  11.218 -0.0337 -0.6599  0.1010
  393TMC3    C3 5923   4.029   3.288  11.218  0.3184  0.4422 -0.0415
  393TMC3    C4 5924   4.207   3.381  11.026 -0.2408  0.2419 -0.6131
  393TMC3    C5 5925   4.182   3.248  11.044 -0.0264  0.4516 -0.0851
  393TMC3    C6 5926   4.080   3.200  11.122  0.9601  0.1235  0.1347
  393TMC3     C 5927   4.257   3.574  11.139  0.4572  0.5046  0.2653
  393TMC3     O 5928   4.296   3.632  11.042  0.2040  0.6425 -0.1832
  393TMC3     H 5929   4.055   3.472  11.310  3.1321  1.2052 -0.2567
  393TMC3    H1 5930   4.265   3.423  10.944  1.0608 -0.6614 -0.1499
  393TMC3    H2 5931   4.052   3.096  11.117  1.2694  0.1598 -2.4327
  393TMC3    C7 5932   4.249   3.154  10.947 -0.3754 -0.3273  0.4990
  393TMC3    C8 5933   3.928   3.246  11.315  0.0659  0.1457  0.4447
  393TMC3    O1 5934   4.212   3.043  10.933  0.0851 -0.4328  0.0249
  393TMC3    O2 5935   3.919   3.128  11.347  0.0673 -0.2619  0.0415
  394TMC3    C1 5936   1.167   3.643  10.687 -0.0001 -0.3995  0.0569
  394TMC3    C2 5937   1.060   3.725  10.711 -0.2543 -0.2226 -0.7777
  394TMC3    C3 5938   1.065   3.855  10.667 -0.2169  0.4334 -0.8329
  394TMC3    C4 5939   1.274   3.681  10.616 -0.7094 -0.2128  0.2577
  394TMC3    C5 5940   1.285   3.810  10.586  0.2493 -0.3155  0.0119
  394TMC3    C6 5941   1.179   3.897  10.606 -0.0737 -0.1149  0.3423
  394TMC3     C 5942   1.149   3.509  10.737 -0.0254 -0.0883  0.1052
  394TMC3     O 5943   1.082   3.494  10.835  0.5322  0.7530  0.6203
  394TMC3     H 5944   0.973   3.695  10.768 -0.1184  3.3389  1.2991
  394TMC3    H1 5945   1.358   3.612  10.612 -0.1677  0.3861  1.4296
  394TMC3    H2 5946   1.183   3.998  10.566 -0.2290 -0.3971 -0.3767
  394TMC3    C7 5947   1.407   3.870  10.526 -1.1425  1.0625 -0.1286
  394TMC3    C8 5948   0.934   3.904  10.632 -0.2085 -0.1778 -0.2296
  394TMC3    O1 5949   1.407   3.987  10.494 -0.0334 -0.0261 -0.0899
  394TMC3    O2 5950   0.832   3.870  10.693  0.2813  0.3416  0.6095
  395TMC3    C1 5951   0.923   0.863  14.427  0.2522  0.4050  0.3444
  395TMC3    C2 5952   0.835   0.934  14.506  0.0308 -0.2877 -0.4993
  395TMC3    C3 5953   0.869   1.046  14.574  0.3660  0.1868  0.4986
  395TMC3    C4 5954   1.046   0.919  14.414  0.1373 -0.7284  0.2649
  395TMC3    C5 5955   1.081   1.040  14.467 -0.5390 -0.0431  1.1705
  395TMC3    C6 5956   0.993   1.102  14.554  0.1622 -0.0261  0.6587
  395TMC3     C 5957   0.907   0.720  14.444  1.1650  1.4420  0.2668
  395TMC3     O 5958   0.974   0.642  14.375 -0.3167  0.5846  0.2226
  395TMC3     H 5959   0.734   0.897  14.495 -0.2029  0.7658 -1.8821
  395TMC3    H1 5960   1.117   0.869  14.349 -0.2249 -0.2015 -0.5328
  395TMC3    H2 5961   1.015   1.198  14.599  0.7822  0.2885 -0.3136
  395TMC3    C7 5962   1.208   1.101  14.452  0.0680 -0.1210 -0.0056
  395TMC3    C8 5963   0.815   1.066  14.709  0.5666  0.2210 -1.0287
  395TMC3    O1 5964   1.243   1.172  14.545 -0.4293  0.0947  0.1198
  395TMC3    O2 5965   0.902   1.099  14.786 -0.7988 -0.3696 -0.0296
  396MPD2     C 5966   1.218   1.629  17.105 -0.5583  0.2636  0.0595
  396MPD2    C1 5967   1.246   1.561  16.988  0.9177 -1.4351 -0.8811
  396MPD2    C2 5968   1.291   1.641  16.882 -0.1328  1.0950  0.1697
  396MPD2    C3 5969   1.287   1.774  16.893 -0.2058  0.1505  1.4770
  396MPD2    C4 5970   1.242   1.839  17.006  0.6247  0.6724 -1.1895
  396MPD2    C5 5971   1.213   1.763  17.107 -0.3260 -0.6027 -0.0497
  396MPD2     H 5972   1.324   1.596  16.789  2.0629  1.1989  0.9036
  396MPD2    H1 5973   1.238   1.947  17.022 -0.9566  0.9011 -3.0755
  396MPD2    H2 5974   1.195   1.592  17.205 -1.1960  0.0395 -0.1679
  396MPD2    H3 5975   1.187   1.810  17.201  0.7286  0.3645 -0.2454
  396MPD2     N 5976   1.332   1.862  16.797  0.3606  0.0631  0.4544
  396MPD2    H5 5977   1.322   1.960  16.822 -0.5220 -0.0155  0.4191
  396MPD2    N1 5978   1.244   1.419  16.984 -0.1365  0.3163  0.5240
  396MPD2    H7 5979   1.235   1.368  17.071  1.7559 -1.6613 -0.4114
  397TMC3    C1 5980   1.224   1.208  16.899  0.9347  0.0483 -0.5581
  397TMC3    C2 5981   1.250   1.136  16.782  0.0079  0.4609  0.1243
  397TMC3    C3 5982   1.154   1.082  16.697 -0.5781  0.2374  0.1666
  397TMC3    C4 5983   1.092   1.202  16.938  0.3866 -0.1592  0.0152
  397TMC3    C5 5984   1.007   1.126  16.876  1.0570 -0.4827 -0.1896
  397TMC3    C6 5985   1.029   1.067  16.750 -0.1308  0.2287 -0.3314
  397TMC3     C 5986   1.264   1.350  16.873 -0.2972  0.2832 -0.5961
  397TMC3     O 5987   1.270   1.392  16.756  0.5706 -0.1997  0.2958
  397TMC3     H 5988   1.342   1.172  16.736  0.7381 -1.1841  0.2850
  397TMC3    H1 5989   1.069   1.249  17.034  0.3190 -0.8614  0.3404
  397TMC3    H2 5990   0.948   1.018  16.697 -0.1731 -0.8266  0.7169
  397TMC3    C7 5991   0.894   1.068  16.948  0.5156  0.0877  0.1919
  397TMC3    C8 5992   1.160   1.116  16.552  0.3401 -0.2666 -0.2860
  397TMC3    O1 5993   0.796   1.030  16.882 -0.4178 -0.2084  0.2030
  397TMC3    O2 5994   1.058   1.125  16.485  0.1139 -0.0836 -0.3500
  398MPD2     C 5995   4.202   2.902   0.200 -0.3521  0.1697 -0.4707
  398MPD2    C1 5996   4.200   2.775   0.243 -0.1044 -0.3519  0.3625
  398MPD2    C2 5997   4.261   2.743   0.361 -0.1763 -0.3161  0.5641
  398MPD2    C3 5998   4.327   2.835   0.440  0.1081  0.6324 -0.5654
  398MPD2    C4 5999   4.322   2.963   0.395  0.0410  0.1914  0.1805
  398MPD2    C5 6000   4.263   2.991   0.272 -0.4338 -0.3298 -0.0268
  398MPD2     H 6001   4.250   2.641   0.395  1.7073 -0.9705 -0.7756
  398MPD2    H1 6002   4.375   3.044   0.443  0.3360  0.9576 -1.4422
  398MPD2    H2 6003   4.161   2.925   0.102 -0.7508  0.6648 -0.1865
  398MPD2    H3 6004   4.255   3.096   0.249  0.5615  0.6296  4.0277
  398MPD2     N 6005   4.396   2.797   0.559  0.4207  0.1250 -0.7110
  398MPD2    H5 6006   4.422   2.700   0.576 -2.8969 -0.3977  1.3730
  398MPD2    N1 6007   4.121   2.668   0.190  0.4124 -0.2887 -0.1006
  398MPD2    H7 6008   4.123   2.572   0.224 -0.9769 -0.3547 -0.2218
  399TMC3    C1 6009   3.981   2.550   0.045 -0.1247  0.2936 -0.6456
  399TMC3    C2 6010   4.025   2.450   0.129  0.3007 -0.7476  0.8314
  399TMC3    C3 6011   3.936   2.364   0.193  0.1563 -0.0805  0.3258
  399TMC3    C4 6012   3.846   2.569   0.028 -0.2787  0.0471  0.8467
  399TMC3    C5 6013   3.755   2.487   0.095  0.0059  0.4467 -0.4549
  399TMC3    C6 6014   3.798   2.389   0.184 -0.3699  0.0615  0.0620
  399TMC3     C 6015   4.035   2.680   0.087 -0.1368 -0.2449  0.3769
  399TMC3     O 6016   3.993   2.781   0.035 -0.7013  0.1473 -0.4369
  399TMC3     H 6017   4.132   2.429   0.133  0.4888 -0.0408 -0.3825
  399TMC3    H1 6018   3.814   2.649  17.712 -1.1960  0.1167  1.3651
  399TMC3    H2 6019   3.720   2.323   0.221 -0.0208 -1.0913 -1.2321
  399TMC3    C7 6020   3.609   2.494   0.081 -0.5503 -0.0930 -0.2574
  399TMC3    C8 6021   3.975   2.256   0.271 -0.2020 -0.5963 -0.0678
  399TMC3    O1 6022   3.544   2.409   0.141 -0.1758 -0.1067 -0.7620
  399TMC3    O2 6023   3.884   2.179   0.285  0.3573  0.1897 -0.5065
  400TMC3    C1 6024   2.428   0.796  16.762 -0.0982 -0.4160 -0.1795
  400TMC3    C2 6025   2.340   0.698  16.719 -0.2366  0.3363  0.0201
  400TMC3    C3 6026   2.242   0.725  16.630 -0.4516 -0.1377  0.3875
  400TMC3    C4 6027   2.415   0.926  16.723 -0.3743 -0.2837 -0.2124
  400TMC3    C5 6028   2.320   0.946  16.627  0.0311  0.8006  0.1596
  400TMC3    C6 6029   2.240   0.850  16.576  0.2285  0.3556 -1.1295
  400TMC3     C 6030   2.493   0.778  16.893 -0.3349 -0.5420  0.5946
  400TMC3     O 6031   2.448   0.688  16.965  0.5853 -0.4405 -0.0576
  400TMC3     H 6032   2.371   0.595  16.730  0.8097  0.2753 -3.5099
  400TMC3    H1 6033   2.472   1.003  16.773 -0.6048 -1.4419  1.8147
  400TMC3    H2 6034   2.165   0.875  16.502  0.4513  1.4284 -0.9829
  400TMC3    C7 6035   2.301   1.083  16.574  0.1276 -0.6967 -0.5301
  400TMC3    C8 6036   2.162   0.616  16.580 -0.2405  0.0972 -0.5297
  400TMC3    O1 6037   2.230   1.091  16.473 -0.3734  0.2262 -0.7293
  400TMC3    O2 6038   2.128   0.632  16.464 -0.4479 -0.0288  0.6571
  401MPD2     C 6039   0.933   4.376   0.689 -0.1988  0.1699 -0.4289
  401MPD2    C1 6040   1.040   4.372   0.780  0.0330  0.4807  0.5964
  401MPD2    C2 6041   1.091   4.245   0.818  0.1248  0.0523  0.6632
  401MPD2    C3 6042   1.050   4.132   0.752  0.3492 -0.3215 -0.1255
  401MPD2    C4 6043   0.941   4.135   0.658 -0.1040 -0.1966 -0.3651
  401MPD2    C5 6044   0.884   4.256   0.625  0.3227 -0.4731  0.6253
  401MPD2     H 6045   1.162   4.238   0.899  0.3293 -1.4194  0.3573
  401MPD2    H1 6046   0.908   4.046   0.606 -1.5761  0.9950 -1.4860
  401MPD2    H2 6047   0.891   4.471   0.658  0.3043  0.4737 -0.1890
  401MPD2    H3 6048   0.815   4.260   0.542  0.2893 -2.9879  0.5473
  401MPD2     N 6049   1.121   4.011   0.780 -0.2156 -0.2169 -0.5355
  401MPD2    H5 6050   1.189   4.008   0.856 -2.2393  1.9688  1.3577
  401MPD2    N1 6051   1.092   4.494   0.833 -0.3526  0.0726 -0.1896
  401MPD2    H7 6052   1.167   4.485   0.901  0.4913  0.9525 -0.9816
  402TMC3    C1 6053   1.215   3.790   0.734 -0.0161 -0.1448 -0.1375
  402TMC3    C2 6054   1.288   3.776   0.850  0.3824 -0.1885 -0.2326
  402TMC3    C3 6055   1.389   3.686   0.851  0.7799  0.5396  0.2964
  402TMC3    C4 6056   1.248   3.716   0.625  0.1414  0.1732 -0.2509
  402TMC3    C5 6057   1.345   3.625   0.636  0.7069 -0.1647 -0.4525
  402TMC3    C6 6058   1.424   3.608   0.745  0.5307 -0.3972  0.1538
  402TMC3     C 6059   1.112   3.893   0.717 -0.4023 -0.3651 -0.0427
  402TMC3     O 6060   1.046   3.874   0.613  0.0233 -0.2838  0.2383
  402TMC3     H 6061   1.260   3.835   0.937 -1.7693 -0.1424 -0.9418
  402TMC3    H1 6062   1.200   3.738   0.530 -2.6552 -0.9616  0.8800
  402TMC3    H2 6063   1.503   3.533   0.747  0.8601 -0.0602 -0.2104
  402TMC3    C7 6064   1.387   3.567   0.504 -0.1941  0.1457  0.0944
  402TMC3    C8 6065   1.457   3.658   0.979 -0.3106 -0.6674 -0.3623
  402TMC3    O1 6066   1.334   3.608   0.405  0.0560  0.2171 -1.3231
  402TMC3    O2 6067   1.538   3.572   0.969 -0.2316  0.0180  0.3662
  403MPD2     C 6068   3.908   2.971  13.579  0.7776  0.1338 -0.0006
  403MPD2    C1 6069   4.008   2.879  13.582  0.0959 -0.0388  0.3097
  403MPD2    C2 6070   4.132   2.905  13.640  0.2946  0.1327  0.0851
  403MPD2    C3 6071   4.156   3.022  13.715 -0.3063 -0.0527  0.1894
  403MPD2    C4 6072   4.044   3.103  13.731  0.4647  0.2130  0.1249
  403MPD2    C5 6073   3.933   3.090  13.646 -0.3316 -1.0001  1.2961
  403MPD2     H 6074   4.214   2.834  13.630  0.9514  0.9719 -0.4939
  403MPD2    H1 6075   4.040   3.194  13.790  1.3295 -0.6347  1.4742
  403MPD2    H2 6076   3.819   2.948  13.521  0.4205  0.8275  0.2765
  403MPD2    H3 6077   3.854   3.164  13.651  0.9426  0.3614  1.3915
  403MPD2     N 6078   4.275   3.042  13.784 -0.4530 -0.3622  0.0481
  403MPD2    H5 6079   4.353   2.982  13.760 -0.6402  0.3221 -2.2246
  403MPD2    N1 6080   3.977   2.755  13.520  0.0938 -0.2393  0.7498
  403MPD2    H7 6081   3.886   2.748  13.476 -0.2727  4.1325  0.7918
  404TMC3    C1 6082   3.996   2.529  13.456 -0.1471  0.2560  0.9622
  404TMC3    C2 6083   3.999   2.406  13.508 -0.2696 -0.0253  0.0126
  404TMC3    C3 6084   3.952   2.296  13.433  0.0054 -0.1673  0.3845
  404TMC3    C4 6085   3.946   2.550  13.331  0.4504 -0.0267  0.6288
  404TMC3    C5 6086   3.885   2.443  13.272  0.1293 -0.2629  0.0437
  404TMC3    C6 6087   3.889   2.314  13.315 -0.0901 -0.2699 -0.1522
  404TMC3     C 6088   4.053   2.638  13.535 -0.4866 -0.3336  0.4266
  404TMC3     O 6089   4.144   2.612  13.615 -0.6036 -0.5261 -0.2863
  404TMC3     H 6090   4.046   2.397  13.606 -0.8928 -0.4077  0.2759
  404TMC3    H1 6091   3.956   2.651  13.293  3.2077  0.5788  2.9091
  404TMC3    H2 6092   3.853   2.228  13.259  4.7118 -3.1220  1.0488
  404TMC3    C7 6093   3.823   2.482  13.150  0.0444 -0.7934 -0.0664
  404TMC3    C8 6094   3.984   2.159  13.476 -0.1467  0.0154 -0.6783
  404TMC3    O1 6095   3.857   2.593  13.110 -0.2369 -0.0143 -0.2769
  404TMC3    O2 6096   4.012   2.074  13.392  0.2564 -0.2591 -0.1651
  405MPD2     C 6097   4.323   3.060  14.532  0.5124 -0.4494 -0.3020
  405MPD2    C1 6098   4.226   2.982  14.478 -0.0600  0.9694  0.3940
  405MPD2    C2 6099   4.143   3.032  14.380  0.0725  0.1685 -0.1827
  405MPD2    C3 6100   4.149   3.162  14.345 -0.0722  0.8449  0.1097
  405MPD2    C4 6101   4.249   3.239  14.403 -0.0934  0.0533  0.3531
  405MPD2    C5 6102   4.339   3.185  14.495  0.0228 -0.0485  0.4509
  405MPD2     H 6103   4.070   2.970  14.328 -0.4751 -0.9351  1.8793
  405MPD2    H1 6104   4.244   3.346  14.389  0.0704  0.2321  1.6465
  405MPD2    H2 6105   4.385   3.015  14.609  0.6485  0.1642 -0.0489
  405MPD2    H3 6106   4.401   3.253  14.552 -0.2193  1.1522 -0.6965
  405MPD2     N 6107   4.049   3.209  14.253 -0.0052  0.5014  0.2277
  405MPD2    H5 6108   3.974   3.144  14.229  1.2057 -0.4827 -0.9002
  405MPD2    N1 6109   4.217   2.848  14.518 -0.1379  0.2705 -0.1910
  405MPD2    H7 6110   4.276   2.826  14.597 -0.8369  0.7783  0.4794
  406TMC3    C1 6111   3.753   3.444  13.986  1.0555  0.3089 -0.0077
  406TMC3    C2 6112   3.703   3.322  13.945  0.5254 -0.7246 -0.2391
  406TMC3    C3 6113   3.765   3.200  13.973  0.1205  0.1877  0.0879
  406TMC3    C4 6114   3.858   3.445  14.069 -0.7232  0.1600 -0.3277
  406TMC3    C5 6115   3.929   3.331  14.096 -0.2407 -0.0274  0.0590
  406TMC3    C6 6116   3.886   3.209  14.044 -0.1754  0.7725 -0.6654
  406TMC3     C 6117   3.646   3.542  14.015  0.3460 -0.2704 -0.0375
  406TMC3     O 6118   3.636   3.647  13.952  0.3836 -0.1291 -0.1710
  406TMC3     H 6119   3.602   3.312  13.906  1.2637 -2.0550 -1.7888
  406TMC3    H1 6120   3.892   3.543  14.103  0.8579 -0.5007 -0.0231
  406TMC3    H2 6121   3.950   3.125  14.067 -0.3160  0.1958 -2.3737
  406TMC3    C7 6122   4.034   3.337  14.196 -0.4295 -0.5716  0.2399
  406TMC3    C8 6123   3.694   3.076  13.970 -0.3214 -0.3636  0.1274
  406TMC3    O1 6124   4.079   3.440  14.233  0.1008  0.1830  0.5685
  406TMC3    O2 6125   3.585   3.071  13.917 -0.0767 -0.1573  0.3805
  407MPD2     C 6126   1.566   0.734   9.541 -0.3785 -0.3298  0.3370
  407MPD2    C1 6127   1.696   0.756   9.570  0.2204  0.0674 -0.4921
  407MPD2    C2 6128   1.729   0.776   9.699 -0.0014  0.2684 -0.1578
  407MPD2    C3 6129   1.646   0.760   9.806 -0.0730 -0.0020 -0.1543
  407MPD2    C4 6130   1.514   0.720   9.782  0.3744  0.0793  0.3112
  407MPD2    C5 6131   1.473   0.712   9.648  0.0732  0.3275  0.1810
  407MPD2     H 6132   1.830   0.809   9.724  0.0793  0.1065 -0.2760
  407MPD2    H1 6133   1.439   0.711   9.860 -0.9132  3.9404 -0.4701
  407MPD2    H2 6134   1.532   0.730   9.438 -0.1826 -4.6673  0.4443
  407MPD2    H3 6135   1.367   0.692   9.632  0.0349  0.2190  0.5536
  407MPD2     N 6136   1.679   0.781   9.943 -0.3435 -0.0533 -0.1770
  407MPD2    H5 6137   1.611   0.762  10.016 -1.3933  0.2563 -1.0602
  407MPD2    N1 6138   1.800   0.775   9.475 -0.4971 -0.1573 -0.4529
  407MPD2    H7 6139   1.888   0.800   9.517 -0.4670  0.6881 -1.0017
  408TMC3    C1 6140   1.940   0.776   9.296 -0.0846  0.5269 -0.7998
  408TMC3    C2 6141   1.998   0.675   9.236  1.3098  0.8603  0.4994
  408TMC3    C3 6142   2.131   0.697   9.193  0.1374 -0.7360  0.3182
  408TMC3    C4 6143   1.995   0.896   9.329  0.3846 -0.1568  0.0200
  408TMC3    C5 6144   2.129   0.913   9.302 -0.0991  0.1295 -0.4649
  408TMC3    C6 6145   2.197   0.813   9.230  0.0842  0.1703 -0.2367
  408TMC3     C 6146   1.801   0.751   9.340 -0.6968 -0.4121  0.0111
  408TMC3     O 6147   1.719   0.701   9.270 -0.0083 -0.1278 -0.7224
  408TMC3     H 6148   1.935   0.592   9.207  1.9244  1.1875 -1.7879
  408TMC3    H1 6149   1.935   0.969   9.382  0.2644  0.4462 -0.9464
  408TMC3    H2 6150   2.299   0.839   9.202  1.2471 -1.9626  1.9945
  408TMC3    C7 6151   2.195   1.027   9.375 -0.1441  0.6028 -0.3552
  408TMC3    C8 6152   2.201   0.586   9.135 -0.1220 -0.9179  0.3323
  408TMC3    O1 6153   2.118   1.110   9.422  0.1630 -0.4427 -0.2728
  408TMC3    O2 6154   2.123   0.507   9.082 -0.5541  0.7441 -0.1136
  409MPD2     C 6155   1.354   0.344  16.643 -0.2946  0.0485  0.3691
  409MPD2    C1 6156   1.400   0.403  16.757 -0.4736  0.4373 -0.1655
  409MPD2    C2 6157   1.513   0.481  16.759  0.4292  0.1817  0.5443
  409MPD2    C3 6158   1.574   0.505  16.642 -0.0378  0.3264 -0.3184
  409MPD2    C4 6159   1.523   0.451  16.526 -0.1998 -0.9256  0.1455
  409MPD2    C5 6160   1.411   0.374  16.529 -0.2859 -0.0758 -0.4207
  409MPD2     H 6161   1.539   0.530  16.852  2.1023  0.8714 -0.2959
  409MPD2    H1 6162   1.574   0.474  16.433 -0.9543 -0.5693 -0.1803
  409MPD2    H2 6163   1.284   0.261  16.642 -1.8823  1.4624 -3.1534
  409MPD2    H3 6164   1.380   0.319  16.441  0.0367  0.1451 -0.6707
  409MPD2     N 6165   1.679   0.592  16.625  0.1820  0.6419 -0.3220
  409MPD2    H5 6166   1.705   0.617  16.530 -0.0142 -1.6583 -0.9670
  409MPD2    N1 6167   1.331   0.376  16.876  0.1729  0.4648 -0.3488
  409MPD2    H7 6168   1.261   0.304  16.862  0.0447  0.4650  0.3118
  410TMC3    C1 6169   1.819   0.762  16.690 -0.4072  0.0427  0.2839
  410TMC3    C2 6170   1.888   0.829  16.787  0.2550  0.0914  0.1638
  410TMC3    C3 6171   1.954   0.941  16.754 -0.1228 -0.0558  0.5021
  410TMC3    C4 6172   1.820   0.802  16.561  0.0265  0.3801  0.3239
  410TMC3    C5 6173   1.880   0.921  16.536 -0.4126  0.0987 -0.4250
  410TMC3    C6 6174   1.958   0.982  16.626  0.0705  0.1716 -0.0928
  410TMC3     C 6175   1.745   0.648  16.730  0.1967  0.0264  0.2395
  410TMC3     O 6176   1.753   0.620  16.847  0.1419  0.0788 -0.4290
  410TMC3     H 6177   1.871   0.792  16.888 -2.6393 -0.6485 -0.5874
  410TMC3    H1 6178   1.761   0.757  16.482 -0.6562 -1.1274  1.6790
  410TMC3    H2 6179   2.026   1.063  16.601  1.1150 -1.5698 -2.8990
  410TMC3    C7 6180   1.881   0.955  16.391  0.1583 -0.1369 -0.5147
  410TMC3    C8 6181   2.050   1.007  16.846 -0.0115  0.0912  0.2459
  410TMC3    O1 6182   1.869   0.865  16.310 -0.4776  0.3041  0.4415
  410TMC3    O2 6183   2.092   1.119  16.814  0.2398  0.4500 -0.4821
  411MPD2     C 6184   1.749   2.320  13.900 -0.3245 -0.0879  0.3354
  411MPD2    C1 6185   1.672   2.235  13.979 -0.0891  0.2104 -0.7659
  411MPD2    C2 6186   1.670   2.103  13.956  0.3127  0.5916  0.8536
  411MPD2    C3 6187   1.738   2.050  13.848 -0.1523 -0.2755 -0.4066
  411MPD2    C4 6188   1.826   2.132  13.779  0.0889 -0.8289  0.5802
  411MPD2    C5 6189   1.836   2.262  13.811  0.3212  0.0245 -0.0049
  411MPD2     H 6190   1.628   2.040  14.033 -1.8313  1.5906  0.4907
  411MPD2    H1 6191   1.857   2.097  13.681 -0.8196 -0.6551  0.2347
  411MPD2    H2 6192   1.761   2.424  13.927  1.7034 -0.1321 -0.4012
  411MPD2    H3 6193   1.902   2.326  13.754 -0.9237  1.3073 -0.0263
  411MPD2     N 6194   1.733   1.915  13.810  0.0536  0.2986 -0.0443
  411MPD2    H5 6195   1.804   1.883  13.746  0.5959  0.2159  0.5953
  411MPD2    N1 6196   1.615   2.305  14.086 -0.5670 -0.4555 -0.5705
  411MPD2    H7 6197   1.640   2.404  14.081  2.0475 -1.0528  0.6111
  412TMC3    C1 6198   1.695   1.689  13.884 -0.9074  0.0138 -0.5547
  412TMC3    C2 6199   1.658   1.637  14.004  0.0964 -0.1639 -0.0749
  412TMC3    C3 6200   1.643   1.501  14.005 -0.3158 -0.6096  0.3787
  412TMC3    C4 6201   1.707   1.615  13.773 -0.6229  0.0126 -0.3276
  412TMC3    C5 6202   1.709   1.479  13.781 -0.0406  0.0720 -0.4935
  412TMC3    C6 6203   1.678   1.426  13.899  0.4184 -0.1178  0.3197
  412TMC3     C 6204   1.639   1.823  13.860 -0.0929 -1.0286 -0.3838
  412TMC3     O 6205   1.532   1.845  13.919 -0.6234  0.2727  0.4833
  412TMC3     H 6206   1.619   1.701  14.082 -1.3491 -0.7281 -0.3444
  412TMC3    H1 6207   1.687   1.665  13.679 -0.5427  1.2300  0.3042
  412TMC3    H2 6208   1.690   1.318  13.898  2.9652  0.1693  1.9871
  412TMC3    C7 6209   1.650   1.411  13.665 -0.5495 -0.6208  0.0032
  412TMC3    C8 6210   1.521   1.455  14.063 -0.0269  0.3136 -0.5305
  412TMC3    O1 6211   1.679   1.458  13.555  0.0286  0.7339 -0.0652
  412TMC3    O2 6212   1.471   1.374  13.989  0.0746 -0.3661 -0.4778
  413MPD2     C 6213   3.304   4.247  15.647  0.5041 -0.2580  0.5500
  413MPD2    C1 6214   3.221   4.183  15.558  0.1944  0.0767 -0.1392
  413MPD2    C2 6215   3.267   4.067  15.500 -0.3376 -0.1238  1.1369
  413MPD2    C3 6216   3.385   4.008  15.530 -0.2520 -0.4592 -0.0426
  413MPD2    C4 6217   3.465   4.072  15.618 -0.4845 -0.2865  0.0783
  413MPD2    C5 6218   3.424   4.194  15.670  0.6436  0.2551  0.5049
  413MPD2     H 6219   3.203   4.017  15.429  1.4257  0.2058 -0.6925
  413MPD2    H1 6220   3.563   4.030  15.639  1.0460  2.0595 -2.2680
  413MPD2    H2 6221   3.273   4.335  15.703 -1.1474 -0.9827  0.7967
  413MPD2    H3 6222   3.495   4.238  15.739 -0.6340  1.1583  1.2663
  413MPD2     N 6223   3.420   3.883  15.469 -0.0568 -0.0723  0.2204
  413MPD2    H5 6224   3.347   3.849  15.407 -0.2395 -1.4058  1.1549
  413MPD2    N1 6225   3.096   4.240  15.526  0.0855  0.2843 -0.1707
  413MPD2    H7 6226   3.075   4.312  15.595  1.6465  0.0905  0.5101
  414TMC3    C1 6227   3.521   3.671  15.442 -0.1512  0.3940  0.0538
  414TMC3    C2 6228   3.628   3.594  15.467 -0.0704  0.2116  0.2365
  414TMC3    C3 6229   3.633   3.473  15.416 -0.4359 -0.6379  0.9515
  414TMC3    C4 6230   3.420   3.626  15.366 -0.3782 -0.1884 -0.2996
  414TMC3    C5 6231   3.437   3.506  15.302  0.2837 -0.0823  0.3999
  414TMC3    C6 6232   3.540   3.424  15.333 -0.6522 -0.4298  0.1628
  414TMC3     C 6233   3.530   3.805  15.497 -0.0194 -0.4684 -0.0015
  414TMC3     O 6234   3.623   3.826  15.574  0.1753 -0.7225  0.2617
  414TMC3     H 6235   3.713   3.629  15.524 -0.2310 -0.3506  0.8311
  414TMC3    H1 6236   3.336   3.688  15.336 -0.1444  0.0373 -0.4882
  414TMC3    H2 6237   3.561   3.333  15.278  0.2828  0.4404 -0.8993
  414TMC3    C7 6238   3.342   3.470  15.196 -0.8139  0.1510  0.6805
  414TMC3    C8 6239   3.761   3.407  15.397  0.2623  0.0837  0.1098
  414TMC3    O1 6240   3.228   3.500  15.218 -0.1779 -0.1787  0.1949
  414TMC3    O2 6241   3.757   3.286  15.380 -0.1059 -0.5004  0.0048
  415TMC3    C1 6242   4.180   2.769  10.107 -0.2293 -0.2625 -0.5577
  415TMC3    C2 6243   4.263   2.878  10.077  0.2335 -0.3355  0.6013
  415TMC3    C3 6244   4.387   2.853  10.021  0.2058 -0.7383  0.0607
  415TMC3    C4 6245   4.220   2.640  10.078 -0.1832  0.5281 -1.0490
  415TMC3    C5 6246   4.347   2.622  10.027 -0.3899 -0.0916  0.2735
  415TMC3    C6 6247   4.431   2.727   9.993 -0.7076 -0.0027  0.2127
  415TMC3     C 6248   4.043   2.785  10.150 -0.3392 -0.3887 -0.0881
  415TMC3     O 6249   3.972   2.689  10.124 -0.6294  0.1056 -0.0098
  415TMC3     H 6250   4.222   2.978  10.086  1.5078  0.2534 -0.1832
  415TMC3    H1 6251   4.160   2.555  10.107 -0.2768  0.0685 -2.6263
  415TMC3    H2 6252   4.518   2.715   9.930  1.0983  0.2957  2.6355
  415TMC3    C7 6253   4.399   2.485  10.020 -0.0085 -0.3439 -1.1100
  415TMC3    C8 6254   4.461   2.953   9.954  0.2680  0.4409 -0.1916
  415TMC3    O1 6255   4.495   2.471   9.945 -0.0195 -0.2481  0.3794
  415TMC3    O2 6256   4.541   2.921   9.863 -0.2341 -0.0198  0.2606
  416MPD2     C 6257   0.910   1.243  11.506  0.1450  0.1965  0.1460
  416MPD2    C1 6258   0.801   1.175  11.472 -1.2999 -0.7303 -0.5126
  416MPD2    C2 6259   0.799   1.083  11.369 -0.2558  0.2320 -1.0984
  416MPD2    C3 6260   0.908   1.066  11.291  0.8602  0.7550 -0.1128
  416MPD2    C4 6261   1.019   1.148  11.306  0.1011 -0.0866 -0.6448
  416MPD2    C5 6262   1.016   1.221  11.422 -0.2451 -0.2504 -0.1552
  416MPD2     H 6263   0.712   1.022  11.351 -0.8936  1.1972 -1.2988
  416MPD2    H1 6264   1.114   1.117  11.264  0.8677 -0.0481  1.0586
  416MPD2    H2 6265   0.917   1.302  11.597 -1.6182 -0.2433  0.5711
  416MPD2    H3 6266   1.111   1.264  11.451 -0.0536  1.4565 -3.2092
  416MPD2     N 6267   0.904   0.961  11.196 -0.2303 -0.0561 -0.5861
  416MPD2    H5 6268   0.829   0.893  11.190 -1.2507  1.0701 -0.6648
  416MPD2    N1 6269   0.691   1.213  11.546 -0.0726  0.3042  0.4214
  416MPD2    H7 6270   0.705   1.300  11.597  2.1372 -0.2327  0.7590
  417TMC3    C1 6271   0.477   1.292  11.575  0.5148  0.1476 -0.2356
  417TMC3    C2 6272   0.500   1.322  11.703 -0.0523  0.2746 -0.3563
  417TMC3    C3 6273   0.453   1.450  11.742 -0.4421  0.5067 -0.2624
  417TMC3    C4 6274   0.402   1.371  11.493  0.2467 -0.7022  0.4581
  417TMC3    C5 6275   0.356   1.493  11.536  0.7291  0.1172  0.1755
  417TMC3    C6 6276   0.385   1.535  11.661 -0.2029  0.6747 -0.5272
  417TMC3     C 6277   0.564   1.198  11.500 -0.1133 -0.1004  0.0163
  417TMC3     O 6278   0.506   1.125  11.427  0.7018 -0.2172 -0.2608
  417TMC3     H 6279   0.561   1.261  11.768  0.0054  1.6471  0.8802
  417TMC3    H1 6280   0.385   1.349  11.389  1.4101  1.1783 -0.1364
  417TMC3    H2 6281   0.328   1.615  11.708  2.1066 -0.1418  3.7101
  417TMC3    C7 6282   0.342   1.587  11.423 -0.0600  0.6591 -0.5389
  417TMC3    C8 6283   0.426   1.469  11.889 -0.3769 -0.0261 -0.1060
  417TMC3    O1 6284   0.379   1.562  11.304  0.0046 -0.2952  0.0269
  417TMC3    O2 6285   0.340   1.550  11.928  0.1410  0.1210 -0.0209
  418TMC3    C1 6286   4.585   2.630   0.830 -0.2417  0.1238 -0.3260
  418TMC3    C2 6287   4.582   2.734   0.749 -1.1448  0.2022  0.6025
  418TMC3    C3 6288   4.491   2.833   0.773 -0.0237  1.5668 -0.4864
  418TMC3    C4 6289   4.486   2.615   0.921  0.4018  0.0958 -0.4958
  418TMC3    C5 6290   4.389   2.711   0.937  0.8499  0.6196 -0.5534
  418TMC3    C6 6291   4.390   2.829   0.867  0.5164  0.9224  0.3161
  418TMC3     C 6292   4.699   2.537   0.821 -0.4937 -0.5960  0.4370
  418TMC3     O 6293   0.045   2.578   0.741 -0.5026  0.3121 -0.5866
  418TMC3     H 6294   4.652   2.756   0.669 -2.4422  1.7963 -0.1072
  418TMC3    H1 6295   4.489   2.537   0.995 -2.7638  2.4249  2.0678
  418TMC3    H2 6296   4.302   2.893   0.869  0.0520  0.2683  1.3677
  418TMC3    C7 6297   4.267   2.672   1.003  0.0133  0.2873 -0.3873
  418TMC3    C8 6298   4.431   2.892   0.657 -0.0094 -0.1456  1.0304
  418TMC3    O1 6299   4.251   2.557   1.021  0.3514 -0.4165  0.1830
  418TMC3    O2 6300   4.414   3.014   0.666 -0.0723 -0.4047  0.1219
  419MPD2     C 6301   2.364   1.003  12.318 -0.0224  0.0647 -0.7229
  419MPD2    C1 6302   2.352   1.140  12.338  0.2549 -0.0767  0.0199
  419MPD2    C2 6303   2.309   1.183  12.461  0.5606 -0.1489 -0.3041
  419MPD2    C3 6304   2.282   1.101  12.573  0.1375 -0.4157  0.1513
  419MPD2    C4 6305   2.294   0.966  12.553 -0.5983 -0.3274 -0.1664
  419MPD2    C5 6306   2.334   0.923  12.427  0.0369 -0.5945  0.5881
  419MPD2     H 6307   2.322   1.290  12.476 -1.2470  0.1931 -1.2193
  419MPD2    H1 6308   2.272   0.898  12.635  1.8983 -4.4371 -2.9221
  419MPD2    H2 6309   2.384   0.959  12.221  3.0393 -0.1464  0.0222
  419MPD2    H3 6310   2.345   0.817  12.406  1.8414 -0.6283  1.6494
  419MPD2     N 6311   2.239   1.156  12.695  0.8600 -0.8159  0.7838
  419MPD2    H5 6312   2.240   1.257  12.701 -1.6534 -0.6350 -2.0845
  419MPD2    N1 6313   2.426   1.235  12.260  0.4092 -0.3268  0.5234
  419MPD2    H7 6314   2.428   1.331  12.293 -0.7271 -0.8326  2.0845
  420TMC3    C1 6315   2.205   1.195  12.920 -0.1955  0.2365 -0.6103
  420TMC3    C2 6316   2.137   1.306  12.884 -0.0505  0.0365 -0.0513
  420TMC3    C3 6317   2.097   1.391  12.978 -0.3977 -0.1352 -0.1727
  420TMC3    C4 6318   2.239   1.160  13.045  0.1494 -0.0057 -0.2764
  420TMC3    C5 6319   2.203   1.256  13.134 -0.6324  0.0621 -0.0680
  420TMC3    C6 6320   2.132   1.374  13.107 -0.2428  0.2574 -0.2334
  420TMC3     C 6321   2.225   1.096  12.816 -0.2211  0.7020 -0.4711
  420TMC3     O 6322   2.259   0.982  12.844  0.2931  0.2077  0.7249
  420TMC3     H 6323   2.076   1.306  12.794  0.9831  0.7461 -0.7539
  420TMC3    H1 6324   2.277   1.063  13.074  2.2160  0.9093  0.0763
  420TMC3    H2 6325   2.072   1.434  13.174  0.8582  1.1240 -0.0238
  420TMC3    C7 6326   2.251   1.236  13.275 -0.3003  0.5537  0.7950
  420TMC3    C8 6327   2.028   1.516  12.931 -0.1525 -0.1886 -0.4554
  420TMC3    O1 6328   2.293   1.123  13.304 -0.4303  0.0132 -0.2214
  420TMC3    O2 6329   1.978   1.583  13.019 -0.2289 -0.0128  0.2955
  421TMC3    C1 6330   4.402   3.093  13.971 -0.2907 -0.4126  0.5965
  421TMC3    C2 6331   4.434   3.194  14.055  0.2672 -0.4199  0.2973
  421TMC3    C3 6332   4.526   3.167  14.152 -0.5375  0.1486  0.7242
  421TMC3    C4 6333   4.449   2.964  13.985 -0.4600  0.1210  0.2991
  421TMC3    C5 6334   4.544   2.944  14.084  0.3107 -0.3279 -0.3237
  421TMC3    C6 6335   4.578   3.044  14.174  0.0640  0.0687  0.2833
  421TMC3     C 6336   4.282   3.117  13.895  0.2580 -0.1477 -0.3005
  421TMC3     O 6337   4.206   3.200  13.939 -0.5930 -0.2726 -0.2405
  421TMC3     H 6338   4.398   3.295  14.039  2.5754  0.3706  0.0953
  421TMC3    H1 6339   4.428   2.884  13.914  0.3414 -0.6437  0.9165
  421TMC3    H2 6340   4.667   3.028  14.235  1.0830 -0.1761 -1.2540
  421TMC3    C7 6341   4.641   2.835  14.070  0.1506  0.0367  0.2468
  421TMC3    C8 6342   4.590   3.269  14.236 -0.5262 -0.4181 -0.1396
  421TMC3    O1 6343   0.007   2.851  14.134  0.4987  0.1901  0.1272
  421TMC3    O2 6344   4.643   3.232  14.342  0.1803  0.8010 -0.0272
  422TMC3    C1 6345   1.702   4.192  12.689  0.6165 -0.4156  0.1802
  422TMC3    C2 6346   1.669   4.324  12.710  0.5857 -0.9849 -0.4473
  422TMC3    C3 6347   1.537   4.361  12.718  0.1595  0.4359 -0.0757
  422TMC3    C4 6348   1.601   4.103  12.676  0.1151  0.3385  0.1300
  422TMC3    C5 6349   1.469   4.138  12.678  0.3901  0.1962  0.3711
  422TMC3    C6 6350   1.440   4.263  12.715  0.0289  0.0417  0.3697
  422TMC3     C 6351   1.801   4.181  12.586 -0.2251  0.4273 -0.4686
  422TMC3     O 6352   1.811   4.278  12.517  0.0651  0.2366  0.3888
  422TMC3     H 6353   1.738   4.408  12.718 -1.9760  1.0606  0.3509
  422TMC3    H1 6354   1.626   4.000  12.653  1.0018  1.0209 -1.9583
  422TMC3    H2 6355   1.340   4.295  12.742  1.6859  2.5925  3.5277
  422TMC3    C7 6356   1.373   4.028  12.701 -0.3861  0.4911 -0.1778
  422TMC3    C8 6357   1.510   4.494  12.679 -0.3977  0.0185 -0.1589
  422TMC3    O1 6358   1.418   3.916  12.713  0.6235  0.4688 -0.2978
  422TMC3    O2 6359   1.603   4.558  12.637 -0.3371  0.2992 -0.0707
  423MPD2     C 6360   2.952   0.980   0.418  0.2506  0.2768 -0.6891
  423MPD2    C1 6361   2.987   0.859   0.459  0.3831 -0.6459  0.1315
  423MPD2    C2 6362   3.019   0.763   0.368 -0.2314  0.4925  0.1785
  423MPD2    C3 6363   3.018   0.784   0.231  0.9685  0.5094 -0.2409
  423MPD2    C4 6364   3.002   0.914   0.193 -1.0105 -0.8410  0.1053
  423MPD2    C5 6365   2.961   1.005   0.286 -0.0214 -0.0570 -0.4826
  423MPD2     H 6366   3.043   0.663   0.403 -3.2119 -0.1510  0.3789
  423MPD2    H1 6367   3.008   0.938   0.087 -0.3484  1.9247  0.7784
  423MPD2    H2 6368   2.928   1.067   0.480 -0.1348  0.4595 -1.0913
  423MPD2    H3 6369   2.950   1.110   0.261 -0.4597  0.1086  0.4037
  423MPD2     N 6370   3.045   0.686   0.134  0.3254  0.2990 -0.2090
  423MPD2    H5 6371   3.060   0.731   0.045  2.5515  0.7553  0.4121
  423MPD2    N1 6372   3.013   0.832   0.593  0.2373 -0.0837  0.6108
  423MPD2    H7 6373   3.059   0.746   0.620 -1.2010 -0.2580  2.4744
  424TMC3    C1 6374   2.975   0.831   0.816  0.2187  0.7998 -0.8739
  424TMC3    C2 6375   3.089   0.758   0.833  0.2348 -0.6234 -0.3556
  424TMC3    C3 6376   3.089   0.673   0.939  0.2841  0.1601  0.1487
  424TMC3    C4 6377   2.871   0.839   0.905 -0.6249  0.0592  0.4583
  424TMC3    C5 6378   2.873   0.740   0.999 -0.4538  0.4794  0.4188
  424TMC3    C6 6379   2.981   0.656   1.014 -0.0722 -0.0965  0.0765
  424TMC3     C 6380   2.970   0.913   0.698 -0.0104 -0.3384  0.1152
  424TMC3     O 6381   2.896   1.009   0.699 -0.3358 -0.8046 -0.9448
  424TMC3     H 6382   3.176   0.765   0.769  0.2560  0.7878 -0.1593
  424TMC3    H1 6383   2.783   0.897   0.879  0.7022  2.3505  1.0226
  424TMC3    H2 6384   2.981   0.570   1.081 -0.9409  0.5027  0.8393
  424TMC3    C7 6385   2.752   0.702   1.067  0.1639 -0.3830  0.5916
  424TMC3    C8 6386   3.196   0.579   0.960 -0.3389 -0.2992  0.0202
  424TMC3    O1 6387   2.772   0.612   1.148  0.1586 -0.4074 -0.1464
  424TMC3    O2 6388   3.173   0.469   1.010 -0.1568  0.1664 -0.2061
  425MPD2     C 6389   2.141   4.181  17.348 -0.3578  0.2764 -0.1148
  425MPD2    C1 6390   2.056   4.084  17.360  0.8888  0.9856  0.0829
  425MPD2    C2 6391   1.918   4.100  17.359  0.2956  0.1338 -0.2199
  425MPD2    C3 6392   1.869   4.230  17.360  0.5106 -0.1361 -0.1277
  425MPD2    C4 6393   1.963   4.330  17.354  0.6665 -0.6879  0.1042
  425MPD2    C5 6394   2.095   4.305  17.345 -0.4291 -0.5419  0.5681
  425MPD2     H 6395   1.852   4.014  17.358  0.1732  0.2318 -1.3249
  425MPD2    H1 6396   1.929   4.433  17.353  1.7713 -0.3399 -1.0555
  425MPD2    H2 6397   2.247   4.161  17.344 -0.4016 -0.2025  1.1100
  425MPD2    H3 6398   2.157   4.394  17.337  0.7583 -1.4969 -0.8283
  425MPD2     N 6399   1.727   4.255  17.356 -0.0614 -0.2517 -0.6008
  425MPD2    H5 6400   1.674   4.170  17.343 -1.1083  0.6199 -2.0180
  425MPD2    N1 6401   2.114   3.959  17.361  0.5286 -0.4713  0.1763
  425MPD2    H7 6402   2.213   3.955  17.341  0.2155  0.9140 -1.5852
  426TMC3    C1 6403   2.159   3.736  17.379 -0.3179 -0.0160 -0.1412
  426TMC3    C2 6404   2.225   3.718  17.255  0.1413  0.0854 -0.6083
  426TMC3    C3 6405   2.309   3.614  17.242  0.4424  0.2729  0.3551
  426TMC3    C4 6406   2.178   3.643  17.480  0.0098  1.0343  0.6530
  426TMC3    C5 6407   2.266   3.539  17.458  0.0791 -0.5324  0.0592
  426TMC3    C6 6408   2.333   3.520  17.342  0.7481  0.9781  0.1076
  426TMC3     C 6409   2.057   3.838  17.386 -0.8496 -0.4303 -0.0540
  426TMC3     O 6410   1.947   3.823  17.442  0.0503  0.1222  0.6180
  426TMC3     H 6411   2.206   3.798  17.185  0.9316  1.7893  1.1334
  426TMC3    H1 6412   2.109   3.648  17.564 -1.6676 -0.4327 -0.6221
  426TMC3    H2 6413   2.397   3.435  17.318 -0.6553 -0.3460  1.0540
  426TMC3    C7 6414   2.296   3.447  17.567  0.7219 -0.2395 -0.2067
  426TMC3    C8 6415   2.341   3.558  17.107 -0.4744 -0.2352 -0.5413
  426TMC3    O1 6416   2.357   3.346  17.537  0.6466 -0.3253  0.1043
  426TMC3    O2 6417   2.406   3.459  17.095 -0.1049 -0.6930  0.5183
  427MPD2     C 6418   0.699   1.346  14.608 -0.8837 -0.2576 -0.0295
  427MPD2    C1 6419   0.655   1.383  14.733 -0.4562  0.0069 -0.5548
  427MPD2    C2 6420   0.517   1.390  14.759  0.0870  0.5652 -0.1074
  427MPD2    C3 6421   0.422   1.373  14.662  0.1808 -0.1846  0.2957
  427MPD2    C4 6422   0.466   1.358  14.532 -0.1863 -1.0169 -0.1096
  427MPD2    C5 6423   0.602   1.342  14.504 -0.4898  0.3810 -0.2371
  427MPD2     H 6424   0.496   1.408  14.864 -0.7041  0.5439 -0.2647
  427MPD2    H1 6425   0.391   1.349  14.455  0.3820 -2.4724 -0.4863
  427MPD2    H2 6426   0.803   1.354  14.580 -1.4429 -2.0021 -2.6422
  427MPD2    H3 6427   0.636   1.349  14.401  0.6251 -5.1904 -0.2576
  427MPD2     N 6428   0.283   1.380  14.684  0.4639  0.4854  0.0004
  427MPD2    H5 6429   0.224   1.381  14.601  1.6165  0.4651 -0.8099
  427MPD2    N1 6430   0.746   1.395  14.840 -0.3932  0.2401  0.5014
  427MPD2    H7 6431   0.715   1.404  14.936 -1.3706 -1.9266  0.3868
  428TMC3    C1 6432   0.962   1.385  14.943  0.8650  0.2625  0.5180
  428TMC3    C2 6433   0.910   1.301  15.038 -0.1840 -0.8926  0.0691
  428TMC3    C3 6434   0.995   1.248  15.133 -0.1123  0.2155  0.9062
  428TMC3    C4 6435   1.091   1.426  14.942  0.0264  0.2228  0.4063
  428TMC3    C5 6436   1.171   1.377  15.035 -1.1701 -0.1882  0.8057
  428TMC3    C6 6437   1.134   1.279  15.128 -0.3252 -0.3588 -1.3160
  428TMC3     C 6438   0.882   1.415  14.824 -0.1994  0.2476 -0.8514
  428TMC3     O 6439   0.943   1.449  14.722 -0.4305 -0.4196  0.4625
  428TMC3     H 6440   0.806   1.269  15.039 -0.8785  1.4414  2.0843
  428TMC3    H1 6441   1.122   1.486  14.857 -0.0590 -1.3177 -0.7232
  428TMC3    H2 6442   1.202   1.238  15.202 -1.5684  1.2392  0.7350
  428TMC3    C7 6443   1.307   1.430  15.046 -0.1141 -0.4096 -0.3140
  428TMC3    C8 6444   0.947   1.147  15.228 -0.0179 -0.7063  0.4858
  428TMC3    O1 6445   1.365   1.390  15.146  0.3039  0.4559 -0.1348
  428TMC3    O2 6446   0.834   1.102  15.220  0.5504 -0.7729 -0.3238
  429MPD2     C 6447   2.202   1.487   0.039  0.3667  0.1154  0.8979
  429MPD2    C1 6448   2.165   1.408  17.685 -0.7931  0.2958  0.5701
  429MPD2    C2 6449   2.161   1.471  17.561  0.4027 -0.8602 -0.6021
  429MPD2    C3 6450   2.195   1.600  17.541  0.0720 -0.0760 -1.3990
  429MPD2    C4 6451   2.232   1.677  17.648  0.2037 -0.1220  0.5579
  429MPD2    C5 6452   2.244   1.619   0.021  0.6351 -0.3755  0.8995
  429MPD2     H 6453   2.128   1.418  17.472  0.5302 -0.4587 -0.8883
  429MPD2    H1 6454   2.252   1.783  17.640 -0.5430  0.0145  0.5442
  429MPD2    H2 6455   2.223   1.443   0.136 -1.7145  0.4999  1.5056
  429MPD2    H3 6456   2.271   1.675   0.111 -0.9639 -0.6223  1.5333
  429MPD2     N 6457   2.205   1.655  17.414  0.6953  0.8055 -0.2417
  429MPD2    H5 6458   2.186   1.597  17.333  3.4147 -0.4998  0.0580
  429MPD2    N1 6459   2.136   1.271  17.699  0.5384 -0.1071  0.5305
  429MPD2    H7 6460   2.111   1.232  17.609  0.9597 -0.9162  0.7711
  430TMC3    C1 6461   2.239   1.812  17.248 -0.7099  0.0082 -0.2015
  430TMC3    C2 6462   2.205   1.931  17.200 -0.1563 -0.0362 -0.7718
  430TMC3    C3 6463   2.242   1.961  17.072 -0.3330  0.4538  0.0226
  430TMC3    C4 6464   2.306   1.714  17.175 -0.2342 -0.4286 -0.2342
  430TMC3    C5 6465   2.317   1.741  17.042 -0.1421  0.2248 -0.5221
  430TMC3    C6 6466   2.298   1.863  16.991  0.1772 -0.3148  0.3613
  430TMC3     C 6467   2.218   1.785  17.385 -0.6847  0.9557 -0.0099
  430TMC3     O 6468   2.202   1.888  17.453 -0.1025 -0.2855  0.4444
  430TMC3     H 6469   2.146   1.997  17.263  0.8709 -1.3418  1.5523
  430TMC3    H1 6470   2.325   1.618  17.222  2.1219  0.7729  1.3108
  430TMC3    H2 6471   2.347   1.891  16.899 -1.9801  0.7121 -0.4747
  430TMC3    C7 6472   2.354   1.620  16.963 -0.7472  0.2419 -0.5318
  430TMC3    C8 6473   2.187   2.079  17.004 -0.3001 -0.1585 -0.1802
  430TMC3    O1 6474   2.388   1.525  17.034  0.2131 -0.3623 -0.0847
  430TMC3    O2 6475   2.139   2.167  17.078  0.3577  0.2028  0.4813
  431MPD2     C 6476   2.910   1.568  12.783  0.0306  0.7414 -0.0500
  431MPD2    C1 6477   2.890   1.678  12.709 -0.4790 -0.3951  0.1570
  431MPD2    C2 6478   2.862   1.661  12.575 -0.3657 -0.1335 -0.0458
  431MPD2    C3 6479   2.834   1.530  12.531  0.3095  0.1597 -0.4716
  431MPD2    C4 6480   2.840   1.420  12.615  0.9727  0.7546 -0.2420
  431MPD2    C5 6481   2.883   1.442  12.737 -0.3932 -0.5273 -0.0805
  431MPD2     H 6482   2.857   1.741  12.501 -0.5414 -1.1723 -1.1568
  431MPD2    H1 6483   2.802   1.322  12.587 -0.2746  1.0289  0.4724
  431MPD2    H2 6484   2.942   1.568  12.887  0.2163  1.8852 -0.1057
  431MPD2    H3 6485   2.909   1.369  12.812  1.0460  0.2381  0.1710
  431MPD2     N 6486   2.791   1.504  12.397 -0.0652 -0.6225  0.3100
  431MPD2    H5 6487   2.769   1.407  12.374 -1.2096 -0.0487 -1.0277
  431MPD2    N1 6488   2.916   1.813  12.752  0.5624  0.2311 -0.0978
  431MPD2    H7 6489   2.905   1.885  12.682 -2.2615  1.3258  1.4753
  432TMC3    C1 6490   2.710   1.509  12.173  0.4583 -0.3944 -0.6394
  432TMC3    C2 6491   2.752   1.530  12.043 -0.1838 -0.0958  0.6279
  432TMC3    C3 6492   2.710   1.443  11.946  0.9593  1.0627 -0.6177
  432TMC3    C4 6493   2.617   1.413  12.208 -0.2061  0.0052  0.6497
  432TMC3    C5 6494   2.582   1.326  12.104 -0.3536 -0.3296 -0.6390
  432TMC3    C6 6495   2.642   1.328  11.979  0.5326 -0.3034  0.1678
  432TMC3     C 6496   2.767   1.585  12.284 -0.7536 -0.8744  0.4540
  432TMC3     O 6497   2.764   1.706  12.270 -0.2526 -0.4135  0.0707
  432TMC3     H 6498   2.815   1.618  12.034  1.1696 -1.0961  0.3893
  432TMC3    H1 6499   2.600   1.391  12.312 -1.7390 -0.6243  0.2533
  432TMC3    H2 6500   2.609   1.257  11.905  2.2955 -1.5541  0.5850
  432TMC3    C7 6501   2.495   1.218  12.138  0.2976  0.4004  0.0274
  432TMC3    C8 6502   2.777   1.440  11.811 -1.0397  0.4524  0.0649
  432TMC3    O1 6503   2.477   1.128  12.057 -0.1039  0.5299  0.2363
  432TMC3    O2 6504   2.784   1.331  11.755  0.6717 -0.3093  0.1814
  433MPD2     C 6505   1.775   0.572  10.405 -0.0295 -0.0913 -0.0991
  433MPD2    C1 6506   1.890   0.517  10.455  0.2437  0.6698  0.9499
  433MPD2    C2 6507   1.921   0.542  10.590  0.2305 -0.5194 -0.1590
  433MPD2    C3 6508   1.836   0.620  10.662  0.3932  0.0640  0.1298
  433MPD2    C4 6509   1.728   0.688  10.603  0.2919  0.1106  0.3901
  433MPD2    C5 6510   1.693   0.652  10.480  0.2966  0.1201  0.5236
  433MPD2     H 6511   2.017   0.520  10.635 -0.2652  0.6370  1.4667
  433MPD2    H1 6512   1.670   0.759  10.661 -0.9220 -0.5078 -0.0677
  433MPD2    H2 6513   1.741   0.547  10.305  1.1659 -2.9357  0.2220
  433MPD2    H3 6514   1.598   0.688  10.443  0.5757 -0.4256 -0.7597
  433MPD2     N 6515   1.844   0.607  10.803 -0.0942  0.6681 -0.5343
  433MPD2    H5 6516   1.918   0.551  10.844 -2.5311 -3.0172 -1.1662
  433MPD2    N1 6517   1.965   0.427  10.371  0.6345  0.3661  0.3459
  433MPD2    H7 6518   1.936   0.424  10.274 -0.7765 -3.4437  0.9143
  434TMC3    C1 6519   2.097   0.242  10.326  0.1764  0.6596 -0.2244
  434TMC3    C2 6520   2.181   0.154  10.382 -0.6278 -0.8574  0.0671
  434TMC3    C3 6521   2.179   0.015  10.380  0.5016  0.3279  0.0156
  434TMC3    C4 6522   1.985   0.178  10.272 -0.5459  0.4791  0.7305
  434TMC3    C5 6523   1.977   0.034  10.283 -0.4967 -0.2025  0.0034
  434TMC3    C6 6524   2.074   4.688  10.331 -0.5269 -0.1876  0.1652
  434TMC3     C 6525   2.071   0.353  10.414  0.9171  0.1426  0.3811
  434TMC3     O 6526   2.115   0.336  10.527 -0.0734  0.1457  0.3259
  434TMC3     H 6527   2.262   0.206  10.433  0.3069  0.3083 -2.6141
  434TMC3    H1 6528   1.895   0.224  10.233 -0.1381 -0.5502 -1.4605
  434TMC3    H2 6529   2.059   4.583  10.355 -0.5263 -0.7027 -2.0646
  434TMC3    C7 6530   1.847   4.719  10.265 -0.2563 -0.1103  0.5810
  434TMC3    C8 6531   2.267   4.691  10.470 -0.5713  0.2644  0.4447
  434TMC3    O1 6532   1.783   0.025  10.171 -0.3752  0.3997  0.1681
  434TMC3    O2 6533   2.309   0.025  10.561 -0.2984 -0.0959  0.0518
  435MPD2     C 6534   3.681   0.119  15.110  0.4069 -0.3962  0.7816
  435MPD2    C1 6535   3.659   0.213  15.207 -0.2874 -0.7979  0.3851
  435MPD2    C2 6536   3.730   0.211  15.324  0.1473  0.6875  0.5279
  435MPD2    C3 6537   3.836   0.124  15.338  0.1558  0.2981 -0.1378
  435MPD2    C4 6538   3.861   0.034  15.233 -0.7632 -0.1116 -0.0582
  435MPD2    C5 6539   3.783   0.024  15.127 -0.2505  0.1177 -0.5261
  435MPD2     H 6540   3.703   0.267  15.413 -0.0030  2.0031 -0.3536
  435MPD2    H1 6541   3.928   4.689  15.251 -1.3000  0.0016  2.5923
  435MPD2    H2 6542   3.633   0.127  15.014  2.3338 -0.8559 -0.2219
  435MPD2    H3 6543   3.802   4.689  15.049 -1.1631  1.6899 -2.2383
  435MPD2     N 6544   3.897   0.119  15.465  0.3526  0.0820 -1.0424
  435MPD2    H5 6545   3.856   0.172  15.541  0.2189 -2.2470  0.4964
  435MPD2    N1 6546   3.565   0.319  15.198  0.1141  0.2098  0.3947
  435MPD2    H7 6547   3.561   0.385  15.275  2.2418  1.3750 -0.5045
  436TMC3    C1 6548   3.384   0.610  15.301  0.6333 -0.0378  0.1378
  436TMC3    C2 6549   3.444   0.546  15.193 -0.2162 -0.2487 -0.1004
  436TMC3    C3 6550   3.381   0.439  15.135  0.0013 -0.2489  0.1358
  436TMC3    C4 6551   3.265   0.554  15.350  0.4335  0.1951 -0.3699
  436TMC3    C5 6552   3.201   0.452  15.288 -0.4492  0.2220  0.6535
  436TMC3    C6 6553   3.255   0.402  15.166 -0.6214 -0.1521 -0.9960
  436TMC3     C 6554   3.438   0.735  15.351 -0.3196 -0.2389  0.5050
  436TMC3     O 6555   3.527   0.806  15.297 -0.3479  0.4703  0.0062
  436TMC3     H 6556   3.544   0.575  15.163 -1.2604  1.6673 -1.7342
  436TMC3    H1 6557   3.209   0.599  15.431  1.0263  0.2932 -0.0101
  436TMC3    H2 6558   3.224   0.307  15.124  0.6968 -0.4048 -1.3858
  436TMC3    C7 6559   3.098   0.374  15.355  0.2382  0.1020 -0.1382
  436TMC3    C8 6560   3.478   0.337  15.092  0.6908  0.4848  0.6300
  436TMC3    O1 6561   3.050   0.303  15.271 -0.7533 -0.3237  0.0005
  436TMC3    O2 6562   3.452   0.259  15.001 -0.0218  0.2398 -0.5062
  437TMC3    C1 6563   2.208   2.589  12.971  0.3291 -0.3882  0.2614
  437TMC3    C2 6564   2.107   2.662  13.027  0.2711  0.2888 -0.0990
  437TMC3    C3 6565   2.101   2.799  13.008  0.0374 -0.0304  0.0488
  437TMC3    C4 6566   2.317   2.649  12.911  0.2724  0.9476 -0.5149
  437TMC3    C5 6567   2.315   2.785  12.906  0.0209 -0.8158  0.3760
  437TMC3    C6 6568   2.209   2.861  12.950 -0.3234 -1.0478  0.2899
  437TMC3     C 6569   2.201   2.443  12.956  0.4895  0.2522 -0.1589
  437TMC3     O 6570   2.281   2.398  12.872  0.4404  0.2447 -0.1092
  437TMC3     H 6571   2.022   2.612  13.072  0.7990  0.7265  1.3587
  437TMC3    H1 6572   2.406   2.596  12.878 -0.3853 -1.4281  1.5262
  437TMC3    H2 6573   2.214   2.967  12.928 -0.2200 -1.0499  0.3067
  437TMC3    C7 6574   2.408   2.858  12.824  0.2321 -0.0100  0.6887
  437TMC3    C8 6575   1.985   2.877  13.028 -0.0430  0.5605 -1.0556
  437TMC3    O1 6576   2.357   2.942  12.752 -0.4890  0.3310 -0.1416
  437TMC3    O2 6577   2.004   2.999  13.027  0.2048  0.1218  0.1048
  438MPD2     C 6578   4.603   2.964  16.356 -0.4768  0.4114 -0.0184
  438MPD2    C1 6579   4.680   2.885  16.435 -0.4668 -0.0614  0.4555
  438MPD2    C2 6580   4.671   2.911  16.570  0.6426 -0.8253  0.7581
  438MPD2    C3 6581   4.578   2.996  16.628 -0.3881  0.1131 -0.5225
  438MPD2    C4 6582   4.499   3.071  16.540 -0.1914  0.2777 -0.1529
  438MPD2    C5 6583   4.526   3.064  16.405 -0.1492  0.6485 -0.5855
  438MPD2     H 6584   0.003   2.862  16.637  0.9281 -1.4524 -0.0006
  438MPD2    H1 6585   4.431   3.149  16.572 -0.5038 -0.6691  1.4735
  438MPD2    H2 6586   4.615   2.960  16.249  2.0164 -0.1776  0.2780
  438MPD2    H3 6587   4.475   3.130  16.336 -0.1353 -1.0092 -2.1877
  438MPD2     N 6588   4.552   3.014  16.760  0.7418  0.0435 -0.3959
  438MPD2    H5 6589   4.497   3.096  16.786  1.7153  0.6093 -0.0991
  438MPD2    N1 6590   0.039   2.793  16.389 -0.2717 -0.0702 -0.4183
  438MPD2    H7 6591   0.098   2.754  16.461  0.1210 -1.2025 -1.3537
  439TMC3    C1 6592   0.156   2.651  16.258  0.8130  0.4876  0.1919
  439TMC3    C2 6593   0.146   2.561  16.161 -0.4667 -0.8697  0.6493
  439TMC3    C3 6594   0.216   2.446  16.166 -0.0288 -0.2631  0.2229
  439TMC3    C4 6595   0.263   2.648  16.347 -0.1203  0.1124  0.7010
  439TMC3    C5 6596   0.341   2.538  16.347  0.3935 -0.1421  0.1167
  439TMC3    C6 6597   0.324   2.436  16.255 -0.0199 -0.2682  0.5458
  439TMC3     C 6598   0.046   2.746  16.264  0.4544 -0.5200 -0.3335
  439TMC3     O 6599   4.692   2.739  16.184 -0.4503  0.1588 -0.5772
  439TMC3     H 6600   0.062   2.571  16.093 -0.4061 -1.5549  0.4776
  439TMC3    H1 6601   0.287   2.727  16.417 -1.0661  0.5663  0.5145
  439TMC3    H2 6602   0.387   2.348  16.252 -0.4921 -0.5757 -0.2542
  439TMC3    C7 6603   0.465   2.534  16.416 -0.2523  0.0076  0.3734
  439TMC3    C8 6604   0.235   2.373  16.047  0.6813  0.2201 -0.3685
  439TMC3    O1 6605   0.467   2.596  16.523 -0.2132  0.0829 -0.3689
  439TMC3    O2 6606   0.319   2.284  16.054 -0.2319  0.5337 -0.0556
  440MPD2     C 6607   3.811   3.594  14.548  0.7453  0.1175  0.1383
  440MPD2    C1 6608   3.743   3.479  14.576  0.2583 -0.6811  0.2774
  440MPD2    C2 6609   3.809   3.357  14.577 -0.1755 -0.4316 -0.6198
  440MPD2    C3 6610   3.949   3.349  14.590  0.4562 -0.5261 -1.1097
  440MPD2    C4 6611   4.018   3.466  14.574  0.4321 -0.0372 -0.3455
  440MPD2    C5 6612   3.947   3.582  14.550  0.1630  0.9559 -0.1857
  440MPD2     H 6613   3.747   3.268  14.580 -1.2447  0.3312 -0.1840
  440MPD2    H1 6614   4.126   3.466  14.573  0.4363 -0.7074  0.8010
  440MPD2    H2 6615   3.767   3.686  14.512  0.8721 -0.1222 -0.6462
  440MPD2    H3 6616   4.003   3.674  14.536 -2.6051  2.7539  0.6154
  440MPD2     N 6617   4.019   3.237  14.629 -0.2521 -0.3564 -0.1596
  440MPD2    H5 6618   4.111   3.267  14.661 -0.2207  0.1250 -0.7014
  440MPD2    N1 6619   3.604   3.479  14.579 -0.6970  0.1303 -0.5076
  440MPD2    H7 6620   3.558   3.389  14.584 -1.8581  0.6384 -1.8251
  441TMC3    C1 6621   4.031   3.043  14.769  0.3372  0.3345 -0.4022
  441TMC3    C2 6622   4.144   3.094  14.830  0.0692  0.0895 -0.5735
  441TMC3    C3 6623   4.182   3.044  14.953 -0.1212 -0.5863 -0.5332
  441TMC3    C4 6624   3.944   2.965  14.841  0.3137 -0.5010  0.7790
  441TMC3    C5 6625   3.978   2.916  14.964  0.1645 -0.3695  0.0611
  441TMC3    C6 6626   4.098   2.953  15.020 -0.2409 -0.8069 -0.2056
  441TMC3     C 6627   3.961   3.119  14.667  0.3294 -0.1125 -1.0329
  441TMC3     O 6628   3.856   3.070  14.634  0.6564 -0.1856 -0.1882
  441TMC3     H 6629   4.209   3.169  14.787 -2.8070  2.6832 -0.3951
  441TMC3    H1 6630   3.848   2.936  14.800  0.7084  1.9840 -1.9135
  441TMC3    H2 6631   4.137   2.913  15.113 -0.6288 -0.7318 -0.0115
  441TMC3    C7 6632   3.877   2.903  15.066  0.1880 -0.0839  0.4959
  441TMC3    C8 6633   4.238   3.152  15.035 -0.2536  0.8828  0.0075
  441TMC3    O1 6634   3.924   2.911  15.177 -0.0272  0.0080 -0.4364
  441TMC3    O2 6635   4.310   3.236  14.984 -0.0895 -1.0989  0.5540
  442MPD2     C 6636   1.957   3.480  16.642  0.3542  0.1133  0.0889
  442MPD2    C1 6637   1.824   3.457  16.676 -0.8427 -0.6813 -0.7008
  442MPD2    C2 6638   1.758   3.384  16.576  0.0101 -0.1828  0.8096
  442MPD2    C3 6639   1.808   3.357  16.453  0.1765 -0.0534  0.5775
  442MPD2    C4 6640   1.936   3.393  16.422  0.7241 -0.7484  0.4549
  442MPD2    C5 6641   2.014   3.447  16.520 -0.0777 -0.4491  0.1778
  442MPD2     H 6642   1.656   3.357  16.600 -0.1046 -1.0293 -0.6025
  442MPD2    H1 6643   1.977   3.370  16.324 -0.9952 -1.4744 -0.0938
  442MPD2    H2 6644   2.022   3.532  16.710 -1.5221  0.0158  1.9721
  442MPD2    H3 6645   2.120   3.466  16.511 -0.7370  3.6852  1.3333
  442MPD2     N 6646   1.744   3.274  16.360  0.2244 -0.2751  0.1959
  442MPD2    H5 6647   1.798   3.265  16.275 -0.5350  4.4123 -0.8248
  442MPD2    N1 6648   1.750   3.501  16.789 -0.4105 -0.0312 -0.0954
  442MPD2    H7 6649   1.659   3.459  16.803  0.5181 -1.6056  1.2457
  443TMC3    C1 6650   1.683   3.633  16.979 -0.3454 -0.6016  0.0301
  443TMC3    C2 6651   1.684   3.759  17.033 -0.2609  0.2659  0.2383
  443TMC3    C3 6652   1.601   3.786  17.133 -0.1523 -0.3455 -0.2911
  443TMC3    C4 6653   1.598   3.536  17.031 -0.0878  0.9045 -0.4803
  443TMC3    C5 6654   1.513   3.567  17.132  0.1541 -0.0683 -0.3696
  443TMC3    C6 6655   1.514   3.691  17.187  0.2834 -0.3922  0.2332
  443TMC3     C 6656   1.780   3.606  16.870 -0.1172 -0.4044  0.5944
  443TMC3     O 6657   1.879   3.674  16.860 -0.3383  0.1430  0.2696
  443TMC3     H 6658   1.735   3.842  16.985 -0.2800 -0.2490 -0.6740
  443TMC3    H1 6659   1.594   3.435  16.991  0.0496 -0.3359  2.6059
  443TMC3    H2 6660   1.442   3.734  17.256  0.3804 -1.1814  0.8314
  443TMC3    C7 6661   1.386   3.494  17.134  0.6353  0.0424 -0.5701
  443TMC3    C8 6662   1.562   3.922  17.159  0.5196  0.5285  0.1353
  443TMC3    O1 6663   1.378   3.418  17.040 -0.0676 -0.3733  0.2211
  443TMC3    O2 6664   1.647   3.984  17.223  0.2184  0.6562 -0.2807
  444MPD2     C 6665   1.741   3.491  17.418  0.0199 -0.5724 -0.4549
  444MPD2    C1 6666   1.662   3.390  17.372 -0.8573  0.5525 -0.7195
  444MPD2    C2 6667   1.700   3.324  17.263 -0.4788 -0.2747  0.2199
  444MPD2    C3 6668   1.829   3.334  17.218 -0.0154 -0.0505 -0.0734
  444MPD2    C4 6669   1.914   3.441  17.265  0.1676 -0.1562  0.4998
  444MPD2    C5 6670   1.866   3.516  17.367 -0.1235  0.4593  0.4872
  444MPD2     H 6671   1.638   3.244  17.224 -0.9779 -0.4324  1.3285
  444MPD2    H1 6672   2.012   3.459  17.222 -0.0639 -2.5301 -1.0129
  444MPD2    H2 6673   1.723   3.562  17.497  0.2151  0.2349 -1.1330
  444MPD2    H3 6674   1.913   3.610  17.393 -1.3376  0.8738  1.1742
  444MPD2     N 6675   1.873   3.244  17.120 -0.1515  0.1009  0.0446
  444MPD2    H5 6676   1.809   3.176  17.081 -0.9068 -0.6402  2.5835
  444MPD2    N1 6677   1.541   3.363  17.431  0.3812 -0.4328 -0.3242
  444MPD2    H7 6678   1.490   3.287  17.387  0.6319 -0.8410  0.0973
  445TMC3    C1 6679   1.997   3.157  16.949 -0.0322 -0.6451  0.0751
  445TMC3    C2 6680   1.882   3.132  16.879 -0.3705 -0.6546  0.3438
  445TMC3    C3 6681   1.887   3.030  16.791 -0.1418 -0.2977 -0.2229
  445TMC3    C4 6682   2.103   3.071  16.944  0.1113 -0.1350  0.5408
  445TMC3    C5 6683   2.090   2.962  16.875 -0.5776 -0.2807  0.1823
  445TMC3    C6 6684   1.984   2.929  16.794  0.1330 -0.0869 -0.5808
  445TMC3     C 6685   1.994   3.248  17.059 -0.1096  0.2789 -0.2591
  445TMC3     O 6686   2.106   3.280  17.102 -0.8556  0.2345  0.3236
  445TMC3     H 6687   1.801   3.205  16.878  0.8931  0.7528 -0.0252
  445TMC3    H1 6688   2.198   3.095  16.991  0.3709  0.9314 -0.5050
  445TMC3    H2 6689   1.987   2.857  16.712 -1.1892 -1.2935  0.4178
  445TMC3    C7 6690   2.217   2.896  16.857  1.0215 -0.2032  0.9906
  445TMC3    C8 6691   1.768   3.018  16.717  0.1469 -0.2425 -0.0448
  445TMC3    O1 6692   2.321   2.954  16.891  0.5530 -0.0294  0.3097
  445TMC3    O2 6693   1.665   3.050  16.774  0.0086 -0.5239  0.3638
  446MPD2     C 6694   1.844   4.424  10.871 -0.1095  0.4203  0.0516
  446MPD2    C1 6695   1.784   4.542  10.914  0.4562  0.0014  0.0922
  446MPD2    C2 6696   1.870   4.656  10.944 -0.4423  0.0494 -0.2986
  446MPD2    C3 6697   2.005   4.643  10.934  0.5734 -0.6093  1.2235
  446MPD2    C4 6698   2.059   4.524  10.887  0.2629  0.4167  0.0261
  446MPD2    C5 6699   1.975   4.415  10.851 -0.1920  0.1052  0.2424
  446MPD2     H 6700   1.811   0.006  10.966 -0.4751  0.8758 -3.7158
  446MPD2    H1 6701   2.164   4.504  10.872  0.6300  2.1277  0.2555
  446MPD2    H2 6702   1.784   4.335  10.858  2.0868 -0.8187 -1.6366
  446MPD2    H3 6703   2.015   4.319  10.819  1.3785  1.6786 -2.5752
  446MPD2     N 6704   2.089   0.021  10.947 -0.3031 -0.6687  0.2682
  446MPD2    H5 6705   2.045   0.110  10.965  0.6857 -0.4961  1.8244
  446MPD2    N1 6706   1.643   4.557  10.933  0.0755 -0.2024 -0.2889
  446MPD2    H7 6707   1.601   4.649  10.936  0.8289  0.1969 -2.2807
  447TMC3    C1 6708   2.278   0.149  11.001 -0.0069  0.1442 -1.0818
  447TMC3    C2 6709   2.217   0.258  10.943 -0.0216 -0.2912 -0.9424
  447TMC3    C3 6710   2.301   0.367  10.930  0.5361  1.0334  0.2573
  447TMC3    C4 6711   2.406   0.157  11.058 -0.4125 -0.0199  0.7745
  447TMC3    C5 6712   2.486   0.263  11.044  0.7331 -0.1548 -0.3108
  447TMC3    C6 6713   2.428   0.376  10.980 -0.4968 -0.2276  0.1702
  447TMC3     C 6714   2.228   0.019  10.957  0.0378 -0.0938 -0.1286
  447TMC3     O 6715   2.307   4.664  10.949 -0.0495 -0.1477  0.0776
  447TMC3     H 6716   2.120   0.260  10.894 -0.6415  0.2004  0.3016
  447TMC3    H1 6717   2.441   0.062  11.098  0.0913  0.6582  1.9279
  447TMC3    H2 6718   2.489   0.464  10.962 -0.5073  0.2690  2.6624
  447TMC3    C7 6719   2.627   0.246  11.026 -0.0279  0.3719 -0.2954
  447TMC3    C8 6720   2.259   0.470  10.834  0.3369 -0.2138 -0.7587
  447TMC3    O1 6721   2.671   0.133  11.043  0.1027 -0.6568 -0.2444
  447TMC3    O2 6722   2.144   0.505  10.836 -0.0836  0.4155  0.7003
  448TMC3    C1 6723   0.651   4.244  16.711  0.4507  0.1981 -0.6405
  448TMC3    C2 6724   0.522   4.217  16.669  0.1092  0.3563 -0.0594
  448TMC3    C3 6725   0.460   4.113  16.736 -0.3145 -0.3474  0.2613
  448TMC3    C4 6726   0.712   4.185  16.817 -0.2845 -0.6154  0.5689
  448TMC3    C5 6727   0.647   4.089  16.877 -0.0264 -0.3510 -0.2606
  448TMC3    C6 6728   0.526   4.045  16.836 -0.6080 -0.7060 -0.3120
  448TMC3     C 6729   0.720   4.352  16.634  0.2823 -0.1468 -0.8769
  448TMC3     O 6730   0.657   4.397  16.539  0.0164 -0.1198 -0.5009
  448TMC3     H 6731   0.476   4.277  16.592  0.4016  1.2428  0.4476
  448TMC3    H1 6732   0.794   4.225  16.875 -0.2973  0.8199 -0.4109
  448TMC3    H2 6733   0.473   3.962  16.881  2.0757 -2.1062  0.2775
  448TMC3    C7 6734   0.713   4.025  16.987  0.5364  0.6877  0.2736
  448TMC3    C8 6735   0.331   4.063  16.691 -0.1418 -0.3694  0.3748
  448TMC3    O1 6736   0.835   4.021  16.978  0.7283  0.4806 -0.1409
  448TMC3    O2 6737   0.281   3.975  16.757 -0.1477  0.5037  0.1883
  449MPD2     C 6738   1.451   3.352  14.213 -0.2227  0.1979  0.0100
  449MPD2    C1 6739   1.333   3.380  14.141  0.0071 -0.2781  0.1917
  449MPD2    C2 6740   1.253   3.271  14.113 -0.2638 -1.1219 -0.7867
  449MPD2    C3 6741   1.281   3.142  14.155  0.1284  0.5378 -0.6086
  449MPD2    C4 6742   1.383   3.119  14.243  0.3146 -0.6349 -0.0524
  449MPD2    C5 6743   1.473   3.225  14.267 -0.0229  0.7988 -0.5271
  449MPD2     H 6744   1.172   3.277  14.040  0.3707 -2.9156 -1.6356
  449MPD2    H1 6745   1.393   3.023  14.293  0.6046 -0.4769  0.1995
  449MPD2    H2 6746   1.523   3.431  14.235 -0.2535  0.2902 -0.2211
  449MPD2    H3 6747   1.544   3.204  14.346  0.4623  2.8059 -0.4334
  449MPD2     N 6748   1.192   3.040  14.112  0.4913  0.5335  0.2222
  449MPD2    H5 6749   1.111   3.081  14.066 -0.2908  1.6160  2.5650
  449MPD2    N1 6750   1.313   3.505  14.075 -0.3882  0.2600  0.6707
  449MPD2    H7 6751   1.230   3.509  14.017 -0.9179  1.1888  1.5012
  450TMC3    C1 6752   1.324   3.710  13.988 -0.2419 -0.1059 -0.3370
  450TMC3    C2 6753   1.387   3.749  13.872 -0.7412  0.1854 -0.0382
  450TMC3    C3 6754   1.302   3.774  13.768  0.3908  0.1503  0.4585
  450TMC3    C4 6755   1.184   3.693  13.993 -0.3942  0.4581 -0.3364
  450TMC3    C5 6756   1.103   3.717  13.882 -0.6227  0.3866  0.7794
  450TMC3    C6 6757   1.168   3.753  13.766  0.0286 -0.5228  0.3679
  450TMC3     C 6758   1.392   3.612  14.077  0.1898  0.4531 -0.0583
  450TMC3     O 6759   1.493   3.651  14.139  0.0937 -0.0659 -0.3892
  450TMC3     H 6760   1.493   3.770  13.873 -0.8688  0.7353  1.8932
  450TMC3    H1 6761   1.140   3.655  14.085  1.2549  1.5990  0.9243
  450TMC3    H2 6762   1.114   3.767  13.674 -2.4401  1.1857  2.0864
  450TMC3    C7 6763   1.022   3.592  13.864  0.5341  0.1401 -0.3340
  450TMC3    C8 6764   1.362   3.792  13.637 -0.0919  0.0623  0.1603
  450TMC3    O1 6765   1.050   3.507  13.948 -0.1899  0.3099  0.0541
  450TMC3    O2 6766   1.285   3.835  13.551 -0.0700  0.7230  0.1739
  451MPD2     C 6767   3.100   2.115   0.905  0.5907  0.6207 -0.1243
  451MPD2    C1 6768   3.035   1.992   0.882 -0.1268  0.1115  1.1696
  451MPD2    C2 6769   3.112   1.878   0.873 -0.6151 -0.1204 -0.5053
  451MPD2    C3 6770   3.249   1.873   0.880  0.1112  0.7887  0.1276
  451MPD2    C4 6771   3.311   1.993   0.903  0.4942  0.2005 -0.4977
  451MPD2    C5 6772   3.240   2.112   0.911 -0.1298 -0.6023 -0.0825
  451MPD2     H 6773   3.070   1.779   0.856  1.2345 -1.0241  0.1687
  451MPD2    H1 6774   3.418   2.006   0.907  0.8900 -3.0197 -0.0897
  451MPD2    H2 6775   3.050   2.210   0.916 -0.6745  0.1720 -1.7940
  451MPD2    H3 6776   3.298   2.203   0.924 -0.7242  0.1370 -2.5025
  451MPD2     N 6777   3.327   1.753   0.871 -0.2089 -0.7181  0.1895
  451MPD2    H5 6778   3.270   1.669   0.872  0.0072 -0.9302 -3.1426
  451MPD2    N1 6779   2.896   1.999   0.860 -0.3527 -0.3852  0.0361
  451MPD2    H7 6780   2.859   2.093   0.868  1.0418  0.0894  0.9848
  452TMC3    C1 6781   3.483   1.591   0.812  0.3939  0.7118 -0.2376
  452TMC3    C2 6782   3.400   1.520   0.891  0.2590 -0.6529  0.5292
  452TMC3    C3 6783   3.315   1.423   0.842 -0.3851 -0.3505 -0.5987
  452TMC3    C4 6784   3.478   1.584   0.678  0.4879  0.1922 -0.3581
  452TMC3    C5 6785   3.370   1.508   0.627 -0.1020  0.1779  0.4164
  452TMC3    C6 6786   3.297   1.418   0.707  0.0234  0.2249  0.1250
  452TMC3     C 6787   3.459   1.733   0.841 -0.0391 -0.3882 -0.0864
  452TMC3     O 6788   3.531   1.808   0.779 -0.1619 -0.4252 -0.0884
  452TMC3     H 6789   3.406   1.538   0.998 -2.0027 -3.1599  1.0767
  452TMC3    H1 6790   3.529   1.659   0.618  0.8901  1.2964  1.3486
  452TMC3    H2 6791   3.208   1.371   0.668  0.8696 -2.0590  0.9766
  452TMC3    C7 6792   3.303   1.571   0.511 -0.3971  0.2720  0.3088
  452TMC3    C8 6793   3.191   1.438   0.918  1.0007  0.0996 -0.2335
  452TMC3    O1 6794   3.333   1.685   0.485  0.7717 -0.0496 -0.2090
  452TMC3    O2 6795   3.184   1.549   0.967  0.3812 -0.2623  0.2372
  453TMC3    C1 6796   4.107   3.992  12.006  0.4305  0.1195 -0.0308
  453TMC3    C2 6797   4.030   3.898  12.067  0.1277 -0.3499  0.2533
  453TMC3    C3 6798   4.004   3.780  11.991 -0.4416  0.4385  0.3256
  453TMC3    C4 6799   4.173   3.968  11.890  0.5573  0.9403  0.2288
  453TMC3    C5 6800   4.142   3.859  11.814  0.6116 -0.3934  0.3725
  453TMC3    C6 6801   4.056   3.762  11.857 -0.5999  0.0192  0.8718
  453TMC3     C 6802   4.200   4.067  12.093 -0.3905 -0.2213  0.1238
  453TMC3     O 6803   4.273   4.153  12.046  0.9070  0.4725  0.0345
  453TMC3     H 6804   3.989   3.909  12.166 -1.9210 -1.7536 -0.4539
  453TMC3    H1 6805   4.215   4.060  11.851 -1.9275  1.8337 -0.3862
  453TMC3    H2 6806   4.024   3.677  11.797  0.3987  0.3203 -0.0745
  453TMC3    C7 6807   4.181   3.856  11.674  0.2198  0.0315 -0.8272
  453TMC3    C8 6808   3.904   3.696  12.044 -0.4452  0.1096  0.1471
  453TMC3    O1 6809   4.117   3.792  11.591 -0.3059 -0.0199  0.3397
  453TMC3    O2 6810   3.818   3.751  12.114 -0.0078  0.2073  0.1021
  454MPD2     C 6811   2.818   2.925  15.871  0.6385 -0.2778 -0.6091
  454MPD2    C1 6812   2.688   2.910  15.851 -0.6194  0.6841  0.4885
  454MPD2    C2 6813   2.604   2.949  15.952 -0.1838 -0.7182 -0.0804
  454MPD2    C3 6814   2.640   3.020  16.059 -0.4156 -0.3089  0.8412
  454MPD2    C4 6815   2.775   3.037  16.081  0.9851 -0.4646 -0.2764
  454MPD2    C5 6816   2.859   2.983  15.990  0.0469 -0.1621 -0.4648
  454MPD2     H 6817   2.499   2.926  15.932 -0.1733 -1.6926  0.9835
  454MPD2    H1 6818   2.820   3.075  16.173 -0.3913  0.0093  0.2025
  454MPD2    H2 6819   2.895   2.900  15.798  1.9320  0.2117  0.5728
  454MPD2    H3 6820   2.967   2.995  15.994  0.3713 -2.5152 -1.9213
  454MPD2     N 6821   2.544   3.035  16.162  0.2017 -0.6683  0.1041
  454MPD2    H5 6822   2.450   3.000  16.144  0.5762  0.1540 -3.4970
  454MPD2    N1 6823   2.640   2.842  15.737  0.7807  1.1199  0.2570
  454MPD2    H7 6824   2.695   2.792  15.667  0.3680 -0.6564  1.1974
  455TMC3    C1 6825   2.449   3.077  16.367  0.0278  0.2005 -0.4635
  455TMC3    C2 6826   2.427   3.173  16.466 -0.2346 -0.2182  0.2922
  455TMC3    C3 6827   2.319   3.159  16.549  0.1668  0.7970 -0.5401
  455TMC3    C4 6828   2.355   2.973  16.351 -0.1731 -0.1461 -0.3346
  455TMC3    C5 6829   2.241   2.971  16.424  0.2457  0.8226 -1.0491
  455TMC3    C6 6830   2.227   3.069  16.521 -0.4202 -0.6098  0.1421
  455TMC3     C 6831   2.561   3.092  16.282 -0.0158 -0.0316  1.1826
  455TMC3     O 6832   2.660   3.144  16.325  0.3093 -0.3039  0.2822
  455TMC3     H 6833   2.509   3.241  16.486  0.9123 -1.7873  0.9207
  455TMC3    H1 6834   2.365   2.888  16.286 -1.3067 -0.1266 -0.5386
  455TMC3    H2 6835   2.151   3.047  16.596 -0.1763  0.0646  0.5880
  455TMC3    C7 6836   2.153   2.855  16.414 -0.8136 -0.1560  0.7922
  455TMC3    C8 6837   2.292   3.263  16.641  0.3190 -0.5674 -0.0704
  455TMC3    O1 6838   2.071   2.826  16.501 -0.1336 -0.5467  0.1892
  455TMC3    O2 6839   2.214   3.235  16.728 -0.1027 -0.2098  0.2473
  456MPD2     C 6840   0.004   2.987  15.817  0.0906 -0.2159 -0.2690
  456MPD2    C1 6841   0.104   2.959  15.910 -0.3179 -0.1733  0.8875
  456MPD2    C2 6842   0.121   3.040  16.025  0.4061 -0.3117 -1.0560
  456MPD2    C3 6843   0.029   3.144  16.049  0.0224 -0.3780  0.0382
  456MPD2    C4 6844   4.669   3.161  15.953  0.1181 -0.0756 -0.1272
  456MPD2    C5 6845   4.649   3.084  15.844 -0.2797 -0.4625 -0.1496
  456MPD2     H 6846   0.202   3.030  16.097  1.0341 -1.9366 -1.9976
  456MPD2    H1 6847   4.589   3.233  15.967  0.7990  0.9885 -1.7788
  456MPD2    H2 6848   4.734   2.932  15.724 -0.4880  1.1513 -1.0165
  456MPD2    H3 6849   4.573   3.123  15.778  0.0805 -0.7428 -0.7271
  456MPD2     N 6850   0.047   3.227  16.162  0.4417 -0.7755  0.3875
  456MPD2    H5 6851   0.116   3.195  16.229  2.6502  1.8555 -0.6538
  456MPD2    N1 6852   0.196   2.852  15.877 -0.3156 -0.1062  0.0768
  456MPD2    H7 6853   0.179   2.808  15.787  1.8644 -1.1734  0.1830
  457TMC3    C1 6854   4.733   3.377  16.327 -0.0767 -0.1203  0.7455
  457TMC3    C2 6855   4.701   3.508  16.357 -0.0953  0.2526  0.0886
  457TMC3    C3 6856   4.702   3.543  16.495  0.3094  0.8369 -0.0202
  457TMC3    C4 6857   0.035   3.285  16.421  0.0249  0.2598 -0.8943
  457TMC3    C5 6858   0.029   3.326  16.550 -0.2634  0.4005 -0.0333
  457TMC3    C6 6859   4.733   3.452  16.589 -0.6913  0.2549  0.2629
  457TMC3     C 6860   4.699   3.330  16.199 -0.2099 -0.5118 -0.6281
  457TMC3     O 6861   4.601   3.382  16.149  0.7627 -0.5166  0.2013
  457TMC3     H 6862   4.678   3.577  16.277  0.4773  0.9644  0.5437
  457TMC3    H1 6863   0.050   3.182  16.391  0.0739 -0.7965  2.7609
  457TMC3    H2 6864   0.006   3.475  16.695  0.1628 -1.4527  0.5305
  457TMC3    C7 6865   0.091   3.246  16.654 -0.4124 -0.0721  0.0027
  457TMC3    C8 6866   4.725   3.686  16.530 -1.0032 -0.6530  0.4992
  457TMC3    O1 6867   0.084   3.274  16.774  0.9321 -0.5532  0.1885
  457TMC3    O2 6868   0.045   3.696  16.635 -0.5210 -0.2349 -0.1836
  458MPD2     C 6869   2.891   2.988  12.695 -0.6264  0.5275  0.5861
  458MPD2    C1 6870   2.894   2.867  12.757 -0.4335  0.4566 -0.4117
  458MPD2    C2 6871   2.771   2.824  12.805 -0.3067  0.2435  0.1371
  458MPD2    C3 6872   2.651   2.888  12.781  0.4806  0.6583 -0.1676
  458MPD2    C4 6873   2.656   3.009  12.727 -0.1696 -0.3887  0.1188
  458MPD2    C5 6874   2.775   3.057  12.681  0.3414 -0.9723 -0.2487
  458MPD2     H 6875   2.760   2.732  12.862 -2.0591 -0.2716 -1.0390
  458MPD2    H1 6876   2.562   3.060  12.712  0.8758  1.8346  1.1411
  458MPD2    H2 6877   2.979   3.042  12.661 -0.9923  0.4652 -0.4691
  458MPD2    H3 6878   2.784   3.158  12.643  0.5403 -0.6160  0.7463
  458MPD2     N 6879   2.535   2.815  12.833 -0.4715  0.1259  0.6364
  458MPD2    H5 6880   2.558   2.735  12.891 -2.2409 -0.8429  0.0048
  458MPD2    N1 6881   3.020   2.811  12.792  0.2731 -0.4577  0.0354
  458MPD2    H7 6882   3.104   2.863  12.768  0.4752 -0.5582  0.5202
  459TMC3    C1 6883   3.177   2.684  12.928 -0.8527 -0.5677  0.1596
  459TMC3    C2 6884   3.275   2.775  12.904 -0.3465  0.5818  0.0519
  459TMC3    C3 6885   3.392   2.763  12.977 -0.4350 -0.4179  0.1773
  459TMC3    C4 6886   3.194   2.580  13.020  0.3209 -0.5796 -0.3717
  459TMC3    C5 6887   3.308   2.577  13.090  0.0823  0.3287  0.0965
  459TMC3    C6 6888   3.411   2.671  13.075  0.1048  0.3998  0.4043
  459TMC3     C 6889   3.038   2.706  12.879  0.3308  0.1779  1.4848
  459TMC3     O 6890   2.948   2.642  12.929 -0.3557  0.6180 -0.5110
  459TMC3     H 6891   3.265   2.860  12.836  0.6972  0.9031  0.2982
  459TMC3    H1 6892   3.112   2.516  13.049  0.1800  0.9880  2.6806
  459TMC3    H2 6893   3.510   2.669  13.121  0.1921 -2.6283  0.1361
  459TMC3    C7 6894   3.321   2.470  13.189  0.2417 -0.0815 -1.0065
  459TMC3    C8 6895   3.494   2.860  12.956 -0.0153  0.3924  0.4841
  459TMC3    O1 6896   3.232   2.383  13.190 -0.1526  0.5222 -0.0101
  459TMC3    O2 6897   3.610   2.820  12.965  0.0856 -0.0226  0.2980
  460MPD2     C 6898   2.463   0.582  10.548  0.3059  0.3759  0.3370
  460MPD2    C1 6899   2.360   0.582  10.637  0.1541  0.3235  0.2169
  460MPD2    C2 6900   2.252   0.670  10.605  0.8178  0.9180 -0.6051
  460MPD2    C3 6901   2.246   0.737  10.488  0.8041  0.1428  0.4853
  460MPD2    C4 6902   2.356   0.738  10.400  0.0199 -0.9398 -0.0625
  460MPD2    C5 6903   2.463   0.663  10.437  0.0570  1.0534  0.4319
  460MPD2     H 6904   2.165   0.681  10.669  0.5022  1.3022 -1.0937
  460MPD2    H1 6905   2.365   0.798  10.311 -1.6342 -0.1089  0.3462
  460MPD2    H2 6906   2.553   0.525  10.571  1.2801  1.5946 -0.4832
  460MPD2    H3 6907   2.550   0.655  10.372 -0.4277  1.8155 -0.2896
  460MPD2     N 6908   2.118   0.801  10.452  0.1410  0.7284  0.2020
  460MPD2    H5 6909   2.036   0.788  10.511 -0.0415 -0.2412 -0.2676
  460MPD2    N1 6910   2.365   0.499  10.753 -0.2801  0.0206 -0.1422
  460MPD2    H7 6911   2.444   0.441  10.779 -0.9090 -0.8273 -0.1339
  461TMC3    C1 6912   1.955   0.844  10.301 -0.0975 -0.0563 -0.0516
  461TMC3    C2 6913   1.932   0.803  10.176 -0.1383  0.1778  0.5820
  461TMC3    C3 6914   1.808   0.827  10.128  0.0345 -0.1238 -0.3592
  461TMC3    C4 6915   1.881   0.942  10.361 -0.0514  0.5148 -0.1955
  461TMC3    C5 6916   1.759   0.967  10.307  0.0851  0.2143  1.0369
  461TMC3    C6 6917   1.717   0.912  10.186  0.5717  0.5406 -0.8180
  461TMC3     C 6918   2.093   0.862  10.334 -0.6639 -0.4796 -0.2084
  461TMC3     O 6919   2.168   0.877  10.239  0.0284  0.1746 -0.4481
  461TMC3     H 6920   2.014   0.757  10.122 -0.2501  0.6717 -0.0086
  461TMC3    H1 6921   1.906   0.974  10.461 -0.2166 -1.2201  0.4010
  461TMC3    H2 6922   1.632   0.953  10.132 -0.0737  1.5250  0.9380
  461TMC3    C7 6923   1.697   1.100  10.332 -0.1576 -0.3087 -0.1991
  461TMC3    C8 6924   1.805   0.794   9.990 -0.4691  0.2574 -0.3162
  461TMC3    O1 6925   1.585   1.112  10.293 -0.4247  0.1872 -0.3267
  461TMC3    O2 6926   1.911   0.772   9.936 -0.3244  0.2796 -0.2850
  462TMC3    C1 6927   2.007   1.703   0.366  0.3737  0.1339 -0.3525
  462TMC3    C2 6928   2.102   1.664   0.448  0.0707  0.1542 -0.3669
  462TMC3    C3 6929   2.141   1.530   0.456 -0.2256  0.3105 -0.1704
  462TMC3    C4 6930   1.919   1.616   0.306 -0.1423 -0.5692 -0.0822
  462TMC3    C5 6931   1.956   1.484   0.322  0.4119 -0.1606  0.1737
  462TMC3    C6 6932   2.061   1.436   0.392 -0.1210  0.1738 -0.9569
  462TMC3     C 6933   1.973   1.848   0.371 -1.0205  0.2068 -0.1098
  462TMC3     O 6934   2.001   1.902   0.471  0.2391  0.1957  0.1304
  462TMC3     H 6935   2.158   1.743   0.496 -1.2649 -0.6718  2.5517
  462TMC3    H1 6936   1.835   1.647   0.245 -1.0645 -0.5296  1.1906
  462TMC3    H2 6937   2.084   1.330   0.392 -0.3767  0.1137  0.5578
  462TMC3    C7 6938   1.867   1.396   0.261  0.3241 -0.5523  0.2230
  462TMC3    C8 6939   2.283   1.521   0.440  0.5673  0.1643 -0.1528
  462TMC3    O1 6940   1.866   1.289   0.326 -0.5502  0.2246  0.3717
  462TMC3    O2 6941   2.351   1.607   0.498  0.0235  0.1096  0.0549
  463MPD2     C 6942   2.459   0.273   1.110  0.0111 -0.2167 -0.0093
  463MPD2    C1 6943   2.433   0.139   1.130 -0.6438 -0.1052  0.1996
  463MPD2    C2 6944   2.528   0.041   1.110 -0.5616  0.1571  0.2195
  463MPD2    C3 6945   2.658   0.071   1.078  0.0662  0.3534  0.5274
  463MPD2    C4 6946   2.690   0.205   1.068  0.7600 -0.6365 -0.8786
  463MPD2    C5 6947   2.588   0.302   1.079 -0.2417 -0.2393  0.2652
  463MPD2     H 6948   2.513   4.673   1.124 -2.7343  0.7892  2.7095
  463MPD2    H1 6949   2.794   0.234   1.055 -0.2190  2.2570 -2.3665
  463MPD2    H2 6950   2.388   0.355   1.110 -0.7560 -0.8802 -0.0405
  463MPD2    H3 6951   2.617   0.406   1.077 -0.6167 -0.2014 -3.1622
  463MPD2     N 6952   2.757   4.719   1.048  0.3185  0.0161  0.4255
  463MPD2    H5 6953   2.855   0.007   1.050  0.1214  0.8198 -0.3088
  463MPD2    N1 6954   2.307   0.097   1.173 -0.6700 -0.5216 -0.0389
  463MPD2    H7 6955   2.288   4.736   1.183 -1.3247 -0.2218  1.7485
  464TMC3    C1 6956   2.084   0.101   1.238 -0.6407  0.5693 -0.3644
  464TMC3    C2 6957   1.973   0.088   1.162 -0.0382  0.6743  0.2325
  464TMC3    C3 6958   1.887   4.721   1.169  0.7777  0.0313  0.1881
  464TMC3    C4 6959   2.114   4.734   1.317  0.6657 -0.4917  0.7425
  464TMC3    C5 6960   2.030   4.622   1.318  0.3685 -0.1768 -0.2095
  464TMC3    C6 6961   1.914   4.615   1.253 -0.6485  0.7383  0.3296
  464TMC3     C 6962   2.190   0.179   1.178  0.6420 -0.8077 -0.6793
  464TMC3     O 6963   2.160   0.284   1.121 -0.2432 -0.8175  0.5263
  464TMC3     H 6964   1.951   0.182   1.113 -0.1607 -0.5920 -2.1261
  464TMC3    H1 6965   2.208   4.726   1.371  0.5698  0.6574  1.0822
  464TMC3    H2 6966   1.853   4.525   1.257 -2.3214  1.9149  1.0824
  464TMC3    C7 6967   2.044   4.529   1.430  0.2750 -0.1926  0.7921
  464TMC3    C8 6968   1.785   4.719   1.078 -0.2284 -0.4366 -0.3876
  464TMC3    O1 6969   2.085   4.581   1.534 -0.0710 -0.7326 -0.3512
  464TMC3    O2 6970   1.775   0.074   1.001 -0.0257  0.6894 -0.1085
  465MPD2     C 6971   4.347   3.915  16.473 -0.0145  0.7952  0.0973
  465MPD2    C1 6972   4.343   3.790  16.523  1.0538 -0.9953 -0.2896
  465MPD2    C2 6973   4.263   3.695  16.459  0.3934 -0.0608 -0.1116
  465MPD2    C3 6974   4.186   3.720  16.339  0.3717  0.3589  0.0222
  465MPD2    C4 6975   4.197   3.853  16.292  0.0311 -0.0883 -0.3003
  465MPD2    C5 6976   4.269   3.945  16.361 -0.2885 -0.1853 -0.1990
  465MPD2     H 6977   4.245   3.596  16.500 -0.8001  0.5762  0.9095
  465MPD2    H1 6978   4.144   3.889  16.205 -0.8705 -0.0554  0.2644
  465MPD2    H2 6979   4.408   3.996  16.512 -0.4455  1.7201 -1.1629
  465MPD2    H3 6980   4.265   4.047  16.323 -0.2561 -0.0040  0.2780
  465MPD2     N 6981   4.111   3.621  16.285 -0.0662 -0.2317 -0.7848
  465MPD2    H5 6982   4.111   3.532  16.335  1.1037 -0.7190 -1.6605
  465MPD2    N1 6983   4.411   3.754  16.641  0.3930  0.0053 -0.8170
  465MPD2    H7 6984   4.399   3.660  16.677 -2.4851 -0.0426 -1.8520
  466TMC3    C1 6985   3.899   3.290  16.213  0.5668 -0.1961  0.3779
  466TMC3    C2 6986   3.775   3.323  16.178 -0.5258 -0.4713  1.2787
  466TMC3    C3 6987   3.728   3.450  16.157  0.3775  0.4957 -0.0223
  466TMC3    C4 6988   3.994   3.389  16.198 -0.0948  0.6122  0.2219
  466TMC3    C5 6989   3.947   3.515  16.162 -0.3927 -0.5509 -0.6456
  466TMC3    C6 6990   3.817   3.547  16.144  0.0400  0.5597 -0.0291
  466TMC3     C 6991   3.904   3.232  16.345 -0.4703  0.5772  1.4954
  466TMC3     O 6992   3.994   3.273  16.413  0.1284  0.1083  0.5138
  466TMC3     H 6993   3.699   3.246  16.167 -0.0684 -0.3560 -2.7965
  466TMC3    H1 6994   4.096   3.365  16.225 -0.2253 -0.1134  0.0677
  466TMC3    H2 6995   3.788   3.648  16.119 -0.2842  0.7824  1.2481
  466TMC3    C7 6996   4.033   3.631  16.170 -0.8124  0.1433 -0.3326
  466TMC3    C8 6997   3.586   3.467  16.120 -0.0924 -0.5965  0.4431
  466TMC3    O1 6998   4.019   3.735  16.103 -0.4863 -0.7291 -0.6868
  466TMC3    O2 6999   3.521   3.379  16.071 -0.1950 -0.1297  0.4435
  467TMC3    C1 7000   0.205   1.810  13.521  0.0442 -0.4193  0.1889
  467TMC3    C2 7001   0.279   1.859  13.416 -0.5579  0.2917 -0.4937
  467TMC3    C3 7002   0.235   1.831  13.289  0.1925  0.2233  0.5993
  467TMC3    C4 7003   0.087   1.753  13.505 -0.6020  0.2710  1.1406
  467TMC3    C5 7004   0.053   1.719  13.376  0.2233 -0.5062  0.1140
  467TMC3    C6 7005   0.124   1.755  13.269 -0.6982  0.4817  0.0399
  467TMC3     C 7006   0.239   1.851  13.658  0.7329 -0.2341  0.6680
  467TMC3     O 7007   0.357   1.885  13.670 -0.4837 -0.4612  0.4476
  467TMC3     H 7008   0.370   1.915  13.433 -0.3490 -0.4795  0.9330
  467TMC3    H1 7009   0.028   1.718  13.589 -2.2398 -0.9543 -0.5217
  467TMC3    H2 7010   0.092   1.735  13.167 -1.2025  0.2873  0.2356
  467TMC3    C7 7011   4.652   1.677  13.344  0.4826 -0.3073 -0.1724
  467TMC3    C8 7012   0.321   1.870  13.177  0.2617 -0.4266  0.3141
  467TMC3    O1 7013   4.628   1.648  13.227 -0.0828 -0.5572  0.2410
  467TMC3    O2 7014   0.311   1.804  13.075 -0.2785  0.4147 -0.1618
  468MPD2     C 7015   3.900   0.457  10.646  0.1754 -0.7881  0.0137
  468MPD2    C1 7016   3.947   0.451  10.773 -0.4465  0.4401 -0.8841
  468MPD2    C2 7017   3.957   0.326  10.836  0.4883 -0.2092 -0.3080
  468MPD2    C3 7018   3.916   0.210  10.782  0.3150  0.3882 -0.2293
  468MPD2    C4 7019   3.848   0.213  10.662  0.3026 -0.4167  0.1409
  468MPD2    C5 7020   3.851   0.338  10.594 -0.5059  0.5691 -0.7226
  468MPD2     H 7021   3.989   0.331  10.939 -0.5331 -0.5249  0.0274
  468MPD2    H1 7022   3.824   0.121  10.611 -1.6105  0.8593 -1.2728
  468MPD2    H2 7023   3.902   0.548  10.588 -0.3545 -0.1839  0.9339
  468MPD2    H3 7024   3.824   0.334  10.489  0.1234  0.1972 -0.8668
  468MPD2     N 7025   3.924   0.082  10.853  0.1792  0.2812  0.0559
  468MPD2    H5 7026   3.908   4.735  10.800  0.7814  0.7975 -0.9568
  468MPD2    N1 7027   3.992   0.561  10.845 -1.0125 -0.1509 -0.1553
  468MPD2    H7 7028   4.039   0.549  10.934 -1.1634 -0.6981 -0.1492
  469TMC3    C1 7029   4.006   0.790  10.897 -0.5413  0.2304 -0.2296
  469TMC3    C2 7030   4.138   0.779  10.940  0.2047  0.4853 -0.3318
  469TMC3    C3 7031   4.181   0.873  11.033 -0.3248 -0.4283  0.1501
  469TMC3    C4 7032   3.924   0.885  10.939 -0.1500 -0.7162 -1.0603
  469TMC3    C5 7033   3.965   0.967  11.039  0.0982  0.2651 -0.1824
  469TMC3    C6 7034   4.095   0.959  11.086 -0.6060 -0.0323  0.2738
  469TMC3     C 7035   3.953   0.688  10.812 -0.4591  0.1859  0.3396
  469TMC3     O 7036   3.866   0.725  10.735  0.1080 -0.2420  0.0590
  469TMC3     H 7037   4.200   0.704  10.892 -0.8607  0.0082 -0.9931
  469TMC3    H1 7038   3.823   0.890  10.900 -1.2636 -0.5815  1.8917
  469TMC3    H2 7039   4.126   1.021  11.170  2.0280 -2.0140  0.7474
  469TMC3    C7 7040   3.888   1.081  11.075 -0.5954  0.6846  0.5276
  469TMC3    C8 7041   4.289   0.838  11.127  0.1417  0.2729  0.5612
  469TMC3    O1 7042   3.939   1.186  11.117 -0.2290  0.2373 -0.4828
  469TMC3    O2 7043   4.275   0.869  11.247 -0.0415  0.0238 -0.1847
  470TMC3    C1 7044   1.395   0.960   0.450 -0.0494  0.1367 -0.2636
  470TMC3    C2 7045   1.498   1.032   0.513  0.2061  0.5568  0.2411
  470TMC3    C3 7046   1.473   1.079   0.641  0.1019 -0.4154 -0.4719
  470TMC3    C4 7047   1.274   0.935   0.509  0.1690  0.3907 -0.1985
  470TMC3    C5 7048   1.258   0.988   0.637  0.8568 -0.0419 -0.0622
  470TMC3    C6 7049   1.358   1.055   0.707  0.2068 -0.2649  0.5410
  470TMC3     C 7050   1.409   0.919   0.311 -0.2086 -0.0327  0.6189
  470TMC3     O 7051   1.491   0.984   0.250 -0.2431 -0.0769  0.3064
  470TMC3     H 7052   1.592   1.054   0.463 -1.6219  2.3400 -2.4508
  470TMC3    H1 7053   1.186   0.916   0.450  1.2570  1.6749 -2.2351
  470TMC3    H2 7054   1.346   1.083   0.812 -0.3142  0.0579  0.3974
  470TMC3    C7 7055   1.119   0.988   0.682  0.1599  0.3343 -1.0580
  470TMC3    C8 7056   1.543   1.195   0.687 -0.4264 -0.1192 -0.1949
  470TMC3    O1 7057   1.040   0.921   0.623 -0.3954  0.3131  0.4631
  470TMC3    O2 7058   1.480   1.256   0.770 -0.0962  0.0290 -0.7616
  471MPD2     C 7059   1.890   2.176  16.602  0.1220 -0.0661  0.1866
  471MPD2    C1 7060   1.982   2.084  16.563  0.1139 -0.7546 -0.2793
  471MPD2    C2 7061   2.083   2.058  16.657 -0.1373  0.6479  0.3173
  471MPD2    C3 7062   2.085   2.110  16.786  0.6217 -0.5841 -0.5173
  471MPD2    C4 7063   1.994   2.206  16.818 -0.3196  0.4330  0.3155
  471MPD2    C5 7064   1.903   2.238  16.724  0.0396  0.7651 -0.2000
  471MPD2     H 7065   2.147   1.978  16.621 -0.8800  1.1645 -2.1267
  471MPD2    H1 7066   2.001   2.275  16.902  1.9646 -0.3050  0.7529
  471MPD2    H2 7067   1.819   2.222  16.535  1.0982 -0.2020 -0.9301
  471MPD2    H3 7068   1.846   2.327  16.749  0.9198  1.2069  0.2503
  471MPD2     N 7069   2.182   2.056  16.869 -0.6048  0.0105 -0.2319
  471MPD2    H5 7070   2.247   1.991  16.825 -0.1452  1.4590 -1.6966
  471MPD2    N1 7071   1.984   2.028  16.432 -0.8355 -0.1604  0.2446
  471MPD2    H7 7072   2.070   1.976  16.418 -1.5762 -2.1210  2.9588
  472TMC3    C1 7073   1.906   1.926  16.242  0.2923 -0.6397 -0.9367
  472TMC3    C2 7074   1.865   1.956  16.117 -0.7234 -0.3800  0.0930
  472TMC3    C3 7075   1.911   1.873  16.018 -0.0838 -0.4955 -0.7847
  472TMC3    C4 7076   1.972   1.813  16.276 -0.3751  0.4768 -0.1698
  472TMC3    C5 7077   2.014   1.729  16.175  0.2311 -0.3640 -0.7344
  472TMC3    C6 7078   1.974   1.754  16.043 -0.0449  0.5299 -0.0927
  472TMC3     C 7079   1.876   2.021  16.344  0.2532  0.3376  0.7680
  472TMC3     O 7080   1.789   2.100  16.315 -0.1119 -0.4660  0.2272
  472TMC3     H 7081   1.803   2.044  16.107 -0.6842 -0.2005  1.4552
  472TMC3    H1 7082   1.986   1.783  16.379 -2.4060 -1.3264 -0.4167
  472TMC3    H2 7083   1.977   1.685  15.959  0.4453 -1.8277  1.8464
  472TMC3    C7 7084   2.012   1.588  16.224 -0.0537  0.0763 -0.2454
  472TMC3    C8 7085   1.858   1.895  15.892 -0.1477  0.7711  0.3622
  472TMC3    O1 7086   1.983   1.559  16.336  0.6927  0.3239 -0.2798
  472TMC3    O2 7087   1.924   1.874  15.788  0.5932 -0.2209 -0.0241
  473MPD2     C 7088   1.768   4.105  14.273  0.1969 -0.4383  1.0794
  473MPD2    C1 7089   1.734   4.234  14.256 -1.3642 -0.0823 -0.3376
  473MPD2    C2 7090   1.754   4.319  14.362 -0.5864 -0.6991  0.3799
  473MPD2    C3 7091   1.814   4.272  14.480 -0.1109  0.1120  0.6586
  473MPD2    C4 7092   1.869   4.147  14.480  0.2670 -0.1294 -0.6906
  473MPD2    C5 7093   1.836   4.057  14.389 -0.5777  0.7754  0.5561
  473MPD2     H 7094   1.730   4.421  14.336  0.9690 -0.5734 -0.5708
  473MPD2    H1 7095   1.906   4.102  14.572 -0.0256  2.2038  0.5683
  473MPD2    H2 7096   1.750   4.025  14.202 -0.3586 -0.9177  1.7582
  473MPD2    H3 7097   1.854   3.950  14.397  2.4491  1.2581  0.2201
  473MPD2     N 7098   1.840   4.362  14.583 -0.3061 -0.1105  0.3032
  473MPD2    H5 7099   1.915   4.334  14.646 -0.3623 -1.1012 -0.0807
  473MPD2    N1 7100   1.672   4.279  14.136 -0.1736  0.1019  0.1250
  473MPD2    H7 7101   1.639   4.375  14.147 -2.0460 -0.6916  1.3640
  474TMC3    C1 7102   1.818   4.583  14.684  0.1007 -0.1535  0.1250
  474TMC3    C2 7103   1.729   4.681  14.713 -0.1390 -1.2590  0.2527
  474TMC3    C3 7104   1.775   0.066  14.748  0.1994 -0.1493  0.4057
  474TMC3    C4 7105   1.955   4.602  14.693  0.4890 -0.3596  0.6944
  474TMC3    C5 7106   1.993   4.721  14.759 -0.4486 -0.8135  0.2776
  474TMC3    C6 7107   1.906   0.088  14.780  0.0665 -0.1194  0.1391
  474TMC3     C 7108   1.769   4.483  14.591  0.0020  0.5189  0.3934
  474TMC3     O 7109   1.670   4.515  14.533  0.1229  0.5742 -0.2726
  474TMC3     H 7110   1.624   4.661  14.696 -0.5577 -0.3350  1.7228
  474TMC3    H1 7111   2.028   4.528  14.663  0.2716 -0.7625  1.1744
  474TMC3    H2 7112   1.935   0.190  14.802 -0.9941  0.8042 -2.8236
  474TMC3    C7 7113   2.135   0.004  14.774  0.2809 -0.3466 -0.2141
  474TMC3    C8 7114   1.702   0.164  14.672  0.2575  0.3948  0.1644
  474TMC3    O1 7115   2.206   4.665  14.707 -0.1422 -0.0922 -0.3584
  474TMC3    O2 7116   1.585   0.138  14.671 -0.6233  0.3067  0.1928
  475MPD2     C 7117   4.669   3.053  10.664 -0.1792 -0.9420  0.7639
  475MPD2    C1 7118   4.704   3.139  10.768 -0.0582  0.4396 -0.2210
  475MPD2    C2 7119   4.600   3.189  10.851  0.1654 -0.0936 -0.3166
  475MPD2    C3 7120   4.468   3.154  10.835 -0.7827 -0.2352 -0.4042
  475MPD2    C4 7121   4.437   3.052  10.733  0.5614  0.1550  1.4016
  475MPD2    C5 7122   4.538   3.012  10.657  0.3452 -0.1038  0.6490
  475MPD2     H 7123   4.638   3.260  10.923 -1.4005  0.7096 -0.2847
  475MPD2    H1 7124   4.343   2.999  10.722  0.4863  0.5754  0.0645
  475MPD2    H2 7125   0.001   3.028  10.585 -1.2024  0.2773 -0.5318
  475MPD2    H3 7126   4.516   2.945  10.575  0.1256  1.7363 -0.7842
  475MPD2     N 7127   4.362   3.207  10.914 -0.2613 -0.1558  0.1529
  475MPD2    H5 7128   4.389   3.291  10.964  1.5748  0.8681 -2.5723
  475MPD2    N1 7129   0.094   3.190  10.790  0.1301 -0.0558 -0.2355
  475MPD2    H7 7130   0.106   3.254  10.868  1.0164 -1.5170  0.8195
  476TMC3    C1 7131   0.312   3.234  10.757  0.8719 -0.1248 -0.1900
  476TMC3    C2 7132   0.348   3.345  10.680 -0.6061 -0.2445 -0.2832
  476TMC3    C3 7133   0.375   3.460  10.746  0.5236  0.2575  0.1370
  476TMC3    C4 7134   0.323   3.236  10.897  0.3670 -0.2476 -0.5169
  476TMC3    C5 7135   0.355   3.351  10.954  0.2974 -0.2557  0.1269
  476TMC3    C6 7136   0.385   3.465  10.881  0.0300 -0.4207  0.3180
  476TMC3     C 7137   0.197   3.174  10.708 -0.0246  0.0499 -0.2058
  476TMC3     O 7138   0.195   3.152  10.587 -0.4553  0.6706  0.6122
  476TMC3     H 7139   0.353   3.338  10.572  1.2038  1.6711 -0.3261
  476TMC3    H1 7140   0.298   3.150  10.959  0.9925 -0.5295 -0.6631
  476TMC3    H2 7141   0.397   3.558  10.934  1.5421 -1.6203  2.0753
  476TMC3    C7 7142   0.329   3.363  11.101 -0.3237 -0.0056 -0.4705
  476TMC3    C8 7143   0.277   3.557  10.697 -0.8718 -0.1874  1.4400
  476TMC3    O1 7144   0.265   3.270  11.149 -0.4284  0.2529 -0.4808
  476TMC3    O2 7145   0.276   3.664  10.745  0.9404 -0.0432 -0.1926
  477MPD2     C 7146   2.488   4.606  11.752 -0.6135  0.3809  0.6235
  477MPD2    C1 7147   2.512   4.486  11.689  0.1976  0.1003  0.0215
  477MPD2    C2 7148   2.500   4.371  11.766  0.0438  0.5372  0.7662
  477MPD2    C3 7149   2.466   4.375  11.900  0.6684 -0.2471  1.3229
  477MPD2    C4 7150   2.443   4.500  11.957  0.2226  0.7563 -0.3341
  477MPD2    C5 7151   2.447   4.609  11.882  0.2531  0.6923 -0.3079
  477MPD2     H 7152   2.515   4.274  11.719 -2.9903  0.0359  0.8356
  477MPD2    H1 7153   2.394   4.516  12.052  1.5503 -1.1204  0.6707
  477MPD2    H2 7154   2.503   4.699  11.699  1.2858  0.1621  0.7755
  477MPD2    H3 7155   2.424   4.704  11.927 -0.2103  0.0674  0.7628
  477MPD2     N 7156   2.456   4.255  11.974  0.5025 -0.4214  0.3243
  477MPD2    H5 7157   2.464   4.174  11.913 -0.7065  0.4119 -0.9459
  477MPD2    N1 7158   2.522   4.496  11.547 -0.1195 -0.1525  0.3606
  477MPD2    H7 7159   2.502   4.591  11.516  1.5996  0.1756  0.2420
  478TMC3    C1 7160   2.480   4.420  11.341  0.0328 -0.7182 -0.2177
  478TMC3    C2 7161   2.377   4.511  11.347  0.2527  0.1700 -0.9179
  478TMC3    C3 7162   2.289   4.515  11.248  0.5910  0.2765 -0.0533
  478TMC3    C4 7163   2.492   4.333  11.233  0.8623  0.3786  0.3567
  478TMC3    C5 7164   2.402   4.352  11.130  0.4362  0.2781 -0.1829
  478TMC3    C6 7165   2.295   4.440  11.142 -0.6378  0.7798  0.7685
  478TMC3     C 7166   2.543   4.391  11.465  0.4192 -0.0219 -0.3704
  478TMC3     O 7167   2.560   4.271  11.491  0.3482 -0.1867 -0.1643
  478TMC3     H 7168   2.350   4.580  11.426 -1.0653 -0.2216 -1.0145
  478TMC3    H1 7169   2.564   4.252  11.238  0.9484  0.3306 -1.8982
  478TMC3    H2 7170   2.211   4.430  11.074 -0.0808 -0.4588  0.2717
  478TMC3    C7 7171   2.443   4.318  10.992 -0.2730  0.5316  0.2978
  478TMC3    C8 7172   2.182   4.613  11.257 -0.1128 -0.4543  0.4881
  478TMC3    O1 7173   2.525   4.225  10.980  0.1159  0.5409  0.0138
  478TMC3    O2 7174   2.199   4.724  11.306  0.5689  0.2046 -0.4084
  479MPD2     C 7175   1.515   1.622  14.811 -0.3140 -0.1382  0.1540
  479MPD2    C1 7176   1.481   1.563  14.928 -0.6502  0.3416  0.1280
  479MPD2    C2 7177   1.559   1.584  15.032 -0.6945 -0.2180 -0.0381
  479MPD2    C3 7178   1.668   1.672  15.034 -0.5022 -0.5211  0.6315
  479MPD2    C4 7179   1.697   1.737  14.920 -0.7252  0.6448  0.5091
  479MPD2    C5 7180   1.622   1.703  14.805 -0.9081  0.0399 -0.2195
  479MPD2     H 7181   1.542   1.530  15.124 -0.3834 -2.0127 -1.0377
  479MPD2    H1 7182   1.780   1.807  14.918 -0.4383  0.2614 -0.9852
  479MPD2    H2 7183   1.469   1.597  14.717  0.0140  1.3441 -0.3957
  479MPD2    H3 7184   1.645   1.757  14.713 -1.6492  1.0714  0.2061
  479MPD2     N 7185   1.741   1.709  15.152 -0.0056  0.0552  0.1047
  479MPD2    H5 7186   1.824   1.763  15.131 -0.1098  1.2336  2.8072
  479MPD2    N1 7187   1.364   1.485  14.930  0.8371  0.0853 -0.1855
  479MPD2    H7 7188   1.315   1.465  14.844  2.3986 -0.0737 -1.0412
  480TMC3    C1 7189   1.419   1.577  15.456  0.0886 -0.1613 -0.1502
  480TMC3    C2 7190   1.325   1.648  15.388  0.0362 -0.1394  0.4156
  480TMC3    C3 7191   1.368   1.751  15.306  0.2222  0.6851 -0.8030
  480TMC3    C4 7192   1.548   1.592  15.429  0.2645  0.5314  0.1409
  480TMC3    C5 7193   1.581   1.680  15.328 -0.4474 -0.7460  0.1089
  480TMC3    C6 7194   1.499   1.773  15.275  0.3817  0.7679 -0.4452
  480TMC3     C 7195   1.393   1.478  15.561  0.3849 -0.2243  0.7008
  480TMC3     O 7196   1.484   1.417  15.613 -0.5826  0.2811 -0.7620
  480TMC3     H 7197   1.218   1.639  15.400  0.0105  1.0395  1.1208
  480TMC3    H1 7198   1.618   1.529  15.484 -0.7370 -0.1317  0.6703
  480TMC3    H2 7199   1.537   1.859  15.220  0.5679  0.2444 -1.1329
  480TMC3    C7 7200   1.717   1.669  15.281 -0.0383  0.7746 -0.1856
  480TMC3    C8 7201   1.268   1.778  15.202 -0.1453 -0.0822  0.3631
  480TMC3    O1 7202   1.799   1.671  15.373  0.5214 -0.2141 -0.4826
  480TMC3    O2 7203   1.153   1.735  15.210  0.0751  0.0513  0.1055
  481MPD2     C 7204   2.936   1.017  14.045 -0.1529  0.3205  0.4253
  481MPD2    C1 7205   2.845   0.960  14.128  0.2237 -0.2752 -0.0843
  481MPD2    C2 7206   2.904   0.887  14.228  0.5333  0.3478 -0.3664
  481MPD2    C3 7207   3.038   0.860  14.247 -0.2935  0.2296 -0.5487
  481MPD2    C4 7208   3.128   0.922  14.164  0.5253  0.7660 -0.2074
  481MPD2    C5 7209   3.071   1.000  14.065  0.0589 -0.1357  0.1017
  481MPD2     H 7210   2.842   0.835  14.300 -0.9336 -0.4681 -2.2103
  481MPD2    H1 7211   3.231   0.904  14.191  0.9490  0.6568 -1.8799
  481MPD2    H2 7212   2.913   1.072  13.954  0.1706  2.3513  1.5582
  481MPD2    H3 7213   3.143   1.044  13.996  1.3175 -0.9804  0.8684
  481MPD2     N 7214   3.090   0.772  14.340 -0.2693  0.6305  0.0090
  481MPD2    H5 7215   3.189   0.750  14.347  0.1819  2.2007 -1.3799
  481MPD2    N1 7216   2.712   0.982  14.099  1.0202 -0.4368  0.1996
  481MPD2    H7 7217   2.681   1.035  14.019 -0.8667 -0.7527  0.7084
  482TMC3    C1 7218   2.480   0.970  14.124 -0.5786  0.3030  0.7778
  482TMC3    C2 7219   2.377   0.880  14.106 -0.7135  0.0716 -0.2200
  482TMC3    C3 7220   2.282   0.908  14.010 -0.2626  0.0131 -0.3904
  482TMC3    C4 7221   2.477   1.099  14.074  0.5696 -0.3518  0.2345
  482TMC3    C5 7222   2.381   1.119  13.979 -0.3042 -0.1426 -0.4841
  482TMC3    C6 7223   2.277   1.035  13.947  0.1172  0.3170  0.2076
  482TMC3     C 7224   2.609   0.925  14.173  0.3191 -0.2248  0.2119
  482TMC3     O 7225   2.607   0.835  14.254 -0.4976 -0.3376 -0.2691
  482TMC3     H 7226   2.385   0.778  14.141 -1.8766 -0.1174 -0.5134
  482TMC3    H1 7227   2.556   1.172  14.089  1.5590 -1.0909 -1.4599
  482TMC3    H2 7228   2.215   1.062  13.863 -0.3455  1.0957  0.8046
  482TMC3    C7 7229   2.406   1.240  13.904 -0.0371  0.0780  0.5935
  482TMC3    C8 7230   2.203   0.797  13.956  0.8041  0.0756  0.2569
  482TMC3    O1 7231   2.498   1.315  13.931  0.4344  0.3425 -0.5550
  482TMC3    O2 7232   2.234   0.679  13.984 -0.2748 -0.5978  0.2133
  483TMC3    C1 7233   1.176   4.711   0.844 -0.2556 -0.2440  0.1954
  483TMC3    C2 7234   1.228   0.075   0.775  0.5394  0.6814  0.2271
  483TMC3    C3 7235   1.327   0.148   0.837 -0.1374 -0.1916  0.4326
  483TMC3    C4 7236   1.215   4.686   0.972  0.2316  0.5827 -0.0317
  483TMC3    C5 7237   1.321   0.018   1.019  0.0907  0.9003  0.9451
  483TMC3    C6 7238   1.386   0.106   0.951  0.1831 -0.4311  0.2489
  483TMC3     C 7239   1.082   4.621   0.781  0.0799 -0.9238 -1.2902
  483TMC3     O 7240   1.020   4.659   0.683  0.6523 -0.1753 -0.5733
  483TMC3     H 7241   1.197   0.094   0.673 -0.6208  0.7753  0.6004
  483TMC3    H1 7242   1.157   4.615   1.031 -0.4408  0.0490 -1.3287
  483TMC3    H2 7243   1.493   0.122   0.959 -0.3105  2.9302  0.3993
  483TMC3    C7 7244   1.384   4.701   1.141  0.4802 -0.0592  0.4852
  483TMC3    C8 7245   1.411   0.224   0.748  0.7518 -0.0548  0.2602
  483TMC3    O1 7246   1.348   4.588   1.175  0.3079 -0.3661 -0.0816
  483TMC3    O2 7247   1.398   0.217   0.627 -0.5943  0.2418 -0.2826
  484MPD2     C 7248   3.457   3.223  12.993  0.2984  0.3233  0.3106
  484MPD2    C1 7249   3.528   3.107  12.969 -0.1699  0.1763  0.3692
  484MPD2    C2 7250   3.672   3.115  12.958  0.0519 -0.3617  0.5841
  484MPD2    C3 7251   3.735   3.236  12.972  0.1570  0.3502 -0.1483
  484MPD2    C4 7252   3.658   3.349  13.007  0.8708 -0.0132  0.1194
  484MPD2    C5 7253   3.523   3.334  13.017  0.0031 -0.5389  0.1040
  484MPD2     H 7254   3.720   3.020  12.936 -0.5572 -1.1383  2.5676
  484MPD2    H1 7255   3.709   3.442  13.032 -0.3914  1.5548 -3.1616
  484MPD2    H2 7256   3.349   3.218  13.001  0.1354 -2.3936 -3.6267
  484MPD2    H3 7257   3.461   3.421  13.036 -1.4441 -1.4664 -0.3977
  484MPD2     N 7258   3.880   3.252  12.961 -0.2105  0.8771  0.2785
  484MPD2    H5 7259   3.917   3.344  12.983 -0.3634  0.2253  3.2212
  484MPD2    N1 7260   3.449   2.990  12.968  0.3264  0.2847  0.4949
  484MPD2    H7 7261   3.349   2.993  12.987  0.3699 -0.6589  0.8723
  485TMC3    C1 7262   4.104   3.210  12.931  0.1991 -0.5934  0.3029
  485TMC3    C2 7263   4.205   3.117  12.940 -0.2017  0.1440  0.4583
  485TMC3    C3 7264   4.333   3.161  12.950  0.4400 -0.1398 -0.3293
  485TMC3    C4 7265   4.131   3.341  12.896  0.2481  0.3809 -0.4050
  485TMC3    C5 7266   4.263   3.373  12.872 -0.3967 -0.0197  0.6072
  485TMC3    C6 7267   4.365   3.286  12.909  0.3576 -0.2012  0.1701
  485TMC3     C 7268   3.966   3.152  12.934 -0.1757 -0.1008 -0.3304
  485TMC3     O 7269   3.954   3.037  12.905 -0.0649 -0.6365  0.0837
  485TMC3     H 7270   4.170   3.020  12.975 -1.9511  0.7443  0.3955
  485TMC3    H1 7271   4.049   3.405  12.866  0.2788  0.8271  0.4804
  485TMC3    H2 7272   4.468   3.316  12.893 -0.4131  1.9391 -0.8229
  485TMC3    C7 7273   4.266   3.399  12.729  0.5675 -0.0778 -0.6900
  485TMC3    C8 7274   4.438   3.074  12.900 -0.2686  0.2188 -0.3351
  485TMC3    O1 7275   4.167   3.443  12.677  0.4687  0.2370  0.0126
  485TMC3    O2 7276   4.512   3.126  12.815  0.1297  0.0066 -0.1315
  486MPD2     C 7277   0.813   1.454  12.682 -0.5652 -0.7448  0.6920
  486MPD2    C1 7278   0.679   1.460  12.716 -0.4472 -0.4294  0.5238
  486MPD2    C2 7279   0.618   1.584  12.709  0.2921 -0.2240 -0.1444
  486MPD2    C3 7280   0.691   1.692  12.659 -0.3028  0.1632  0.6926
  486MPD2    C4 7281   0.822   1.679  12.627 -0.2709 -0.1006  0.1015
  486MPD2    C5 7282   0.885   1.562  12.638 -0.7508  0.8766  0.6350
  486MPD2     H 7283   0.517   1.598  12.745  0.1014  0.6502 -1.0074
  486MPD2    H1 7284   0.883   1.766  12.603 -0.5128 -0.5379 -2.1225
  486MPD2    H2 7285   0.877   1.366  12.683 -1.4373 -1.3641  2.2440
  486MPD2    H3 7286   0.987   1.552  12.602 -0.2195  0.7188  2.1824
  486MPD2     N 7287   0.614   1.806  12.658 -0.3491 -0.4224  0.2209
  486MPD2    H5 7288   0.515   1.793  12.677 -0.0331 -1.2447  1.3322
  486MPD2    N1 7289   0.613   1.353  12.786  0.7288  0.1706  0.5013
  486MPD2    H7 7290   0.656   1.273  12.830 -0.9327 -1.2192 -0.4064
  487TMC3    C1 7291   0.424   1.236  12.859  0.1617  0.0795  0.2916
  487TMC3    C2 7292   0.308   1.177  12.818  0.6071 -0.0318  0.3551
  487TMC3    C3 7293   0.253   1.098  12.918 -0.7090 -0.1637 -0.3609
  487TMC3    C4 7294   0.480   1.219  12.985  0.3143 -0.4391 -0.0572
  487TMC3    C5 7295   0.419   1.140  13.075  0.1165  0.4767 -0.4801
  487TMC3    C6 7296   0.301   1.086  13.041 -0.3440 -0.8729  0.1917
  487TMC3     C 7297   0.473   1.339  12.771 -0.5665 -0.5249 -0.4962
  487TMC3     O 7298   0.398   1.383  12.680 -0.0500  0.7068  0.1931
  487TMC3     H 7299   0.271   1.189  12.717 -0.8436  0.4455  0.9530
  487TMC3    H1 7300   0.570   1.269  13.019  0.2270 -1.7129  2.0388
  487TMC3    H2 7301   0.269   0.996  13.091  2.0232 -2.1873 -0.6607
  487TMC3    C7 7302   0.466   1.137  13.210 -0.1764  0.1686 -0.3561
  487TMC3    C8 7303   0.133   1.030  12.899  0.3545  0.5314 -0.0781
  487TMC3    O1 7304   0.581   1.162  13.236 -0.2265  0.4220  0.5670
  487TMC3    O2 7305   0.090   0.939  12.969 -0.2999  0.0116 -0.1760
  488MPD2     C 7306   1.050   3.208  16.252 -0.3964  0.8384  0.3487
  488MPD2    C1 7307   1.075   3.274  16.369  0.2751  0.4858 -0.0693
  488MPD2    C2 7308   1.013   3.229  16.476 -0.0566 -0.0088  0.3627
  488MPD2    C3 7309   0.928   3.119  16.480  0.3525  0.2617  0.1249
  488MPD2    C4 7310   0.903   3.049  16.363 -0.0842  0.3019 -0.8310
  488MPD2    C5 7311   0.955   3.103  16.245  0.4889  0.0350  0.0145
  488MPD2     H 7312   1.029   3.280  16.570 -1.2545 -1.1717  1.2050
  488MPD2    H1 7313   0.842   2.960  16.359  0.0353  0.2531 -1.5426
  488MPD2    H2 7314   1.097   3.243  16.161 -0.3473 -0.0747  0.0306
  488MPD2    H3 7315   0.938   3.048  16.153  1.6181 -1.7054  0.8600
  488MPD2     N 7316   0.887   3.072  16.609 -0.5348  0.3290 -0.2197
  488MPD2    H5 7317   0.929   3.124  16.685  1.2084 -3.4740  1.4497
  488MPD2    N1 7318   1.162   3.376  16.399  0.4197 -0.2474  0.1491
  488MPD2    H7 7319   1.158   3.406  16.497  0.5180 -0.7413  0.3008
  489TMC3    C1 7320   0.837   2.909  16.780 -0.1183  0.1578  1.1006
  489TMC3    C2 7321   0.926   2.993  16.840  0.8233  0.6946 -0.0931
  489TMC3    C3 7322   0.897   3.043  16.963  0.1264  0.1643 -0.0780
  489TMC3    C4 7323   0.720   2.877  16.836  0.0137 -0.5869 -0.2113
  489TMC3    C5 7324   0.687   2.940  16.951 -0.2030  0.2025  0.4464
  489TMC3    C6 7325   0.772   3.017  17.016 -0.0765  0.3871  0.1032
  489TMC3     C 7326   0.821   2.950  16.638  0.2571 -0.3024  0.6588
  489TMC3     O 7327   0.760   2.881  16.558  0.9217  0.2010  0.2871
  489TMC3     H 7328   1.020   2.996  16.786  0.8058  0.3710 -0.1437
  489TMC3    H1 7329   0.644   2.820  16.783 -1.1369  1.1798 -0.4794
  489TMC3    H2 7330   0.752   3.033  17.122 -0.2446  0.9280 -0.0105
  489TMC3    C7 7331   0.597   2.866  17.032 -0.1175  0.4467  0.3648
  489TMC3    C8 7332   0.987   3.136  17.021  0.4013 -0.0326  0.0981
  489TMC3    O1 7333   0.550   2.929  17.123 -1.0202 -0.0915 -0.6062
  489TMC3    O2 7334   1.105   3.129  16.985 -0.3026 -0.0734  0.2862
  490MPD2     C 7335   1.807   3.151  17.515  0.2822  0.0716 -0.7045
  490MPD2    C1 7336   1.826   3.074  17.403 -0.4740 -0.3273 -0.2043
  490MPD2    C2 7337   1.956   3.057  17.347 -0.7631  0.5356 -0.3736
  490MPD2    C3 7338   2.066   3.126  17.403 -0.2454  0.1398 -0.5913
  490MPD2    C4 7339   2.046   3.208  17.513  0.5682 -0.3357 -0.0748
  490MPD2    C5 7340   1.915   3.217  17.563  0.8439 -0.2812 -0.5231
  490MPD2     H 7341   1.970   2.991  17.262 -2.3051 -0.7185  0.3272
  490MPD2    H1 7342   2.133   3.255  17.555 -0.2475  1.7231 -0.6798
  490MPD2    H2 7343   1.710   3.169  17.558  0.4895 -1.0888  0.2454
  490MPD2    H3 7344   1.909   3.284  17.648 -0.1935 -1.7359  0.5669
  490MPD2     N 7345   2.201   3.103  17.381  0.3638 -0.6460  0.3683
  490MPD2    H5 7346   2.262   3.165  17.432 -0.9464  2.3767 -1.7619
  490MPD2    N1 7347   1.725   2.985  17.355 -1.2312  0.2555  0.0980
  490MPD2    H7 7348   1.751   2.934  17.272 -2.3203  0.5612 -0.4282
  491TMC3    C1 7349   1.566   2.835  17.361 -0.3500 -0.3307 -0.2662
  491TMC3    C2 7350   1.501   2.753  17.451 -0.6575  0.9808 -0.2904
  491TMC3    C3 7351   1.498   2.622  17.426  0.8314  0.0477  0.2384
  491TMC3    C4 7352   1.614   2.784  17.240  0.9897 -0.0992 -0.5142
  491TMC3    C5 7353   1.606   2.645  17.227  0.2423 -0.4559  0.5976
  491TMC3    C6 7354   1.542   2.560  17.318  0.0214 -0.5007 -0.0081
  491TMC3     C 7355   1.608   2.961  17.415 -0.1887 -0.2404  0.0594
  491TMC3     O 7356   1.553   3.006  17.518  0.3094 -0.1598  0.0484
  491TMC3     H 7357   1.495   2.792  17.552 -0.8716  0.5865 -0.1513
  491TMC3    H1 7358   1.659   2.845  17.162 -2.0971  0.2848 -1.9931
  491TMC3    H2 7359   1.528   2.455  17.295 -1.3482  0.1729 -2.1375
  491TMC3    C7 7360   1.583   2.593  17.087 -0.7353  0.6653  0.2087
  491TMC3    C8 7361   1.455   2.528  17.534  0.3443  0.1185  0.4003
  491TMC3    O1 7362   1.492   2.512  17.065  0.1856 -0.3713  0.0284
  491TMC3    O2 7363   1.509   2.418  17.532 -0.6443 -0.1231  0.0584
  492MPD2     C 7364   1.561   3.085  10.289 -0.4199 -0.0148  0.1711
  492MPD2    C1 7365   1.659   3.137  10.370  0.0677 -0.4607 -0.1245
  492MPD2    C2 7366   1.667   3.096  10.497  0.1660  0.0962  0.2905
  492MPD2    C3 7367   1.584   2.998  10.547 -0.0768 -0.0404  0.4239
  492MPD2    C4 7368   1.482   2.951  10.463 -0.6442  0.3663 -0.6508
  492MPD2    C5 7369   1.466   2.998  10.338  0.4174  0.5903 -0.6480
  492MPD2     H 7370   1.735   3.150  10.562  1.1593 -0.1567 -0.5493
  492MPD2    H1 7371   1.399   2.887  10.489  0.2734 -0.5281  0.0608
  492MPD2    H2 7372   1.546   3.117  10.186 -0.4228  1.5008  0.6331
  492MPD2    H3 7373   1.384   2.963  10.276  0.3760  0.7881 -0.7062
  492MPD2     N 7374   1.587   2.956  10.681 -0.3911  0.0537 -0.1900
  492MPD2    H5 7375   1.530   2.873  10.694  2.0372 -1.5375  0.3853
  492MPD2    N1 7376   1.731   3.249  10.314 -0.1862  0.0231  0.5587
  492MPD2    H7 7377   1.711   3.262  10.215  1.5901 -0.0542  0.1865
  493TMC3    C1 7378   1.875   3.428  10.292  0.3860 -0.0473  0.2877
  493TMC3    C2 7379   2.000   3.472  10.300 -0.3240 -0.0064  0.0589
  493TMC3    C3 7380   2.041   3.567  10.208 -0.2258  0.2470  0.2216
  493TMC3    C4 7381   1.784   3.487  10.205 -0.1340 -0.1944  0.5673
  493TMC3    C5 7382   1.826   3.581  10.109  0.1990 -0.2587 -0.1682
  493TMC3    C6 7383   1.954   3.629  10.117  0.0098  0.1642  0.8510
  493TMC3     C 7384   1.831   3.319  10.377 -0.2637 -0.4023  0.1553
  493TMC3     O 7385   1.897   3.297  10.477  0.6263 -0.4967  0.5800
  493TMC3     H 7386   2.067   3.435  10.377 -0.5514 -1.8015 -0.6164
  493TMC3    H1 7387   1.678   3.464  10.210 -0.1930 -1.1923 -4.8997
  493TMC3    H2 7388   1.992   3.692  10.038  0.2956 -0.2822  0.6318
  493TMC3    C7 7389   1.716   3.657  10.057  0.0485  0.2471 -0.0691
  493TMC3    C8 7390   2.176   3.610  10.217  0.2184  0.1923  0.0006
  493TMC3    O1 7391   1.603   3.612  10.070  0.9310 -0.7437 -0.9102
  493TMC3    O2 7392   2.257   3.531  10.262 -0.1013  0.0862 -0.4828
  494TMC3    C1 7393   2.446   4.706   0.060  0.2886  1.0774 -1.0642
  494TMC3    C2 7394   2.461   4.572   0.054 -0.8010  0.2165  0.2941
  494TMC3    C3 7395   2.564   4.518  17.736 -0.7817  0.3982 -0.5036
  494TMC3    C4 7396   2.525   0.044  17.730  0.0195  0.0801 -0.2481
  494TMC3    C5 7397   2.641   4.725  17.674 -0.3009  0.1990 -0.1216
  494TMC3    C6 7398   2.667   4.590  17.686  0.0952 -0.0362 -0.1344
  494TMC3     C 7399   2.313   0.018   0.107  0.3585 -0.2454  0.2178
  494TMC3     O 7400   2.220   4.689   0.067  0.4987  0.2636  0.2144
  494TMC3     H 7401   2.384   4.509   0.097 -1.1550  0.9160  0.6878
  494TMC3    H1 7402   2.505   0.150  17.723 -1.6709 -0.2076  0.3281
  494TMC3    H2 7403   2.751   4.542  17.637 -1.0813 -1.3512 -0.8908
  494TMC3    C7 7404   2.701   0.057  17.565 -0.1767 -0.8371  0.2956
  494TMC3    C8 7405   2.583   4.376   0.006  0.2909  0.3147 -0.0655
  494TMC3    O1 7406   2.743   4.730  17.474 -0.2163 -0.5859  0.8644
  494TMC3    O2 7407   2.531   4.328   0.104 -0.0696 -0.7368 -0.3012
  495TMC3    C1 7408   1.507   2.136  14.239  0.1364 -0.1335  0.4749
  495TMC3    C2 7409   1.416   2.072  14.158  0.3030  0.1749  0.2497
  495TMC3    C3 7410   1.331   1.985  14.218 -0.1759 -0.6983 -0.0073
  495TMC3    C4 7411   1.509   2.101  14.373  0.0538 -0.0866  0.0953
  495TMC3    C5 7412   1.423   2.009  14.425 -0.1878  0.3377 -0.2236
  495TMC3    C6 7413   1.326   1.949  14.347 -0.0689  0.0102  0.2185
  495TMC3     C 7414   1.565   2.269  14.209 -0.2860  1.1277  0.1987
  495TMC3     O 7415   1.548   2.343  14.304  0.7173 -0.3392  0.1972
  495TMC3     H 7416   1.397   2.097  14.055 -3.4603 -1.7250  0.4953
  495TMC3    H1 7417   1.585   2.136  14.443 -1.5407  0.8214  1.3745
  495TMC3    H2 7418   1.252   1.876  14.377  0.5542 -1.1437 -1.0922
  495TMC3    C7 7419   1.420   1.977  14.569  0.0427  0.1881 -0.3239
  495TMC3    C8 7420   1.217   1.932  14.139  0.0330  0.6353 -0.8717
  495TMC3    O1 7421   1.526   1.956  14.625 -0.3595 -1.0389  0.1131
  495TMC3    O2 7422   1.106   1.939  14.188  0.0406 -0.3726  0.0007
  496MPD2     C 7423   3.690   1.692  14.954  0.0288 -0.0271  0.0801
  496MPD2    C1 7424   3.725   1.659  15.083  0.2875 -0.2729  0.1993
  496MPD2    C2 7425   3.654   1.705  15.190 -0.7432 -0.0073  0.0871
  496MPD2    C3 7426   3.525   1.760  15.167 -0.1488 -1.0335  0.6404
  496MPD2    C4 7427   3.471   1.766  15.040  0.4440 -0.7993  0.0032
  496MPD2    C5 7428   3.562   1.735  14.936  0.4241 -0.3220 -0.1930
  496MPD2     H 7429   3.695   1.692  15.289  0.4467 -1.7097 -0.6202
  496MPD2    H1 7430   3.371   1.804  15.019  1.2480  1.3463  0.0056
  496MPD2    H2 7431   3.750   1.651  14.874  0.4596  0.4598  0.1569
  496MPD2    H3 7432   3.530   1.736  14.832 -1.4350 -0.4024  0.3829
  496MPD2     N 7433   3.441   1.803  15.271  0.5733  0.0964  0.1140
  496MPD2    H5 7434   3.344   1.820  15.247  0.0719  0.0784  2.1217
  496MPD2    N1 7435   3.829   1.565  15.098  0.4543  0.9842 -0.4196
  496MPD2    H7 7436   3.871   1.534  15.011  3.3500  1.9388  0.6476
  497TMC3    C1 7437   3.370   1.838  15.495  0.0709 -0.0274  0.4254
  497TMC3    C2 7438   3.251   1.776  15.473  0.3907 -0.0609  0.6381
  497TMC3    C3 7439   3.154   1.780  15.573 -0.4470 -0.1097 -0.3038
  497TMC3    C4 7440   3.388   1.913  15.608  0.0437  0.0242 -0.9107
  497TMC3    C5 7441   3.276   1.936  15.686  0.4870  0.0049 -0.2629
  497TMC3    C6 7442   3.164   1.870  15.673 -0.1662  0.3391 -0.2595
  497TMC3     C 7443   3.476   1.840  15.397  0.3431 -0.3305  0.0255
  497TMC3     O 7444   3.591   1.863  15.426 -0.0754 -0.6395  0.0880
  497TMC3     H 7445   3.236   1.704  15.393 -0.6323  0.1054  0.6776
  497TMC3    H1 7446   3.488   1.952  15.625  0.2768 -0.8474 -0.2483
  497TMC3    H2 7447   3.077   1.906  15.727 -0.9185  1.4488 -2.2185
  497TMC3    C7 7448   3.276   2.041  15.783 -0.2040  0.0802 -0.0074
  497TMC3    C8 7449   3.024   1.726  15.549 -0.3747 -0.1360  0.3597
  497TMC3    O1 7450   3.175   2.057  15.849 -0.5701  0.3372 -0.4327
  497TMC3    O2 7451   2.999   1.724  15.428  0.1550 -0.7313  0.2115
  498MPD2     C 7452   4.503   3.434   9.812 -0.2983 -0.2513  0.2468
  498MPD2    C1 7453   4.498   3.434   9.948  0.3052  0.3381 -0.4908
  498MPD2    C2 7454   4.466   3.315  10.006 -0.1073 -0.2997 -0.0914
  498MPD2    C3 7455   4.460   3.198   9.933 -0.1911 -0.3620 -0.8825
  498MPD2    C4 7456   4.479   3.203   9.800  0.6853  0.0091  0.7358
  498MPD2    C5 7457   4.502   3.325   9.738  0.0289 -0.7145 -0.8680
  498MPD2     H 7458   4.456   3.317  10.114  0.1790 -1.1687 -0.0516
  498MPD2    H1 7459   4.464   3.112   9.742  1.8846 -0.8302  1.7460
  498MPD2    H2 7460   4.522   3.531   9.767 -0.6078 -1.3004 -2.1488
  498MPD2    H3 7461   4.518   3.334   9.632 -3.7783 -0.0897 -1.4080
  498MPD2     N 7462   4.430   3.084  10.001 -0.6657 -0.1119  0.2481
  498MPD2    H5 7463   4.375   3.086  10.086  1.1762 -0.6787  1.4668
  498MPD2    N1 7464   4.512   3.555  10.026 -0.0342  0.0854  0.0566
  498MPD2    H7 7465   4.501   3.542  10.126  3.1506  0.9351  0.5204
  499TMC3    C1 7466   4.529   3.794  10.067  0.2739 -0.2450  0.0456
  499TMC3    C2 7467   4.608   3.762  10.175  0.1711 -0.1367 -0.6743
  499TMC3    C3 7468   4.691   3.858  10.229  0.1959  0.4219 -0.1739
  499TMC3    C4 7469   4.522   3.921  10.015  1.0289  0.5026  0.2313
  499TMC3    C5 7470   4.608   4.018  10.071  0.2440  0.3147 -0.0009
  499TMC3    C6 7471   4.695   3.982  10.173  0.7200 -0.1612  0.6118
  499TMC3     C 7472   4.503   3.684   9.978 -0.2461  0.6705 -0.3453
  499TMC3     O 7473   4.465   3.716   9.867 -0.0706 -1.0592  0.1306
  499TMC3     H 7474   4.611   3.660  10.214  0.4984 -0.2044 -0.8714
  499TMC3    H1 7475   4.464   3.946   9.927 -0.1252 -1.7648  0.3549
  499TMC3    H2 7476   0.011   4.067  10.214  0.6154  0.9287 -1.5199
  499TMC3    C7 7477   4.640   4.131   9.989  0.2291 -0.1462  0.4659
  499TMC3    C8 7478   0.083   3.821  10.277  0.0724 -0.4127  0.1833
  499TMC3    O1 7479   0.019   4.142   9.976  0.9322 -0.4236 -0.7111
  499TMC3    O2 7480   0.164   3.911  10.290  0.1855  0.1387 -0.0167
  500MPD2     C 7481   1.116   4.027  11.027 -0.8399  0.0958 -0.0504
  500MPD2    C1 7482   1.169   4.078  10.912  0.0807 -0.2223  0.0945
  500MPD2    C2 7483   1.081   4.152  10.833  0.2247  0.6069  0.6166
  500MPD2    C3 7484   0.950   4.166  10.870 -0.2621  0.5436 -0.6007
  500MPD2    C4 7485   0.899   4.101  10.972 -0.1343  0.1433  0.0958
  500MPD2    C5 7486   0.981   4.033  11.055  0.0243 -0.1582  0.0852
  500MPD2     H 7487   1.118   4.210  10.750 -1.9356  0.4514 -0.4468
  500MPD2    H1 7488   0.795   4.102  11.003 -0.3441  0.6402 -0.6204
  500MPD2    H2 7489   1.183   3.973  11.093 -1.7251  0.5105  1.1865
  500MPD2    H3 7490   0.930   3.983  11.136 -0.2853 -1.2847 -0.8102
  500MPD2     N 7491   0.853   4.231  10.787  0.3910  0.6486  0.1475
  500MPD2    H5 7492   0.763   4.245  10.831  0.7923 -1.8278  1.7509
  500MPD2    N1 7493   1.301   4.068  10.868  0.0434  0.1208  0.5122
  500MPD2    H7 7494   1.331   4.126  10.790  0.9892 -2.8198 -1.3231
  501TMC3    C1 7495   1.537   4.015  10.874  0.5393 -0.6840 -0.6888
  501TMC3    C2 7496   1.563   4.091  10.766  0.3387 -0.8879 -0.2359
  501TMC3    C3 7497   1.687   4.086  10.715  0.1711 -0.2573 -0.2276
  501TMC3    C4 7498   1.634   3.923  10.923  0.4323 -0.3211  0.2768
  501TMC3    C5 7499   1.761   3.918  10.872  0.0810 -0.3715 -0.9780
  501TMC3    C6 7500   1.790   3.997  10.764  0.2531 -0.0094 -0.7756
  501TMC3     C 7501   1.401   3.996  10.930 -0.1487  0.0043 -0.1291
  501TMC3     O 7502   1.393   3.911  11.018  0.5085 -0.4121  0.7253
  501TMC3     H 7503   1.488   4.165  10.739  0.5541 -0.3634  0.5861
  501TMC3    H1 7504   1.608   3.854  11.003  1.3048 -1.5957 -0.5401
  501TMC3    H2 7505   1.882   3.984  10.708  1.2024  3.1485  0.0109
  501TMC3    C7 7506   1.849   3.797  10.885 -0.5088 -0.0119  0.1494
  501TMC3    C8 7507   1.718   4.169  10.599 -0.9694 -0.9509 -0.7924
  501TMC3    O1 7508   1.796   3.695  10.932 -0.1891 -0.8399 -0.7901
  501TMC3    O2 7509   1.839   4.201  10.586  0.1484  0.0682  0.8299
  502TMC3    C1 7510   0.733   2.302  14.733 -0.8493  0.7774  0.5428
  502TMC3    C2 7511   0.686   2.396  14.646 -0.3781  0.2163 -0.5769
  502TMC3    C3 7512   0.585   2.481  14.680  0.8600 -0.3100  0.4326
  502TMC3    C4 7513   0.664   2.268  14.845 -0.4131 -0.3351 -0.5675
  502TMC3    C5 7514   0.553   2.344  14.868  0.1976 -1.0410 -0.0853
  502TMC3    C6 7515   0.507   2.459  14.792 -0.1803  0.0792 -0.2412
  502TMC3     C 7516   0.875   2.333  14.762  1.3880 -0.4481  0.5699
  502TMC3     O 7517   0.948   2.380  14.678  0.4547 -0.9741 -0.4780
  502TMC3     H 7518   0.753   2.408  14.562  1.2284 -0.3341  0.6271
  502TMC3    H1 7519   0.687   2.178  14.901 -1.0688 -0.2045 -0.0806
  502TMC3    H2 7520   0.419   2.518  14.818 -1.0192 -0.9044 -0.8396
  502TMC3    C7 7521   0.493   2.322  14.999  1.0318  0.1965 -0.0607
  502TMC3    C8 7522   0.636   2.614  14.668  0.5310 -0.1031 -0.4349
  502TMC3    O1 7523   0.568   2.284  15.090  0.4498  0.1487 -0.3705
  502TMC3    O2 7524   0.554   2.703  14.693 -0.0030  0.4444  0.1962
  503MPD2     C 7525   3.063   3.613  16.897 -0.3855  0.3723  0.7810
  503MPD2    C1 7526   3.098   3.684  17.012  0.3240 -0.5303  0.0600
  503MPD2    C2 7527   3.192   3.625  17.093  0.5251 -0.0341  0.4542
  503MPD2    C3 7528   3.225   3.492  17.082  0.2711  0.4260  0.0354
  503MPD2    C4 7529   3.169   3.419  16.979  0.2399 -0.0098 -0.8195
  503MPD2    C5 7530   3.094   3.481  16.892  0.1843  0.9325  0.3811
  503MPD2     H 7531   3.236   3.681  17.175 -2.1441  2.8149 -0.0123
  503MPD2    H1 7532   3.186   3.312  16.969 -0.0225 -0.2400  1.2571
  503MPD2    H2 7533   2.991   3.650  16.825  0.6560  1.2254  0.1799
  503MPD2    H3 7534   3.048   3.430  16.808 -0.2347 -2.5693  2.7285
  503MPD2     N 7535   3.320   3.450  17.172  0.3667 -0.0194 -0.1545
  503MPD2    H5 7536   3.358   3.528  17.224 -0.6772  0.1027  0.4253
  503MPD2    N1 7537   3.064   3.816  17.040  0.2504  0.0717 -0.0982
  503MPD2    H7 7538   3.096   3.850  17.130 -1.5339 -0.8542  0.8805
  504TMC3    C1 7539   3.494   3.302  17.244  0.1294  0.6430  0.5372
  504TMC3    C2 7540   3.532   3.365  17.360 -0.0639 -0.3957 -0.0336
  504TMC3    C3 7541   3.631   3.316  17.439  0.4587  0.4244  0.4411
  504TMC3    C4 7542   3.555   3.194  17.200  0.4428 -0.1932  0.2756
  504TMC3    C5 7543   3.657   3.146  17.275 -0.1900 -0.7944 -0.1914
  504TMC3    C6 7544   3.699   3.201  17.397  0.2305  0.1674  0.3146
  504TMC3     C 7545   3.360   3.319  17.188  0.5602 -0.2801 -0.0613
  504TMC3     O 7546   3.308   3.225  17.136 -0.6408 -0.0157 -0.1995
  504TMC3     H 7547   3.473   3.445  17.404 -0.7009 -0.6411 -0.4384
  504TMC3    H1 7548   3.529   3.158  17.101  1.1943 -0.3439  0.1293
  504TMC3    H2 7549   3.797   3.175  17.435 -0.5075 -1.3443  1.2173
  504TMC3    C7 7550   3.755   3.067  17.203  0.4294 -0.4277 -0.3493
  504TMC3    C8 7551   3.675   3.398  17.552 -0.5077  0.5918 -0.5092
  504TMC3    O1 7552   3.768   3.099  17.086 -0.9244  0.5474 -0.0793
  504TMC3    O2 7553   3.660   3.519  17.548 -0.1255  0.3822 -0.2050
  505MPD2     C 7554   3.599   1.879  10.348  0.1293  0.4409 -0.0104
  505MPD2    C1 7555   3.658   1.944  10.453 -0.0502 -0.0895  0.3949
  505MPD2    C2 7556   3.600   2.069  10.481  0.4749  0.3704 -0.2178
  505MPD2    C3 7557   3.484   2.121  10.410 -0.1368 -0.3135 -0.0375
  505MPD2    C4 7558   3.439   2.047  10.301 -0.8597  0.4045  0.5046
  505MPD2    C5 7559   3.497   1.924  10.276  0.4955  0.1675 -0.4813
  505MPD2     H 7560   3.634   2.144  10.552 -0.7941  0.6088  0.1362
  505MPD2    H1 7561   3.360   2.080  10.234 -2.1813 -0.5220  1.6088
  505MPD2    H2 7562   3.636   1.781  10.321 -1.7139  0.1836 -1.6507
  505MPD2    H3 7563   3.453   1.862  10.198 -3.4324  0.1610  1.7157
  505MPD2     N 7564   3.436   2.245  10.455 -0.3170 -0.1818 -0.4562
  505MPD2    H5 7565   3.476   2.286  10.539 -1.5835 -0.5913  0.3540
  505MPD2    N1 7566   3.770   1.890  10.519  0.6806  0.2013  0.4291
  505MPD2    H7 7567   3.802   1.805  10.475 -0.0061  0.5203 -0.6798
  506TMC3    C1 7568   3.956   1.888  10.664  0.2906  0.5594 -0.2163
  506TMC3    C2 7569   4.026   1.851  10.556  0.9816 -0.2455  0.7490
  506TMC3    C3 7570   4.153   1.899  10.556  0.0709  0.4136 -0.2220
  506TMC3    C4 7571   4.002   1.953  10.771  0.1491 -0.3053  0.4294
  506TMC3    C5 7572   4.127   2.000  10.769  0.0040  0.3219 -0.8779
  506TMC3    C6 7573   4.205   1.981  10.652 -0.1033 -0.2939  0.0962
  506TMC3     C 7574   3.831   1.952  10.628  0.6798  0.3684  0.0653
  506TMC3     O 7575   3.797   2.045  10.695 -0.3392  0.0998  0.6565
  506TMC3     H 7576   3.990   1.788  10.475  1.1110 -1.3916  1.5904
  506TMC3    H1 7577   3.936   1.967  10.856 -1.1205 -2.4582 -0.2016
  506TMC3    H2 7578   4.299   2.033  10.639 -0.3437 -0.1061 -0.8512
  506TMC3    C7 7579   4.129   2.133  10.818 -0.1545  0.1168 -0.2969
  506TMC3    C8 7580   4.203   1.900  10.420  0.5322  0.4733 -0.3606
  506TMC3    O1 7581   4.240   2.177  10.844 -0.0278  0.1440  0.0999
  506TMC3    O2 7582   4.182   1.797  10.354  0.4076  0.5460  0.1950
  507TMC3    C1 7583   3.987   2.576  14.708 -0.1487  0.5128 -0.1586
  507TMC3    C2 7584   3.909   2.494  14.629 -0.3178 -0.7746 -0.1380
  507TMC3    C3 7585   3.938   2.483  14.496  0.3407  0.4489 -0.0818
  507TMC3    C4 7586   4.100   2.638  14.660 -0.0256 -0.4054 -0.3431
  507TMC3    C5 7587   4.136   2.623  14.526  0.7921 -0.4595  0.9664
  507TMC3    C6 7588   4.059   2.543  14.450 -0.2434  0.0654  0.0480
  507TMC3     C 7589   3.953   2.597  14.848  0.0486 -0.4286  0.7435
  507TMC3     O 7590   4.052   2.632  14.906 -0.1947  0.6557 -0.3169
  507TMC3     H 7591   3.829   2.442  14.681  1.0637 -0.6675  2.0602
  507TMC3    H1 7592   4.155   2.705  14.725 -3.0332  1.6976  0.0176
  507TMC3    H2 7593   4.092   2.528  14.347 -0.9792  3.9122 -0.7595
  507TMC3    C7 7594   4.145   2.746  14.458 -0.2125 -1.0235 -0.4043
  507TMC3    C8 7595   3.828   2.511  14.413 -0.3663 -0.7401 -0.3099
  507TMC3    O1 7596   4.093   2.752  14.348  0.5583 -0.0499  0.1694
  507TMC3    O2 7597   3.724   2.453  14.442  0.3943 -0.4318 -0.8627
  508MPD2     C 7598   0.221   0.397  16.336 -0.2997  0.0096  0.4622
  508MPD2    C1 7599   0.296   0.513  16.341  0.7477  0.6410  0.2228
  508MPD2    C2 7600   0.289   0.596  16.231 -0.3420  0.1780  0.4510
  508MPD2    C3 7601   0.199   0.576  16.124 -0.4406 -0.2230 -0.4442
  508MPD2    C4 7602   0.117   0.463  16.125 -0.5278 -0.1823  0.4072
  508MPD2    C5 7603   0.139   0.372  16.229  0.0770 -0.1202 -0.0472
  508MPD2     H 7604   0.362   0.675  16.219  0.2370 -0.3133  0.7526
  508MPD2    H1 7605   0.044   0.442  16.047 -1.4675 -3.1910  2.0793
  508MPD2    H2 7606   0.234   0.322  16.413 -0.3000 -0.0502  0.4037
  508MPD2    H3 7607   0.082   0.280  16.237  1.4906 -1.1478 -1.8156
  508MPD2     N 7608   0.193   0.675  16.019 -0.3091  0.6424 -0.3085
  508MPD2    H5 7609   0.248   0.760  16.022  0.1345  0.2717  1.8762
  508MPD2    N1 7610   0.378   0.553  16.448 -0.6599 -0.7462  0.1218
  508MPD2    H7 7611   0.436   0.636  16.443 -2.2427  0.4544  1.6087
  509TMC3    C1 7612   0.044   0.998  15.737 -0.1992  0.1152  0.1096
  509TMC3    C2 7613   0.172   1.045  15.706  0.1393 -0.2753  0.1220
  509TMC3    C3 7614   0.279   0.960  15.738  0.2752 -0.5282 -0.0782
  509TMC3    C4 7615   0.020   0.882  15.802 -0.1288  0.0256 -0.7435
  509TMC3    C5 7616   0.127   0.797  15.835  0.0222 -0.3085 -0.4582
  509TMC3    C6 7617   0.261   0.836  15.804 -0.4358 -0.3287  0.1917
  509TMC3     C 7618   4.670   1.077  15.692  0.0176  0.0942 -0.6137
  509TMC3     O 7619   4.582   1.114  15.770 -0.1492  0.1517 -0.3514
  509TMC3     H 7620   0.177   1.138  15.651 -0.2932  0.3795  1.1845
  509TMC3    H1 7621   4.654   0.867  15.829  0.0064  0.9170  0.2631
  509TMC3    H2 7622   0.346   0.769  15.814  0.3766  0.6931  0.1589
  509TMC3    C7 7623   0.103   0.676  15.912 -0.3125 -0.2970 -0.6665
  509TMC3    C8 7624   0.413   0.988  15.694 -0.2146  0.5491 -0.3146
  509TMC3    O1 7625   0.020   0.597  15.865 -0.0981 -0.6668  0.0997
  509TMC3    O2 7626   0.494   0.893  15.684  0.0380 -0.5108  0.4444
  510MPD2     C 7627   2.963   2.192  14.388  0.1335  0.2523 -0.1860
  510MPD2    C1 7628   2.970   2.077  14.469  0.1446 -0.1142 -0.1911
  510MPD2    C2 7629   3.083   1.993  14.463 -0.6081 -0.3227 -0.6063
  510MPD2    C3 7630   3.184   2.020  14.367  0.6575 -0.1671  0.6161
  510MPD2    C4 7631   3.170   2.133  14.280  0.2787 -0.1953 -0.7245
  510MPD2    C5 7632   3.062   2.223  14.298  0.1902 -0.6748 -0.1372
  510MPD2     H 7633   3.098   1.905  14.525 -2.8580  0.8555  1.6108
  510MPD2    H1 7634   3.235   2.168  14.200 -2.1360  3.4332 -1.0843
  510MPD2    H2 7635   2.868   2.241  14.373 -1.2565 -2.2864  0.1534
  510MPD2    H3 7636   3.063   2.308  14.232  1.0411  1.0652  2.1073
  510MPD2     N 7637   3.300   1.934  14.354 -0.3211  0.0561  0.6555
  510MPD2    H5 7638   3.308   1.849  14.409  2.3774  0.7200  1.2811
  510MPD2    N1 7639   2.862   2.039  14.552  0.0426 -0.6239  0.0197
  510MPD2    H7 7640   2.857   1.943  14.585 -0.5319  0.0833  2.0284
  511TMC3    C1 7641   2.662   2.028  14.656 -0.3303  0.3316 -0.1189
  511TMC3    C2 7642   2.587   2.078  14.763  0.4842 -0.2228 -0.2133
  511TMC3    C3 7643   2.511   1.994  14.827  0.7662 -0.5956 -0.1381
  511TMC3    C4 7644   2.647   1.909  14.605 -0.2599 -0.3047  0.3854
  511TMC3    C5 7645   2.555   1.829  14.674 -0.4603  0.4301 -0.0386
  511TMC3    C6 7646   2.496   1.860  14.795 -0.5798  0.4951  0.5434
  511TMC3     C 7647   2.754   2.115  14.580 -0.3949 -0.7614  0.2443
  511TMC3     O 7648   2.742   2.236  14.591 -0.1805  0.0098 -0.3250
  511TMC3     H 7649   2.617   2.171  14.809  1.7695 -0.6713 -0.1559
  511TMC3    H1 7650   2.675   1.882  14.504  2.3004  0.0738  0.9972
  511TMC3    H2 7651   2.428   1.791  14.844 -0.4150 -1.2618 -1.7085
  511TMC3    C7 7652   2.512   1.710  14.599 -0.2239  0.5006  0.1854
  511TMC3    C8 7653   2.432   2.030  14.942  0.1276 -0.2396  0.0231
  511TMC3    O1 7654   2.563   1.695  14.485 -0.5942 -0.1802  0.2316
  511TMC3    O2 7655   2.399   2.146  14.963  0.4371 -0.7493 -0.8595
  512TMC3    C1 7656   1.527   1.827  12.604  0.1359 -0.0742 -0.0969
  512TMC3    C2 7657   1.503   1.773  12.728 -0.4656  0.2672 -0.3494
  512TMC3    C3 7658   1.501   1.633  12.735  0.1986  0.8664  0.0054
  512TMC3    C4 7659   1.560   1.746  12.493  0.3283  0.0114 -0.1573
  512TMC3    C5 7660   1.556   1.607  12.515 -0.0265 -0.2752  0.0635
  512TMC3    C6 7661   1.536   1.547  12.641  0.1360 -0.4046 -0.0689
  512TMC3     C 7662   1.549   1.971  12.596  0.1887  0.6111  0.0307
  512TMC3     O 7663   1.500   2.045  12.683 -0.3027  0.1009 -0.5093
  512TMC3     H 7664   1.490   1.838  12.813 -2.3430  0.6565 -0.9188
  512TMC3    H1 7665   1.556   1.779  12.390 -0.1929  0.5212  0.0275
  512TMC3    H2 7666   1.530   1.440  12.659  1.8445 -0.5369 -0.3070
  512TMC3    C7 7667   1.534   1.513  12.404 -0.8590  0.0472 -0.2953
  512TMC3    C8 7668   1.477   1.572  12.861 -0.5224 -0.6448  0.4591
  512TMC3    O1 7669   1.488   1.566  12.302  0.2254  0.4758 -0.5499
  512TMC3    O2 7670   1.439   1.457  12.860  0.1204 -0.8543 -0.8409
  513MPD2     C 7671   3.917   1.909  12.975 -0.1105 -0.5100 -0.2226
  513MPD2    C1 7672   3.805   1.874  12.911  0.4966 -0.6238  0.3161
  513MPD2    C2 7673   3.779   1.742  12.892  0.5773 -0.7237  0.2614
  513MPD2    C3 7674   3.851   1.639  12.952  0.1565  0.1373  0.3127
  513MPD2    C4 7675   3.967   1.673  13.017 -0.0050 -0.1951 -0.2322
  513MPD2    C5 7676   4.000   1.808  13.028 -0.2317  0.2436  0.1405
  513MPD2     H 7677   3.691   1.714  12.836  2.2366  0.5594 -3.0307
  513MPD2    H1 7678   4.035   1.595  13.049 -0.7150  0.1498  2.1803
  513MPD2    H2 7679   3.929   2.016  12.987  1.5360 -0.7731  0.4874
  513MPD2    H3 7680   4.085   1.842  13.086 -1.5309  1.8446  1.1035
  513MPD2     N 7681   3.794   1.510  12.956  0.0434 -0.2570  0.6834
  513MPD2    H5 7682   3.705   1.509  12.907  1.5357 -1.1897 -1.9475
  513MPD2    N1 7683   3.729   1.976  12.849 -0.1162 -0.0701 -0.0066
  513MPD2    H7 7684   3.784   2.061  12.836 -0.2242  0.2408  1.6357
  514TMC3    C1 7685   3.531   2.056  12.736  0.4774  0.6774  0.5419
  514TMC3    C2 7686   3.592   2.135  12.638 -0.4157  0.3806  0.1833
  514TMC3    C3 7687   3.527   2.157  12.514  0.1403 -0.9727  0.5186
  514TMC3    C4 7688   3.406   2.016  12.714  0.3079 -0.3108 -0.0191
  514TMC3    C5 7689   3.336   2.041  12.596 -0.3856  0.9186  0.4576
  514TMC3    C6 7690   3.395   2.112  12.496  0.6035 -0.4927  0.1624
  514TMC3     C 7691   3.599   1.956  12.824 -0.4770  0.3945  0.9282
  514TMC3     O 7692   3.533   1.860  12.849  0.1222 -0.2086 -0.6166
  514TMC3     H 7693   3.694   2.171  12.651 -0.6081  2.0267 -2.9290
  514TMC3    H1 7694   3.345   1.974  12.793  1.2555 -0.4662  0.6303
  514TMC3    H2 7695   3.340   2.105  12.403  1.6897 -1.8900 -0.3848
  514TMC3    C7 7696   3.260   1.931  12.545  0.0525 -0.2616  0.0573
  514TMC3    C8 7697   3.589   2.242  12.418 -0.4766 -0.2787 -0.7278
  514TMC3    O1 7698   3.183   1.946  12.452 -0.6470  0.0395  0.1997
  514TMC3    O2 7699   3.677   2.317  12.458  0.0344 -0.4077 -0.6730
  515MPD2     C 7700   1.297   3.503  15.221  0.2969 -0.0143  0.4746
  515MPD2    C1 7701   1.383   3.546  15.117  0.2318 -0.1073  0.7980
  515MPD2    C2 7702   1.479   3.637  15.139 -0.1920  0.1152 -0.2847
  515MPD2    C3 7703   1.500   3.674  15.272 -0.6872  0.4034 -0.5792
  515MPD2    C4 7704   1.404   3.639  15.372  0.1831 -0.1083  0.4204
  515MPD2    C5 7705   1.302   3.552  15.350  0.4284 -0.6592  1.0312
  515MPD2     H 7706   1.545   3.656  15.055  0.0833  3.4098  0.6976
  515MPD2    H1 7707   1.403   3.683  15.471 -1.4849 -0.7086  0.6768
  515MPD2    H2 7708   1.211   3.439  15.207 -0.2020  1.2397 -2.3210
  515MPD2    H3 7709   1.233   3.516  15.425  0.0777  0.0068  1.0268
  515MPD2     N 7710   1.608   3.752  15.314  0.4974 -0.0360  0.2304
  515MPD2    H5 7711   1.610   3.770  15.414  2.2639 -0.9278  0.3527
  515MPD2    N1 7712   1.361   3.500  14.983  0.7060 -0.0254  0.6929
  515MPD2    H7 7713   1.412   3.551  14.911 -0.9186  1.1553  0.3810
  516TMC3    C1 7714   1.295   3.355  14.819  0.3379  0.4781  0.6214
  516TMC3    C2 7715   1.239   3.438  14.723  0.5046 -0.4751 -0.8625
  516TMC3    C3 7716   1.222   3.384  14.597  0.2053  0.6114 -0.4209
  516TMC3    C4 7717   1.321   3.228  14.798  0.1964  0.2949 -0.3304
  516TMC3    C5 7718   1.300   3.173  14.676  0.2114  0.6189 -0.4925
  516TMC3    C6 7719   1.255   3.250  14.570  0.5339  0.4108 -0.3432
  516TMC3     C 7720   1.285   3.396  14.957 -0.0408 -0.7773 -0.0100
  516TMC3     O 7721   1.233   3.311  15.029  0.2517  0.2609 -0.2537
  516TMC3     H 7722   1.208   3.537  14.754 -1.0149 -1.1326 -0.2786
  516TMC3    H1 7723   1.366   3.161  14.871  1.9695  1.0806 -0.7066
  516TMC3    H2 7724   1.261   3.210  14.470 -0.5503  1.1033 -0.6872
  516TMC3    C7 7725   1.325   3.026  14.657  0.2536  0.1160 -0.7968
  516TMC3    C8 7726   1.136   3.451  14.495 -0.1888  0.0121  0.8280
  516TMC3    O1 7727   1.386   2.970  14.751 -0.0346 -0.6469 -0.3763
  516TMC3    O2 7728   1.077   3.373  14.420 -0.7209 -0.0964  0.7350
  517MPD2     C 7729   1.184   0.180  17.416  0.2256  0.2484 -0.1886
  517MPD2    C1 7730   1.287   0.130  17.496 -0.6375 -0.3737 -0.3238
  517MPD2    C2 7731   1.358   0.219  17.570  0.7471  0.1764  0.2688
  517MPD2    C3 7732   1.321   0.354  17.568  0.1678 -0.3018  0.0792
  517MPD2    C4 7733   1.219   0.398  17.492 -0.4451 -1.1229 -0.1639
  517MPD2    C5 7734   1.144   0.309  17.415  0.2336 -0.1143 -0.1398
  517MPD2     H 7735   1.445   0.176  17.619  1.2985 -0.9873 -1.7610
  517MPD2    H1 7736   1.191   0.503  17.487 -3.5106 -2.0409 -1.8369
  517MPD2    H2 7737   1.122   0.107  17.364 -0.8231  0.7916  0.3021
  517MPD2    H3 7738   1.062   0.346  17.355 -0.2925 -0.9190  0.0806
  517MPD2     N 7739   1.387   0.453  17.637  0.6645  0.0634  0.2576
  517MPD2    H5 7740   1.348   0.547  17.641  0.8907  0.0730  2.4180
  517MPD2    N1 7741   1.327   4.730  17.497 -0.2520 -0.1218 -0.9747
  517MPD2    H7 7742   1.418   4.714  17.540 -1.8004 -0.8790  1.9847
  518TMC3    C1 7743   1.331   4.502  17.445 -0.7720 -0.4658 -0.1502
  518TMC3    C2 7744   1.253   4.386  17.435 -0.2193  0.1177 -1.3249
  518TMC3    C3 7745   1.317   4.269  17.412 -0.0863 -0.0233 -0.3741
  518TMC3    C4 7746   1.462   4.501  17.418  0.3420  0.3881  0.0783
  518TMC3    C5 7747   1.525   4.383  17.396  0.4519 -0.4770  0.0514
  518TMC3    C6 7748   1.454   4.266  17.406  1.0210 -0.5876 -0.1032
  518TMC3     C 7749   1.256   4.621  17.444 -0.1945 -0.4425  0.0244
  518TMC3     O 7750   1.139   4.621  17.416 -0.8963  0.2308  0.6875
  518TMC3     H 7751   1.146   4.400  17.441 -0.0607  1.1670 -0.8849
  518TMC3    H1 7752   1.510   4.599  17.419 -0.7410  0.9294 -1.5339
  518TMC3    H2 7753   1.502   4.168  17.403  2.1948  0.0041 -0.4170
  518TMC3    C7 7754   1.671   4.384  17.377 -0.4472  0.2484 -0.0235
  518TMC3    C8 7755   1.252   4.143  17.444  1.0222  0.1052 -0.7876
  518TMC3    O1 7756   1.724   4.497  17.375 -0.4992  0.4339 -0.8649
  518TMC3    O2 7757   1.305   4.042  17.396 -0.0239 -0.2814 -0.1713
  519MPD2     C 7758   3.163   3.328  14.006 -0.3393 -0.2295 -0.1006
  519MPD2    C1 7759   3.064   3.243  14.037 -0.2774  0.3129  0.1362
  519MPD2    C2 7760   3.068   3.113  14.001  0.0837  0.0253 -0.2378
  519MPD2    C3 7761   3.175   3.066  13.929  0.2324  0.8041  0.0220
  519MPD2    C4 7762   3.280   3.151  13.898  0.5996  0.0919  0.4617
  519MPD2    C5 7763   3.265   3.285  13.928  0.3865  0.2614  1.1862
  519MPD2     H 7764   2.989   3.042  14.018 -0.0862 -0.3416 -2.5322
  519MPD2    H1 7765   3.369   3.123  13.843  0.0766 -1.2326  0.2923
  519MPD2    H2 7766   3.165   3.434  14.026 -1.2224 -0.1279 -0.5878
  519MPD2    H3 7767   3.335   3.361  13.894 -0.9314  0.6090 -0.7481
  519MPD2     N 7768   3.190   2.930  13.892 -0.1166  0.0977 -0.4105
  519MPD2    H5 7769   3.269   2.902  13.835  0.4623  1.0461 -0.0749
  519MPD2    N1 7770   2.945   3.283  14.103  0.4097  0.0992 -0.4950
  519MPD2    H7 7771   2.944   3.384  14.117  1.7485  0.0402  0.0475
  520TMC3    C1 7772   3.114   2.725  13.817  0.4665  0.1433  0.8869
  520TMC3    C2 7773   3.014   2.674  13.742 -0.1803 -0.5324  0.6770
  520TMC3    C3 7774   3.044   2.553  13.680  0.3507  0.2207 -0.0317
  520TMC3    C4 7775   3.239   2.672  13.822  0.5132  0.1295 -0.4356
  520TMC3    C5 7776   3.265   2.577  13.731  0.3819  0.0321 -0.6314
  520TMC3    C6 7777   3.166   2.505  13.666  0.7774  0.0042  0.2807
  520TMC3     C 7778   3.082   2.845  13.885 -0.2770  0.4494  0.2976
  520TMC3     O 7779   2.969   2.851  13.924 -0.5301 -0.4100 -0.3247
  520TMC3     H 7780   2.912   2.711  13.744 -0.2154 -0.3850 -3.7090
  520TMC3    H1 7781   3.316   2.706  13.890  1.7973 -1.7119 -0.9724
  520TMC3    H2 7782   3.179   2.416  13.606  0.2640  2.0948 -2.9474
  520TMC3    C7 7783   3.390   2.502  13.769 -0.4877 -0.0984 -0.5558
  520TMC3    C8 7784   2.938   2.481  13.610  0.2433 -0.0508 -0.6124
  520TMC3    O1 7785   3.374   2.381  13.796 -0.2547  0.2409  0.7504
  520TMC3    O2 7786   2.972   2.396  13.525  0.1693 -0.3888 -0.2965
  521MPD2     C 7787   3.874   1.512  17.127 -0.3354 -0.6767 -0.1635
  521MPD2    C1 7788   3.893   1.396  17.045  0.0552 -0.3125  0.4195
  521MPD2    C2 7789   4.020   1.362  16.992 -0.1286  0.0969  0.8108
  521MPD2    C3 7790   4.121   1.454  17.007  0.1564 -0.2021 -0.4993
  521MPD2    C4 7791   4.100   1.577  17.073 -0.0812  0.3518  0.2386
  521MPD2    C5 7792   3.981   1.594  17.138 -0.5085 -0.4674 -0.9473
  521MPD2     H 7793   4.032   1.271  16.935 -0.1490  1.8255 -1.9387
  521MPD2    H1 7794   4.172   1.657  17.083 -0.5204  0.6621  0.9051
  521MPD2    H2 7795   3.777   1.533  17.170 -0.0276  0.7642 -0.1902
  521MPD2    H3 7796   3.953   1.687  17.187 -1.8062 -0.8828 -0.8997
  521MPD2     N 7797   4.242   1.422  16.951  0.5740  0.9070  0.0803
  521MPD2    H5 7798   4.247   1.346  16.884  0.5363  0.2942  0.7728
  521MPD2    N1 7799   3.791   1.297  17.040  0.0764  0.1926  0.4160
  521MPD2    H7 7800   3.722   1.306  17.114 -0.2809  0.2879  0.0678
  522TMC3    C1 7801   4.466   1.444  16.888  0.3598  0.1282 -0.1471
  522TMC3    C2 7802   4.596   1.445  16.936 -0.1566  0.0245 -0.4791
  522TMC3    C3 7803   4.685   1.385  16.856  0.2367 -0.2843 -0.3355
  522TMC3    C4 7804   4.422   1.387  16.771 -0.2133  0.3544 -0.7792
  522TMC3    C5 7805   4.519   1.330  16.695  0.1762  0.2708  0.6997
  522TMC3    C6 7806   4.646   1.325  16.740  0.1665 -0.1298  1.1650
  522TMC3     C 7807   4.355   1.492  16.974  0.7431 -0.0795 -0.5298
  522TMC3     O 7808   4.382   1.576  17.057  0.9402 -0.7623  0.1354
  522TMC3     H 7809   4.632   1.478  17.032 -0.7064 -0.3228 -0.1588
  522TMC3    H1 7810   4.320   1.391  16.736 -0.3235  0.0979 -0.4871
  522TMC3    H2 7811   4.722   1.308  16.665 -0.0535  1.3817  0.6005
  522TMC3    C7 7812   4.502   1.329  16.550  0.2623  0.0419 -0.1685
  522TMC3    C8 7813   0.089   1.401  16.883 -0.2263  0.0774 -0.4062
  522TMC3    O1 7814   4.567   1.246  16.489  0.2186  0.5644 -0.7772
  522TMC3    O2 7815   0.124   1.503  16.934  0.1283 -0.1415 -0.1774
  523MPD2     C 7816   1.900   1.405  10.384 -0.1421 -0.3041  0.5702
  523MPD2    C1 7817   1.783   1.332  10.360 -0.5872  0.1246  0.5234
  523MPD2    C2 7818   1.660   1.397  10.352 -0.5993 -0.4200 -1.3990
  523MPD2    C3 7819   1.653   1.538  10.366 -0.7854 -0.5476  0.4660
  523MPD2    C4 7820   1.762   1.613  10.396 -0.1619  0.0567 -0.1012
  523MPD2    C5 7821   1.876   1.541  10.414 -0.1772 -0.1266  0.1456
  523MPD2     H 7822   1.571   1.337  10.337 -1.0533  0.0281 -0.4942
  523MPD2    H1 7823   1.757   1.722  10.398 -3.0665 -0.0781  0.3399
  523MPD2    H2 7824   1.998   1.361  10.400  0.2480  1.0972  2.0272
  523MPD2    H3 7825   1.971   1.593  10.423  1.7865 -3.6662  0.2015
  523MPD2     N 7826   1.530   1.614  10.337  0.0515  0.0769 -0.1116
  523MPD2    H5 7827   1.531   1.716  10.329  3.4852  0.0405 -0.3539
  523MPD2    N1 7828   1.796   1.189  10.353  0.1431 -0.8390 -0.6153
  523MPD2    H7 7829   1.888   1.151  10.372 -0.2149 -0.8862  1.0282
  524TMC3    C1 7830   1.302   1.654  10.333 -0.5467  0.0391 -0.0855
  524TMC3    C2 7831   1.176   1.602  10.328  0.2158  0.7692  0.5480
  524TMC3    C3 7832   1.073   1.674  10.381 -0.2567  0.0262  0.0093
  524TMC3    C4 7833   1.330   1.769  10.409 -0.4845 -0.1283  0.7517
  524TMC3    C5 7834   1.220   1.838  10.465  0.7793  0.2260 -0.2129
  524TMC3    C6 7835   1.097   1.787  10.451  0.1040  1.2940 -0.4957
  524TMC3     C 7836   1.406   1.553  10.335 -1.4363 -0.6189 -0.1764
  524TMC3     O 7837   1.371   1.440  10.361  0.1689  0.2137 -0.1559
  524TMC3     H 7838   1.149   1.529  10.252 -0.7564 -1.1523  2.7583
  524TMC3    H1 7839   1.431   1.806  10.419 -0.1316 -1.1366  0.9128
  524TMC3    H2 7840   1.011   1.836  10.493  0.0111  0.1349  0.6843
  524TMC3    C7 7841   1.240   1.980  10.503 -0.3116  0.2377  0.2469
  524TMC3    C8 7842   0.932   1.622  10.387 -0.3584 -0.1992 -0.2735
  524TMC3    O1 7843   1.357   2.003  10.522 -0.8388  0.1979 -0.1954
  524TMC3    O2 7844   0.848   1.710  10.390 -0.2272 -0.0471 -0.0849
  525MPD2     C 7845   4.259   2.196  14.325  0.2224  1.0052  0.0677
  525MPD2    C1 7846   4.380   2.197  14.392 -0.7427  0.3473  0.2019
  525MPD2    C2 7847   4.464   2.310  14.378 -0.1445  0.2323 -0.2979
  525MPD2    C3 7848   4.424   2.418  14.305  1.0213  0.0484  0.2204
  525MPD2    C4 7849   4.303   2.417  14.234 -0.4830  0.5808  0.3962
  525MPD2    C5 7850   4.219   2.304  14.255 -0.4666  0.7011  0.9098
  525MPD2     H 7851   4.551   2.311  14.442  0.6538 -2.6375 -1.3174
  525MPD2    H1 7852   4.274   2.496  14.165 -0.3888 -1.3673 -1.8832
  525MPD2    H2 7853   4.184   2.118  14.333 -0.2847  1.1953 -2.5903
  525MPD2    H3 7854   4.130   2.297  14.193 -1.1632 -1.0692  2.1057
  525MPD2     N 7855   4.500   2.534  14.311 -0.2937 -0.5151 -0.0276
  525MPD2    H5 7856   4.446   2.610  14.272  0.8677 -0.0611 -0.7615
  525MPD2    N1 7857   4.418   2.091  14.482  0.7121 -0.1934 -0.1288
  525MPD2    H7 7858   4.508   2.113  14.523 -0.1117  1.6852  0.6787
  526TMC3    C1 7859   4.397   1.910  14.629  0.6483 -0.1599 -0.0393
  526TMC3    C2 7860   4.313   1.898  14.736 -1.0470 -0.0141  0.1348
  526TMC3    C3 7861   4.369   1.847  14.849  0.1284  0.3434  0.2216
  526TMC3    C4 7862   4.533   1.886  14.629  0.2761  0.7118 -0.6807
  526TMC3    C5 7863   4.580   1.837  14.745  0.0600  0.2104  0.5810
  526TMC3    C6 7864   4.502   1.811  14.854  0.0963  0.0249 -0.3712
  526TMC3     C 7865   4.340   1.983  14.522 -0.4679  0.3316  0.0694
  526TMC3     O 7866   4.226   1.947  14.491  0.2025 -0.4912  0.0938
  526TMC3     H 7867   4.210   1.932  14.740 -0.8906  0.1440  2.7166
  526TMC3    H1 7868   4.597   1.910  14.545  0.8245  0.3418 -0.3686
  526TMC3    H2 7869   4.545   1.762  14.941 -0.4681 -0.9282 -0.6353
  526TMC3    C7 7870   4.722   1.800  14.760  0.5610  0.4932  0.2110
  526TMC3    C8 7871   4.323   1.889  14.979  0.4823  0.4769  0.1983
  526TMC3    O1 7872   0.016   1.744  14.865  0.3094 -0.6497  0.3865
  526TMC3    O2 7873   4.412   1.924  15.058 -0.8202  0.4246  0.4642
  527MPD2     C 7874   2.247   0.692   1.156  0.8878  0.5380  0.2649
  527MPD2    C1 7875   2.275   0.782   1.059 -0.2794  0.2339  0.4750
  527MPD2    C2 7876   2.402   0.796   1.004 -0.4467  0.1490  0.5463
  527MPD2    C3 7877   2.507   0.727   1.056  0.0073 -0.1849  0.0062
  527MPD2    C4 7878   2.477   0.656   1.168  0.3201  0.6781 -0.0228
  527MPD2    C5 7879   2.352   0.637   1.217  0.2346  0.5736  0.4993
  527MPD2     H 7880   2.418   0.879   0.936 -0.2431  0.0532  0.4773
  527MPD2    H1 7881   2.555   0.608   1.226  1.0060 -0.6352 -2.0349
  527MPD2    H2 7882   2.150   0.679   1.203 -0.0359  2.7143 -1.0316
  527MPD2    H3 7883   2.344   0.564   1.297  2.5258  0.8369  0.9610
  527MPD2     N 7884   2.639   0.749   1.008 -1.0141  0.4083  0.1336
  527MPD2    H5 7885   2.641   0.817   0.932 -0.3220 -0.7180 -0.8573
  527MPD2    N1 7886   2.175   0.854   0.994 -0.2005  0.3162 -0.1132
  527MPD2    H7 7887   2.217   0.917   0.926 -0.4233  1.5819  0.9152
  528TMC3    C1 7888   1.959   0.935   0.936  0.8338 -0.4687 -0.3248
  528TMC3    C2 7889   2.005   1.064   0.936 -0.3812  0.0228  0.5070
  528TMC3    C3 7890   1.916   1.170   0.950  0.3052  0.1491  0.2326
  528TMC3    C4 7891   1.829   0.906   0.937 -0.3793  0.1484 -0.3722
  528TMC3    C5 7892   1.742   1.007   0.963 -0.2930  0.7178  0.9613
  528TMC3    C6 7893   1.785   1.139   0.976 -0.5832  0.2243  0.9506
  528TMC3     C 7894   2.039   0.831   1.009 -0.3978  0.6158 -0.1461
  528TMC3     O 7895   1.984   0.745   1.076  0.0857 -0.3948 -0.4275
  528TMC3     H 7896   2.108   1.082   0.910 -0.3215  1.3759  1.6804
  528TMC3    H1 7897   1.802   0.802   0.946  0.7313 -0.0358  0.7746
  528TMC3    H2 7898   1.718   1.220   1.003 -1.0622  0.0089  0.4320
  528TMC3    C7 7899   1.610   0.970   0.965 -0.2504  0.0494 -0.1820
  528TMC3    C8 7900   1.984   1.292   0.983  0.2122 -0.6755 -0.0658
  528TMC3    O1 7901   1.533   1.033   1.038 -0.7263 -0.0770 -0.2743
  528TMC3    O2 7902   2.106   1.290   0.986  0.0082  0.2210  0.0376
  529MPD2     C 7903   4.617   3.256   0.495 -0.4824 -0.4652  0.6546
  529MPD2    C1 7904   0.012   3.288   0.512 -0.0483  0.4569 -0.3149
  529MPD2    C2 7905   0.074   3.361   0.408 -0.0221  0.0690  0.6357
  529MPD2    C3 7906   4.738   3.420   0.307 -0.3568 -0.0919  0.2741
  529MPD2    C4 7907   4.597   3.402   0.303 -0.4511  0.0018  0.9856
  529MPD2    C5 7908   4.544   3.312   0.386 -0.1254  0.9160 -0.5095
  529MPD2     H 7909   0.182   3.375   0.415  0.2401 -0.9075 -1.6140
  529MPD2    H1 7910   4.541   3.435   0.216 -0.1159  0.7322  1.0406
  529MPD2    H2 7911   4.574   3.184   0.563  1.5449 -1.0860  1.2971
  529MPD2    H3 7912   4.441   3.284   0.370  0.7878 -1.0286 -3.0489
  529MPD2     N 7913   0.053   3.507   0.214 -0.3345  0.0453 -0.1055
  529MPD2    H5 7914   4.723   3.555   0.156  2.1223  2.1579 -1.2658
  529MPD2    N1 7915   0.085   3.233   0.621  0.3227  0.0566 -0.0040
  529MPD2    H7 7916   0.186   3.245   0.623  0.2651  0.7294 -1.5420
  530TMC3    C1 7917   0.116   3.109   0.818 -0.9301 -0.1610  0.1074
  530TMC3    C2 7918   0.230   3.179   0.852  0.3210  0.5403  0.7331
  530TMC3    C3 7919   0.310   3.129   0.954  0.5164  0.6306 -0.6959
  530TMC3    C4 7920   0.066   3.015   0.898  0.5162  0.0048 -0.0940
  530TMC3    C5 7921   0.153   2.961   0.990 -0.0230  0.1097  0.3015
  530TMC3    C6 7922   0.275   3.013   1.018 -0.1486  0.2799  0.0632
  530TMC3     C 7923   0.024   3.188   0.734  0.0352 -0.4736  0.1494
  530TMC3     O 7924   4.644   3.177   0.764  0.2505  0.0899  0.6512
  530TMC3     H 7925   0.245   3.277   0.808  1.8318  1.3799  3.1481
  530TMC3    H1 7926   4.713   2.960   0.877 -0.4310  1.4755  0.1740
  530TMC3    H2 7927   0.330   2.976   1.104 -1.6883  0.8778  1.3067
  530TMC3    C7 7928   0.111   2.855   1.083 -0.1337 -0.4808  0.1048
  530TMC3    C8 7929   0.431   3.205   0.981  0.0444 -0.2999 -0.1487
  530TMC3    O1 7930   0.198   2.772   1.118 -0.1096  0.0851 -0.8189
  530TMC3    O2 7931   0.436   3.324   0.951 -0.2486  0.4519 -0.2850
  531MPD2     C 7932   3.235   1.411  12.531 -0.3300  0.6533 -0.1160
  531MPD2    C1 7933   3.322   1.456  12.622 -0.3830 -0.3358 -0.0796
  531MPD2    C2 7934   3.339   1.590  12.650 -0.2253 -0.0093 -0.2012
  531MPD2    C3 7935   3.269   1.683  12.571  0.1899 -0.2706 -0.1837
  531MPD2    C4 7936   3.190   1.638  12.472  0.3581  0.4084 -0.6123
  531MPD2    C5 7937   3.172   1.501  12.449 -0.0312  0.1604  0.4656
  531MPD2     H 7938   3.389   1.622  12.740 -1.7835 -2.3994  1.5017
  531MPD2    H1 7939   3.127   1.707  12.417 -1.0000  1.5930  2.4054
  531MPD2    H2 7940   3.213   1.306  12.515 -0.1036  0.2361  2.2241
  531MPD2    H3 7941   3.101   1.458  12.379  0.1607 -2.3983  1.8181
  531MPD2     N 7942   3.304   1.820  12.602 -0.2223  0.3672  0.0119
  531MPD2    H5 7943   3.368   1.833  12.679  0.9725 -1.4783 -0.6612
  531MPD2    N1 7944   3.388   1.355  12.692  0.1817  0.3616  0.2801
  531MPD2    H7 7945   3.356   1.260  12.677  0.3379  0.8504 -3.0885
  532TMC3    C1 7946   3.559   1.268  12.840  0.3971 -0.0324 -0.4106
  532TMC3    C2 7947   3.629   1.323  12.943 -0.2144  0.3594 -0.1371
  532TMC3    C3 7948   3.757   1.285  12.959 -0.4578 -0.0601  0.0536
  532TMC3    C4 7949   3.612   1.164  12.766 -0.2295  0.6765  1.0914
  532TMC3    C5 7950   3.735   1.118  12.790 -0.4624  0.4882 -0.1297
  532TMC3    C6 7951   3.810   1.180  12.886 -0.4428 -0.3627  0.6271
  532TMC3     C 7952   3.497   1.383  12.773 -0.5544  0.3608  0.5258
  532TMC3     O 7953   3.557   1.486  12.794 -0.2026 -0.5707  0.7589
  532TMC3     H 7954   3.585   1.398  13.007 -0.9585  0.1252 -0.3779
  532TMC3    H1 7955   3.561   1.125  12.678  0.0075 -1.2164  1.7888
  532TMC3    H2 7956   3.916   1.155  12.889 -0.2541  0.4605  0.8892
  532TMC3    C7 7957   3.777   0.995  12.728 -0.0799  0.0126 -0.0304
  532TMC3    C8 7958   3.852   1.395  12.991  0.6614  0.3643  0.8729
  532TMC3    O1 7959   3.897   1.002  12.702  0.9753 -0.1386  0.1844
  532TMC3    O2 7960   3.968   1.383  13.032 -0.0556 -0.2568  0.2793
  533TMC3    C1 7961   4.666   2.679  14.400 -1.0272  0.6146 -0.2569
  533TMC3    C2 7962   0.058   2.712  14.409  0.5709 -0.7885 -0.5337
  533TMC3    C3 7963   0.092   2.784  14.520 -0.1611 -0.9726  0.0704
  533TMC3    C4 7964   4.568   2.726  14.489  0.1621 -0.6387 -0.1916
  533TMC3    C5 7965   4.608   2.796  14.598  0.0127 -0.0159 -0.1739
  533TMC3    C6 7966   4.738   2.831  14.613 -0.1104 -0.1937  0.7145
  533TMC3     C 7967   4.633   2.550  14.359  0.4270 -0.1061  0.4753
  533TMC3     O 7968   4.721   2.466  14.368 -0.2860  0.1123 -0.3668
  533TMC3     H 7969   0.130   2.686  14.332  0.3839  0.7514 -1.2378
  533TMC3    H1 7970   4.463   2.700  14.483  0.3500 -2.2095  3.1601
  533TMC3    H2 7971   0.042   2.883  14.698  0.9675  1.3197 -0.7431
  533TMC3    C7 7972   4.516   2.795  14.709 -0.1353 -0.2036  0.2780
  533TMC3    C8 7973   0.185   2.892  14.495  0.4450  0.5282 -0.1955
  533TMC3    O1 7974   4.411   2.743  14.682  0.3280  0.0286  0.7158
  533TMC3    O2 7975   0.250   2.928  14.595  0.1824  0.1221 -0.9083
  534MPD2     C 7976   2.042   4.289   1.614  0.3746  0.4290 -0.7448
  534MPD2    C1 7977   2.032   4.275   1.477  0.1307 -0.3382  0.4089
  534MPD2    C2 7978   2.040   4.149   1.416  0.2517  0.3330 -0.5798
  534MPD2    C3 7979   2.060   4.037   1.490  1.2807 -0.2439  0.1923
  534MPD2    C4 7980   2.054   4.052   1.629  0.6543 -1.1084  0.2353
  534MPD2    C5 7981   2.059   4.173   1.684 -0.9347 -0.3023  0.2918
  534MPD2     H 7982   2.043   4.143   1.307 -1.2567 -0.2235 -0.5883
  534MPD2    H1 7983   2.072   3.965   1.690 -1.8017 -1.5742  0.3008
  534MPD2    H2 7984   2.058   4.382   1.667  1.4214 -0.2178  0.0618
  534MPD2    H3 7985   2.072   4.182   1.791  1.3905 -2.0380  0.1594
  534MPD2     N 7986   2.081   3.911   1.430  0.3913  0.0216 -0.0240
  534MPD2    H5 7987   2.091   3.828   1.487 -2.4792  0.2599  0.8670
  534MPD2    N1 7988   2.020   4.394   1.397  0.9330 -0.3575 -0.3673
  534MPD2    H7 7989   2.013   4.372   1.299 -1.1904 -0.4761 -0.1884
  535TMC3    C1 7990   2.149   3.769   1.249  0.4054  0.4124 -0.1357
  535TMC3    C2 7991   2.261   3.718   1.314  0.6917  1.1233 -0.4728
  535TMC3    C3 7992   2.331   3.607   1.263 -0.6394 -0.2005 -0.2915
  535TMC3    C4 7993   2.131   3.737   1.113  0.4647 -0.1196  1.1993
  535TMC3    C5 7994   2.218   3.641   1.054 -0.9156 -0.1402  0.2102
  535TMC3    C6 7995   2.320   3.573   1.131 -0.2392  0.5053 -0.9646
  535TMC3     C 7996   2.079   3.887   1.294  0.1484  0.1109 -0.6194
  535TMC3     O 7997   2.048   3.959   1.202 -0.5025  0.3812  0.1424
  535TMC3     H 7998   2.278   3.757   1.414  2.3227  0.7327 -0.5989
  535TMC3    H1 7999   2.055   3.790   1.057 -0.1111  1.1118  3.1657
  535TMC3    H2 8000   2.390   3.503   1.088 -0.9943  0.3050 -1.8789
  535TMC3    C7 8001   2.241   3.647   0.911 -0.9702  0.4050  0.3436
  535TMC3    C8 8002   2.321   3.491   1.346 -0.3354 -0.3420 -0.0067
  535TMC3    O1 8003   2.324   3.568   0.860  0.2716  0.0478 -0.7504
  535TMC3    O2 8004   2.282   3.390   1.295 -0.0059 -0.5770 -0.5529
  536MPD2     C 8005   1.609   2.244  15.976 -0.5277 -0.1344 -0.0858
  536MPD2    C1 8006   1.500   2.178  16.038  0.6227 -0.4806 -0.8823
  536MPD2    C2 8007   1.376   2.171  15.969 -0.8777 -0.0254 -0.7730
  536MPD2    C3 8008   1.375   2.229  15.845 -0.4437 -1.3215 -0.2517
  536MPD2    C4 8009   1.486   2.291  15.789  0.5055  0.3359 -0.0411
  536MPD2    C5 8010   1.606   2.295  15.850 -0.3454  0.8107 -0.4491
  536MPD2     H 8011   1.289   2.130  16.019  0.0530 -0.2479  0.6862
  536MPD2    H1 8012   1.473   2.338  15.692 -2.7603 -0.2004  0.1526
  536MPD2    H2 8013   1.708   2.251  16.021 -1.1179  0.8164  1.0491
  536MPD2    H3 8014   1.688   2.359  15.820 -0.9434  2.1492  0.8082
  536MPD2     N 8015   1.257   2.263  15.773 -0.0510  0.0630  0.4328
  536MPD2    H5 8016   1.266   2.332  15.700  0.7310  0.0422  0.5070
  536MPD2    N1 8017   1.502   2.143  16.183 -0.0275 -0.0921  0.1835
  536MPD2    H7 8018   1.586   2.166  16.235  1.0266 -3.6492  0.0452
  537TMC3    C1 8019   1.415   2.060  16.389  0.8254  0.6841 -1.2683
  537TMC3    C2 8020   1.462   2.174  16.452 -0.2916 -0.0330 -0.4042
  537TMC3    C3 8021   1.476   2.165  16.588  0.5189 -0.0748  0.8635
  537TMC3    C4 8022   1.379   1.948  16.458 -0.1037 -0.9046  0.0453
  537TMC3    C5 8023   1.407   1.947  16.593  0.1520 -1.0463 -0.1624
  537TMC3    C6 8024   1.459   2.055  16.660 -0.5771 -0.6519  0.1831
  537TMC3     C 8025   1.415   2.052  16.245  0.0935  0.2987 -0.0609
  537TMC3     O 8026   1.344   1.974  16.187 -0.1104  0.3381  0.0461
  537TMC3     H 8027   1.469   2.269  16.400 -1.1075 -0.9532 -2.2065
  537TMC3    H1 8028   1.344   1.862  16.402  0.3698 -0.3006 -1.1697
  537TMC3    H2 8029   1.497   2.045  16.761 -1.7580  0.4862  0.7393
  537TMC3    C7 8030   1.369   1.831  16.665  0.0443 -0.4182  0.1560
  537TMC3    C8 8031   1.510   2.285  16.666 -0.3461  0.0917  0.4213
  537TMC3    O1 8032   1.378   1.728  16.601 -0.1848 -0.2335 -0.3120
  537TMC3    O2 8033   1.492   2.267  16.788 -0.0283 -0.0769 -0.2600
  538TMC3    C1 8034   2.381   0.879  11.154 -1.1797  0.0227 -0.2770
  538TMC3    C2 8035   2.462   0.794  11.086 -0.0364 -0.0352 -0.6160
  538TMC3    C3 8036   2.461   0.798  10.948  0.1284  0.0501 -0.2037
  538TMC3    C4 8037   2.298   0.971  11.087  0.2281  0.3537  0.4026
  538TMC3    C5 8038   2.305   0.978  10.950  0.6798  0.7505 -0.0033
  538TMC3    C6 8039   2.378   0.886  10.874 -0.9004 -0.5292 -0.1893
  538TMC3     C 8040   2.414   0.927  11.282  0.1189 -0.4399 -0.1893
  538TMC3     O 8041   2.417   1.045  11.298 -0.2187 -0.5396  0.3086
  538TMC3     H 8042   2.526   0.735  11.150 -0.7135 -0.7070 -0.5534
  538TMC3    H1 8043   2.233   1.035  11.145  2.4074  2.7682  0.1473
  538TMC3    H2 8044   2.370   0.886  10.766 -0.2840 -0.5593 -0.2386
  538TMC3    C7 8045   2.223   1.071  10.876 -0.0910  0.5049 -0.0044
  538TMC3    C8 8046   2.564   0.749  10.882 -0.6826  0.2991 -0.6910
  538TMC3    O1 8047   2.191   1.049  10.760 -0.0813  0.3163  0.4261
  538TMC3    O2 8048   2.613   0.650  10.929  0.3810  1.0331 -0.3209
  539MPD2     C 8049   1.822   4.535  11.274 -0.9199 -0.3239  0.5380
  539MPD2    C1 8050   1.931   4.610  11.253  0.2623  0.3849 -0.5329
  539MPD2    C2 8051   1.909   0.009  11.233  0.9462 -0.0741  0.0534
  539MPD2    C3 8052   1.785   0.069  11.243 -0.0328 -0.4072 -0.9401
  539MPD2    C4 8053   1.684   4.730  11.292  0.7162 -0.2821  0.0249
  539MPD2    C5 8054   1.700   4.590  11.295 -0.0923 -1.2795 -0.0710
  539MPD2     H 8055   1.999   0.067  11.218  0.0380  0.6394 -2.6368
  539MPD2    H1 8056   1.583   0.030  11.287  0.3694 -1.2208 -0.0570
  539MPD2    H2 8057   1.837   4.428  11.290  1.6739 -0.0727 -0.3635
  539MPD2    H3 8058   1.624   4.517  11.319 -2.1927  1.0224  0.3567
  539MPD2     N 8059   1.778   0.209  11.232  0.5544  0.4328  0.4652
  539MPD2    H5 8060   1.692   0.245  11.273  1.9599  2.3772  1.6663
  539MPD2    N1 8061   2.060   4.545  11.244 -0.1881 -0.5274  0.5400
  539MPD2    H7 8062   2.057   4.443  11.240  1.2078 -0.5735  0.6051
  540TMC3    C1 8063   1.826   0.421  11.143  0.5309  0.0013 -0.5587
  540TMC3    C2 8064   1.846   0.494  11.031 -0.6124 -0.3342  0.5653
  540TMC3    C3 8065   1.787   0.619  11.024 -0.2433 -0.5036 -0.2767
  540TMC3    C4 8066   1.752   0.475  11.242  0.0775 -0.5542  0.6358
  540TMC3    C5 8067   1.703   0.599  11.234  0.6307  0.8006  0.5749
  540TMC3    C6 8068   1.722   0.681  11.127 -0.0865 -0.1915 -0.1467
  540TMC3     C 8069   1.859   0.279  11.145 -0.2835 -0.0974  0.5539
  540TMC3     O 8070   1.948   0.236  11.071  0.3910 -0.1629 -0.5668
  540TMC3     H 8071   1.893   0.432  10.956 -0.6833 -2.4606  2.2706
  540TMC3    H1 8072   1.738   0.417  11.333 -0.0565 -0.3833  0.7225
  540TMC3    H2 8073   1.676   0.779  11.113 -0.5085  0.1119  3.4868
  540TMC3    C7 8074   1.643   0.651  11.350  0.1885  0.3646 -0.3487
  540TMC3    C8 8075   1.773   0.677  10.896  0.0054  0.0579 -0.4092
  540TMC3    O1 8076   1.637   0.571  11.441  0.0783  0.5733 -0.3299
  540TMC3    O2 8077   1.705   0.779  10.882  0.1758  0.5739  0.6362
  541MPD2     C 8078   4.666   1.222  13.237  0.0197 -0.1661 -0.1477
  541MPD2    C1 8079   4.552   1.233  13.158  0.7517  0.4931  0.3097
  541MPD2    C2 8080   4.554   1.312  13.044  0.5982 -0.7613  0.2321
  541MPD2    C3 8081   4.680   1.375  13.013 -0.2842  0.4497  0.4724
  541MPD2    C4 8082   0.050   1.364  13.093 -0.5441  0.0909 -0.0436
  541MPD2    C5 8083   0.044   1.296  13.206 -0.2206 -0.1356 -0.0521
  541MPD2     H 8084   4.461   1.325  12.990 -0.1938 -0.4094  1.6659
  541MPD2    H1 8085   0.136   1.422  13.062  0.0714 -1.8893 -2.0403
  541MPD2    H2 8086   4.662   1.159  13.325 -0.7837  0.8519  0.5359
  541MPD2    H3 8087   0.132   1.290  13.270 -0.0628  0.3913 -0.2221
  541MPD2     N 8088   4.675   1.448  12.895 -0.3207 -1.3285 -0.3230
  541MPD2    H5 8089   4.589   1.446  12.841  0.1290 -1.6261 -1.0141
  541MPD2    N1 8090   4.434   1.159  13.177  0.0776  0.6499  0.3141
  541MPD2    H7 8091   4.352   1.174  13.119  0.3784 -1.8912 -0.7701
  542TMC3    C1 8092   0.027   1.547  12.699  0.3539  0.8262  0.1781
  542TMC3    C2 8093   0.119   1.514  12.610  0.5497 -0.1066  0.2551
  542TMC3    C3 8094   0.092   1.537  12.476 -0.8531  0.3271  0.7920
  542TMC3    C4 8095   4.639   1.607  12.669  1.1798  0.1512  0.0954
  542TMC3    C5 8096   4.620   1.635  12.538 -0.6219  1.1118 -0.0505
  542TMC3    C6 8097   4.711   1.603  12.438  0.4934 -1.3368 -0.1093
  542TMC3     C 8098   0.049   1.494  12.829  0.0167 -0.1028  0.0144
  542TMC3     O 8099   0.171   1.476  12.851 -0.1873  0.5913  0.1227
  542TMC3     H 8100   0.210   1.466  12.644  1.1515  1.0712  0.3262
  542TMC3    H1 8101   4.567   1.643  12.741  2.1138  0.8846  0.6632
  542TMC3    H2 8102   4.705   1.640  12.336 -1.0701 -0.9615  0.1250
  542TMC3    C7 8103   4.534   1.746  12.507 -0.5102 -0.5259  1.0108
  542TMC3    C8 8104   0.193   1.543  12.378  0.1615 -0.3624  0.0083
  542TMC3    O1 8105   4.531   1.838  12.585 -0.3177 -0.2749 -0.0057
  542TMC3    O2 8106   0.157   1.563  12.268 -0.1145 -0.0992 -0.0922
  543TMC3    C1 8107   4.547   2.965  16.984 -0.2301 -0.2299 -0.2753
  543TMC3    C2 8108   4.502   2.876  17.082  0.2773  0.2310  0.6044
  543TMC3    C3 8109   4.473   2.933  17.209 -0.3538 -0.1258  0.0430
  543TMC3    C4 8110   4.581   3.090  17.018  0.0163  0.1543 -0.1355
  543TMC3    C5 8111   4.550   3.138  17.138  0.1970  0.1866  0.6011
  543TMC3    C6 8112   4.486   3.061  17.233 -0.4918 -1.1103  0.4576
  543TMC3     C 8113   4.589   2.920  16.855  0.2309  0.2448  0.6286
  543TMC3     O 8114   4.620   2.804  16.838  0.1071  0.0892 -0.3671
  543TMC3     H 8115   4.484   2.775  17.049 -1.2661  0.9656 -0.8213
  543TMC3    H1 8116   4.631   3.149  16.942 -0.1188  0.5639  0.0946
  543TMC3    H2 8117   4.464   3.104  17.330  2.1004  1.2130  0.0163
  543TMC3    C7 8118   4.624   3.255  17.183  0.5196 -0.6576 -0.1663
  543TMC3    C8 8119   4.442   2.851  17.326  0.8712 -0.2414  0.7793
  543TMC3    O1 8120   4.615   3.272  17.302  0.2381  0.0314 -0.0552
  543TMC3    O2 8121   4.439   2.901  17.437 -0.0564  0.8252  1.1044
  544MPD2     C 8122   4.310   2.417  17.579 -0.1251 -0.3718  0.5980
  544MPD2    C1 8123   4.335   2.383  17.449  0.7897  0.0476 -0.6380
  544MPD2    C2 8124   4.374   2.489  17.366 -0.0142 -0.1641 -0.5162
  544MPD2    C3 8125   4.400   2.620  17.405 -0.4269  0.2228 -0.7294
  544MPD2    C4 8126   4.355   2.649  17.533  0.2373  0.3615 -0.3444
  544MPD2    C5 8127   4.308   2.548  17.619  0.3223 -0.2551 -0.1201
  544MPD2     H 8128   4.391   2.470  17.261  1.8644 -1.5929  0.0416
  544MPD2    H1 8129   4.366   2.746  17.580  0.0376  0.4996 -0.5869
  544MPD2    H2 8130   4.283   2.343  17.653 -2.4660  0.4379  0.5554
  544MPD2    H3 8131   4.296   2.574  17.724  2.2624  1.3873 -0.2963
  544MPD2     N 8132   4.433   2.718  17.308  0.2633  0.7145  0.5206
  544MPD2    H5 8133   4.449   2.686  17.213  1.8263  0.8764  0.7364
  544MPD2    N1 8134   4.334   2.246  17.406 -0.0381  0.0636 -0.3329
  544MPD2    H7 8135   4.341   2.181  17.484 -3.2551  0.8133  0.5752
  545TMC3    C1 8136   4.340   2.061  17.257 -0.3479 -0.4516 -0.4308
  545TMC3    C2 8137   4.325   2.025  17.125 -0.0885 -0.0206  0.1331
  545TMC3    C3 8138   4.380   1.911  17.089 -0.2541  0.1509  0.2645
  545TMC3    C4 8139   4.406   1.986  17.354  0.0938  0.1981  0.2119
  545TMC3    C5 8140   4.445   1.860  17.307  0.1178 -0.3149 -0.7017
  545TMC3    C6 8141   4.450   1.831  17.175 -0.4946 -0.5204  0.5078
  545TMC3     C 8142   4.320   2.203  17.273 -0.1829 -0.0268 -0.3819
  545TMC3     O 8143   4.271   2.260  17.175  0.4531  0.3714  0.0744
  545TMC3     H 8144   4.275   2.083  17.048 -1.8635 -1.8853 -0.1331
  545TMC3    H1 8145   4.442   2.021  17.450 -0.7384  0.2474  0.4999
  545TMC3    H2 8146   4.508   1.745  17.143 -1.1279 -1.8841  2.9887
  545TMC3    C7 8147   4.448   1.745  17.394 -0.3542  0.4960 -0.5439
  545TMC3    C8 8148   4.362   1.877  16.947 -0.3941 -0.5324  0.5015
  545TMC3    O1 8149   4.473   1.763  17.514 -0.5237  0.0846  0.6176
  545TMC3    O2 8150   4.257   1.905  16.891 -0.0748 -0.4817  0.5284
  546MPD2     C 8151   0.761   2.764  17.567 -0.1645  0.8442  0.1258
  546MPD2    C1 8152   0.834   2.788  17.452  0.0138 -0.2525 -0.1589
  546MPD2    C2 8153   0.905   2.912  17.443 -0.0009  0.0685  0.6756
  546MPD2    C3 8154   0.918   2.998  17.550 -0.0055 -0.4102  0.1466
  546MPD2    C4 8155   0.851   2.964  17.664 -0.1426  0.7011  0.1003
  546MPD2    C5 8156   0.777   2.853  17.670  0.2748 -0.5221  0.0351
  546MPD2     H 8157   0.959   2.942  17.354  0.6769  0.0762  1.0964
  546MPD2    H1 8158   0.847   3.029  17.751  0.3412 -0.1746  0.7802
  546MPD2    H2 8159   0.684   2.689  17.581  0.8408 -0.3122 -0.5000
  546MPD2    H3 8160   0.714   2.843   0.006  0.4778  2.5407  0.5359
  546MPD2     N 8161   0.997   3.120  17.547 -0.2778 -0.1482 -0.1765
  546MPD2    H5 8162   0.960   3.192  17.608 -1.6144 -0.2703 -0.8363
  546MPD2    N1 8163   0.841   2.690  17.351  0.8469  0.0898  0.1300
  546MPD2    H7 8164   0.793   2.604  17.377  1.0340  0.5772  2.0881
  547TMC3    C1 8165   0.915   2.576  17.161 -0.2194 -0.0659 -0.0502
  547TMC3    C2 8166   0.910   2.588  17.028 -0.2180 -0.2395  0.2603
  547TMC3    C3 8167   0.882   2.480  16.965 -0.4496 -0.0610 -0.8404
  547TMC3    C4 8168   0.897   2.460  17.224  0.3815  0.1699  1.1434
  547TMC3    C5 8169   0.876   2.347  17.151  0.0213 -0.2743 -0.6593
  547TMC3    C6 8170   0.869   2.353  17.017 -0.7575 -0.2370  0.4349
  547TMC3     C 8171   0.909   2.699  17.231  0.1711 -0.6674 -0.4179
  547TMC3     O 8172   0.963   2.799  17.185 -0.4596  0.6195 -0.4445
  547TMC3     H 8173   0.924   2.684  16.979  1.7715 -0.8618 -0.3848
  547TMC3    H1 8174   0.925   2.450  17.328  0.5096 -1.6142  0.9347
  547TMC3    H2 8175   0.822   2.277  16.954  3.3752 -1.3528 -1.3144
  547TMC3    C7 8176   0.828   2.227  17.220  0.3858  0.4080 -0.0531
  547TMC3    C8 8177   0.824   2.490  16.830 -0.0386 -0.1821  0.4107
  547TMC3    O1 8178   0.794   2.234  17.337  0.5519  0.3621 -0.3371
  547TMC3    O2 8179   0.748   2.586  16.812  0.1016 -0.0585  0.1490
  548MPD2     C 8180   1.188   3.363  13.065  0.4860 -0.2896  0.1497
  548MPD2    C1 8181   1.152   3.259  12.976 -0.6815  0.0791 -0.1465
  548MPD2    C2 8182   1.245   3.169  12.937 -0.0067  0.0570 -0.4341
  548MPD2    C3 8183   1.381   3.192  12.952  0.0118  0.1648 -0.4923
  548MPD2    C4 8184   1.416   3.303  13.027 -0.0921  0.0880  0.2757
  548MPD2    C5 8185   1.322   3.386  13.078  0.1898  0.1951 -0.5490
  548MPD2     H 8186   1.213   3.095  12.865  1.2094 -1.5272  0.6540
  548MPD2    H1 8187   1.519   3.334  13.044 -0.1675  1.0186 -0.9367
  548MPD2    H2 8188   1.114   3.425  13.114 -0.0733 -1.4993  0.8273
  548MPD2    H3 8189   1.337   3.474  13.141  0.1823 -0.3049  0.1593
  548MPD2     N 8190   1.474   3.111  12.886  0.1138 -0.0849  0.0091
  548MPD2    H5 8191   1.443   3.043  12.818  0.0417 -1.2841  1.2484
  548MPD2    N1 8192   1.019   3.249  12.937 -0.3584 -0.8988 -0.2629
  548MPD2    H7 8193   0.955   3.327  12.951  1.1767  0.0207  1.5136
  549TMC3    C1 8194   0.839   3.177  12.798  1.2442  0.7615 -0.7981
  549TMC3    C2 8195   0.823   3.300  12.746 -0.0956  0.0794  0.2400
  549TMC3    C3 8196   0.714   3.326  12.666  0.1880 -0.4192  0.8982
  549TMC3    C4 8197   0.749   3.080  12.769 -0.2312 -0.3615  0.5512
  549TMC3    C5 8198   0.642   3.110  12.695  0.2426 -0.8818 -0.1209
  549TMC3    C6 8199   0.617   3.231  12.646 -0.6698  0.1344  0.0207
  549TMC3     C 8200   0.961   3.144  12.870  0.5260  0.2322 -0.2913
  549TMC3     O 8201   1.007   3.032  12.836 -0.0825  0.1364  0.0576
  549TMC3     H 8202   0.901   3.371  12.768  0.3115 -0.2927 -0.0028
  549TMC3    H1 8203   0.762   2.978  12.803 -0.0953 -0.5316 -0.0234
  549TMC3    H2 8204   0.534   3.259  12.581 -0.7067 -0.6029 -0.2474
  549TMC3    C7 8205   0.524   3.030  12.703 -0.7263 -0.3638  0.6146
  549TMC3    C8 8206   0.671   3.467  12.655  0.7201 -1.1598 -0.2843
  549TMC3    O1 8207   0.420   3.089  12.681  0.4348  0.0315  0.1474
  549TMC3    O2 8208   0.553   3.484  12.629 -0.1327 -0.0685  0.4763
  550TMC3    C1 8209   4.227   1.517  12.044 -0.7743  0.1981 -0.2363
  550TMC3    C2 8210   4.216   1.520  12.181  0.4236  0.4285  0.1196
  550TMC3    C3 8211   4.123   1.601  12.237 -0.3999  0.1188  0.5802
  550TMC3    C4 8212   4.146   1.599  11.964  0.3797  0.1707  0.2830
  550TMC3    C5 8213   4.079   1.698  12.028 -0.2628 -0.2924  0.0777
  550TMC3    C6 8214   4.067   1.705  12.166  0.2851  0.3417  0.0743
  550TMC3     C 8215   4.312   1.412  11.986  0.4689 -0.0231  0.2609
  550TMC3     O 8216   4.357   1.331  12.071 -0.1264 -0.7449 -0.1402
  550TMC3     H 8217   4.285   1.463  12.241 -0.6920 -1.9347 -0.8512
  550TMC3    H1 8218   4.127   1.576  11.860  0.2193 -1.2833  0.6316
  550TMC3    H2 8219   3.996   1.774  12.210  0.0434 -0.6687  1.2728
  550TMC3    C7 8220   3.989   1.773  11.936 -0.4997  0.2377 -0.1482
  550TMC3    C8 8221   4.144   1.651  12.371  0.2850  0.0320  0.0825
  550TMC3    O1 8222   3.883   1.820  11.969 -0.5908  0.5815  0.1637
  550TMC3    O2 8223   4.103   1.767  12.402 -0.6065 -0.2224 -0.1684
  551TMC3    C1 8224   2.051   3.764  13.388  0.1090 -0.6581  0.8305
  551TMC3    C2 8225   2.141   3.664  13.370  1.0400 -0.0921 -0.3551
  551TMC3    C3 8226   2.202   3.623  13.478  0.5080 -0.4416  0.8337
  551TMC3    C4 8227   2.027   3.821  13.508 -0.6308 -0.3323 -0.3040
  551TMC3    C5 8228   2.102   3.778  13.611  0.0745 -0.3075  0.0606
  551TMC3    C6 8229   2.180   3.666  13.605  0.6366  0.1903  0.6448
  551TMC3     C 8230   1.962   3.780  13.273 -0.2082  0.8481 -0.3408
  551TMC3     O 8231   1.953   3.678  13.204 -0.1684  0.0979  0.2108
  551TMC3     H 8232   2.157   3.617  13.274  0.0522  1.3823 -1.2317
  551TMC3    H1 8233   1.958   3.904  13.497  2.3731  1.9147 -2.1101
  551TMC3    H2 8234   2.235   3.637  13.694 -0.9371  1.0403  1.8808
  551TMC3    C7 8235   2.097   3.832  13.743 -0.1896 -0.2322  0.4796
  551TMC3    C8 8236   2.315   3.540  13.463  0.1377  0.0910 -0.3360
  551TMC3    O1 8237   2.123   3.769  13.845  0.5373  0.1275  0.4790
  551TMC3    O2 8238   2.315   3.455  13.550  0.2184 -0.0056  0.0127
  552MPD2     C 8239   3.927   0.912  13.418  0.7201 -0.9317 -0.1525
  552MPD2    C1 8240   3.904   0.820  13.522  0.2324 -0.1801 -0.5471
  552MPD2    C2 8241   4.002   0.801  13.611 -0.4911  0.0251 -0.6734
  552MPD2    C3 8242   4.102   0.897  13.624 -0.2401 -0.2311  0.8012
  552MPD2    C4 8243   4.114   0.993  13.532 -0.2406  0.2081  0.6033
  552MPD2    C5 8244   4.032   0.999  13.422  0.7794 -0.0299 -0.6066
  552MPD2     H 8245   3.998   0.712  13.672 -0.4370 -0.1792 -0.9731
  552MPD2    H1 8246   4.187   1.074  13.530 -0.1787  0.1407  0.1677
  552MPD2    H2 8247   3.861   0.914  13.332  3.0153  1.1124 -1.8522
  552MPD2    H3 8248   4.045   1.066  13.337 -1.8888  1.5423  0.2238
  552MPD2     N 8249   4.191   0.896  13.733 -0.2488  0.5113  0.4649
  552MPD2    H5 8250   4.252   0.976  13.734  0.5286 -0.0748 -0.0501
  552MPD2    N1 8251   3.796   0.728  13.528 -0.3910  0.1200 -0.1776
  552MPD2    H7 8252   3.777   0.699  13.624  1.5727  1.3232  0.5795
  553TMC3    C1 8253   3.580   0.655  13.477  0.1900  0.0455 -0.7350
  553TMC3    C2 8254   3.460   0.689  13.414 -0.0973  0.5342 -0.2389
  553TMC3    C3 8255   3.349   0.613  13.454  0.7758 -0.3595 -0.1275
  553TMC3    C4 8256   3.592   0.555  13.571  0.6680 -0.0542 -0.0871
  553TMC3    C5 8257   3.476   0.490  13.602  0.3501 -0.2272 -0.2817
  553TMC3    C6 8258   3.353   0.521  13.551 -0.0598  0.6597 -0.5270
  553TMC3     C 8259   3.687   0.741  13.443 -0.0349  0.0003 -0.7735
  553TMC3     O 8260   3.664   0.825  13.360  0.4149  0.5158  0.5203
  553TMC3     H 8261   3.450   0.752  13.326  1.4981  0.0007 -0.7849
  553TMC3    H1 8262   3.668   0.547  13.648  1.5246  2.2624 -0.7114
  553TMC3    H2 8263   3.263   0.463  13.569  0.2838  0.4479  0.4785
  553TMC3    C7 8264   3.477   0.363  13.686  0.7607 -0.5433  0.3557
  553TMC3    C8 8265   3.244   0.588  13.345  0.5748 -0.4443 -0.0709
  553TMC3    O1 8266   3.365   0.329  13.724 -0.1355 -0.0923 -0.2397
  553TMC3    O2 8267   3.198   0.478  13.330 -0.2422  0.0431  0.2254
  554TMC3    C1 8268   1.057   0.233  11.483  0.5832  0.3044  0.5594
  554TMC3    C2 8269   1.013   0.167  11.371  0.4134  0.3382 -0.1744
  554TMC3    C3 8270   1.091   0.172  11.256  0.7955 -0.1572  0.5858
  554TMC3    C4 8271   1.170   0.307  11.485  0.4250 -0.1699  0.3821
  554TMC3    C5 8272   1.243   0.317  11.370 -0.1508  0.6058  0.6512
  554TMC3    C6 8273   1.204   0.249  11.254 -0.3729  0.2931 -0.4440
  554TMC3     C 8274   0.983   0.190  11.605 -0.6083 -1.0148  0.2164
  554TMC3     O 8275   0.868   0.140  11.588 -0.3854 -0.2275 -0.0070
  554TMC3     H 8276   0.943   0.087  11.387  1.9500 -0.9748  0.0197
  554TMC3    H1 8277   1.202   0.361  11.574 -1.3712  0.4237  0.6772
  554TMC3    H2 8278   1.256   0.276  11.164  1.8696  1.6763  1.2798
  554TMC3    C7 8279   1.316   0.437  11.344 -0.0313 -0.1368  0.4711
  554TMC3    C8 8280   1.022   0.157  11.131 -0.5159 -0.1236 -0.1514
  554TMC3    O1 8281   1.406   0.422  11.263 -0.2607 -0.0117 -0.9443
  554TMC3    O2 8282   1.088   0.176  11.030 -0.1899 -0.6258  0.0808
  555TMC3    C1 8283   4.726   4.355  15.073  0.5784 -0.7974  0.0805
  555TMC3    C2 8284   0.057   4.441  15.166 -0.0739  0.4175 -0.0282
  555TMC3    C3 8285   0.102   4.389  15.287  1.0577 -0.2647 -0.4927
  555TMC3    C4 8286   4.713   4.219  15.106  0.5042  0.1735  0.2067
  555TMC3    C5 8287   0.026   4.174  15.229 -0.1501 -0.2667  0.4445
  555TMC3    C6 8288   0.087   4.260  15.318  0.8645  0.2497  0.2045
  555TMC3     C 8289   4.690   4.411  14.941 -0.1569  0.1165  0.0217
  555TMC3     O 8290   0.028   4.497  14.897 -0.0984 -0.3666 -0.3814
  555TMC3     H 8291   0.077   4.541  15.130 -0.9664  0.7351  0.3550
  555TMC3    H1 8292   4.677   4.149  15.032  1.0981 -0.6159  0.6694
  555TMC3    H2 8293   0.102   4.211  15.414  0.2925 -0.0810  0.1235
  555TMC3    C7 8294   0.014   4.034  15.273 -0.1036 -0.8040 -0.0711
  555TMC3    C8 8295   0.172   4.484  15.373  0.8898  0.1955  0.3119
  555TMC3    O1 8296   4.650   3.975  15.245  0.3583  0.3778 -0.6674
  555TMC3    O2 8297   0.186   4.598  15.331 -0.3633  0.1330  0.2140
  556MPD2     C 8298   3.321   1.709  10.758  0.2156  0.6021 -0.4015
  556MPD2    C1 8299   3.209   1.635  10.791 -0.6629  0.3189  0.5524
  556MPD2    C2 8300   3.166   1.542  10.696 -0.5753  0.8012  0.4153
  556MPD2    C3 8301   3.219   1.540  10.566 -0.5591  0.4844  0.5511
  556MPD2    C4 8302   3.321   1.625  10.535  0.3581 -0.0769 -0.2581
  556MPD2    C5 8303   3.365   1.705  10.633 -0.0969 -0.1488  0.3362
  556MPD2     H 8304   3.069   1.498  10.717 -0.4783  0.3220 -0.1259
  556MPD2    H1 8305   3.366   1.641  10.438 -0.7930  3.1352 -0.2732
  556MPD2    H2 8306   3.385   1.774  10.817  1.1709  0.8786 -1.7476
  556MPD2    H3 8307   3.458   1.754  10.605  0.0299 -0.9462 -0.6484
  556MPD2     N 8308   3.142   1.459  10.470 -0.2576 -0.4167 -0.2363
  556MPD2    H5 8309   3.062   1.412  10.511  0.8405 -1.4594  0.6715
  556MPD2    N1 8310   3.141   1.645  10.919 -0.0833  0.4604 -0.2391
  556MPD2    H7 8311   3.054   1.594  10.930 -0.2441  0.6654 -0.5707
  557TMC3    C1 8312   3.096   1.359  10.270  0.3199 -0.9491 -0.2896
  557TMC3    C2 8313   3.151   1.294  10.166 -0.0691  0.2710 -0.4136
  557TMC3    C3 8314   3.108   1.165  10.126 -0.2884  0.0722 -0.3336
  557TMC3    C4 8315   2.996   1.295  10.337  0.2579  0.2210  0.1724
  557TMC3    C5 8316   2.953   1.174  10.296  0.5578 -0.1835  0.4427
  557TMC3    C6 8317   3.008   1.104  10.193 -0.5351 -0.2017 -0.0471
  557TMC3     C 8318   3.176   1.456  10.336  0.2966  0.1309 -0.9452
  557TMC3     O 8319   3.259   1.518  10.272 -0.3685 -0.3001 -0.1984
  557TMC3     H 8320   3.247   1.335  10.135 -0.3100  1.4552  0.4261
  557TMC3    H1 8321   2.939   1.346  10.413 -1.1168 -0.3708 -0.4635
  557TMC3    H2 8322   2.962   1.014  10.153 -0.2960 -0.5562  0.4796
  557TMC3    C7 8323   2.866   1.099  10.390 -0.3995  0.4020  0.1849
  557TMC3    C8 8324   3.162   1.107  10.011  0.4449 -0.1963  0.0975
  557TMC3    O1 8325   2.803   1.162  10.474  0.5348 -0.4265  0.0952
  557TMC3    O2 8326   3.243   1.172   9.947 -0.1324  0.1156 -0.4391
  558TMC3    C1 8327   0.749   4.321  10.595 -0.0845 -0.9548  0.5659
  558TMC3    C2 8328   0.630   4.314  10.663 -0.1774  0.3135  0.7949
  558TMC3    C3 8329   0.517   4.353  10.592 -0.2964 -0.5246  0.2528
  558TMC3    C4 8330   0.763   4.372  10.467  0.0625 -0.0156 -0.1967
  558TMC3    C5 8331   0.653   4.422  10.410  0.0153 -0.0705 -0.1262
  558TMC3    C6 8332   0.526   4.413  10.467 -0.4550 -0.5684  0.2220
  558TMC3     C 8333   0.872   4.284  10.663  0.5894 -0.3671 -0.4706
  558TMC3     O 8334   0.977   4.292  10.599  0.0364  0.5427  0.5451
  558TMC3     H 8335   0.626   4.246  10.748 -1.2718 -1.4293 -0.6442
  558TMC3    H1 8336   0.858   4.367  10.416 -0.3471  0.5948 -1.0015
  558TMC3    H2 8337   0.437   4.457  10.424 -0.1175  1.6687  1.7819
  558TMC3    C7 8338   0.680   4.498  10.295 -0.6102 -0.5512  0.2799
  558TMC3    C8 8339   0.390   4.370  10.668 -0.1780 -0.2108  0.4422
  558TMC3    O1 8340   0.795   4.530  10.276 -0.1183 -0.0673  0.4580
  558TMC3    O2 8341   0.295   4.424  10.611  0.1865 -0.2156  0.0926
  559MPD2     C 8342   0.779   0.029  10.491  0.3612  0.9137  0.1128
  559MPD2    C1 8343   0.725   4.723  10.607  0.5773  0.9780 -0.3277
  559MPD2    C2 8344   0.821   4.701  10.708 -0.4533 -0.0808  0.8710
  559MPD2    C3 8345   0.959   4.721  10.689  0.1726 -0.1869  0.4813
  559MPD2    C4 8346   1.009   0.010  10.562  0.5608 -0.4435 -0.5270
  559MPD2    C5 8347   0.915   0.023  10.459  0.1041  0.6662  0.8839
  559MPD2     H 8348   0.795   4.682  10.812 -0.4657 -0.2206  0.8429
  559MPD2    H1 8349   1.113   0.026  10.537  0.7555  1.0111  1.2215
  559MPD2    H2 8350   0.710   0.052  10.410  0.0970 -0.4801 -0.0667
  559MPD2    H3 8351   0.941   0.051  10.357  0.3286 -0.8964  0.5166
  559MPD2     N 8352   1.042   4.682  10.798  0.3758 -0.0588  0.0674
  559MPD2    H5 8353   0.987   4.643  10.873  0.0328 -0.0004 -0.1553
  559MPD2    N1 8354   0.587   0.001  10.629  0.7127  0.0782  0.8028
  559MPD2    H7 8355   0.524   0.030  10.555 -0.0586 -0.0076  1.4268
  560TMC3    C1 8356   1.242   4.614  10.924  0.6303 -0.5108  0.1196
  560TMC3    C2 8357   1.162   4.538  11.007  0.5415  0.1062  0.8377
  560TMC3    C3 8358   1.223   4.444  11.081 -0.0535  0.0136 -0.2425
  560TMC3    C4 8359   1.377   4.599  10.925 -1.0612  0.1608  0.0228
  560TMC3    C5 8360   1.425   4.483  10.980  0.2396 -0.7798 -0.1014
  560TMC3    C6 8361   1.349   4.402  11.056 -0.1611  0.3711 -0.3818
  560TMC3     C 8362   1.183   4.677  10.808 -0.3773  0.7318  0.0322
  560TMC3     O 8363   1.260   4.728  10.734  0.1194  0.0870  0.4563
  560TMC3     H 8364   1.054   4.534  11.009  0.5610  0.2891  2.2830
  560TMC3    H1 8365   1.445   4.661  10.868  1.7890 -1.0089  2.1445
  560TMC3    H2 8366   1.379   4.306  11.096 -1.4154  0.9386  1.8995
  560TMC3    C7 8367   1.560   4.447  10.960 -0.2379 -0.1538 -0.2256
  560TMC3    C8 8368   1.132   4.368  11.163 -0.5248 -0.0811 -0.3248
  560TMC3    O1 8369   1.587   4.328  10.980 -0.4202  0.1846  0.3726
  560TMC3    O2 8370   1.015   4.400  11.170  0.1072 -0.4746 -0.5513
  561TMC3    C1 8371   3.345   3.772  11.378  0.0304 -0.4668 -0.2364
  561TMC3    C2 8372   3.300   3.720  11.498 -0.3342 -0.2572 -0.5305
  561TMC3    C3 8373   3.272   3.806  11.601 -0.6368  0.1455  0.0496
  561TMC3    C4 8374   3.366   3.906  11.360  0.0844 -0.2294 -0.5048
  561TMC3    C5 8375   3.345   3.983  11.469 -0.0216  1.5626  0.1787
  561TMC3    C6 8376   3.292   3.942  11.592 -0.2580  0.0274  0.1353
  561TMC3     C 8377   3.364   3.675  11.271 -0.0002 -0.4926 -0.1726
  561TMC3     O 8378   3.295   3.575  11.285  0.0236  0.2932  0.6739
  561TMC3     H 8379   3.279   3.616  11.520  1.1104 -0.7613 -1.4831
  561TMC3    H1 8380   3.383   3.942  11.259 -0.3984 -2.7170 -1.4752
  561TMC3    H2 8381   3.287   4.003  11.681 -0.1277  0.7419 -0.3479
  561TMC3    C7 8382   3.319   4.117  11.433  0.2010  0.3135 -0.2280
  561TMC3    C8 8383   3.228   3.741  11.726 -0.3914  0.2250 -0.4859
  561TMC3    O1 8384   3.233   4.183  11.488  0.2389  0.2321 -0.0282
  561TMC3    O2 8385   3.276   3.625  11.745  0.4535 -0.3985  0.0967
  562TMC3    C1 8386   4.726   0.036  15.881  0.6842  1.0317  0.2891
  562TMC3    C2 8387   4.614   0.107  15.858 -0.2233 -0.3415 -0.3285
  562TMC3    C3 8388   4.528   0.069  15.762  0.4938 -0.1501  0.5474
  562TMC3    C4 8389   0.010   4.654  15.821  0.2944 -0.0215 -0.5945
  562TMC3    C5 8390   4.650   4.613  15.737 -0.5777  0.1636  0.6688
  562TMC3    C6 8391   4.535   4.682  15.704 -0.2334 -0.5756  0.1313
  562TMC3     C 8392   0.105   0.112  15.918  0.0253 -0.2972 -0.8477
  562TMC3     O 8393   0.098   0.234  15.904 -0.0591 -0.3582  0.3419
  562TMC3     H 8394   4.607   0.206  15.902  0.4586 -0.2748 -0.3611
  562TMC3    H1 8395   0.110   4.614  15.817 -0.2596 -1.4431 -0.3019
  562TMC3    H2 8396   4.455   4.644  15.642 -0.1568 -2.2440  1.0631
  562TMC3    C7 8397   4.659   4.486  15.673  0.5187 -0.0741  0.0009
  562TMC3    C8 8398   4.399   0.136  15.755 -0.6163  0.1979  0.8743
  562TMC3    O1 8399   4.616   4.462  15.561  0.4211 -0.3860  0.6127
  562TMC3    O2 8400   4.362   0.176  15.866 -0.3100 -0.2274  0.3755
  563MPD2     C 8401   2.270   1.214  15.542  0.0128 -0.3919  0.3505
  563MPD2    C1 8402   2.337   1.167  15.650  0.1203  0.1198  0.3766
  563MPD2    C2 8403   2.478   1.169  15.653  0.4872 -0.0936 -0.6098
  563MPD2    C3 8404   2.548   1.210  15.540  0.7460 -0.1450 -0.3251
  563MPD2    C4 8405   2.483   1.251  15.429  0.0497  0.2495  0.5788
  563MPD2    C5 8406   2.345   1.277  15.441  0.0785  0.5979 -0.7461
  563MPD2     H 8407   2.532   1.130  15.739  0.7858  3.0007  0.6322
  563MPD2    H1 8408   2.540   1.316  15.364  0.3037  0.2361  0.7877
  563MPD2    H2 8409   2.163   1.234  15.549  0.7917  4.6240 -2.0939
  563MPD2    H3 8410   2.298   1.339  15.365 -1.7992  1.7390  1.3642
  563MPD2     N 8411   2.691   1.203  15.548 -0.5633  1.0878 -0.4248
  563MPD2    H5 8412   2.731   1.169  15.634 -1.7329  1.6334  0.3393
  563MPD2    N1 8413   2.262   1.106  15.757 -0.7601 -0.2740  0.0308
  563MPD2    H7 8414   2.166   1.078  15.741 -0.7706  0.2821 -0.8908
  564TMC3    C1 8415   2.245   1.027  15.977 -0.5264 -0.1389 -0.0349
  564TMC3    C2 8416   2.168   0.920  15.930 -0.1425 -0.1050 -0.1245
  564TMC3    C3 8417   2.125   0.838  16.030 -0.2197 -0.0230 -0.9661
  564TMC3    C4 8418   2.289   1.044  16.111  0.7074 -0.1272 -0.1251
  564TMC3    C5 8419   2.241   0.962  16.199  0.3863  0.1211 -0.0270
  564TMC3    C6 8420   2.157   0.859  16.162  0.9858  0.2759 -0.0396
  564TMC3     C 8421   2.320   1.109  15.886  0.2152 -1.0645 -0.2332
  564TMC3     O 8422   2.409   1.179  15.932 -0.2565  0.4163 -0.0126
  564TMC3     H 8423   2.145   0.898  15.827 -1.6074  0.4224  0.0923
  564TMC3    H1 8424   2.343   1.129  16.150  0.6144  0.6218 -1.6013
  564TMC3    H2 8425   2.118   0.795  16.240  1.1738  2.0560  1.5054
  564TMC3    C7 8426   2.354   0.903  16.269 -0.0248  0.7049  0.2147
  564TMC3    C8 8427   2.103   0.693  15.999 -0.1364  0.5586  0.4401
  564TMC3    O1 8428   2.445   0.972  16.314 -0.3525  0.3316  0.1812
  564TMC3    O2 8429   2.101   0.622  16.099  0.1258  0.7806 -0.6497
  565TMC3    C1 8430   3.013   3.239  10.193  0.4970 -0.1141  0.1352
  565TMC3    C2 8431   3.027   3.142  10.285  0.1404 -0.1029  0.6142
  565TMC3    C3 8432   2.975   3.022  10.258 -0.0769 -0.2622  0.2540
  565TMC3    C4 8433   2.961   3.215  10.068 -0.2680  0.3974 -0.3907
  565TMC3    C5 8434   2.920   3.085  10.036 -0.4750  0.0372  0.9102
  565TMC3    C6 8435   2.925   2.985  10.135 -0.1093 -0.1668  0.0323
  565TMC3     C 8436   3.075   3.367  10.213 -0.7909  0.3639 -0.0391
  565TMC3     O 8437   3.088   3.443  10.120  0.4467  0.6374 -0.4113
  565TMC3     H 8438   3.074   3.156  10.382  1.7810 -1.6932  0.0246
  565TMC3    H1 8439   2.938   3.294   9.998 -1.0101  0.8484  0.3637
  565TMC3    H2 8440   2.851   2.906  10.142  0.2897 -0.3513  2.1430
  565TMC3    C7 8441   2.825   3.075   9.930 -0.6916 -0.0328 -0.6818
  565TMC3    C8 8442   2.991   2.925  10.360  0.5613 -0.8161 -0.3892
  565TMC3    O1 8443   2.779   3.180   9.888 -0.2765 -0.0710 -0.4819
  565TMC3    O2 8444   3.001   2.959  10.476  0.0652 -0.4203 -0.1375
  566MPD2     C 8445   3.991   3.946  14.296  0.0597  0.3967 -0.0214
  566MPD2    C1 8446   4.082   3.948  14.197  0.2732  0.5772 -0.1164
  566MPD2    C2 8447   4.028   3.904  14.070 -0.7695 -0.4491  0.0262
  566MPD2    C3 8448   3.894   3.865  14.049 -0.4220  0.1541 -0.6496
  566MPD2    C4 8449   3.812   3.855  14.159 -0.4688 -0.1918  0.0350
  566MPD2    C5 8450   3.865   3.891  14.282  0.0070 -0.6022  0.0238
  566MPD2     H 8451   4.094   3.917  13.985 -0.4465 -1.0410  0.1852
  566MPD2    H1 8452   3.713   3.813  14.146  0.1390 -1.7977  0.6609
  566MPD2    H2 8453   4.029   3.968  14.395  0.7670  1.7238 -0.5946
  566MPD2    H3 8454   3.800   3.879  14.368  0.4283 -0.5676  0.3487
  566MPD2     N 8455   3.832   3.826  13.934  0.4742 -0.2212  0.1152
  566MPD2    H5 8456   3.744   3.778  13.948 -0.0242  0.7694  0.4157
  566MPD2    N1 8457   4.207   4.012  14.221 -0.0765  0.0816  0.2664
  566MPD2    H7 8458   4.223   4.030  14.320  0.4671  0.4366  0.1075
  567TMC3    C1 8459   4.412   4.087  14.182  0.0737  0.6560 -0.0103
  567TMC3    C2 8460   4.451   4.199  14.108  0.4668  1.0265 -0.2916
  567TMC3    C3 8461   4.543   4.284  14.164  1.0315  1.3671 -0.5367
  567TMC3    C4 8462   4.471   4.055  14.300 -0.0485 -0.8067 -0.2150
  567TMC3    C5 8463   4.563   4.149  14.351  0.1058 -0.1185 -0.0694
  567TMC3    C6 8464   4.596   4.263  14.288 -0.1903  0.2048 -0.8103
  567TMC3     C 8465   4.300   4.023  14.129 -0.0752  0.7874 -0.9541
  567TMC3     O 8466   4.294   4.015  14.007  0.0776  0.4457  0.0352
  567TMC3     H 8467   4.405   4.220  14.012 -0.8978 -2.0761 -0.3129
  567TMC3    H1 8468   4.443   3.959  14.341  0.3123 -0.2976  1.2187
  567TMC3    H2 8469   4.663   4.332  14.339 -0.8828  0.6684 -0.5320
  567TMC3    C7 8470   4.641   4.119  14.468 -0.7106 -0.3305 -0.1404
  567TMC3    C8 8471   4.589   4.395  14.083 -0.6433 -0.2855  0.8751
  567TMC3    O1 8472   0.012   4.175  14.481  0.2205  0.3346  0.4823
  567TMC3    O2 8473   4.526   4.414  13.985  0.1990  0.4999 -0.5472
  568MPD2     C 8474   1.598   4.024  16.367  0.1250  0.0348 -0.4327
  568MPD2    C1 8475   1.707   4.076  16.433 -0.5446 -0.1767  0.1419
  568MPD2    C2 8476   1.757   4.195  16.375  0.4470 -0.4255 -0.3466
  568MPD2    C3 8477   1.705   4.260  16.263  0.7630 -0.1253  0.5545
  568MPD2    C4 8478   1.595   4.202  16.200  0.3435  0.0545  0.5667
  568MPD2    C5 8479   1.549   4.087  16.256  0.1403  0.3281  0.1507
  568MPD2     H 8480   1.842   4.245  16.419 -1.6707  2.5989  0.2774
  568MPD2    H1 8481   1.544   4.246  16.114 -0.0949  1.1920  1.4071
  568MPD2    H2 8482   1.544   3.938  16.405 -0.8578  0.9488  0.2419
  568MPD2    H3 8483   1.455   4.043  16.224  0.2418  1.8175 -2.1604
  568MPD2     N 8484   1.764   4.382  16.217 -0.4287 -0.3964  0.1645
  568MPD2    H5 8485   1.842   4.423  16.268  1.7009 -1.2022 -2.4393
  568MPD2    N1 8486   1.755   4.009  16.549 -0.3539 -0.5796  0.0174
  568MPD2    H7 8487   1.699   3.933  16.585  0.4790 -2.0090 -1.6833
  569TMC3    C1 8488   1.737   4.590  16.125  0.8809 -0.0328  0.3047
  569TMC3    C2 8489   1.757   4.633  16.252  0.0994  0.1663 -0.1675
  569TMC3    C3 8490   1.830   0.012  16.272 -0.4520 -0.6568  0.0997
  569TMC3    C4 8491   1.768   4.659  16.012  0.5566 -0.3419 -0.2435
  569TMC3    C5 8492   1.828   0.041  16.035  0.4216  0.6562 -0.3842
  569TMC3    C6 8493   1.858   0.089  16.160 -0.3344  0.2969 -0.1922
  569TMC3     C 8494   1.714   4.451  16.105 -0.2471 -0.6297 -0.0129
  569TMC3     O 8495   1.642   4.409  16.013  0.1038  0.0550  0.5043
  569TMC3     H 8496   1.712   4.586  16.338 -2.6101  0.4645 -1.3991
  569TMC3    H1 8497   1.751   4.619  15.912  1.6712 -3.3448  0.7645
  569TMC3    H2 8498   1.924   0.175  16.173 -0.9912  0.6183  1.1140
  569TMC3    C7 8499   1.887   0.097  15.920  0.4704 -0.1763 -0.3092
  569TMC3    C8 8500   1.855   0.051  16.405 -0.0758  0.2482 -0.1600
  569TMC3    O1 8501   1.912   0.025  15.824 -0.1832  0.7400  0.4747
  569TMC3    O2 8502   1.822   4.705  16.489  0.2118 -0.0998  0.4418
  570TMC3    C1 8503   1.325   3.545  16.372 -0.2530  0.2390 -0.6264
  570TMC3    C2 8504   1.426   3.582  16.288 -0.3337 -0.5797 -0.3909
  570TMC3    C3 8505   1.544   3.622  16.356 -0.5818  0.6955 -0.0775
  570TMC3    C4 8506   1.330   3.558  16.507  0.2020 -0.7347  0.0362
  570TMC3    C5 8507   1.437   3.616  16.566 -0.3041 -0.6396  0.0954
  570TMC3    C6 8508   1.548   3.642  16.489  0.2744  1.0017  0.2238
  570TMC3     C 8509   1.240   3.447  16.311  0.2920  0.1174  0.1338
  570TMC3     O 8510   1.278   3.416  16.201  0.5184 -0.5627  0.3133
  570TMC3     H 8511   1.425   3.570  16.180 -2.1008 -1.6225 -0.2580
  570TMC3    H1 8512   1.248   3.527  16.570  0.4513  1.7754  1.6035
  570TMC3    H2 8513   1.636   3.677  16.542  0.3771  2.2170 -0.7434
  570TMC3    C7 8514   1.419   3.697  16.686  0.8021 -0.8597  0.2706
  570TMC3    C8 8515   1.647   3.679  16.276  0.1283 -0.2926 -0.5140
  570TMC3    O1 8516   1.520   3.764  16.709  0.4585  0.4182  0.3509
  570TMC3    O2 8517   1.605   3.715  16.168 -0.1195 -0.2381  0.1908
  571MPD2     C 8518   3.590   0.406  17.689  0.0256  0.2156 -0.6853
  571MPD2    C1 8519   3.567   0.410   0.071 -0.1053  0.2906 -0.3701
  571MPD2    C2 8520   3.658   0.475   0.154 -1.0600 -0.2512  0.0180
  571MPD2    C3 8521   3.758   0.554   0.094 -0.1125 -0.3050 -0.6866
  571MPD2    C4 8522   3.775   0.550  17.709  0.1658 -0.0575  0.6667
  571MPD2    C5 8523   3.692   0.475  17.635 -0.2711 -0.2226 -0.0587
  571MPD2     H 8524   3.649   0.466   0.261  0.3901 -2.5108 -0.0486
  571MPD2    H1 8525   3.854   0.609  17.665 -1.9103  2.2063 -0.0290
  571MPD2    H2 8526   3.528   0.346  17.624  0.2515  0.0532 -0.7536
  571MPD2    H3 8527   3.705   0.463  17.528  3.4060 -0.2939  0.4015
  571MPD2     N 8528   3.845   0.638   0.170  0.5608 -0.8304  0.0991
  571MPD2    H5 8529   3.903   0.701   0.116  2.5790 -1.1066  1.9793
  571MPD2    N1 8530   3.453   0.338   0.120 -0.2088  0.6220  0.4375
  571MPD2    H7 8531   3.418   0.265   0.059 -2.3447  2.1270 -0.1643
  572TMC3    C1 8532   3.959   0.728   0.350 -0.1065 -0.2892 -0.8647
  572TMC3    C2 8533   4.046   0.685   0.449 -1.0825  0.1052 -0.8306
  572TMC3    C3 8534   4.152   0.762   0.485 -0.2217  0.1752  0.0852
  572TMC3    C4 8535   3.980   0.851   0.295  0.3147 -0.4058 -0.4228
  572TMC3    C5 8536   4.076   0.930   0.346  0.4765  0.0793 -0.2643
  572TMC3    C6 8537   4.169   0.890   0.436  0.8004 -0.7837 -0.1742
  572TMC3     C 8538   3.859   0.637   0.306 -0.0522 -0.1140 -0.0530
  572TMC3     O 8539   3.824   0.553   0.387  0.2224 -0.0083 -0.1619
  572TMC3     H 8540   4.054   0.580   0.472 -0.6217  0.2618 -0.2664
  572TMC3    H1 8541   3.902   0.892   0.232 -0.1220 -0.7597 -0.1154
  572TMC3    H2 8542   4.248   0.955   0.472 -0.3569  0.7918 -0.4682
  572TMC3    C7 8543   4.054   1.072   0.329 -0.9119  0.1424 -0.0786
  572TMC3    C8 8544   4.205   0.736   0.618  0.8400  0.0410  0.0977
  572TMC3    O1 8545   3.980   1.102   0.235  0.3198 -0.6084 -0.0627
  572TMC3    O2 8546   4.318   0.690   0.631  0.4356 -0.3370 -0.4500
  573MPD2     C 8547   0.380   1.351   0.734  0.0869 -0.3179 -0.4228
  573MPD2    C1 8548   0.327   1.427   0.634  0.2628 -0.3629  0.1504
  573MPD2    C2 8549   0.278   1.369   0.521  0.0874  0.2046 -0.0660
  573MPD2    C3 8550   0.293   1.238   0.495 -0.6089  0.5132 -0.0942
  573MPD2    C4 8551   0.369   1.162   0.576 -0.4161  0.7247 -0.5265
  573MPD2    C5 8552   0.394   1.217   0.700  0.2491  0.4391 -0.0586
  573MPD2     H 8553   0.220   1.435   0.457  1.3640 -1.0940 -2.5941
  573MPD2    H1 8554   0.388   1.055   0.570  0.9317  0.9796 -0.8117
  573MPD2    H2 8555   0.407   1.384   0.834 -0.9636 -0.2831 -0.1482
  573MPD2    H3 8556   0.440   1.150   0.772 -0.4506 -0.6995 -0.6744
  573MPD2     N 8557   0.231   1.172   0.383 -0.1237 -0.6184  0.0537
  573MPD2    H5 8558   0.244   1.073   0.365 -1.3536 -0.8453  0.3702
  573MPD2    N1 8559   0.298   1.562   0.645  0.1563  0.4283 -0.4485
  573MPD2    H7 8560   0.245   1.602   0.569  0.4182  2.9122  0.6585
  574TMC3    C1 8561   0.086   1.146   0.197  0.3030  0.8880 -0.4758
  574TMC3    C2 8562   0.018   1.202   0.085  0.5653 -0.2410  0.6817
  574TMC3    C3 8563   4.706   1.112  17.741 -0.0239 -0.3423 -0.3284
  574TMC3    C4 8564   0.087   1.010   0.219 -0.4595 -0.0340 -0.8003
  574TMC3    C5 8565   0.040   0.924   0.119 -0.2519  0.5575 -0.8998
  574TMC3    C6 8566   4.719   0.974   0.001  0.4653  0.7974 -0.3206
  574TMC3     C 8567   0.154   1.238   0.293 -0.0037 -0.6714  0.3515
  574TMC3     O 8568   0.115   1.354   0.285  0.0342 -0.4560 -0.1693
  574TMC3     H 8569   0.016   1.309   0.071  0.9151 -0.5445 -1.7882
  574TMC3    H1 8570   0.107   0.971   0.318  0.1759 -0.2435 -1.0082
  574TMC3    H2 8571   4.703   0.903  17.673  1.0281 -0.3688  0.6015
  574TMC3    C7 8572   0.031   0.777   0.140  0.3300 -0.1734  0.4383
  574TMC3    C8 8573   4.603   1.147  17.633  0.4323 -0.2490  0.1811
  574TMC3    O1 8574   4.686   0.722   0.070  0.4208 -0.5466 -0.1974
  574TMC3    O2 8575   4.531   1.047  17.605 -0.5221  0.8243 -0.0549
  575TMC3    C1 8576   2.973   2.591  11.177  0.0957 -0.7134 -0.4254
  575TMC3    C2 8577   2.952   2.462  11.200  0.6716  0.4671 -0.2823
  575TMC3    C3 8578   2.940   2.382  11.089  0.6434  0.1114  0.4057
  575TMC3    C4 8579   2.991   2.642  11.048 -0.0033 -0.3414  0.5839
  575TMC3    C5 8580   2.991   2.555  10.940 -0.0784 -0.7384  0.5082
  575TMC3    C6 8581   2.965   2.425  10.966 -0.5976  0.4546 -0.1226
  575TMC3     C 8582   2.957   2.684  11.284  0.1416  0.3978  0.0628
  575TMC3     O 8583   3.031   2.781  11.281  0.4267 -0.3478 -0.0845
  575TMC3     H 8584   2.935   2.427  11.301  0.0734  1.5396 -0.0143
  575TMC3    H1 8585   3.013   2.746  11.028  0.6703 -0.4533  0.7383
  575TMC3    H2 8586   2.957   2.342  10.896  0.2888 -1.1964  1.7390
  575TMC3    C7 8587   3.012   2.609  10.807  0.3621  0.0441  0.3612
  575TMC3    C8 8588   2.862   2.260  11.108 -0.0216  1.1901  0.2787
  575TMC3    O1 8589   3.012   2.732  10.799  0.3103 -0.2664  0.2424
  575TMC3    O2 8590   2.786   2.264  11.204 -0.4133 -0.2746  0.2782
  576MPD2     C 8591   2.177   4.015  12.734  0.1302  0.0043 -0.0533
  576MPD2    C1 8592   2.185   4.105  12.635 -0.2971 -0.3948  0.0401
  576MPD2    C2 8593   2.140   4.234  12.655  0.0278  0.1842  0.3316
  576MPD2    C3 8594   2.078   4.272  12.772 -0.2568 -0.0808 -0.2573
  576MPD2    C4 8595   2.070   4.178  12.871 -0.3084  0.1542 -0.1898
  576MPD2    C5 8596   2.110   4.048  12.850  0.4131  0.3980 -0.3795
  576MPD2     H 8597   2.155   4.302  12.572  0.7478 -1.3031 -0.7688
  576MPD2    H1 8598   2.040   4.196  12.973  2.6921  1.0088  0.5597
  576MPD2    H2 8599   2.205   3.912  12.715 -0.8393 -0.0013 -1.4678
  576MPD2    H3 8600   2.100   3.966  12.920  1.9240 -0.1637 -0.8200
  576MPD2     N 8601   2.029   4.405  12.796  0.4402  0.3836  0.6835
  576MPD2    H5 8602   2.060   4.477  12.731  2.5322 -1.8567 -0.7717
  576MPD2    N1 8603   2.254   4.081  12.517 -0.3957  0.5196 -0.4155
  576MPD2    H7 8604   2.257   4.161  12.454 -2.5155  0.7825 -0.1876
  577TMC3    C1 8605   2.395   3.984  12.364  0.1339  0.4598  0.5893
  577TMC3    C2 8606   2.501   3.899  12.331 -0.9920  0.1366 -0.4142
  577TMC3    C3 8607   2.560   3.916  12.211  0.4160  0.4819  0.7614
  577TMC3    C4 8608   2.361   4.083  12.272 -0.0978  0.1716 -0.1665
  577TMC3    C5 8609   2.429   4.104  12.156 -0.7139  0.5092  0.0548
  577TMC3    C6 8610   2.523   4.011  12.120  0.2912 -0.0280 -0.5053
  577TMC3     C 8611   2.325   3.970  12.490  0.3912 -0.0992 -0.5397
  577TMC3     O 8612   2.359   3.876  12.560  0.2537  0.3852  0.0655
  577TMC3     H 8613   2.527   3.819  12.401 -0.3388  2.3289  1.8465
  577TMC3    H1 8614   2.275   4.147  12.283  0.0558  0.4309 -0.4742
  577TMC3    H2 8615   2.591   4.039  12.040  2.2718  0.1408  1.2238
  577TMC3    C7 8616   2.420   4.243  12.105  0.7755 -0.4215  0.0608
  577TMC3    C8 8617   2.676   3.834  12.188 -0.3653  0.2699 -0.2009
  577TMC3    O1 8618   2.384   4.331  12.182  0.7313 -0.1605 -0.0326
  577TMC3    O2 8619   2.698   3.759  12.281  0.3761 -0.4174  0.0126
  578MPD2     C 8620   1.396   3.758   1.328 -0.0138  0.0346  0.0957
  578MPD2    C1 8621   1.435   3.676   1.225  0.2250  0.2157 -0.1605
  578MPD2    C2 8622   1.478   3.552   1.255  0.4777 -0.2311 -0.1427
  578MPD2    C3 8623   1.493   3.514   1.386 -0.0739  0.1778 -0.0988
  578MPD2    C4 8624   1.466   3.601   1.486  0.1133 -0.1270 -0.2300
  578MPD2    C5 8625   1.417   3.724   1.460 -0.4731 -0.1148 -0.0414
  578MPD2     H 8626   1.498   3.481   1.176 -0.2997  0.3431 -0.8665
  578MPD2    H1 8627   1.482   3.577   1.591 -0.4560 -0.8326 -0.3081
  578MPD2    H2 8628   1.362   3.859   1.308 -1.1845 -0.5988 -1.0763
  578MPD2    H3 8629   1.406   3.801   1.536 -0.9477 -0.6756  0.4470
  578MPD2     N 8630   1.538   3.379   1.405  0.6826 -0.0044 -0.2039
  578MPD2    H5 8631   1.562   3.331   1.319 -0.7440  1.2123 -1.2752
  578MPD2    N1 8632   1.401   3.717   1.093  0.5522  1.1506 -0.6069
  578MPD2    H7 8633   1.337   3.792   1.071  0.0601  1.0349  0.4132
  579TMC3    C1 8634   1.645   3.195   1.511 -0.3015  0.3044  0.1254
  579TMC3    C2 8635   1.759   3.176   1.581 -0.0332  0.3821  0.2184
  579TMC3    C3 8636   1.841   3.076   1.540 -0.3172  0.2763 -0.0007
  579TMC3    C4 8637   1.611   3.122   1.401 -0.1034 -0.1057  0.5020
  579TMC3    C5 8638   1.690   3.019   1.365 -0.6411 -0.0395  0.3405
  579TMC3    C6 8639   1.811   2.990   1.433 -0.5672  0.0890  0.0145
  579TMC3     C 8640   1.575   3.318   1.530  0.1013  0.6662  0.1488
  579TMC3     O 8641   1.576   3.361   1.640 -0.3697  0.3375 -0.5359
  579TMC3     H 8642   1.775   3.233   1.673  2.3936  0.7826 -0.4431
  579TMC3    H1 8643   1.508   3.139   1.368  0.0865 -0.9950 -0.5523
  579TMC3    H2 8644   1.892   2.927   1.397 -2.4612 -1.6343 -1.2473
  579TMC3    C7 8645   1.660   2.934   1.246  1.1474  0.3113 -0.6431
  579TMC3    C8 8646   1.977   3.118   1.531  0.0193  0.4077 -0.0081
  579TMC3    O1 8647   1.737   2.842   1.226  0.4405  0.2106  0.2852
  579TMC3    O2 8648   2.040   3.094   1.427 -0.3250  0.1301 -0.2939
  580TMC3    C1 8649   0.239   2.701  11.787  0.8815 -0.4411  0.1629
  580TMC3    C2 8650   0.330   2.625  11.719 -0.5719  0.9125 -0.4944
  580TMC3    C3 8651   0.305   2.495  11.699 -0.4233 -0.4869  0.7222
  580TMC3    C4 8652   0.129   2.649  11.845  0.4515 -0.1592 -0.0500
  580TMC3    C5 8653   0.108   2.510  11.833 -0.7904  0.4878 -0.1574
  580TMC3    C6 8654   0.193   2.434  11.753 -0.0211 -0.4696  0.1758
  580TMC3     C 8655   0.275   2.837  11.820  0.0565  0.1755 -0.0481
  580TMC3     O 8656   0.390   2.871  11.810  0.1948 -0.0153 -0.1910
  580TMC3     H 8657   0.428   2.666  11.703  0.1181 -0.1789  0.9332
  580TMC3    H1 8658   0.071   2.687  11.928  0.0281  1.3286 -1.0276
  580TMC3    H2 8659   0.167   2.330  11.734 -0.6919  0.1020 -2.0040
  580TMC3    C7 8660   0.076   2.445  11.965  0.2069  0.2378  0.4179
  580TMC3    C8 8661   0.386   2.426  11.604 -0.2675  0.1180 -0.3802
  580TMC3    O1 8662   0.126   2.497  12.068  0.6943  0.0024  0.1311
  580TMC3    O2 8663   0.378   2.305  11.605 -0.2724 -0.5853  0.5556
  581MPD2     C 8664   3.294   2.189  15.120 -0.0855  0.5239  0.1345
  581MPD2    C1 8665   3.160   2.207  15.142 -0.1562  0.1532  1.1264
  581MPD2    C2 8666   3.084   2.263  15.040 -0.6719  0.3245 -0.4475
  581MPD2    C3 8667   3.147   2.296  14.920 -0.8189  0.0492  0.8355
  581MPD2    C4 8668   3.278   2.272  14.896  0.1284 -0.7226  0.4214
  581MPD2    C5 8669   3.349   2.214  14.997 -0.1421 -0.5841  0.2849
  581MPD2     H 8670   2.983   2.294  15.064 -1.1047 -0.6128 -1.0397
  581MPD2    H1 8671   3.335   2.307  14.810 -1.1215  0.3256  0.0293
  581MPD2    H2 8672   3.351   2.147  15.201  1.2853  0.5781 -0.8056
  581MPD2    H3 8673   3.454   2.199  14.973 -0.0863 -0.9976  0.7890
  581MPD2     N 8674   3.063   2.378  14.834  0.1927 -0.7358  0.2861
  581MPD2    H5 8675   2.968   2.394  14.866 -0.1810 -2.5950  0.1462
  581MPD2    N1 8676   3.097   2.173  15.263 -0.5538 -0.1284 -0.6456
  581MPD2    H7 8677   2.999   2.193  15.279 -0.4508 -0.8146  0.8677
  582TMC3    C1 8678   3.071   2.126  15.485  0.2369 -0.0927 -0.2428
  582TMC3    C2 8679   3.100   2.216  15.585 -0.6311  0.3781 -0.4178
  582TMC3    C3 8680   2.998   2.265  15.661 -0.3054  0.6166 -0.3549
  582TMC3    C4 8681   2.943   2.088  15.456 -0.4394 -0.8233  0.2076
  582TMC3    C5 8682   2.838   2.153  15.518 -0.2123  0.3462  0.5709
  582TMC3    C6 8683   2.868   2.242  15.621 -0.2382  0.9077 -0.2139
  582TMC3     C 8684   3.160   2.131  15.375 -0.2300  0.3147  0.2969
  582TMC3     O 8685   3.274   2.099  15.397 -0.1379  0.4016  0.4098
  582TMC3     H 8686   3.200   2.255  15.600 -0.9037  0.0909  2.1758
  582TMC3    H1 8687   2.926   2.013  15.379 -0.7336 -1.6270  1.0615
  582TMC3    H2 8688   2.788   2.290  15.676 -1.4528 -1.2800 -0.0823
  582TMC3    C7 8689   2.745   2.197  15.424  0.1140  0.4576  0.2083
  582TMC3    C8 8690   3.012   2.364  15.765  0.1496 -0.9745  0.3436
  582TMC3    O1 8691   2.714   2.118  15.336  0.3364  0.0674  0.3205
  582TMC3    O2 8692   2.922   2.378  15.851  0.6339 -0.5793 -0.3012
  583MPD2     C 8693   2.884   4.220  16.450 -0.2766 -0.2283 -0.8101
  583MPD2    C1 8694   2.931   4.330  16.382 -0.2107 -0.9064 -0.3992
  583MPD2    C2 8695   2.901   4.458  16.423 -0.2927 -0.4392  0.1994
  583MPD2    C3 8696   2.854   4.477  16.551  0.2630  0.3882 -0.0257
  583MPD2    C4 8697   2.811   4.369  16.622 -0.0016 -0.3087  0.1727
  583MPD2    C5 8698   2.825   4.246  16.575 -1.0984  0.0799 -0.5089
  583MPD2     H 8699   2.920   4.540  16.354 -0.6842  0.5529  1.2754
  583MPD2    H1 8700   2.793   4.362  16.729  2.1101 -0.9804  0.4782
  583MPD2    H2 8701   2.883   4.117  16.416  1.2399 -0.5586  0.1323
  583MPD2    H3 8702   2.790   4.161  16.633  2.4586 -0.3006  1.0889
  583MPD2     N 8703   2.845   4.602  16.606 -0.5700 -0.5333 -0.3209
  583MPD2    H5 8704   2.875   4.679  16.547  2.4496 -0.9490  0.6627
  583MPD2    N1 8705   3.001   4.314  16.261  0.3154 -0.0726 -0.2986
  583MPD2    H7 8706   3.015   4.393  16.199 -0.4797 -0.3925 -0.8837
  584TMC3    C1 8707   2.809   0.040  16.756  0.6469 -0.2749  0.2715
  584TMC3    C2 8708   2.889   0.131  16.688  0.2192  0.5084 -0.0872
  584TMC3    C3 8709   2.931   0.249  16.747 -0.0095 -0.6530  0.4838
  584TMC3    C4 8710   2.759   0.087  16.877  0.0180 -0.5249  0.1333
  584TMC3    C5 8711   2.796   0.209  16.930  0.2644 -0.1809 -0.1021
  584TMC3    C6 8712   2.882   0.289  16.868 -0.0696 -0.0484 -0.6740
  584TMC3     C 8713   2.812   4.637  16.733 -0.8215 -0.5947  0.2288
  584TMC3     O 8714   2.788   4.569  16.835 -0.1635 -0.1838  0.2887
  584TMC3     H 8715   2.967   0.092  16.622  0.8210  3.3055 -1.0302
  584TMC3    H1 8716   2.697   0.016  16.929 -2.3787  1.3088 -0.2223
  584TMC3    H2 8717   2.914   0.386  16.903  2.7631 -0.5433 -1.9028
  584TMC3    C7 8718   2.747   0.247  17.062 -0.0373 -0.3121 -0.5679
  584TMC3    C8 8719   3.015   0.338  16.665  0.2246  0.5742 -0.5410
  584TMC3    O1 8720   2.671   0.163  17.115 -0.7549 -0.0337  0.0290
  584TMC3    O2 8721   3.007   0.315  16.546 -0.3835  0.3365 -0.1444
  585MPD2     C 8722   2.602   3.119   0.315  0.5660 -0.1139  0.0922
  585MPD2    C1 8723   2.648   3.210   0.218 -0.5867  0.1626  0.2781
  585MPD2    C2 8724   2.675   3.163   0.090  0.4108 -0.3497 -0.6305
  585MPD2    C3 8725   2.639   3.035   0.058 -0.1675 -0.3082  1.1721
  585MPD2    C4 8726   2.596   2.945   0.155 -0.5666 -0.0799  0.4537
  585MPD2    C5 8727   2.596   2.990   0.285  0.2196 -0.1890 -0.0459
  585MPD2     H 8728   2.706   3.233   0.013  1.9952  0.2116  0.5015
  585MPD2    H1 8729   2.567   2.842   0.136 -1.0341  0.0763  0.3413
  585MPD2    H2 8730   2.583   3.158   0.414  2.8106 -0.4956  0.6624
  585MPD2    H3 8731   2.570   2.917   0.361  2.6494 -2.3372 -1.2470
  585MPD2     N 8732   2.613   3.000  17.670 -0.5361  0.6293 -0.5029
  585MPD2    H5 8733   2.570   2.909  17.655 -0.0502  0.6677 -2.1132
  585MPD2    N1 8734   2.644   3.348   0.244 -0.5922  0.2564 -0.0586
  585MPD2    H7 8735   2.611   3.375   0.336 -1.0572 -1.3883  0.2561
  586TMC3    C1 8736   2.585   3.030  17.436  0.1794 -1.1716  0.4951
  586TMC3    C2 8737   2.661   3.036  17.322 -0.2890  0.6268 -0.0834
  586TMC3    C3 8738   2.593   2.997  17.208 -0.1669 -0.2355 -0.3598
  586TMC3    C4 8739   2.455   3.008  17.433 -0.1735  0.1564 -0.0473
  586TMC3    C5 8740   2.399   2.992  17.314  0.1502 -0.0556  0.0753
  586TMC3    C6 8741   2.465   2.969  17.198 -0.1930 -1.1123  0.3095
  586TMC3     C 8742   2.646   3.077  17.556  0.1298  0.4624  0.3744
  586TMC3     O 8743   2.721   3.169  17.547 -0.5982  0.3217  0.0327
  586TMC3     H 8744   2.767   3.054  17.332 -0.2104  0.2029 -0.1296
  586TMC3    H1 8745   2.389   3.003  17.518  1.4455 -0.9637  1.1371
  586TMC3    H2 8746   2.404   2.952  17.110 -0.8863  0.6271  0.4577
  586TMC3    C7 8747   2.251   2.997  17.303  0.5287  0.4748 -0.3612
  586TMC3    C8 8748   2.665   2.953  17.103  0.0111  0.2596 -0.3019
  586TMC3    O1 8749   2.191   2.907  17.252 -0.1423 -0.7236 -0.0640
  586TMC3    O2 8750   2.615   2.862  17.044  0.2020  0.1385 -0.2679
  587TMC3    C1 8751   0.118   1.900  16.246 -0.6706  0.1305 -0.1827
  587TMC3    C2 8752   0.119   2.013  16.316  0.9961  0.0259  0.2967
  587TMC3    C3 8753   0.239   2.075  16.334 -0.5209 -0.0215 -0.5091
  587TMC3    C4 8754   0.230   1.865  16.178 -0.4701 -0.2514 -0.2880
  587TMC3    C5 8755   0.352   1.925  16.208  0.0581 -0.0755 -0.2428
  587TMC3    C6 8756   0.358   2.034  16.284 -0.2965 -0.0653 -0.1993
  587TMC3     C 8757   0.003   1.845  16.180  0.3471 -0.0649  0.5637
  587TMC3     O 8758   0.011   1.726  16.160  0.3128 -0.0646  0.1001
  587TMC3     H 8759   0.024   2.046  16.356  0.6513 -0.4597 -0.1321
  587TMC3    H1 8760   0.229   1.779  16.112 -2.5860  0.7922 -1.6428
  587TMC3    H2 8761   0.454   2.080  16.304 -0.7145  0.4254  0.6782
  587TMC3    C7 8762   0.472   1.848  16.185  0.2616 -0.0058 -0.3378
  587TMC3    C8 8763   0.254   2.180  16.433  0.2677 -0.7500 -0.0618
  587TMC3    O1 8764   0.450   1.730  16.193 -0.0585  0.1808  0.0746
  587TMC3    O2 8765   0.367   2.200  16.474  0.3263 -0.1034 -0.3044
  588TMC3    C1 8766   2.240   0.773   9.644 -0.6123  0.5442 -0.4712
  588TMC3    C2 8767   2.205   0.651   9.596  0.1522 -0.2241  0.7714
  588TMC3    C3 8768   2.302   0.559   9.604 -0.5031 -0.1167  0.4236
  588TMC3    C4 8769   2.359   0.802   9.709  0.1426 -0.6664  0.2037
  588TMC3    C5 8770   2.452   0.703   9.707 -0.0474  0.1525 -0.7796
  588TMC3    C6 8771   2.428   0.578   9.659  0.0002 -0.2570  0.3128
  588TMC3     C 8772   2.136   0.864   9.676 -0.3673  0.2983 -0.5444
  588TMC3     O 8773   2.031   0.841   9.617  0.4960  0.0888 -0.0371
  588TMC3     H 8774   2.104   0.627   9.566  1.2653 -0.3427 -2.8225
  588TMC3    H1 8775   2.394   0.897   9.749 -1.0636  0.6690 -1.8998
  588TMC3    H2 8776   2.514   0.512   9.658  1.7671  1.9965  2.6832
  588TMC3    C7 8777   2.577   0.729   9.781 -0.1571 -0.0007 -0.1366
  588TMC3    C8 8778   2.260   0.425   9.551  0.1465 -0.3500  0.5422
  588TMC3    O1 8779   2.678   0.702   9.719  0.8397 -0.1473  0.2172
  588TMC3    O2 8780   2.169   0.416   9.468  0.3312 -0.2704  0.1525
  589TMC3    C1 8781   1.370   1.974   0.988  0.4389  0.1902  0.2608
  589TMC3    C2 8782   1.469   2.053   1.046  0.3739  0.4543 -0.1287
  589TMC3    C3 8783   1.595   2.019   1.015 -0.3210 -0.4121  0.6800
  589TMC3    C4 8784   1.395   1.868   0.899 -0.2969 -0.1159 -0.4282
  589TMC3    C5 8785   1.524   1.833   0.884  0.2024 -0.5902  0.1618
  589TMC3    C6 8786   1.622   1.903   0.947  0.3717 -0.0233 -0.0579
  589TMC3     C 8787   1.233   2.024   0.993  0.5391  0.2254 -0.7835
  589TMC3     O 8788   1.164   1.994   0.900 -0.3982 -0.6816  0.4317
  589TMC3     H 8789   1.458   2.147   1.099 -0.7691 -0.0895  0.5841
  589TMC3    H1 8790   1.324   1.814   0.838 -0.3027  1.2680 -1.6507
  589TMC3    H2 8791   1.721   1.858   0.939  0.2112 -0.6099  1.2004
  589TMC3    C7 8792   1.548   1.711   0.807  0.1709  0.3232 -0.6223
  589TMC3    C8 8793   1.702   2.093   1.073  0.4041 -0.0436 -0.4491
  589TMC3    O1 8794   1.466   1.622   0.808  0.0154 -0.1058 -0.3179
  589TMC3    O2 8795   1.671   2.164   1.168 -0.0166  0.1643 -0.1732
  590MPD2     C 8796   1.128   0.724  16.777  0.7532  0.2529  0.2397
  590MPD2    C1 8797   1.049   0.703  16.665  0.0931  0.1093  0.4036
  590MPD2    C2 8798   1.111   0.719  16.539 -0.4813  0.1461 -0.2779
  590MPD2    C3 8799   1.246   0.744  16.525 -0.0313 -0.7278  0.2316
  590MPD2    C4 8800   1.318   0.762  16.635  0.3109  0.3926 -0.4244
  590MPD2    C5 8801   1.269   0.751  16.763 -0.0343  0.0032  0.0915
  590MPD2     H 8802   1.058   0.725  16.445  0.4483  3.1668 -0.6164
  590MPD2    H1 8803   1.426   0.772  16.626  0.3976 -0.1428  0.0526
  590MPD2    H2 8804   1.081   0.708  16.873  0.1314 -0.3603 -0.1694
  590MPD2    H3 8805   1.327   0.752  16.854  1.2653  1.3349 -0.7395
  590MPD2     N 8806   1.292   0.755  16.392 -1.0471  0.1817 -0.9633
  590MPD2    H5 8807   1.226   0.731  16.319  0.2989 -1.4029 -1.6559
  590MPD2    N1 8808   0.912   0.686  16.678  0.3610 -0.1727 -0.2289
  590MPD2    H7 8809   0.883   0.690  16.776 -0.7589  0.7080 -0.5921
  591TMC3    C1 8810   1.422   0.816  16.211  0.4841 -0.2189  0.0937
  591TMC3    C2 8811   1.547   0.806  16.155 -0.4760 -0.1709  0.4439
  591TMC3    C3 8812   1.565   0.857  16.026  0.9346  0.1219  0.0270
  591TMC3    C4 8813   1.320   0.889  16.155 -0.3861  0.5667 -0.4794
  591TMC3    C5 8814   1.342   0.926  16.027  0.3835 -0.3986  0.2633
  591TMC3    C6 8815   1.459   0.915  15.956  0.5771  0.1112 -0.2756
  591TMC3     C 8816   1.421   0.789  16.347  0.4524 -0.3958 -0.6985
  591TMC3     O 8817   1.528   0.784  16.409 -0.4278  0.2737  0.4482
  591TMC3     H 8818   1.631   0.753  16.199 -0.8210  0.1904  1.5295
  591TMC3    H1 8819   1.231   0.911  16.212 -0.7957 -1.1046 -0.4516
  591TMC3    H2 8820   1.477   0.955  15.857  0.9525  2.2778  0.6685
  591TMC3    C7 8821   1.228   0.995  15.964 -0.6841  0.0611 -0.4725
  591TMC3    C8 8822   1.683   0.810  15.948  0.2894 -0.2647  0.1096
  591TMC3    O1 8823   1.113   0.957  15.989 -0.0041 -0.0094  0.6905
  591TMC3    O2 8824   1.731   0.702  15.974 -0.4136 -0.0607  0.3297
  592MPD2     C 8825   1.317   2.861  11.806 -0.2791  0.8812  1.4652
  592MPD2    C1 8826   1.364   2.862  11.931  1.0295 -0.2494  0.5055
  592MPD2    C2 8827   1.305   2.776  12.027  0.4856  0.1960 -0.5071
  592MPD2    C3 8828   1.201   2.690  11.982  0.4962 -0.3930 -0.1998
  592MPD2    C4 8829   1.149   2.701  11.858  0.0382 -0.1055 -0.2709
  592MPD2    C5 8830   1.204   2.792  11.770  0.1705 -0.3500 -0.3897
  592MPD2     H 8831   1.334   2.779  12.132  1.2728 -1.3817 -0.6915
  592MPD2    H1 8832   1.068   2.637  11.824  1.4178 -1.4025 -1.1185
  592MPD2    H2 8833   1.371   2.907  11.724  1.6708 -2.5911  0.7984
  592MPD2    H3 8834   1.165   2.796  11.669 -3.9520 -0.4586  1.1994
  592MPD2     N 8835   1.158   2.594  12.072 -0.2044  0.6618 -0.0236
  592MPD2    H5 8836   1.187   2.608  12.169  0.6293  2.0815 -0.4822
  592MPD2    N1 8837   1.485   2.935  11.967  0.2647 -0.2679 -0.6727
  592MPD2    H7 8838   1.520   3.004  11.901 -0.2757  0.6486 -0.0182
  593TMC3    C1 8839   1.659   3.034  12.083  0.1677  0.1302 -0.3500
  593TMC3    C2 8840   1.697   3.093  12.204  0.5742  0.3861 -0.3810
  593TMC3    C3 8841   1.810   3.175  12.209 -0.0337  0.1446  0.5649
  593TMC3    C4 8842   1.732   3.058  11.970 -0.1769  0.0114 -0.4448
  593TMC3    C5 8843   1.843   3.141  11.980 -0.2284 -0.8364  0.3440
  593TMC3    C6 8844   1.881   3.200  12.092 -0.6283  0.3954  0.7889
  593TMC3     C 8845   1.550   2.938  12.090  0.4347 -0.4281  0.8332
  593TMC3     O 8846   1.526   2.891  12.200 -0.0622  0.4141  0.3218
  593TMC3     H 8847   1.626   3.073  12.283 -0.0821 -2.6975 -1.7498
  593TMC3    H1 8848   1.707   3.024  11.870 -0.2137  3.4162 -1.5990
  593TMC3    H2 8849   1.965   3.268  12.088 -1.6121  1.6434  1.6124
  593TMC3    C7 8850   1.934   3.153  11.871 -0.4982 -0.0855 -0.6215
  593TMC3    C8 8851   1.819   3.263  12.319  0.6388  0.3513  0.3936
  593TMC3    O1 8852   1.896   3.161  11.756  0.1611 -0.4575  0.0493
  593TMC3    O2 8853   1.728   3.273  12.401  0.9438  0.1440  0.0522
  594MPD2     C 8854   4.628   1.285  13.639  0.4648 -0.1583  0.1728
  594MPD2    C1 8855   4.652   1.252  13.767 -0.0097  0.0961  0.4286
  594MPD2    C2 8856   0.039   1.286  13.817 -0.2178 -0.1600  0.1120
  594MPD2    C3 8857   0.135   1.355  13.751 -0.4066  0.7701 -0.2122
  594MPD2    C4 8858   0.106   1.397  13.622 -1.0134 -0.0177  0.0756
  594MPD2    C5 8859   4.727   1.355  13.567 -0.0914  1.1704  0.4851
  594MPD2     H 8860   0.055   1.273  13.924  1.9544  0.2699 -0.1561
  594MPD2    H1 8861   0.178   1.461  13.572 -1.6045  0.6689  0.0946
  594MPD2    H2 8862   4.548   1.243  13.579 -0.5367 -0.7051  1.8915
  594MPD2    H3 8863   4.699   1.378  13.465 -3.5422 -1.6954  0.8124
  594MPD2     N 8864   0.238   1.407  13.830  0.1253 -0.3379 -0.1449
  594MPD2    H5 8865   0.261   1.353  13.913 -1.9835 -1.6321 -0.4117
  594MPD2    N1 8866   4.559   1.168  13.831  0.8306  0.2600 -0.2181
  594MPD2    H7 8867   4.473   1.150  13.779  1.0049 -0.4294 -0.2567
  595TMC3    C1 8868   0.600   1.628  13.985  0.1974 -0.8999 -0.1847
  595TMC3    C2 8869   0.549   1.560  13.886  1.0938 -0.6948  0.0623
  595TMC3    C3 8870   0.413   1.543  13.889  0.8159 -0.4269  0.7094
  595TMC3    C4 8871   0.523   1.663  14.093 -0.3675 -0.0027 -0.3525
  595TMC3    C5 8872   0.395   1.624  14.102 -0.2781 -0.0550  0.8984
  595TMC3    C6 8873   0.334   1.577  13.990 -0.4198  0.1250 -0.6271
  595TMC3     C 8874   0.734   1.689  13.978  0.0791  0.4759  0.0646
  595TMC3     O 8875   0.758   1.774  14.067 -0.2356  0.3513  0.0337
  595TMC3     H 8876   0.609   1.525  13.803  1.9818  0.7466  0.0951
  595TMC3    H1 8877   0.568   1.710  14.179 -0.5279 -0.4901  0.0008
  595TMC3    H2 8878   0.226   1.571  13.982 -0.8114  3.0846  2.0982
  595TMC3    C7 8879   0.318   1.655  14.227 -0.1211 -0.1116 -0.2583
  595TMC3    C8 8880   0.347   1.476  13.778  0.0096  0.4987  0.4239
  595TMC3    O1 8881   0.199   1.624  14.230  0.3307  0.3841  0.0810
  595TMC3    O2 8882   0.379   1.498  13.662 -0.1550  0.2750  0.6148
  596MPD2     C 8883   3.572   4.201  16.665  0.7005  0.0288 -0.9279
  596MPD2    C1 8884   3.636   4.294  16.582 -0.3920 -0.7737  0.3403
  596MPD2    C2 8885   3.709   4.244  16.478  0.0964  0.5758  0.0422
  596MPD2    C3 8886   3.706   4.108  16.437 -0.7631 -0.4805 -0.0086
  596MPD2    C4 8887   3.627   4.025  16.515  0.4297 -0.0944 -0.9773
  596MPD2    C5 8888   3.576   4.068  16.632 -0.2803 -0.6351  0.3573
  596MPD2     H 8889   3.753   4.323  16.420  1.3331 -1.1676 -1.4018
  596MPD2    H1 8890   3.619   3.917  16.504 -0.3162 -0.2354  0.8545
  596MPD2    H2 8891   3.529   4.225  16.763  0.2774  1.7332 -1.5226
  596MPD2    H3 8892   3.548   3.990  16.702 -0.9720  0.6877  1.5547
  596MPD2     N 8893   3.752   4.052  16.320 -0.6172  0.0559 -0.0004
  596MPD2    H5 8894   3.745   3.951  16.320 -1.7620  0.1386 -0.5243
  596MPD2    N1 8895   3.620   4.435  16.601 -0.1563  0.1067  0.6176
  596MPD2    H7 8896   3.686   4.489  16.547 -0.5727 -1.0637 -1.0717
  597TMC3    C1 8897   3.581   4.643  16.704  0.8216  0.7092  0.0848
  597TMC3    C2 8898   3.664   4.715  16.623 -0.0368 -0.9705  0.2486
  597TMC3    C3 8899   3.691   0.112  16.641 -0.1373  0.6524  0.4224
  597TMC3    C4 8900   3.523   4.713  16.810  0.3717  0.0883 -0.5458
  597TMC3    C5 8901   3.549   0.110  16.823  0.1874  0.0420  0.8637
  597TMC3    C6 8902   3.627   0.182  16.743 -0.4552 -0.3147  0.6946
  597TMC3     C 8903   3.569   4.499  16.710 -0.4892 -0.2245  0.1578
  597TMC3     O 8904   3.499   4.454  16.798 -0.0087 -0.6269  0.0581
  597TMC3     H 8905   3.702   4.666  16.534 -2.9375 -1.1587 -0.8766
  597TMC3    H1 8906   3.460   4.664  16.883 -0.9787  1.1491 -0.9904
  597TMC3    H2 8907   3.642   0.287  16.765 -0.8332  0.0582 -0.8031
  597TMC3    C7 8908   3.481   0.182  16.930 -1.0745  0.1099  0.7300
  597TMC3    C8 8909   3.768   0.180  16.540 -0.4512 -0.4332 -0.5677
  597TMC3    O1 8910   3.386   0.127  16.984  0.0127 -0.5022  0.5377
  597TMC3    O2 8911   3.845   0.099  16.485  0.0811  0.0277 -0.2802
  598TMC3    C1 8912   2.127   0.968  15.026  0.2241  0.2183 -0.0671
  598TMC3    C2 8913   2.027   0.873  15.019 -0.8646 -0.0617 -0.2991
  598TMC3    C3 8914   1.935   0.891  14.912 -0.0190 -0.3042  0.4711
  598TMC3    C4 8915   2.135   1.075  14.943 -0.4041 -0.0767 -0.0456
  598TMC3    C5 8916   2.046   1.073  14.831  0.6209  0.3913  0.5977
  598TMC3    C6 8917   1.946   0.982  14.814 -0.1916  0.3618  0.5681
  598TMC3     C 8918   2.241   0.941  15.117 -0.3339  0.4304 -0.0740
  598TMC3     O 8919   2.219   0.870  15.215  0.0831 -0.3043 -0.4932
  598TMC3     H 8920   2.015   0.801  15.100  0.3463 -1.9081 -1.7586
  598TMC3    H1 8921   2.218   1.145  14.948 -1.7328  1.3549  2.0795
  598TMC3    H2 8922   1.878   0.988  14.730 -0.2484 -1.6422  0.4699
  598TMC3    C7 8923   2.075   1.149  14.708 -0.3036 -0.0656 -0.7151
  598TMC3    C8 8924   1.840   0.785  14.884 -0.1608 -0.5377  0.1470
  598TMC3    O1 8925   2.016   1.120  14.603 -0.4139 -0.2816 -0.2130
  598TMC3    O2 8926   1.787   0.772  14.775  0.3187  0.1179 -0.4772
  599MPD2     C 8927   1.860   2.924  15.491 -0.3234  0.0894 -0.7324
  599MPD2    C1 8928   1.924   2.861  15.606 -0.5501  0.4206 -0.3304
  599MPD2    C2 8929   1.852   2.869  15.730 -0.3570 -0.2703 -0.7581
  599MPD2    C3 8930   1.723   2.928  15.732  0.0274  0.2024 -0.2098
  599MPD2    C4 8931   1.668   2.980  15.612 -1.1839  0.1354  0.3798
  599MPD2    C5 8932   1.739   2.983  15.502  0.0116  0.5901  0.0318
  599MPD2     H 8933   1.894   2.816  15.815  0.1368  0.0864 -0.7842
  599MPD2    H1 8934   1.561   2.997  15.612 -0.8894  2.1122 -2.4472
  599MPD2    H2 8935   1.906   2.926  15.393 -1.8810 -1.2101 -1.4873
  599MPD2    H3 8936   1.716   3.043  15.416 -0.2567 -0.7731 -0.8519
  599MPD2     N 8937   1.644   2.952  15.850  0.7633  0.2612  0.1520
  599MPD2    H5 8938   1.554   2.998  15.843  0.4469 -0.3577  0.1890
  599MPD2    N1 8939   2.045   2.794  15.591 -0.4400 -0.4247  0.2934
  599MPD2    H7 8940   2.093   2.806  15.502  1.1766 -1.7918  0.9821
  600TMC3    C1 8941   1.599   2.993  16.068  0.4847  0.7213 -0.1248
  600TMC3    C2 8942   1.464   2.972  16.066 -0.4830  0.7788  0.1528
  600TMC3    C3 8943   1.388   3.020  16.173 -0.7395 -0.0221  0.3391
  600TMC3    C4 8944   1.659   3.067  16.163  0.2780  0.5347  0.4383
  600TMC3    C5 8945   1.573   3.135  16.255  0.0456  0.5811  0.1458
  600TMC3    C6 8946   1.442   3.103  16.263  0.2534  0.3579  0.7763
  600TMC3     C 8947   1.684   2.929  15.975  0.6965 -0.3671  0.3377
  600TMC3     O 8948   1.792   2.893  16.014  0.1971  0.6201  0.4384
  600TMC3     H 8949   1.422   2.903  15.994  2.4665 -0.3601 -0.5067
  600TMC3    H1 8950   1.766   3.086  16.164  0.3785 -0.0346  0.7032
  600TMC3    H2 8951   1.369   3.145  16.331  0.2510  1.6603 -0.0424
  600TMC3    C7 8952   1.615   3.214  16.369  0.4084  0.7342 -0.4641
  600TMC3    C8 8953   1.286   2.936  16.239  0.0485 -0.1433  0.3946
  600TMC3    O1 8954   1.539   3.248  16.453  1.0483 -0.6337  0.0353
  600TMC3    O2 8955   1.272   2.943  16.360  0.0995  0.0186  0.1712
  601MPD2     C 8956   4.165   1.563   0.391  0.4564 -0.0632  0.9685
  601MPD2    C1 8957   4.072   1.503   0.312  0.3267  0.0964 -0.3783
  601MPD2    C2 8958   4.057   1.366   0.317 -0.3558 -1.1306  0.2057
  601MPD2    C3 8959   4.138   1.295   0.405  0.1304  0.1489  0.1816
  601MPD2    C4 8960   4.232   1.359   0.482 -0.6389 -0.5828  0.5052
  601MPD2    C5 8961   4.251   1.492   0.461  0.5782  0.1124 -0.1789
  601MPD2     H 8962   3.977   1.319   0.262  1.0565 -1.6442 -1.3990
  601MPD2    H1 8963   4.307   1.304   0.539 -0.2807 -0.0743  0.5188
  601MPD2    H2 8964   4.171   1.671   0.397 -1.7218 -0.0016  1.9073
  601MPD2    H3 8965   4.329   1.544   0.515  1.7830 -0.2235 -1.5751
  601MPD2     N 8966   4.131   1.151   0.411  0.2533  0.2936 -0.0204
  601MPD2    H5 8967   4.182   1.099   0.481 -1.4413 -1.9796 -0.4700
  601MPD2    N1 8968   3.990   1.580   0.232 -0.1573 -0.2906  0.0159
  601MPD2    H7 8969   3.924   1.524   0.179 -2.3024  0.8498  1.4740
  602TMC3    C1 8970   3.902   1.785   0.122 -0.1059  0.6981  0.0012
  602TMC3    C2 8971   3.941   1.913   0.073 -0.8951  0.0299  0.0525
  602TMC3    C3 8972   3.848   1.971  17.745  1.0851  0.3492  0.4243
  602TMC3    C4 8973   3.787   1.715   0.080  0.1529  0.3187 -0.4830
  602TMC3    C5 8974   3.698   1.785   0.009  0.0349 -0.0317  0.1665
  602TMC3    C6 8975   3.727   1.910  17.715  0.0559  0.0097 -0.2966
  602TMC3     C 8976   4.005   1.719   0.203  0.1469 -0.6443 -0.2702
  602TMC3     O 8977   4.094   1.793   0.241 -0.2611 -0.1820  0.9056
  602TMC3     H 8978   4.030   1.967   0.101 -2.2702  2.0516  0.5271
  602TMC3    H1 8979   3.761   1.620   0.123  0.5406  0.7316  0.6565
  602TMC3    H2 8980   3.667   1.948  17.633  0.7731  1.0088 -0.3704
  602TMC3    C7 8981   3.577   1.716  17.706 -0.2781 -0.1325  0.5048
  602TMC3    C8 8982   3.870   2.101  17.687 -0.2462 -0.4368  0.8645
  602TMC3    O1 8983   3.581   1.596  17.702 -0.2484 -0.0375  0.5028
  602TMC3    O2 8984   3.983   2.152  17.692  0.2763 -0.8948  0.5140
  603TMC3    C1 8985   2.171   2.504  11.543 -0.2575  0.3788 -0.4986
  603TMC3    C2 8986   2.203   2.536  11.676 -0.0864 -0.1217 -0.3972
  603TMC3    C3 8987   2.305   2.621  11.695  0.4433 -0.1062  0.3498
  603TMC3    C4 8988   2.255   2.542  11.439  0.0005  0.1908 -1.1387
  603TMC3    C5 8989   2.358   2.624  11.474 -0.5132 -0.1372  0.0351
  603TMC3    C6 8990   2.375   2.680  11.593 -0.0434  0.3277 -0.2889
  603TMC3     C 8991   2.031   2.463  11.525 -0.0938 -0.4081  0.0600
  603TMC3     O 8992   1.969   2.419  11.624  0.3363 -1.1065 -0.4771
  603TMC3     H 8993   2.142   2.498  11.756  0.6490  0.7247  0.5685
  603TMC3    H1 8994   2.255   2.501  11.338  1.0400 -2.8917  0.1245
  603TMC3    H2 8995   2.472   2.726  11.610  0.5230 -0.2059 -2.0831
  603TMC3    C7 8996   2.450   2.665  11.375  0.0999 -0.9072 -0.1380
  603TMC3    C8 8997   2.381   2.585  11.815 -0.3592  0.4804  0.6100
  603TMC3    O1 8998   2.499   2.776  11.382 -0.4805  0.0278  0.6088
  603TMC3    O2 8999   2.435   2.677  11.881  0.2782 -0.4964 -0.1067
  604MPD2     C 9000   3.424   1.082  15.744 -0.3254  0.3336  0.4633
  604MPD2    C1 9001   3.366   0.962  15.771  0.4599 -0.0287  0.2961
  604MPD2    C2 9002   3.358   0.860  15.681  0.2975  0.6775 -0.3977
  604MPD2    C3 9003   3.420   0.870  15.559 -0.0513  0.3022 -0.1112
  604MPD2    C4 9004   3.483   0.988  15.528 -0.0516 -0.2089 -0.2161
  604MPD2    C5 9005   3.488   1.092  15.625  0.1980 -0.1212 -0.1006
  604MPD2     H 9006   3.313   0.765  15.707  0.9623 -0.1263 -2.1797
  604MPD2    H1 9007   3.533   1.010  15.434 -0.4151 -0.9275 -0.5695
  604MPD2    H2 9008   3.414   1.170  15.806  0.9428  0.1982  0.8643
  604MPD2    H3 9009   3.538   1.185  15.599  0.9929 -1.1672 -2.2883
  604MPD2     N 9010   3.394   0.756  15.476  0.6379  0.1989 -0.5784
  604MPD2    H5 9011   3.345   0.680  15.523  1.7738 -0.5805 -0.6572
  604MPD2    N1 9012   3.305   0.956  15.900 -0.1528 -0.1076  0.1308
  604MPD2    H7 9013   3.335   1.017  15.975  1.3083  0.9334 -1.2995
  605TMC3    C1 9014   3.170   0.887  16.074 -0.1195 -0.1427  0.2394
  605TMC3    C2 9015   3.256   0.939  16.164  0.1574  0.6806  0.6557
  605TMC3    C3 9016   3.218   0.966  16.292 -0.4157 -0.1960 -0.2173
  605TMC3    C4 9017   3.047   0.841  16.108 -0.3482 -0.1634  0.0400
  605TMC3    C5 9018   3.018   0.863  16.243  0.1432 -1.2746  0.3858
  605TMC3    C6 9019   3.094   0.932  16.334 -0.1771 -0.3023  0.3509
  605TMC3     C 9020   3.213   0.865  15.938 -0.5896 -0.2122  0.2235
  605TMC3     O 9021   3.149   0.795  15.865 -0.3070  0.6533 -0.1963
  605TMC3     H 9022   3.359   0.959  16.136  0.6625 -2.5736  0.1096
  605TMC3    H1 9023   2.966   0.802  16.047  0.1556  3.3475 -2.8764
  605TMC3    H2 9024   3.072   0.948  16.438 -0.1748  0.9232  0.1598
  605TMC3    C7 9025   2.884   0.821  16.291 -0.2582 -0.4694 -0.6089
  605TMC3    C8 9026   3.312   1.057  16.367  0.9404 -0.3381 -0.1070
  605TMC3    O1 9027   2.817   0.899  16.365  0.6067  0.0158  0.6942
  605TMC3    O2 9028   3.414   1.090  16.311 -0.2136  0.5683 -0.2069
  606TMC3    C1 9029   4.241   4.649  17.367 -0.5858 -0.0301 -0.0491
  606TMC3    C2 9030   4.254   4.586  17.485 -0.8015  0.2479  0.0641
  606TMC3    C3 9031   4.342   4.483  17.488 -0.0260 -0.1412 -0.3014
  606TMC3    C4 9032   4.283   4.584  17.252 -0.1078  0.2120 -1.1313
  606TMC3    C5 9033   4.363   4.469  17.258 -0.4157 -0.7263  0.2140
  606TMC3    C6 9034   4.389   4.415  17.374 -0.1417  0.0664 -0.5891
  606TMC3     C 9035   4.149   0.026  17.365  0.6366  0.4257 -0.1016
  606TMC3     O 9036   4.072   0.034  17.462  0.2159  0.1022  0.2623
  606TMC3     H 9037   4.214   4.629  17.577 -0.2121  0.2669  0.3097
  606TMC3    H1 9038   4.247   4.618  17.156 -0.4012  2.1780 -0.3239
  606TMC3    H2 9039   4.454   4.328  17.366 -1.5740 -0.9872 -0.6320
  606TMC3    C7 9040   4.347   4.381  17.141  0.0248  0.1839  0.5909
  606TMC3    C8 9041   4.388   4.446  17.618 -0.1345  0.2332 -0.3659
  606TMC3    O1 9042   4.341   4.440  17.033  0.1257  0.0646 -0.5258
  606TMC3    O2 9043   4.371   4.539  17.701 -1.0890  0.0898  0.2594
  607MPD2     C 9044   1.250   2.515  11.248 -0.6544  0.0240 -0.3035
  607MPD2    C1 9045   1.329   2.613  11.313  0.2028 -0.6194 -0.2257
  607MPD2    C2 9046   1.360   2.593  11.447 -0.0587 -0.2551 -0.4789
  607MPD2    C3 9047   1.316   2.478  11.515  0.6295  0.6241  0.1780
  607MPD2    C4 9048   1.242   2.388  11.446  0.5077 -0.0072  0.2296
  607MPD2    C5 9049   1.208   2.404  11.321 -0.7771  0.6823 -0.6474
  607MPD2     H 9050   1.417   2.671  11.496 -0.5358  0.4937 -1.1000
  607MPD2    H1 9051   1.215   2.291  11.486 -3.1981  1.0136  0.1868
  607MPD2    H2 9052   1.232   2.526  11.142 -1.5466  1.5472 -0.0108
  607MPD2    H3 9053   1.160   2.320  11.273  1.3013 -1.4645  1.0720
  607MPD2     N 9054   1.359   2.462  11.649 -0.3966 -0.5155 -0.2031
  607MPD2    H5 9055   1.425   2.532  11.681  0.0085 -0.1844 -1.7686
  607MPD2    N1 9056   1.402   2.713  11.249  0.3133 -0.4804 -0.6367
  607MPD2    H7 9057   1.462   2.773  11.304 -0.9687  0.9432 -0.7813
  608TMC3    C1 9058   1.523   2.816  11.071 -0.4314 -0.2555  0.4996
  608TMC3    C2 9059   1.636   2.801  11.157 -0.0953 -0.4093 -0.0949
  608TMC3    C3 9060   1.752   2.856  11.113 -0.0163  0.1361  0.5085
  608TMC3    C4 9061   1.536   2.867  10.949  0.2679 -0.7487 -0.4743
  608TMC3    C5 9062   1.660   2.918  10.910  0.1917 -0.6398 -0.2989
  608TMC3    C6 9063   1.770   2.909  10.992  0.4537  0.6280  0.6342
  608TMC3     C 9064   1.409   2.740  11.111 -0.1226  0.0673  0.8368
  608TMC3     O 9065   1.336   2.699  11.027  0.2154  0.6018  0.5952
  608TMC3     H 9066   1.635   2.734  11.243 -0.6218  0.6854  0.7435
  608TMC3    H1 9067   1.447   2.870  10.888 -0.0041 -2.7385 -0.1660
  608TMC3    H2 9068   1.874   2.932  10.970  0.6021  1.0468  1.7469
  608TMC3    C7 9069   1.680   2.980  10.782 -0.2216  0.6021 -0.3357
  608TMC3    C8 9070   1.856   2.876  11.221  0.4130 -0.2519 -0.2019
  608TMC3    O1 9071   1.786   3.040  10.773 -0.0422  0.0940 -0.3326
  608TMC3    O2 9072   1.973   2.909  11.190 -0.0108  0.6986 -0.2064
  609TMC3    C1 9073   4.596   1.762   9.031  0.4298  0.2777  0.5006
  609TMC3    C2 9074   4.643   1.718   8.906  0.4508 -0.2132  0.3638
  609TMC3    C3 9075   0.020   1.650   8.899  0.0243 -0.0965 -0.1398
  609TMC3    C4 9076   4.666   1.717   9.140  0.6140 -0.5001  0.7875
  609TMC3    C5 9077   0.047   1.650   9.135  0.5580 -0.2108  0.0519
  609TMC3    C6 9078   0.090   1.606   9.011  0.4157 -0.8139  0.3048
  609TMC3     C 9079   4.451   1.781   9.056  0.1323  0.1013 -0.1909
  609TMC3     O 9080   4.418   1.794   9.171 -0.4573  0.1645  0.8977
  609TMC3     H 9081   4.610   1.764   8.814  1.3706  1.9674  1.1194
  609TMC3    H1 9082   4.641   1.757   9.238 -1.1278  0.5269 -0.0832
  609TMC3    H2 9083   0.187   1.558   9.004  0.7221  0.1961 -2.4355
  609TMC3    C7 9084   0.115   1.614   9.258  0.3864 -0.1850  0.1533
  609TMC3    C8 9085   0.026   1.574   8.775  0.1383  0.6039 -0.6717
  609TMC3    O1 9086   0.085   1.672   9.366 -0.3869  0.2692  0.4840
  609TMC3    O2 9087   4.662   1.580   8.708  0.0073 -0.3421  0.2161
  610TMC3    C1 9088   1.659   2.256  13.090  0.2112 -0.6242  0.1917
  610TMC3    C2 9089   1.725   2.358  13.034  0.0729 -0.7536  0.1449
  610TMC3    C3 9090   1.776   2.344  12.911 -0.2390 -0.4120 -0.5454
  610TMC3    C4 9091   1.663   2.129  13.034 -0.7987 -0.3468  0.4462
  610TMC3    C5 9092   1.726   2.112  12.916 -0.2968  0.1553 -0.6648
  610TMC3    C6 9093   1.783   2.220  12.850  0.3288 -0.0278 -0.1444
  610TMC3     C 9094   1.561   2.291  13.194 -0.4838 -0.5446  0.3240
  610TMC3     O 9095   1.586   2.396  13.258  0.6594 -0.1333 -0.1505
  610TMC3     H 9096   1.722   2.456  13.081  1.7093 -0.4478 -0.3711
  610TMC3    H1 9097   1.626   2.043  13.089 -3.0119  1.3262  1.5404
  610TMC3    H2 9098   1.831   2.213  12.753 -0.5986  0.9160 -0.6740
  610TMC3    C7 9099   1.761   1.977  12.868  0.2983 -0.2423 -0.2287
  610TMC3    C8 9100   1.837   2.459  12.856 -0.2862  0.4825  0.6881
  610TMC3    O1 9101   1.724   1.883  12.935 -0.4061  0.4717 -0.2711
  610TMC3    O2 9102   1.819   2.561  12.927 -0.2171 -0.3120  0.0505
  611MPD2     C 9103   2.142   1.487  10.629 -0.7382  0.1483 -0.1182
  611MPD2    C1 9104   2.111   1.612  10.672  0.7313 -0.1299  0.4450
  611MPD2    C2 9105   2.211   1.708  10.694  0.0133  0.0751  0.0923
  611MPD2    C3 9106   2.347   1.674  10.670 -1.0417 -0.2979  0.3109
  611MPD2    C4 9107   2.371   1.549  10.630  0.0408  0.8342  0.1201
  611MPD2    C5 9108   2.269   1.454  10.604 -0.5104 -0.7235 -0.1844
  611MPD2     H 9109   2.192   1.814  10.710 -0.3551  0.2644 -1.6337
  611MPD2    H1 9110   2.471   1.511  10.614 -0.5842 -0.7746  0.0294
  611MPD2    H2 9111   2.067   1.410  10.616  1.0925 -2.0458  2.2568
  611MPD2    H3 9112   2.291   1.353  10.571  0.9195 -0.2329 -0.7482
  611MPD2     N 9113   2.453   1.771  10.660 -0.5468 -0.1027 -0.0677
  611MPD2    H5 9114   2.533   1.738  10.606 -1.1342  0.9630 -1.5722
  611MPD2    N1 9115   1.976   1.637  10.694 -0.1356 -0.0712 -0.0125
  611MPD2    H7 9116   1.915   1.556  10.690 -0.0533 -0.1594  0.5283
  612TMC3    C1 9117   2.569   1.974  10.694  0.1689 -0.3706 -0.1775
  612TMC3    C2 9118   2.580   2.091  10.762  0.0418  0.1254  0.2089
  612TMC3    C3 9119   2.668   2.185  10.711  0.4269  0.3359  0.0042
  612TMC3    C4 9120   2.647   1.948  10.585  0.8989 -0.2820 -0.1070
  612TMC3    C5 9121   2.726   2.048  10.534 -0.3290 -0.4130  0.3335
  612TMC3    C6 9122   2.755   2.152  10.612  0.3607  0.6779 -0.7400
  612TMC3     C 9123   2.458   1.886  10.733  0.5741  0.2905 -0.9565
  612TMC3     O 9124   2.385   1.929  10.823  0.2731 -0.9768  0.3599
  612TMC3     H 9125   2.504   2.124  10.831 -0.1377 -0.1440  0.1382
  612TMC3    H1 9126   2.654   1.849  10.539  0.2039 -0.7218  0.7429
  612TMC3    H2 9127   2.812   2.231  10.566  0.6586  0.6460 -0.4232
  612TMC3    C7 9128   2.845   2.017  10.454  0.3732  0.7381 -0.4061
  612TMC3    C8 9129   2.682   2.317  10.769 -0.7090  0.8535  0.2201
  612TMC3    O1 9130   2.947   2.082  10.473  0.0918  0.3979 -0.8501
  612TMC3    O2 9131   2.780   2.385  10.728  0.1695 -0.6182  0.1007
  613MPD2     C 9132   0.918   4.007  16.572  0.3318  0.3044 -0.2672
  613MPD2    C1 9133   0.854   4.081  16.476  0.6086 -0.3192 -0.5605
  613MPD2    C2 9134   0.722   4.049  16.441 -1.1240  0.4695 -0.2949
  613MPD2    C3 9135   0.661   3.935  16.492 -0.3849  0.0400 -0.0838
  613MPD2    C4 9136   0.737   3.859  16.580 -0.5179 -0.3046 -0.6198
  613MPD2    C5 9137   0.857   3.897  16.627  0.1496 -1.0521  0.0545
  613MPD2     H 9138   0.659   4.096  16.366 -1.4554 -0.2167 -0.4399
  613MPD2    H1 9139   0.688   3.772  16.623  1.5842 -0.1685  2.0297
  613MPD2    H2 9140   1.018   4.027  16.609 -0.0143  1.0708  0.2668
  613MPD2    H3 9141   0.907   3.842  16.706  1.9913 -1.0814 -1.1381
  613MPD2     N 9142   0.541   3.877  16.445 -0.2094  0.0745 -0.2454
  613MPD2    H5 9143   0.513   3.789  16.487 -0.4348 -0.3199 -1.2314
  613MPD2    N1 9144   0.933   4.185  16.417  0.1794 -0.4467  0.0555
  613MPD2    H7 9145   1.020   4.204  16.465  0.7415  0.7066 -1.4342
  614TMC3    C1 9146   0.802   4.220  16.213  0.1638 -0.5117  0.4152
  614TMC3    C2 9147   0.827   4.098  16.155  0.2182  0.5753 -0.0136
  614TMC3    C3 9148   0.775   4.068  16.032  0.1077  0.6817 -0.2813
  614TMC3    C4 9149   0.711   4.303  16.160 -0.7680  0.4609  0.3152
  614TMC3    C5 9150   0.655   4.266  16.042  0.2273 -0.5199  0.4014
  614TMC3    C6 9151   0.679   4.147  15.974 -0.3304  0.7384 -1.5080
  614TMC3     C 9152   0.883   4.277  16.321  0.2350  0.7074  0.3222
  614TMC3     O 9153   0.920   4.394  16.306 -0.1868 -0.5771 -0.1871
  614TMC3     H 9154   0.902   4.038  16.204 -0.4544  0.8869  1.3858
  614TMC3    H1 9155   0.706   4.404  16.199 -1.6491  0.3739  0.4287
  614TMC3    H2 9156   0.621   4.115  15.888 -2.5383  0.6822  0.0133
  614TMC3    C7 9157   0.623   4.386  15.964 -0.2522 -0.5369  0.3390
  614TMC3    C8 9158   0.746   3.930  16.030 -0.1034  0.3363 -0.7714
  614TMC3    O1 9159   0.700   4.480  15.969  0.6585 -0.0770  0.2040
  614TMC3    O2 9160   0.749   3.875  16.142  0.0179 -0.3862 -0.6099
  615MPD2     C 9161   4.732   1.060  16.209  0.2459 -0.1756  0.1690
  615MPD2    C1 9162   4.640   1.082  16.105 -0.3185 -0.3056  1.1555
  615MPD2    C2 9163   4.557   0.979  16.070 -0.3020 -0.3523 -0.5023
  615MPD2    C3 9164   4.571   0.853  16.118  0.0101 -0.2803 -1.0430
  615MPD2    C4 9165   4.660   0.826  16.214 -0.3045  0.3672  0.7495
  615MPD2    C5 9166   4.732   0.932  16.261 -0.4588 -0.0231  0.4877
  615MPD2     H 9167   4.500   1.004  15.980 -1.2003 -0.2959  0.0766
  615MPD2    H1 9168   4.670   0.731  16.265 -1.5530 -1.2765 -2.0329
  615MPD2    H2 9169   0.076   1.126  16.233 -0.3951  0.3598  0.8821
  615MPD2    H3 9170   0.075   0.907  16.327  1.2418  1.8698 -0.8930
  615MPD2     N 9171   4.498   0.746  16.063 -0.1336 -0.5688 -0.1977
  615MPD2    H5 9172   4.446   0.772  15.980 -1.4912  1.3153  1.2367
  615MPD2    N1 9173   4.646   1.209  16.030 -1.0193 -0.2130  0.1409
  615MPD2    H7 9174   4.571   1.219  15.962  1.0046  0.5559 -1.9462
  616TMC3    C1 9175   4.710   1.433  15.952 -0.3224 -0.0628 -0.0491
  616TMC3    C2 9176   0.057   1.536  15.940  0.3128  0.2946  0.3217
  616TMC3    C3 9177   0.023   1.638  15.867 -0.2931  0.1424  0.7428
  616TMC3    C4 9178   4.583   1.433  15.890 -0.1024  0.0329  0.2787
  616TMC3    C5 9179   4.558   1.541  15.810 -0.2886 -0.0277 -0.9368
  616TMC3    C6 9180   4.639   1.646  15.797  0.2093  0.6593 -0.3112
  616TMC3     C 9181   4.737   1.315  16.044 -0.7202 -0.3918 -0.2782
  616TMC3     O 9182   0.096   1.319  16.118  0.3399 -0.3441  0.1978
  616TMC3     H 9183   0.142   1.533  16.007 -0.3134 -1.2757  1.0440
  616TMC3    H1 9184   4.505   1.361  15.913  0.3038 -0.7735 -0.8877
  616TMC3    H2 9185   4.621   1.738  15.744  0.0803  1.0179  0.3542
  616TMC3    C7 9186   4.425   1.559  15.757  0.9688 -0.0415 -0.3056
  616TMC3    C8 9187   0.111   1.751  15.853 -0.3906 -0.2166 -0.0795
  616TMC3    O1 9188   4.335   1.500  15.815  0.0184 -0.4758 -0.6271
  616TMC3    O2 9189   0.065   1.858  15.825 -0.2669 -0.1327 -0.0148
  617MPD2     C 9190   2.671   3.969  13.924 -0.5078 -0.2868 -0.4389
  617MPD2    C1 9191   2.746   3.859  13.962 -0.1422 -0.3557  0.1659
  617MPD2    C2 9192   2.690   3.773  14.062 -0.3026  0.9236 -0.5348
  617MPD2    C3 9193   2.553   3.789  14.096  0.1252  0.8482  0.0170
  617MPD2    C4 9194   2.484   3.894  14.057 -0.1029  0.2714 -0.2052
  617MPD2    C5 9195   2.549   3.987  13.982  0.0127 -0.3257 -0.5169
  617MPD2     H 9196   2.752   3.694  14.102  0.3143  0.9126 -1.5098
  617MPD2    H1 9197   2.388   3.918  14.099  0.1441 -0.2101  0.6381
  617MPD2    H2 9198   2.715   4.046  13.862 -0.4588  1.4058  1.6871
  617MPD2    H3 9199   2.488   4.075  13.961 -0.6131 -1.2848 -2.6604
  617MPD2     N 9200   2.481   3.703  14.181  0.7491 -0.7492  0.4682
  617MPD2    H5 9201   2.382   3.724  14.186  0.9177  0.0206  0.5350
  617MPD2    N1 9202   2.872   3.842  13.899 -0.2733  0.3557 -0.0735
  617MPD2    H7 9203   2.890   3.911  13.826 -0.8976  0.1519 -0.4179
  618TMC3    C1 9204   3.084   3.772  13.863 -0.0797 -0.3851  0.4569
  618TMC3    C2 9205   3.169   3.665  13.847  0.8084 -0.0861 -0.3942
  618TMC3    C3 9206   3.299   3.682  13.813 -0.2041  0.0495  0.0213
  618TMC3    C4 9207   3.112   3.900  13.811  0.5217 -0.0284  0.5231
  618TMC3    C5 9208   3.236   3.912  13.764 -0.0490  0.1973 -0.4185
  618TMC3    C6 9209   3.326   3.806  13.764  0.6582  0.7838 -1.0081
  618TMC3     C 9210   2.962   3.745  13.935 -0.2354  0.2148  0.2861
  618TMC3     O 9211   2.946   3.628  13.971 -0.4332 -0.0556 -0.8050
  618TMC3     H 9212   3.125   3.567  13.858  0.5251  0.0422 -0.3748
  618TMC3    H1 9213   3.038   3.978  13.799 -1.9253 -2.1820  1.3147
  618TMC3    H2 9214   3.432   3.824  13.749  1.0530 -2.3139 -1.9097
  618TMC3    C7 9215   3.261   4.000  13.651 -0.0066  0.0900 -0.0780
  618TMC3    C8 9216   3.348   3.572  13.734 -0.4059 -0.4354 -0.8874
  618TMC3    O1 9217   3.353   3.970  13.576 -0.3140 -0.3130  0.0997
  618TMC3    O2 9218   3.265   3.503  13.682 -0.0155 -0.4882 -0.1469
  619MPD2     C 9219   3.389   4.605  13.171  0.1258 -0.0431  0.0542
  619MPD2    C1 9220   3.310   4.719  13.146 -0.0974  0.4437  1.4395
  619MPD2    C2 9221   3.250   0.045  13.257 -0.9558 -0.4888 -0.2121
  619MPD2    C3 9222   3.260   4.734  13.382 -0.8915  0.3208  0.4892
  619MPD2    C4 9223   3.334   4.622  13.400  0.9194  0.2954  0.0070
  619MPD2    C5 9224   3.401   4.559  13.295  0.1354  0.5345 -0.9513
  619MPD2     H 9225   3.199   0.140  13.245  1.1308  0.9654  2.6283
  619MPD2    H1 9226   3.359   4.587  13.499 -0.6074 -1.3813 -0.1910
  619MPD2    H2 9227   3.430   4.545  13.091 -1.3632  0.0698 -0.7916
  619MPD2    H3 9228   3.472   4.479  13.315 -1.8277 -1.3078 -1.4189
  619MPD2     N 9229   3.218   0.059  13.502 -0.0624  0.2084 -0.0781
  619MPD2    H5 9230   3.242   0.012  13.589 -0.0380  3.5819  1.7197
  619MPD2    N1 9231   3.298   0.038  13.021 -0.5567  0.5285  0.6224
  619MPD2    H7 9232   3.226   0.109  13.020 -1.7697 -0.6850  1.7374
  620TMC3    C1 9233   3.302   0.066  12.789 -0.2093  0.3393  0.7769
  620TMC3    C2 9234   3.194   0.138  12.834 -0.0205 -0.3893 -0.1575
  620TMC3    C3 9235   3.182   0.265  12.797  0.3830  0.4062 -0.1894
  620TMC3    C4 9236   3.399   0.117  12.708  0.1835 -0.4378 -0.4464
  620TMC3    C5 9237   3.389   0.252  12.693 -0.0048 -0.6163  0.5789
  620TMC3    C6 9238   3.288   0.324  12.738  0.1961 -0.2326 -0.5252
  620TMC3     C 9239   3.357   4.731  12.904  0.1851 -0.3239  0.5098
  620TMC3     O 9240   3.442   4.643  12.880 -0.0845  0.0164 -0.1886
  620TMC3     H 9241   3.105   0.089  12.873 -0.3439  1.8385  1.9451
  620TMC3    H1 9242   3.473   0.047  12.673 -0.4535 -1.5910  0.4860
  620TMC3    H2 9243   3.293   0.431  12.722  0.1451 -0.0872  0.4409
  620TMC3    C7 9244   3.499   0.318  12.615  0.9054  0.1007  0.2302
  620TMC3    C8 9245   3.104   0.337  12.892 -0.0305  0.1555 -0.8085
  620TMC3    O1 9246   3.586   0.242  12.568  0.4418 -0.2106  0.0028
  620TMC3    O2 9247   3.093   0.279  13.000  0.4799 -0.2417 -0.1723
  621MPD2     C 9248   3.967   0.981   9.873 -0.3352  0.5935 -0.0283
  621MPD2    C1 9249   4.082   1.005   9.942  0.1384 -0.4003  0.1618
  621MPD2    C2 9250   4.172   1.085   9.885  0.3076  0.2337 -0.1037
  621MPD2    C3 9251   4.158   1.123   9.751 -0.1276  0.1094  0.6271
  621MPD2    C4 9252   4.042   1.102   9.688 -0.0286  0.3170  0.3192
  621MPD2    C5 9253   3.940   1.030   9.748  0.6734 -0.4381 -0.1963
  621MPD2     H 9254   4.268   1.098   9.934  0.4609  1.7818 -0.8211
  621MPD2    H1 9255   4.022   1.129   9.585  3.2606  0.6798 -0.2031
  621MPD2    H2 9256   3.880   0.939   9.923 -0.2473  1.2157  0.6480
  621MPD2    H3 9257   3.846   1.000   9.703  0.1260  0.1724  0.5428
  621MPD2     N 9258   4.271   1.186   9.695 -0.0089  0.4856  0.8314
  621MPD2    H5 9259   4.347   1.220   9.753  1.5399 -0.5093 -0.6458
  621MPD2    N1 9260   4.113   0.944  10.066 -0.3109 -0.2546  0.2016
  621MPD2    H7 9261   4.189   0.986  10.120 -0.4807  1.0484 -0.5655
  622TMC3    C1 9262   4.139   0.778  10.213  0.8205 -0.3656 -0.0073
  622TMC3    C2 9263   4.159   0.869  10.306 -0.2826  0.3827  0.2479
  622TMC3    C3 9264   4.270   0.874  10.383  0.0032  0.0865 -0.0759
  622TMC3    C4 9265   4.244   0.704  10.164 -0.3010  0.1218  0.9552
  622TMC3    C5 9266   4.367   0.719  10.227  1.2361 -0.1947  0.5385
  622TMC3    C6 9267   4.377   0.801  10.340  0.0039  0.1584  0.1295
  622TMC3     C 9268   4.051   0.829  10.113  0.4649  0.6604 -0.0021
  622TMC3     O 9269   3.986   0.742  10.055 -0.6094 -0.0163 -0.2150
  622TMC3     H 9270   4.072   0.929  10.333 -0.3164  0.1856  0.5755
  622TMC3    H1 9271   4.224   0.629  10.088  0.2073 -0.2831  1.2211
  622TMC3    H2 9272   4.464   0.806  10.404 -0.9462  2.3138  1.2664
  622TMC3    C7 9273   4.488   0.723  10.146  0.0270  0.0912 -0.8306
  622TMC3    C8 9274   4.283   0.953  10.502  0.2975 -0.5649 -0.7144
  622TMC3    O1 9275   4.592   0.754  10.198 -0.0208 -0.1966 -0.2425
  622TMC3    O2 9276   4.392   0.971  10.549 -0.3862  0.2422 -0.2252
  623MPD2     C 9277   3.470   1.509  15.523 -0.1126 -0.8236 -0.6151
  623MPD2    C1 9278   3.378   1.489  15.621  0.1952 -1.1193 -0.4244
  623MPD2    C2 9279   3.399   1.536  15.749  0.1714 -0.3243 -0.4622
  623MPD2    C3 9280   3.518   1.612  15.775  0.4504 -0.3960 -0.4022
  623MPD2    C4 9281   3.607   1.634  15.674 -0.0196 -0.1865 -0.1104
  623MPD2    C5 9282   3.583   1.584  15.551 -0.3342 -0.1020  0.3156
  623MPD2     H 9283   3.330   1.523  15.832 -0.0614  1.3322 -0.3829
  623MPD2    H1 9284   3.704   1.681  15.682 -0.3850  0.4679  0.3761
  623MPD2    H2 9285   3.458   1.478  15.420  1.1210  1.0035 -1.3205
  623MPD2    H3 9286   3.649   1.607  15.468 -1.7910  0.6006 -0.6409
  623MPD2     N 9287   3.549   1.642  15.911 -0.1253  0.0417  0.1686
  623MPD2    H5 9288   3.497   1.597  15.986  1.8958 -2.6245 -0.0260
  623MPD2    N1 9289   3.263   1.418  15.583  0.4837  0.6625 -0.8062
  623MPD2    H7 9290   3.249   1.393  15.486  2.8314  1.6802 -1.4187
  624TMC3    C1 9291   3.843   1.651  16.268  0.2857  0.1909 -0.4469
  624TMC3    C2 9292   3.742   1.616  16.352 -0.3071 -0.0421  0.2659
  624TMC3    C3 9293   3.613   1.610  16.304  0.3613 -0.4326 -0.7658
  624TMC3    C4 9294   3.810   1.675  16.136 -0.4132 -0.1374  0.3369
  624TMC3    C5 9295   3.683   1.675  16.093  0.0649  0.7597  0.7279
  624TMC3    C6 9296   3.579   1.651  16.179  0.5398  0.6153 -0.2422
  624TMC3     C 9297   3.972   1.627  16.310  0.1564  0.0477 -0.3785
  624TMC3     O 9298   3.985   1.650  16.429  0.2717 -0.4312  0.5311
  624TMC3     H 9299   3.769   1.591  16.454  1.9607 -0.8506 -0.5195
  624TMC3    H1 9300   3.896   1.706  16.077 -1.0449  0.1005 -0.4570
  624TMC3    H2 9301   3.477   1.659  16.143  0.9759  0.0765 -1.6088
  624TMC3    C7 9302   3.664   1.702  15.955 -1.0848 -0.1236 -0.4426
  624TMC3    C8 9303   3.519   1.525  16.364  0.0506  0.8493  0.5171
  624TMC3    O1 9304   3.755   1.751  15.895  0.1461  0.3338 -0.2963
  624TMC3    O2 9305   3.416   1.504  16.307 -0.3912  0.1877  0.0474
  625MPD2     C 9306   3.879   2.352   0.616  0.1263  0.2758  0.0415
  625MPD2    C1 9307   3.843   2.451   0.701 -0.5144 -0.2019 -0.0850
  625MPD2    C2 9308   3.787   2.429   0.825 -0.4491 -0.2924  0.6575
  625MPD2    C3 9309   3.765   2.301   0.868  0.2116  0.5126 -0.4065
  625MPD2    C4 9310   3.812   2.194   0.783 -0.7179  0.2932  0.4259
  625MPD2    C5 9311   3.871   2.219   0.661  0.5692 -0.1673 -0.2585
  625MPD2     H 9312   3.761   2.504   0.899 -0.2662 -1.0523  1.4892
  625MPD2    H1 9313   3.792   2.093   0.815  0.3539 -0.6293 -1.8573
  625MPD2    H2 9314   3.911   2.365   0.514 -0.9334  1.1676 -0.1691
  625MPD2    H3 9315   3.911   2.134   0.607  0.4669 -0.9460  0.9094
  625MPD2     N 9316   3.695   2.274   0.994 -0.0032  0.3763 -0.4904
  625MPD2    H5 9317   3.662   2.358   1.041  0.9569  0.6495 -0.2969
  625MPD2    N1 9318   3.885   2.586   0.670 -0.3398 -0.2886 -0.2796
  625MPD2    H7 9319   3.864   2.658   0.738 -0.8288 -1.4551  0.8169
  626TMC3    C1 9320   3.955   2.773   0.556 -0.0904 -0.2241 -0.0892
  626TMC3    C2 9321   3.908   2.846   0.443 -0.1846  0.3700  0.1839
  626TMC3    C3 9322   3.925   2.979   0.449  0.3864  0.4573  0.0480
  626TMC3    C4 9323   4.006   2.832   0.669  0.3975  0.0304 -0.0274
  626TMC3    C5 9324   4.004   2.969   0.674  0.0285  0.1396  0.0811
  626TMC3    C6 9325   3.965   3.042   0.565  0.4627  0.2986  0.2318
  626TMC3     C 9326   3.929   2.633   0.550 -0.2615  0.7750 -0.4371
  626TMC3     O 9327   3.938   2.582   0.436 -0.0731 -0.1560 -0.1959
  626TMC3     H 9328   3.864   2.807   0.352 -1.0213 -1.8231  1.5462
  626TMC3    H1 9329   4.016   2.773   0.759  2.1331  0.9433  0.3894
  626TMC3    H2 9330   3.968   3.150   0.575 -0.6342  0.5058 -1.7079
  626TMC3    C7 9331   3.955   3.018   0.799 -0.1425  0.2189 -0.0644
  626TMC3    C8 9332   3.891   3.050   0.327 -0.5013  0.2574  0.7004
  626TMC3    O1 9333   3.997   2.974   0.902 -0.5530 -0.2689  0.3972
  626TMC3    O2 9334   3.826   2.985   0.248  0.0111  0.0501  0.3483
  627MPD2     C 9335   2.755   2.376  14.087  0.6301 -1.1596 -0.0599
  627MPD2    C1 9336   2.674   2.405  14.202 -0.3123 -0.5800 -0.0991
  627MPD2    C2 9337   2.548   2.346  14.208  0.9419 -0.2637  0.0396
  627MPD2    C3 9338   2.499   2.268  14.103 -0.1002 -0.0961  0.2377
  627MPD2    C4 9339   2.571   2.257  13.988 -0.0058 -0.3601  0.9893
  627MPD2    C5 9340   2.697   2.309  13.982 -0.2013 -0.2742  0.1588
  627MPD2     H 9341   2.493   2.368  14.298  1.4788  2.3715 -0.2638
  627MPD2    H1 9342   2.527   2.198  13.908 -2.8196  1.1940  1.3718
  627MPD2    H2 9343   2.858   2.408  14.080 -0.3293  1.6766 -1.0691
  627MPD2    H3 9344   2.762   2.271  13.904  0.6664  2.5131 -0.4692
  627MPD2     N 9345   2.365   2.217  14.128 -0.8420 -0.0362 -0.0799
  627MPD2    H5 9346   2.324   2.236  14.219  0.8620  0.8095  0.5118
  627MPD2    N1 9347   2.729   2.476  14.313 -0.2610  0.0555 -0.0789
  627MPD2    H7 9348   2.667   2.483  14.393  0.4536 -0.5224  0.5263
  628TMC3    C1 9349   2.875   2.567  14.454 -0.4871  0.5338 -0.0419
  628TMC3    C2 9350   2.989   2.512  14.509  0.5003 -0.3896 -0.1011
  628TMC3    C3 9351   2.990   2.521  14.648 -0.2631  0.3671 -0.3180
  628TMC3    C4 9352   2.769   2.615  14.530 -0.7170 -0.5165  0.7129
  628TMC3    C5 9353   2.795   2.635  14.661 -0.6816 -0.4876  0.0898
  628TMC3    C6 9354   2.896   2.577  14.729  0.1688  0.8614 -0.2314
  628TMC3     C 9355   2.854   2.533  14.315 -0.2269 -0.1156  0.1639
  628TMC3     O 9356   2.943   2.544  14.234 -0.4625 -0.0110  0.1598
  628TMC3     H 9357   3.065   2.450  14.463 -0.1253 -2.2431  1.3973
  628TMC3    H1 9358   2.676   2.653  14.490  0.0414  0.6719  0.1242
  628TMC3    H2 9359   2.908   2.602  14.834  0.5119  3.1615 -0.8256
  628TMC3    C7 9360   2.687   2.692  14.739  0.0495 -0.3106  0.2372
  628TMC3    C8 9361   3.091   2.431  14.710 -0.0412 -0.3029  0.8652
  628TMC3    O1 9362   2.668   2.640  14.849  0.4789  0.6734  0.0629
  628TMC3    O2 9363   3.194   2.413  14.645 -0.6346 -0.1536  0.8396
  629MPD2     C 9364   0.583   1.930  15.783  0.5122  0.4997 -0.3775
  629MPD2    C1 9365   0.585   1.798  15.811  0.2691 -0.7550 -0.0084
  629MPD2    C2 9366   0.475   1.720  15.813  0.8713  0.0613  0.2900
  629MPD2    C3 9367   0.352   1.782  15.806 -0.4599  0.5375 -0.2843
  629MPD2    C4 9368   0.344   1.916  15.780 -0.0872 -0.6163  0.0009
  629MPD2    C5 9369   0.458   1.990  15.776  0.1464 -0.4306  0.0559
  629MPD2     H 9370   0.473   1.612  15.822  0.5135 -0.0371 -0.9786
  629MPD2    H1 9371   0.247   1.963  15.785 -0.7326 -2.0526  1.1228
  629MPD2    H2 9372   0.676   1.984  15.786  0.7671  0.2057 -2.6275
  629MPD2    H3 9373   0.445   2.097  15.772 -0.6758 -0.5990 -1.4693
  629MPD2     N 9374   0.239   1.707  15.851  0.2357  0.1565  0.0095
  629MPD2    H5 9375   0.256   1.613  15.884  1.8273  0.2912 -0.3989
  629MPD2    N1 9376   0.712   1.751  15.846  0.8511  0.3702 -0.1475
  629MPD2    H7 9377   0.782   1.824  15.841  2.0570 -0.6471  2.2281
  630TMC3    C1 9378   0.883   1.613  15.905 -0.2893 -0.3383  0.1890
  630TMC3    C2 9379   0.967   1.649  15.800  0.2645 -0.0617 -0.3188
  630TMC3    C3 9380   1.101   1.633  15.812  0.2614 -0.3383  0.5579
  630TMC3    C4 9381   0.930   1.520  15.994 -0.6931 -0.5098 -0.0774
  630TMC3    C5 9382   1.068   1.502  15.997  0.6919  0.7062  0.3786
  630TMC3    C6 9383   1.159   1.565  15.918 -0.5548  0.4652 -0.4507
  630TMC3     C 9384   0.744   1.630  15.889 -0.9028 -0.2741  0.0423
  630TMC3     O 9385   0.676   1.530  15.897 -0.4731  0.3215  0.6302
  630TMC3     H 9386   0.919   1.705  15.721  0.2514  0.5806  0.1421
  630TMC3    H1 9387   0.870   1.497  16.082 -2.3613 -0.2070 -1.1282
  630TMC3    H2 9388   1.266   1.548  15.923 -0.5866  0.7556  1.1805
  630TMC3    C7 9389   1.118   1.403  16.098  0.2545  0.0286 -0.4039
  630TMC3    C8 9390   1.185   1.727  15.739 -0.5723 -0.3826 -0.0783
  630TMC3    O1 9391   1.028   1.356  16.172  0.7624  0.0066  0.2187
  630TMC3    O2 9392   1.153   1.752  15.625  0.4331  0.2077 -0.3055
  631MPD2     C 9393   3.831   0.977  15.541 -0.7052  0.5399  0.3699
  631MPD2    C1 9394   3.946   0.966  15.470 -0.4503  0.3663 -0.0813
  631MPD2    C2 9395   4.046   0.873  15.507 -0.0631 -0.2250  0.0020
  631MPD2    C3 9396   4.020   0.796  15.620  0.3042 -0.2634 -0.0866
  631MPD2    C4 9397   3.899   0.803  15.684 -0.6859 -0.5965  0.1898
  631MPD2    C5 9398   3.801   0.895  15.641  0.2153 -0.3912 -0.3074
  631MPD2     H 9399   4.146   0.862  15.468 -0.1001  0.1697 -0.2035
  631MPD2    H1 9400   3.871   0.743  15.770  1.6360 -1.2068  0.5040
  631MPD2    H2 9401   3.751   1.047  15.521 -0.9190 -0.4614 -2.2709
  631MPD2    H3 9402   3.707   0.908  15.693  1.2991 -1.5034  1.9346
  631MPD2     N 9403   4.122   0.709  15.667  1.6891 -0.3795  0.0094
  631MPD2    H5 9404   4.210   0.710  15.617 -0.3552 -1.9351 -3.6031
  631MPD2    N1 9405   3.958   1.062  15.371  0.1344  0.2152 -0.7655
  631MPD2    H7 9406   3.898   1.144  15.366 -1.1993 -0.6654  1.1302
  632TMC3    C1 9407   4.066   1.201  15.224  0.2705 -0.1519 -0.1637
  632TMC3    C2 9408   4.005   1.313  15.267 -0.3932 -0.2775 -0.1485
  632TMC3    C3 9409   3.996   1.424  15.191  0.2091  0.0513 -0.0102
  632TMC3    C4 9410   4.143   1.216  15.109 -0.1054  0.6141  0.5925
  632TMC3    C5 9411   4.144   1.335  15.037 -0.2985 -0.4199  0.3824
  632TMC3    C6 9412   4.070   1.438  15.079  0.5012  0.0704 -0.2578
  632TMC3     C 9413   4.062   1.073  15.286  0.0107 -0.0398 -0.3095
  632TMC3     O 9414   4.138   0.986  15.247  0.6428 -0.5897  0.3720
  632TMC3     H 9415   3.958   1.314  15.365  0.0011  1.9161  0.0181
  632TMC3    H1 9416   4.202   1.132  15.073  2.0577  1.9231  1.0728
  632TMC3    H2 9417   4.080   1.528  15.019  0.4595 -0.1456 -0.5935
  632TMC3    C7 9418   4.204   1.330  14.907  0.0094 -0.5295 -0.4057
  632TMC3    C8 9419   3.878   1.506  15.213  0.6479 -0.2922  0.1307
  632TMC3    O1 9420   4.170   1.428  14.839  0.6147 -0.0636 -0.0041
  632TMC3    O2 9421   3.822   1.493  15.320  0.0298  0.6691  0.2089
  633MPD2     C 9422   3.388   4.011  17.192 -0.1775 -0.1887  0.1475
  633MPD2    C1 9423   3.392   3.917  17.090 -0.1752 -0.3618 -0.1053
  633MPD2    C2 9424   3.472   3.803  17.098  0.1724  0.1644  0.0376
  633MPD2    C3 9425   3.561   3.782  17.195 -0.2942 -0.0040 -0.7632
  633MPD2    C4 9426   3.555   3.876  17.297  0.2972  0.2002 -0.3566
  633MPD2    C5 9427   3.468   3.985  17.295 -0.0979 -0.1565 -0.1653
  633MPD2     H 9428   3.478   3.728  17.020 -0.6450 -0.4046  0.5236
  633MPD2    H1 9429   3.620   3.859  17.383 -0.4438 -0.4889  0.0687
  633MPD2    H2 9430   3.316   4.092  17.191  0.4093  0.2995 -2.0185
  633MPD2    H3 9431   3.481   4.057  17.375  2.7596 -2.9795  1.9310
  633MPD2     N 9432   3.662   3.683  17.203 -0.1024 -0.2819 -0.3760
  633MPD2    H5 9433   3.738   3.704  17.267  0.3285  0.9802 -1.2975
  633MPD2    N1 9434   3.347   3.952  16.957 -0.3352  0.3393 -0.2969
  633MPD2    H7 9435   3.375   3.897  16.876  0.8830  0.2006  0.2218
  634TMC3    C1 9436   3.252   4.095  16.785 -0.4833 -0.6632  0.0124
  634TMC3    C2 9437   3.238   3.988  16.700 -0.3121  0.7703  0.0437
  634TMC3    C3 9438   3.224   4.001  16.564  0.1120 -0.2937 -0.2435
  634TMC3    C4 9439   3.237   4.222  16.733 -0.3194 -0.3229 -0.3776
  634TMC3    C5 9440   3.235   4.232  16.595  0.8000 -0.6276 -0.4654
  634TMC3    C6 9441   3.233   4.126  16.512  0.0422  0.3686  0.1824
  634TMC3     C 9442   3.287   4.076  16.921 -0.6219  0.0713  0.4406
  634TMC3     O 9443   3.272   4.181  16.989 -0.0026  0.0523 -0.1301
  634TMC3     H 9444   3.229   3.887  16.739 -0.7053  0.2642 -1.3640
  634TMC3    H1 9445   3.280   4.303  16.790 -1.0166 -0.5787  0.5047
  634TMC3    H2 9446   3.221   4.147  16.406 -0.5779 -0.9571 -0.0067
  634TMC3    C7 9447   3.236   4.360  16.525 -0.2561 -0.6220  1.0237
  634TMC3    C8 9448   3.289   3.900  16.485 -0.8303 -0.1759  0.3614
  634TMC3    O1 9449   3.282   4.369  16.408 -0.1434 -0.1160  0.0071
  634TMC3    O2 9450   3.368   3.825  16.544 -0.3849 -0.5931  0.4123
  635TMC3    C1 9451   3.310   0.248   0.285  0.2077  0.7647 -0.2427
  635TMC3    C2 9452   3.343   0.116   0.277  0.1100 -0.0455 -0.2782
  635TMC3    C3 9453   3.259   0.019   0.333 -0.1393 -0.5918 -0.7614
  635TMC3    C4 9454   3.208   0.290   0.364 -0.1176  0.2629 -0.9435
  635TMC3    C5 9455   3.138   0.196   0.440  1.4360  0.4588  0.5460
  635TMC3    C6 9456   3.163   0.061   0.422  0.1326 -0.3788 -0.7079
  635TMC3     C 9457   3.402   0.349   0.245 -0.3242 -0.3386 -0.1902
  635TMC3     O 9458   3.404   0.448   0.316 -0.5522 -0.1010 -0.6683
  635TMC3     H 9459   3.424   0.091   0.209  0.2858 -1.8968  0.6132
  635TMC3    H1 9460   3.192   0.397   0.375 -2.4528 -0.3299  1.2626
  635TMC3    H2 9461   3.110   4.730   0.486 -1.8220  0.2559 -1.6182
  635TMC3    C7 9462   3.034   0.234   0.536  0.0045  0.0508 -0.5203
  635TMC3    C8 9463   3.285   4.616   0.306 -0.5504 -0.3530  0.4655
  635TMC3    O1 9464   3.004   0.159   0.631 -0.1563  0.0800  0.0066
  635TMC3    O2 9465   3.394   4.594   0.257 -0.1954  0.3920  0.4574
  636MPD2     C 9466   4.706   4.190  15.643  0.7883  0.1101 -0.2479
  636MPD2    C1 9467   4.737   4.262  15.758 -0.0808 -0.0613  0.7547
  636MPD2    C2 9468   0.056   4.195  15.868  0.1574  0.3719 -0.2780
  636MPD2    C3 9469   0.097   4.061  15.857 -0.8619 -0.8931  0.4484
  636MPD2    C4 9470   0.071   3.993  15.733  1.3274  0.7899  0.4816
  636MPD2    C5 9471   4.726   4.054  15.642  0.1698 -0.6151 -0.2505
  636MPD2     H 9472   0.076   4.247  15.961 -2.6630 -0.8532  0.9798
  636MPD2    H1 9473   0.107   3.893  15.711 -1.0685 -0.3823  1.8311
  636MPD2    H2 9474   4.664   4.234  15.553 -2.1405 -1.1750  0.4942
  636MPD2    H3 9475   4.692   4.004  15.552  0.3809 -1.4886  0.1571
  636MPD2     N 9476   0.154   3.994  15.964 -0.2378  0.1778  0.2655
  636MPD2    H5 9477   0.173   4.045  16.050 -0.3103 -0.8875  0.9168
  636MPD2    N1 9478   4.706   4.403  15.772 -0.8999  0.4230 -0.4066
  636MPD2    H7 9479   4.712   4.448  15.863 -0.4009  0.5391 -0.5007
  637TMC3    C1 9480   0.248   3.801  16.088  0.1012 -0.7283  0.1683
  637TMC3    C2 9481   0.278   3.884  16.193 -0.3407 -0.0794  0.1077
  637TMC3    C3 9482   0.357   3.835  16.295 -0.2988  0.5836 -0.5609
  637TMC3    C4 9483   0.301   3.674  16.075 -0.3565  0.0560  0.0360
  637TMC3    C5 9484   0.368   3.627  16.179 -0.2070 -0.0047 -0.6796
  637TMC3    C6 9485   0.401   3.701  16.289  0.7395 -0.7076 -0.0410
  637TMC3     C 9486   0.183   3.856  15.966  0.0636 -0.3034 -0.9946
  637TMC3     O 9487   0.164   3.769  15.882  0.3611  0.4871  0.8953
  637TMC3     H 9488   0.236   3.983  16.199  0.6622  0.4750 -2.1352
  637TMC3    H1 9489   0.265   3.603  16.001  1.5023  0.4071 -1.1836
  637TMC3    H2 9490   0.466   3.658  16.365 -0.7455 -1.8545  0.5778
  637TMC3    C7 9491   0.417   3.491  16.166  0.0334 -0.0656 -0.6090
  637TMC3    C8 9492   0.458   3.934  16.350 -0.0635  0.1626 -0.3560
  637TMC3    O1 9493   0.370   3.408  16.237  0.0243 -0.4875  0.4193
  637TMC3    O2 9494   0.443   4.048  16.306 -0.3356 -0.1423  0.7518
  638MPD2     C 9495   4.519   2.968  15.037 -0.5917  0.2100  0.1772
  638MPD2    C1 9496   4.478   2.876  14.941  0.2307 -0.9207  0.1057
  638MPD2    C2 9497   4.396   2.775  14.973 -0.5836 -0.0934  0.0961
  638MPD2    C3 9498   4.344   2.758  15.102  0.2702 -0.2832 -0.4044
  638MPD2    C4 9499   4.384   2.846  15.204  0.2540 -0.5592  0.2996
  638MPD2    C5 9500   4.460   2.951  15.160 -0.4845  0.0034  0.1448
  638MPD2     H 9501   4.376   2.699  14.899 -1.8591  1.0195 -0.7222
  638MPD2    H1 9502   4.335   2.842  15.300 -0.5447 -0.5343 -0.1034
  638MPD2    H2 9503   4.579   3.055  15.014  0.4528 -0.8687 -1.1423
  638MPD2    H3 9504   4.504   3.025  15.226  0.1054  2.1821 -2.7108
  638MPD2     N 9505   4.269   2.636  15.119  0.3432 -0.3624  0.5218
  638MPD2    H5 9506   4.249   2.585  15.033  0.5006 -0.1496  0.3574
  638MPD2    N1 9507   4.543   2.881  14.815  0.3852 -0.4863  0.0189
  638MPD2    H7 9508   4.616   2.950  14.807  0.6914 -0.5575  2.2655
  639TMC3    C1 9509   4.234   2.448  15.224  0.3818  0.4447  0.5119
  639TMC3    C2 9510   4.189   2.416  15.100 -0.6418  0.4579 -0.2273
  639TMC3    C3 9511   4.268   2.327  15.028 -0.3723 -0.0148  0.5085
  639TMC3    C4 9512   4.341   2.384  15.282  0.1967  0.1805  0.4259
  639TMC3    C5 9513   4.417   2.309  15.199  0.1404  0.1510  0.3189
  639TMC3    C6 9514   4.384   2.275  15.073  0.1084  0.1432 -0.5805
  639TMC3     C 9515   4.238   2.584  15.244  1.0105  0.1282 -0.0765
  639TMC3     O 9516   4.258   2.632  15.353 -0.5857  0.3273 -0.6179
  639TMC3     H 9517   4.097   2.459  15.061 -0.8185 -0.4054 -0.7522
  639TMC3    H1 9518   4.372   2.422  15.379 -1.4175  0.8660  0.6698
  639TMC3    H2 9519   4.442   2.196  15.027  2.3307  1.1256  0.5373
  639TMC3    C7 9520   4.542   2.276  15.256 -0.0081 -0.7020 -0.4946
  639TMC3    C8 9521   4.204   2.247  14.923 -0.8417 -0.1848 -0.4027
  639TMC3    O1 9522   4.540   2.283  15.380 -0.0828 -0.2005  0.6427
  639TMC3    O2 9523   4.271   2.194  14.835 -0.1371  0.0390 -1.0433
  640MPD2     C 9524   4.419   2.565  10.425  0.4164 -0.5568 -0.8067
  640MPD2    C1 9525   4.480   2.677  10.379  0.4070 -0.0232 -0.6252
  640MPD2    C2 9526   4.416   2.801  10.391  0.2805  0.1414  0.1909
  640MPD2    C3 9527   4.297   2.811  10.473 -0.6080 -0.3226 -0.4026
  640MPD2    C4 9528   4.242   2.694  10.520 -0.6258 -0.0753 -0.1589
  640MPD2    C5 9529   4.307   2.570  10.501 -0.3001  0.5383 -0.2056
  640MPD2     H 9530   4.462   2.895  10.361  0.3767  0.2683  0.7266
  640MPD2    H1 9531   4.155   2.701  10.584 -0.1748 -2.4192  0.7111
  640MPD2    H2 9532   4.480   2.475  10.422  3.1882  1.3559 -1.7366
  640MPD2    H3 9533   4.272   2.478  10.546  0.7544  0.1894 -0.1109
  640MPD2     N 9534   4.227   2.931  10.499 -0.3836 -0.3917  0.2996
  640MPD2    H5 9535   4.158   2.924  10.572 -0.7040 -0.4762 -0.0129
  640MPD2    N1 9536   4.610   2.660  10.319 -0.9300 -0.0914 -0.0278
  640MPD2    H7 9537   4.657   2.570  10.311  0.9144  1.0702 -2.3350
  641TMC3    C1 9538   0.040   2.691  10.169  0.4197 -0.0150  0.2147
  641TMC3    C2 9539   0.113   2.581  10.209 -0.2592 -0.6277  0.8362
  641TMC3    C3 9540   0.205   2.537  10.125  0.0860 -0.3347  0.8076
  641TMC3    C4 9541   0.060   2.754  10.051  0.0911  0.1188  0.0590
  641TMC3    C5 9542   0.158   2.701   9.974 -0.0860  0.6081  0.4895
  641TMC3    C6 9543   0.240   2.596  10.011 -0.1716  0.4721 -0.5443
  641TMC3     C 9544   4.679   2.752  10.251  0.0157 -0.7652  0.8268
  641TMC3     O 9545   4.659   2.868  10.234  0.2793  0.0042 -0.1048
  641TMC3     H 9546   0.104   2.554  10.313 -0.1607 -0.6988  0.8259
  641TMC3    H1 9547   0.000   2.843  10.031 -0.1491 -0.1995 -0.6303
  641TMC3    H2 9548   0.315   2.555   9.946  2.0207  2.9439  0.4322
  641TMC3    C7 9549   0.181   2.755   9.839 -0.4604 -0.0212 -0.1591
  641TMC3    C8 9550   0.266   2.407  10.147 -0.5372 -0.4374 -0.5457
  641TMC3    O1 9551   0.281   2.723   9.770  0.1951 -0.0554  0.3519
  641TMC3    O2 9552   0.369   2.393  10.082 -0.8169  0.3446 -0.4779
  642TMC3    C1 9553   1.665   3.032  12.796  0.1933 -0.2803  0.5374
  642TMC3    C2 9554   1.774   3.085  12.726 -0.5805 -0.0488  0.3877
  642TMC3    C3 9555   1.829   3.005  12.625 -0.3552  0.0292 -0.5386
  642TMC3    C4 9556   1.611   2.905  12.776  0.3671  0.1095  0.0270
  642TMC3    C5 9557   1.663   2.839  12.672 -0.5272  0.7142 -0.0998
  642TMC3    C6 9558   1.763   2.890  12.591 -0.0249 -0.0282 -0.1772
  642TMC3     C 9559   1.607   3.132  12.878  0.0063  0.1278  0.1574
  642TMC3     O 9560   1.675   3.223  12.918  0.6490 -0.6660  0.4805
  642TMC3     H 9561   1.813   3.184  12.745 -2.6725  0.4697  2.0045
  642TMC3    H1 9562   1.525   2.865  12.830 -0.2361  0.1010 -0.9368
  642TMC3    H2 9563   1.793   2.827  12.508 -0.5667 -0.5610  0.0387
  642TMC3    C7 9564   1.610   2.716  12.626  0.6631  0.2404 -0.3998
  642TMC3    C8 9565   1.948   3.038  12.552  0.1304  0.1194 -0.0938
  642TMC3    O1 9566   1.613   2.689  12.507  0.5973 -0.4242  0.6834
  642TMC3    O2 9567   1.954   2.987  12.440  1.1124 -0.0640 -0.2866
  643TMC3    C1 9568   0.475   1.837  17.750  0.5619  0.0539  0.0094
  643TMC3    C2 9569   0.338   1.838  17.720  0.6791  0.3480  0.3524
  643TMC3    C3 9570   0.290   1.750  17.623 -0.5660  0.0222 -0.8964
  643TMC3    C4 9571   0.554   1.747  17.677  0.5914 -0.5544  0.3488
  643TMC3    C5 9572   0.506   1.664  17.580 -0.3377  1.3196  0.4951
  643TMC3    C6 9573   0.374   1.666  17.553 -0.1268  0.3499 -0.8776
  643TMC3     C 9574   0.518   1.895   0.124  0.7473 -0.9367  1.0536
  643TMC3     O 9575   0.431   1.904   0.207 -0.1074 -0.0360  0.4300
  643TMC3     H 9576   0.270   1.897   0.029  1.4902  1.6585 -0.0199
  643TMC3    H1 9577   0.659   1.732  17.701  0.5420 -0.4341  0.6375
  643TMC3    H2 9578   0.345   1.617  17.461  2.5781 -0.8387 -1.0911
  643TMC3    C7 9579   0.589   1.660  17.457  0.6157 -0.5379  0.3458
  643TMC3    C8 9580   0.182   1.800  17.541 -0.2639 -0.2667 -0.3729
  643TMC3    O1 9581   0.578   1.567  17.380 -0.1038  0.0056 -0.8031
  643TMC3    O2 9582   0.106   1.722  17.486 -0.3397  0.5655 -0.0685
  644MPD2     C 9583   0.213   3.054  10.262  0.0874 -0.5582  0.0765
  644MPD2    C1 9584   0.304   2.977  10.200  0.8857  0.3530 -0.9073
  644MPD2    C2 9585   0.344   2.999  10.072 -0.6324 -0.4518 -1.0946
  644MPD2    C3 9586   0.293   3.106  10.006 -0.3009  0.1856 -0.3661
  644MPD2    C4 9587   0.197   3.184  10.060  0.2569  0.1598  0.0230
  644MPD2    C5 9588   0.154   3.148  10.185  0.1644  1.0015  0.0241
  644MPD2     H 9589   0.403   2.929  10.015  1.3190  1.7877 -1.7968
  644MPD2    H1 9590   0.148   3.268  10.013  0.0689  0.0133 -0.0451
  644MPD2    H2 9591   0.167   3.024  10.354 -0.7195 -0.4779 -0.3039
  644MPD2    H3 9592   0.084   3.211  10.239 -1.4506  1.1457 -2.2503
  644MPD2     N 9593   0.346   3.135   9.884  0.4735 -0.7866  0.1573
  644MPD2    H5 9594   0.425   3.082   9.849  1.3386  1.6204 -1.5433
  644MPD2    N1 9595   0.371   2.876  10.271 -0.1470  0.2691 -0.0914
  644MPD2    H7 9596   0.324   2.833  10.350 -1.3873  1.8587  0.0487
  645TMC3    C1 9597   0.395   3.243   9.685 -0.0946 -0.2778  0.6978
  645TMC3    C2 9598   0.453   3.359   9.666 -0.4486  0.5946  0.0765
  645TMC3    C3 9599   0.567   3.368   9.587 -0.0229  0.6875 -0.4952
  645TMC3    C4 9600   0.442   3.131   9.632 -0.3020 -0.5243 -0.6874
  645TMC3    C5 9601   0.551   3.141   9.549  0.1656  0.2714 -0.5220
  645TMC3    C6 9602   0.616   3.258   9.526  0.3342  0.2111 -0.4762
  645TMC3     C 9603   0.305   3.237   9.803 -0.0699  0.2886 -0.3586
  645TMC3     O 9604   0.231   3.334   9.822  0.1512 -0.1339 -0.2353
  645TMC3     H 9605   0.409   3.442   9.720 -2.6930 -1.9520  2.1609
  645TMC3    H1 9606   0.397   3.036   9.658  0.0071  0.1759  2.3655
  645TMC3    H2 9607   0.710   3.265   9.473  0.2200 -0.5109 -0.7736
  645TMC3    C7 9608   0.612   3.026   9.478  0.3429  0.3512  0.1324
  645TMC3    C8 9609   0.640   3.496   9.583 -0.6268  0.0048 -0.7099
  645TMC3    O1 9610   0.708   3.036   9.404  0.5626 -0.3016 -0.3987
  645TMC3    O2 9611   0.741   3.490   9.518  0.2707 -0.3935  0.0932
  646MPD2     C 9612   4.628   1.558  14.254  0.2810 -0.0627 -0.7412
  646MPD2    C1 9613   4.554   1.588  14.365  0.2571  0.3156  0.1757
  646MPD2    C2 9614   4.432   1.660  14.353  0.1936 -0.5952  0.5622
  646MPD2    C3 9615   4.378   1.699  14.233 -0.5717  0.2173  0.8426
  646MPD2    C4 9616   4.458   1.672  14.119  0.2518  0.2371 -0.1336
  646MPD2    C5 9617   4.581   1.602  14.127 -0.0075 -0.3814  0.2682
  646MPD2     H 9618   4.373   1.679  14.442  0.7482 -0.1019  0.8305
  646MPD2    H1 9619   4.427   1.714  14.024 -2.4521  0.6739  0.9571
  646MPD2    H2 9620   4.727   1.515  14.264  0.2384  0.2308  1.0390
  646MPD2    H3 9621   4.638   1.581  14.037 -1.5249  0.0450 -0.8076
  646MPD2     N 9622   4.256   1.778  14.234  0.5520 -0.0955 -0.5309
  646MPD2    H5 9623   4.210   1.793  14.323 -0.3732  0.3864 -1.0844
  646MPD2    N1 9624   4.596   1.532  14.482 -0.1778 -0.6044  0.7373
  646MPD2    H7 9625   4.687   1.486  14.482 -0.8548 -1.9444  1.4561
  647TMC3    C1 9626   4.615   1.474  14.703  0.3088 -0.4087  0.2122
  647TMC3    C2 9627   4.547   1.450  14.815 -0.3618 -0.0996 -0.4735
  647TMC3    C3 9628   4.623   1.405  14.922 -0.1316 -0.3520  0.5532
  647TMC3    C4 9629   0.008   1.454  14.690 -0.4777  0.7399 -0.3310
  647TMC3    C5 9630   0.081   1.392  14.791  0.2578  0.5534 -0.0149
  647TMC3    C6 9631   0.015   1.367  14.909 -0.2370 -0.2976 -0.5916
  647TMC3     C 9632   4.528   1.527  14.601  1.0735  1.7119 -0.9051
  647TMC3     O 9633   4.409   1.554  14.619  0.1451  0.3677  0.4185
  647TMC3     H 9634   4.444   1.481  14.833 -0.4951  0.4953 -2.2494
  647TMC3    H1 9635   0.065   1.514  14.621 -0.5362  0.9119 -0.2283
  647TMC3    H2 9636   0.070   1.343  14.999  0.4054 -4.0719 -1.9988
  647TMC3    C7 9637   0.225   1.413  14.803  0.2018 -0.5685  0.0595
  647TMC3    C8 9638   4.555   1.401  15.047 -0.4488 -0.2556 -0.4518
  647TMC3    O1 9639   0.272   1.421  14.914  0.6415 -0.3034  0.2611
  647TMC3    O2 9640   4.491   1.500  15.076  0.2464  0.3704  0.4866
  648TMC3    C1 9641   3.845   4.050  16.096  0.0945  0.1820  0.2384
  648TMC3    C2 9642   3.761   3.942  16.066  0.6065 -0.1905 -0.1662
  648TMC3    C3 9643   3.740   3.918  15.928  0.7978 -0.0415  0.2454
  648TMC3    C4 9644   3.897   4.130  15.992 -0.1366 -0.1304 -0.2877
  648TMC3    C5 9645   3.870   4.094  15.863  0.2882 -0.7032 -0.1179
  648TMC3    C6 9646   3.796   3.990  15.823  0.5727  0.4128  0.1166
  648TMC3     C 9647   3.806   4.123  16.219  0.5887  0.8018 -0.9268
  648TMC3     O 9648   3.858   4.233  16.221  0.7121  1.0825  0.0076
  648TMC3     H 9649   3.704   3.888  16.141  1.9185 -2.8021 -1.0346
  648TMC3    H1 9650   3.951   4.222  16.015 -1.2976  0.0896  1.5055
  648TMC3    H2 9651   3.767   3.980  15.719 -2.3265 -0.7651  1.0470
  648TMC3    C7 9652   3.855   4.206  15.763  0.5879 -0.5453 -0.0173
  648TMC3    C8 9653   3.722   3.777  15.894  0.0614 -0.2360  0.3794
  648TMC3    O1 9654   3.887   4.193  15.645 -0.4959 -0.0242  0.1894
  648TMC3    O2 9655   3.633   3.721  15.956 -0.4563  0.3546 -0.5489
  649TMC3    C1 9656   2.311   0.283  12.680  0.2606  0.0276 -0.0874
  649TMC3    C2 9657   2.407   0.219  12.604 -0.1285  0.3122  0.9053
  649TMC3    C3 9658   2.478   0.122  12.672  0.9896  0.3150  0.1661
  649TMC3    C4 9659   2.288   0.251  12.809  0.3046  0.5769  0.3247
  649TMC3    C5 9660   2.349   0.141  12.870 -0.2640  0.1991 -0.1167
  649TMC3    C6 9661   2.445   0.080  12.792  0.3270  1.0404 -0.4170
  649TMC3     C 9662   2.256   0.400  12.623  0.4840 -0.3034 -0.6389
  649TMC3     O 9663   2.225   0.496  12.690 -0.1874 -0.5792  0.1368
  649TMC3     H 9664   2.446   0.263  12.513 -0.6637 -1.8680 -0.3592
  649TMC3    H1 9665   2.221   0.311  12.870  0.8611  1.1342  0.3966
  649TMC3    H2 9666   2.500   4.730  12.822  1.5135  1.6303 -0.8531
  649TMC3    C7 9667   2.306   0.107  13.004  0.6099 -0.3088  0.2622
  649TMC3    C8 9668   2.618   0.083  12.627  0.3548  0.4195 -0.0102
  649TMC3    O1 9669   2.271   0.196  13.077 -0.3462 -0.1252  0.5368
  649TMC3    O2 9670   2.630   4.704  12.639  0.5662 -0.6893 -0.5176
  650TMC3    C1 9671   0.552   2.026  12.609  0.3800  0.0261  0.1447
  650TMC3    C2 9672   0.570   2.155  12.622 -0.5768  0.4926 -0.2292
  650TMC3    C3 9673   0.469   2.240  12.594  0.0635 -0.2806 -0.0075
  650TMC3    C4 9674   0.441   1.984  12.551  0.2851 -0.4525 -1.0089
  650TMC3    C5 9675   0.344   2.071  12.504  0.6217 -0.0009 -0.0521
  650TMC3    C6 9676   0.359   2.205  12.526  0.0572  0.4744 -0.9475
  650TMC3     C 9677   0.666   1.934  12.618  0.5167 -0.0817 -0.2785
  650TMC3     O 9678   0.779   1.977  12.604  0.3025  0.4555 -0.4066
  650TMC3     H 9679   0.654   2.194  12.679 -0.6222  1.3170 -0.7347
  650TMC3    H1 9680   0.434   1.884  12.510  0.3024 -0.9547  0.2388
  650TMC3    H2 9681   0.270   2.263  12.504 -2.4446 -1.7792  3.2929
  650TMC3    C7 9682   0.249   2.015  12.405  0.2348 -0.6055  0.5549
  650TMC3    C8 9683   0.484   2.381  12.605  0.4735 -0.0255  0.6525
  650TMC3    O1 9684   0.199   1.905  12.437 -0.3328  0.0141 -0.1063
  650TMC3    O2 9685   0.596   2.430  12.620 -0.2539 -0.3039 -0.7444
  651MPD2     C 9686   4.520   4.502  11.314 -0.3590  0.7495 -0.0892
  651MPD2    C1 9687   4.486   4.538  11.184 -0.5046  0.8657 -0.7622
  651MPD2    C2 9688   4.581   4.599  11.110 -0.3898  0.2761  0.4694
  651MPD2    C3 9689   4.705   4.623  11.155  1.0041  0.2045 -0.4254
  651MPD2    C4 9690   4.735   4.606  11.285 -0.6055 -0.1472  0.2674
  651MPD2    C5 9691   4.642   4.545  11.366 -0.0750 -0.7051 -0.1010
  651MPD2     H 9692   4.556   4.638  11.012 -1.6082  3.5108  2.0535
  651MPD2    H1 9693   0.090   4.645  11.325 -0.9274 -0.0237  0.8926
  651MPD2    H2 9694   4.452   4.445  11.377 -0.7284  1.3157  0.0312
  651MPD2    H3 9695   4.671   4.527  11.469 -0.1649  1.1107  0.2379
  651MPD2     N 9696   0.049   4.681  11.062 -0.5252 -0.1354  0.5327
  651MPD2    H5 9697   0.005   4.710  10.976  1.8164 -0.0701 -0.6238
  651MPD2    N1 9698   4.360   4.525  11.126 -0.2597 -0.1376 -0.2153
  651MPD2    H7 9699   4.357   4.557  11.030 -1.9307 -1.8085 -0.7379
  652TMC3    C1 9700   0.396   4.719  10.783  0.4573  0.0547  0.3333
  652TMC3    C2 9701   0.345   4.680  10.906 -0.2601 -0.4236 -0.4659
  652TMC3    C3 9702   0.229   0.002  10.944  0.2937 -0.1601  0.5034
  652TMC3    C4 9703   0.325   0.065  10.701 -0.3109 -0.2913 -0.4022
  652TMC3    C5 9704   0.208   0.121  10.749  0.2720  0.1021 -0.4034
  652TMC3    C6 9705   0.153   0.084  10.872 -0.7786  0.2449 -0.4813
  652TMC3     C 9706   0.528   4.678  10.741 -0.1680  0.3878  0.8544
  652TMC3     O 9707   0.576   4.604  10.834  0.7517 -0.3579  0.1222
  652TMC3     H 9708   0.396   4.613  10.973  3.0946  3.4603  0.8860
  652TMC3    H1 9709   0.365   0.090  10.604 -0.3353  2.0111  0.1574
  652TMC3    H2 9710   0.062   0.127  10.911 -0.2748 -1.9609  3.1621
  652TMC3    C7 9711   0.146   0.242  10.690  0.3049 -1.0460 -0.2884
  652TMC3    C8 9712   0.185   4.705  11.078 -0.1930 -0.2096 -0.1248
  652TMC3    O1 9713   0.027   0.249  10.714  0.5514  0.5364  0.1617
  652TMC3    O2 9714   0.259   4.686  11.175 -0.0918  0.1872  0.2432
  653MPD2     C 9715   3.108   4.555  17.695  0.1256 -0.3117  0.0394
  653MPD2    C1 9716   3.073   4.627  17.584 -0.1609 -0.1449  0.2937
  653MPD2    C2 9717   3.055   4.564  17.463 -0.5382 -0.2699  0.1696
  653MPD2    C3 9718   3.063   4.424  17.451 -0.1246 -0.1331 -0.0346
  653MPD2    C4 9719   3.085   4.349  17.561  0.3237  0.0064 -0.7804
  653MPD2    C5 9720   3.111   4.412  17.677 -0.1134 -0.1380 -0.3050
  653MPD2     H 9721   3.033   4.621  17.373  1.9751  0.4760  0.0280
  653MPD2    H1 9722   3.085   4.240  17.561  0.5382 -0.0065  1.0423
  653MPD2    H2 9723   3.139   4.597   0.038 -1.1192  0.1745  0.2372
  653MPD2    H3 9724   3.146   4.347   0.005  1.8202  2.2178  0.7812
  653MPD2     N 9725   3.042   4.368  17.326  0.0395 -0.0787  0.0573
  653MPD2    H5 9726   3.009   4.428  17.251 -0.8297 -0.1698  0.3586
  653MPD2    N1 9727   3.067   0.035  17.589  0.2545 -0.0192 -0.1739
  653MPD2    H7 9728   3.052   0.086  17.502  0.3483  1.2860  0.5805
  654TMC3    C1 9729   2.985   4.202  17.179  0.5389 -0.7824  0.8384
  654TMC3    C2 9730   2.866   4.269  17.144  0.4172  0.0993 -0.1740
  654TMC3    C3 9731   2.801   4.212  17.045 -0.1826 -0.2348  0.3572
  654TMC3    C4 9732   3.022   4.079  17.128 -0.6227 -0.3345  0.3058
  654TMC3    C5 9733   2.950   4.023  17.028  0.1192  0.2069 -0.2842
  654TMC3    C6 9734   2.836   4.092  16.986  1.0374  0.5268  0.4506
  654TMC3     C 9735   3.045   4.234  17.304  0.1410  0.1550 -0.1453
  654TMC3     O 9736   3.117   4.148  17.357  0.4289 -0.1321 -0.2002
  654TMC3     H 9737   2.829   4.345  17.212 -1.8102 -0.7580 -0.4387
  654TMC3    H1 9738   3.121   4.039  17.146  0.2130  2.0185  0.8511
  654TMC3    H2 9739   2.785   4.057  16.896 -0.3407  1.5404  0.8325
  654TMC3    C7 9740   2.995   3.903  16.965  0.2747 -0.1200  0.3430
  654TMC3    C8 9741   2.659   4.229  17.051  0.2209  0.2496 -0.5228
  654TMC3    O1 9742   2.963   3.878  16.852  0.1746  0.7918  0.2589
  654TMC3    O2 9743   2.594   4.134  17.005  0.2838 -0.1993  0.3193
  655MPD2     C 9744   4.326   4.174  15.721 -0.8241 -0.0967  0.4956
  655MPD2    C1 9745   4.225   4.236  15.643  0.1695  0.8150 -0.6240
  655MPD2    C2 9746   4.177   4.172  15.534  0.0053 -0.6924 -0.1684
  655MPD2    C3 9747   4.241   4.051  15.493 -0.0634  0.7692 -0.6115
  655MPD2    C4 9748   4.341   4.001  15.563 -0.0977 -0.7955  0.2200
  655MPD2    C5 9749   4.375   4.057  15.684  0.2593 -0.4654 -0.5122
  655MPD2     H 9750   4.102   4.222  15.474  0.8807 -0.3694 -0.9954
  655MPD2    H1 9751   4.386   3.907  15.531  0.6133 -1.3573  2.8242
  655MPD2    H2 9752   4.369   4.227  15.805  1.2371  0.1770 -0.7172
  655MPD2    H3 9753   4.454   4.017  15.748 -0.1214  1.0287  0.8902
  655MPD2     N 9754   4.210   3.979  15.380 -0.3144 -0.1439  0.4278
  655MPD2    H5 9755   4.272   3.900  15.363  1.0333  0.8215  0.8698
  655MPD2    N1 9756   4.180   4.368  15.660  0.1555 -0.3107 -0.1920
  655MPD2    H7 9757   4.126   4.409  15.584  1.1695  0.1870 -0.6546
  656TMC3    C1 9758   4.141   4.573  15.752  0.0156 -0.7956  1.4348
  656TMC3    C2 9759   4.058   4.605  15.858  0.0772 -0.5236 -0.2317
  656TMC3    C3 9760   3.977   4.712  15.838 -0.3946  0.2640  1.0984
  656TMC3    C4 9761   4.121   4.623  15.629 -0.5445 -0.7054 -0.2952
  656TMC3    C5 9762   4.028   4.727  15.619  0.6585 -0.1544 -0.1319
  656TMC3    C6 9763   3.955   0.038  15.721  0.2392  0.1982  0.4885
  656TMC3     C 9764   4.208   4.448  15.765  0.3599 -0.2463 -0.5830
  656TMC3     O 9765   4.263   4.418  15.870 -0.4243 -0.3834  0.1200
  656TMC3     H 9766   4.076   4.571  15.959  0.8860  0.9005  0.1053
  656TMC3    H1 9767   4.188   4.604  15.545  0.5992  1.1568  0.1947
  656TMC3    H2 9768   3.873   0.109  15.716 -0.0035 -0.0661  0.6816
  656TMC3    C7 9769   4.004   0.032  15.483 -0.1867 -0.8066  0.0655
  656TMC3    C8 9770   3.867   4.737  15.932  0.6708  0.1040  0.3198
  656TMC3    O1 9771   4.082   4.733  15.401  0.0347  0.4287 -0.4915
  656TMC3    O2 9772   3.811   0.108  15.938  0.0275 -0.6203  0.1495
  657TMC3    C1 9773   3.402   3.552  14.646  0.4544 -0.5358 -0.3351
  657TMC3    C2 9774   3.383   3.445  14.731 -0.0037 -0.1989  0.3578
  657TMC3    C3 9775   3.265   3.448  14.801  0.3929 -0.0839  1.1297
  657TMC3    C4 9776   3.312   3.653  14.629  0.3653 -0.6046  0.0108
  657TMC3    C5 9777   3.193   3.642  14.694 -0.4431 -0.1102 -0.2388
  657TMC3    C6 9778   3.160   3.544  14.788 -0.6312 -0.0288  0.9419
  657TMC3     C 9779   3.534   3.591  14.616  0.2119  0.1459 -0.1166
  657TMC3     O 9780   3.570   3.708  14.638  0.3768 -0.2840  0.2228
  657TMC3     H 9781   3.464   3.392  14.780  1.7219  2.0767 -0.0513
  657TMC3    H1 9782   3.342   3.738  14.569  3.2936  1.0358  3.7648
  657TMC3    H2 9783   3.065   3.533  14.838 -1.5103 -2.5357 -1.2146
  657TMC3    C7 9784   3.081   3.702  14.636 -0.8803 -0.4864 -0.5711
  657TMC3    C8 9785   3.212   3.318  14.840  0.1647  0.2482  0.4028
  657TMC3    O1 9786   2.972   3.648  14.652 -0.6416 -0.3215  0.2525
  657TMC3    O2 9787   3.127   3.330  14.924  0.0215  0.3545  0.0425
  658MPD2     C 9788   4.640   3.860  14.916  0.5969 -0.0076  0.2336
  658MPD2    C1 9789   4.512   3.878  14.871  0.4725 -0.2882 -0.8776
  658MPD2    C2 9790   4.492   3.943  14.754 -0.4404  0.0515 -0.3366
  658MPD2    C3 9791   4.597   3.982  14.676  0.1408  0.4288 -0.2071
  658MPD2    C4 9792   4.727   3.969  14.724 -0.0430  0.4976 -0.8034
  658MPD2    C5 9793   0.008   3.908  14.839 -0.0218 -1.0535 -0.2355
  658MPD2     H 9794   4.393   3.971  14.723 -0.0235  0.7267 -1.0538
  658MPD2    H1 9795   0.068   3.991  14.654  0.7813  1.1290  0.3264
  658MPD2    H2 9796   4.669   3.808  15.006  0.0093 -0.6044  0.0744
  658MPD2    H3 9797   0.109   3.884  14.871 -0.2181 -1.9930 -0.3047
  658MPD2     N 9798   4.563   4.037  14.554  0.3993  0.1765  0.6055
  658MPD2    H5 9799   4.467   4.024  14.522  0.2198 -0.2049  1.3045
  658MPD2    N1 9800   4.397   3.845  14.952  0.4995  0.4260 -0.3260
  658MPD2    H7 9801   4.418   3.826  15.050  2.2969  3.5143 -0.1199
  659TMC3    C1 9802   4.166   3.833  15.012  0.3236  0.2509 -0.2909
  659TMC3    C2 9803   4.196   3.902  15.125  0.1991 -0.3609  0.1304
  659TMC3    C3 9804   4.093   3.909  15.205 -0.1679 -0.6483 -0.6245
  659TMC3    C4 9805   4.047   3.780  14.975 -0.5559  0.5703 -0.4016
  659TMC3    C5 9806   3.944   3.795  15.062 -0.1696  0.5995 -0.0803
  659TMC3    C6 9807   3.968   3.871  15.172 -0.3511 -0.4236 -0.1581
  659TMC3     C 9808   4.267   3.826  14.910 -0.0494 -0.1957 -0.5216
  659TMC3     O 9809   4.223   3.818  14.793  0.4218 -0.6337  0.0812
  659TMC3     H 9810   4.287   3.957  15.145 -0.2143  1.5581 -3.1461
  659TMC3    H1 9811   4.039   3.718  14.886 -0.5941  2.3199 -1.6023
  659TMC3    H2 9812   3.887   3.898  15.239  0.1385  1.6313 -0.3873
  659TMC3    C7 9813   3.812   3.720  15.060 -0.2627  0.1851  0.4848
  659TMC3    C8 9814   4.095   4.004  15.309 -0.6545  0.4940  0.6032
  659TMC3    O1 9815   3.717   3.749  15.132 -0.0975 -0.1586  0.3185
  659TMC3    O2 9816   3.995   4.074  15.324 -0.2351  0.2904  0.2188
  660MPD2     C 9817   2.676   3.209  12.996  0.0038 -0.4819  0.6893
  660MPD2    C1 9818   2.580   3.296  12.952 -0.0105 -0.3396 -0.7730
  660MPD2    C2 9819   2.445   3.283  12.999 -0.3238  0.0895 -0.3627
  660MPD2    C3 9820   2.415   3.174  13.080 -0.1741  1.1881  0.8045
  660MPD2    C4 9821   2.514   3.078  13.106  0.0866  0.3776  0.5441
  660MPD2    C5 9822   2.646   3.100  13.067 -0.6585 -0.5897  0.2222
  660MPD2     H 9823   2.364   3.348  12.971  0.7119  2.6792  2.6812
  660MPD2    H1 9824   2.484   2.990  13.161 -1.1643  0.1199 -0.5492
  660MPD2    H2 9825   2.779   3.226  12.967  0.1487  1.1491  2.1858
  660MPD2    H3 9826   2.734   3.045  13.100  1.0172  0.3689 -2.6174
  660MPD2     N 9827   2.290   3.165  13.141 -0.2337  0.1115  0.1269
  660MPD2    H5 9828   2.272   3.085  13.200 -0.1090 -0.8626 -1.1646
  660MPD2    N1 9829   2.614   3.400  12.859  0.1094  0.1730  0.2978
  660MPD2    H7 9830   2.531   3.447  12.825  0.6850 -0.2854 -1.7147
  661TMC3    C1 9831   2.720   3.522  12.697  0.5542  0.2962 -0.2146
  661TMC3    C2 9832   2.762   3.473  12.580 -0.7812  0.4636 -0.1574
  661TMC3    C3 9833   2.682   3.474  12.469  0.3072  0.0103  0.5393
  661TMC3    C4 9834   2.599   3.577  12.707  0.1921  0.1102  0.0139
  661TMC3    C5 9835   2.521   3.586  12.591 -0.0122 -0.1351 -0.3725
  661TMC3    C6 9836   2.564   3.540  12.471 -0.5025  1.3134  0.5411
  661TMC3     C 9837   2.729   3.419  12.800  0.2414 -0.2059 -0.1642
  661TMC3     O 9838   2.832   3.353  12.798  0.1494  0.6140  0.2511
  661TMC3     H 9839   2.850   3.411  12.582 -1.4130 -0.3477  2.0101
  661TMC3    H1 9840   2.564   3.633  12.792  0.0745  1.7365 -1.1036
  661TMC3    H2 9841   2.501   3.553  12.384 -0.7409  1.9517  0.8140
  661TMC3    C7 9842   2.379   3.578  12.619  0.4490  0.0501  0.1190
  661TMC3    C8 9843   2.739   3.403  12.353  0.4609 -0.4177 -0.0149
  661TMC3    O1 9844   2.357   3.562  12.741  0.8743 -0.4857  0.2380
  661TMC3    O2 9845   2.843   3.337  12.357 -0.3961 -0.0388 -0.8348
  662MPD2     C 9846   3.048   2.857  16.793 -0.1825  0.1301  0.1652
  662MPD2    C1 9847   2.955   2.777  16.850  0.4454  0.0020  0.1190
  662MPD2    C2 9848   2.875   2.834  16.945  0.3000  0.1859  0.0372
  662MPD2    C3 9849   2.873   2.963  16.983 -0.0423 -0.0838  0.5265
  662MPD2    C4 9850   2.962   3.047  16.919  0.5823  0.3310  0.3983
  662MPD2    C5 9851   3.046   2.991  16.829 -0.2855 -0.1437  0.0577
  662MPD2     H 9852   2.816   2.760  16.998 -4.4252  3.5843 -0.5464
  662MPD2    H1 9853   2.961   3.154  16.939  3.7214  0.3247  0.5331
  662MPD2    H2 9854   3.116   2.823  16.716 -1.8912  0.4411 -1.4834
  662MPD2    H3 9855   3.109   3.063  16.776 -0.6920 -1.2521 -1.9334
  662MPD2     N 9856   2.787   3.012  17.080 -1.0391 -0.1924 -0.5726
  662MPD2    H5 9857   2.803   3.106  17.115 -0.5129 -0.3619 -0.3484
  662MPD2    N1 9858   2.934   2.638  16.822 -0.4873 -0.4515  0.2320
  662MPD2    H7 9859   2.857   2.594  16.871 -0.6782 -1.2371 -0.7828
  663TMC3    C1 9860   2.944   2.415  16.760 -0.6416 -0.6357 -0.0432
  663TMC3    C2 9861   2.906   2.390  16.889 -0.0132 -0.7807 -0.2796
  663TMC3    C3 9862   2.794   2.318  16.923  0.1932 -0.1631  0.1332
  663TMC3    C4 9863   2.897   2.345  16.654 -0.1628 -0.0502  0.1357
  663TMC3    C5 9864   2.801   2.257  16.693  0.0595  0.5207  0.6782
  663TMC3    C6 9865   2.749   2.244  16.817 -0.0232  0.6056 -0.5512
  663TMC3     C 9866   2.996   2.551  16.732 -0.1615  0.3017 -1.3573
  663TMC3     O 9867   3.087   2.572  16.653 -0.5908 -0.4011 -0.4616
  663TMC3     H 9868   2.954   2.453  16.964 -2.2979  0.3294  0.2652
  663TMC3    H1 9869   2.950   2.348  16.560  1.1441 -0.9131  0.8463
  663TMC3    H2 9870   2.644   2.217  16.822  0.7306 -1.9294  1.3598
  663TMC3    C7 9871   2.751   2.157  16.594  0.6228 -1.0415 -0.2134
  663TMC3    C8 9872   2.687   2.415  16.946 -1.1983  0.0205  1.0101
  663TMC3    O1 9873   2.755   2.180  16.475 -0.7011  0.0572  0.1006
  663TMC3    O2 9874   2.708   2.528  16.905 -0.0804  0.1344 -0.8600
  664MPD2     C 9875   0.706   0.935  17.141  0.2147  0.7930 -0.0360
  664MPD2    C1 9876   0.823   1.003  17.177  0.4593 -0.2151 -0.1742
  664MPD2    C2 9877   0.864   1.011  17.306 -0.1160 -0.0011 -0.5431
  664MPD2    C3 9878   0.797   0.942  17.407 -0.3658  0.7214 -0.5229
  664MPD2    C4 9879   0.679   0.871  17.374 -0.1159 -0.2679 -0.4632
  664MPD2    C5 9880   0.647   0.879  17.246 -0.1390 -0.1242 -0.4848
  664MPD2     H 9881   0.947   1.075  17.333 -1.4694  0.5702  2.2866
  664MPD2    H1 9882   0.622   0.827  17.455 -0.7891  0.3116 -0.6322
  664MPD2    H2 9883   0.666   0.912  17.043 -1.9783 -0.9058  1.2577
  664MPD2    H3 9884   0.557   0.822  17.224 -0.9066  1.3157 -1.0641
  664MPD2     N 9885   0.847   0.947  17.542  0.5473  0.5163  0.0482
  664MPD2    H5 9886   0.930   1.001  17.563  1.5454 -0.9795 -0.0009
  664MPD2    N1 9887   0.910   1.061  17.082 -0.1033  0.1306 -0.2151
  664MPD2    H7 9888   0.993   1.103  17.123 -1.7415  0.4463  2.7958
  665TMC3    C1 9889   0.839   0.907   0.028  0.3926 -0.9033  0.5190
  665TMC3    C2 9890   0.776   0.832   0.129 -0.4140  0.0254  0.5272
  665TMC3    C3 9891   0.815   0.861   0.259  0.2793  0.6870 -0.6288
  665TMC3    C4 9892   0.937   0.997   0.058  0.1299 -0.1377 -0.4877
  665TMC3    C5 9893   0.984   1.020   0.191 -1.0496  0.3719 -0.0363
  665TMC3    C6 9894   0.913   0.952   0.287 -0.1174 -0.1033 -0.2615
  665TMC3     C 9895   0.798   0.868  17.646  0.2257 -0.6815  0.1397
  665TMC3     O 9896   0.738   0.763  17.630 -0.0540 -0.7316 -0.1253
  665TMC3     H 9897   0.708   0.751   0.103  0.5095 -0.8980  0.9804
  665TMC3    H1 9898   0.983   1.056  17.731  0.8117 -1.7449 -1.2928
  665TMC3    H2 9899   0.930   0.978   0.391  1.5335  0.7894 -0.7622
  665TMC3    C7 9900   1.073   1.134   0.215  0.1618 -0.1577  0.2205
  665TMC3    C8 9901   0.714   0.837   0.363  0.4429 -0.4979 -0.3393
  665TMC3    O1 9902   1.144   1.172   0.118  0.4958 -0.0921 -0.1250
  665TMC3    O2 9903   0.596   0.837   0.327  0.2128 -0.1380  0.3963
  666TMC3    C1 9904   4.392   1.293   9.515 -0.6100  0.1007 -0.2053
  666TMC3    C2 9905   4.466   1.243   9.414  0.4708 -0.5722  0.5010
  666TMC3    C3 9906   4.596   1.274   9.413  0.3132  0.4221  0.2614
  666TMC3    C4 9907   4.432   1.395   9.596  0.2147 -0.4464  0.0100
  666TMC3    C5 9908   4.561   1.436   9.580 -0.0667 -0.4820 -0.3783
  666TMC3    C6 9909   4.646   1.377   9.492 -0.1064 -0.1322 -0.2838
  666TMC3     C 9910   4.285   1.206   9.558 -0.0177  0.2065 -0.5075
  666TMC3     O 9911   4.228   1.158   9.463  0.1243 -0.0457 -0.3761
  666TMC3     H 9912   4.434   1.156   9.358 -1.3099 -1.3752  2.7275
  666TMC3    H1 9913   4.371   1.407   9.685 -0.3729  1.5526 -0.6636
  666TMC3    H2 9914   0.014   1.392   9.501  0.1262 -1.1658 -1.3240
  666TMC3    C7 9915   4.596   1.543   9.668  0.7243 -0.2194  0.5257
  666TMC3    C8 9916   4.676   1.174   9.354  0.4785  0.1051  0.1539
  666TMC3    O1 9917   4.526   1.560   9.766  0.2092  0.1881  0.6834
  666TMC3    O2 9918   4.636   1.107   9.258  0.6198 -0.1082 -0.1049
  667MPD2     C 9919   1.644   1.195  14.198  0.4083 -0.0574  0.0826
  667MPD2    C1 9920   1.602   1.225  14.329  0.0660  0.6948  0.3613
  667MPD2    C2 9921   1.482   1.172  14.377 -0.7565 -0.8977 -0.6263
  667MPD2    C3 9922   1.396   1.104  14.295 -0.1279  1.2557  0.0388
  667MPD2    C4 9923   1.444   1.069  14.166 -0.1434  0.5852 -0.3550
  667MPD2    C5 9924   1.563   1.122  14.117 -0.9259  0.1149 -0.4619
  667MPD2     H 9925   1.447   1.205  14.474 -0.3565  0.6984 -1.0243
  667MPD2    H1 9926   1.383   1.004  14.105  0.6089  0.2380 -0.7344
  667MPD2    H2 9927   1.737   1.228  14.155 -0.0278 -1.2628 -1.7489
  667MPD2    H3 9928   1.585   1.095  14.014  3.8677 -0.3137  0.6486
  667MPD2     N 9929   1.266   1.071  14.333  0.0603 -0.9046  0.2719
  667MPD2    H5 9930   1.221   1.015  14.262  0.8611 -1.3349  0.0965
  667MPD2    N1 9931   1.672   1.303  14.419 -0.2792  0.2401  0.3572
  667MPD2    H7 9932   1.635   1.313  14.513 -0.7527 -1.8347  0.4021
  668TMC3    C1 9933   1.846   1.412  14.537 -0.6872  0.1180 -0.5140
  668TMC3    C2 9934   1.900   1.536  14.526 -1.0513 -0.0823  0.3600
  668TMC3    C3 9935   1.930   1.594  14.647 -0.0806  0.1727 -0.0773
  668TMC3    C4 9936   1.799   1.357  14.656 -0.1276  0.1988  0.1099
  668TMC3    C5 9937   1.834   1.417  14.772 -0.3615  0.7075 -0.3766
  668TMC3    C6 9938   1.907   1.532  14.763 -0.1580 -0.0475  0.3006
  668TMC3     C 9939   1.797   1.363  14.408 -0.6906 -0.0081 -0.1318
  668TMC3     O 9940   1.860   1.378  14.299  0.5371 -0.1565  0.6092
  668TMC3     H 9941   1.911   1.583  14.429 -0.9730  0.6856  0.7428
  668TMC3    H1 9942   1.754   1.259  14.659 -0.9636  0.6269  1.6528
  668TMC3    H2 9943   1.941   1.583  14.852 -1.3904  0.6003  0.4020
  668TMC3    C7 9944   1.833   1.350  14.895 -0.3975 -0.1014 -0.5209
  668TMC3    C8 9945   1.999   1.719  14.652 -0.3714 -0.2912  0.0036
  668TMC3    O1 9946   1.926   1.367  14.972 -0.6060  0.4071  0.2788
  668TMC3    O2 9947   2.006   1.783  14.760 -0.1656 -0.6164 -0.0367
  669TMC3    C1 9948   4.366   0.867  14.145 -0.3742 -0.0925 -0.1625
  669TMC3    C2 9949   4.273   0.828  14.056  0.3114 -0.0184 -0.0033
  669TMC3    C3 9950   4.291   0.871  13.931 -0.8292 -0.0728 -0.3077
  669TMC3    C4 9951   4.455   0.968  14.119  0.1617  0.4734  0.1363
  669TMC3    C5 9952   4.476   1.005  13.988  0.0373 -0.3776  0.3041
  669TMC3    C6 9953   4.396   0.954  13.887  0.5844  0.3535  0.7597
  669TMC3     C 9954   4.367   0.799  14.274 -1.0617  0.0142  0.5604
  669TMC3     O 9955   4.260   0.775  14.330 -0.1230 -0.0190 -0.1480
  669TMC3     H 9956   4.194   0.763  14.091  0.2997 -0.0602 -0.1088
  669TMC3    H1 9957   4.519   1.014  14.193  0.6835 -0.4639  0.2754
  669TMC3    H2 9958   4.410   0.966  13.780  0.1817  1.1126  0.7878
  669TMC3    C7 9959   4.579   1.102  13.954 -0.7265 -0.1142 -0.4617
  669TMC3    C8 9960   4.182   0.829  13.845  0.0157 -0.1879  0.0474
  669TMC3    O1 9961   4.670   1.113  14.035 -0.0658 -0.1744 -0.2089
  669TMC3    O2 9962   4.106   0.741  13.872  0.1910 -0.0104 -0.1038
  670MPD2     C 9963   2.638   3.805  13.531  0.2062 -0.5251  0.6590
  670MPD2    C1 9964   2.747   3.732  13.563 -0.8015  0.5032  0.3378
  670MPD2    C2 9965   2.743   3.644  13.668 -0.4279  0.3245 -0.2901
  670MPD2    C3 9966   2.629   3.633  13.749  0.4982 -0.2649  0.7638
  670MPD2    C4 9967   2.518   3.702  13.719  0.2149  0.2146  0.2009
  670MPD2    C5 9968   2.524   3.791  13.611 -0.6192 -0.5935  0.3277
  670MPD2     H 9969   2.828   3.583  13.697 -1.6102 -1.6424 -0.9668
  670MPD2    H1 9970   2.428   3.691  13.779 -0.4054  1.7708 -0.4250
  670MPD2    H2 9971   2.642   3.882  13.455 -0.0703 -1.7569 -0.6096
  670MPD2    H3 9972   2.440   3.850  13.578  1.1155  1.3586 -0.6468
  670MPD2     N 9973   2.634   3.529  13.840 -0.1914 -0.1318  0.3717
  670MPD2    H5 9974   2.721   3.477  13.847 -0.1817 -0.2195 -0.4882
  670MPD2    N1 9975   2.863   3.739  13.483 -0.4800  0.7681 -0.1798
  670MPD2    H7 9976   2.930   3.666  13.507 -0.4623  1.2744  1.3030
  671TMC3    C1 9977   2.563   3.375  14.001 -0.2949 -0.0141 -0.5854
  671TMC3    C2 9978   2.691   3.373  14.056  0.1219  0.1679 -0.6376
  671TMC3    C3 9979   2.714   3.276  14.150  0.2265 -0.1457 -0.1520
  671TMC3    C4 9980   2.464   3.292  14.041 -0.2229  0.3574 -0.0118
  671TMC3    C5 9981   2.497   3.200  14.134 -0.6656 -0.3146  0.0999
  671TMC3    C6 9982   2.621   3.189  14.187  0.4359  0.1069  0.3483
  671TMC3     C 9983   2.526   3.485  13.915  0.1530  0.3019  0.2591
  671TMC3     O 9984   2.406   3.498  13.901 -0.4247  0.7471 -0.0501
  671TMC3     H 9985   2.754   3.460  14.040 -0.1769  0.7798  1.4104
  671TMC3    H1 9986   2.361   3.308  14.012 -0.5224 -0.2014  0.7659
  671TMC3    H2 9987   2.643   3.110  14.257 -1.2982 -0.6908 -0.0055
  671TMC3    C7 9988   2.439   3.072  14.115  0.7619  1.2520  0.2666
  671TMC3    C8 9989   2.841   3.206  14.155  0.4720  0.7443  0.0431
  671TMC3    O1 9990   2.378   3.043  14.011 -0.3464 -0.3365 -0.1725
  671TMC3    O2 9991   2.847   3.088  14.182  0.1331  0.9020  0.8416
  672MPD2     C 9992   2.861   4.299   0.576  0.3013  0.2028 -0.0918
  672MPD2    C1 9993   2.967   4.215   0.579 -0.8304 -0.4100 -0.1655
  672MPD2    C2 9994   3.091   4.268   0.623 -0.2001 -0.2194 -0.1927
  672MPD2    C3 9995   3.100   4.397   0.671 -0.0020  0.0999 -0.1309
  672MPD2    C4 9996   2.998   4.480   0.661  0.0864  0.4119 -0.1314
  672MPD2    C5 9997   2.875   4.434   0.613  0.1651 -0.3522  0.5023
  672MPD2     H 9998   3.175   4.202   0.638  0.4206  0.6614  0.2008
  672MPD2    H1 9999   3.007   4.582   0.697  1.3672 -0.2719  1.4953
  672MPD2    H210000   2.762   4.260   0.554  2.0500 -4.2279 -0.2434
  672MPD2    H310001   2.794   4.504   0.599  1.2437  0.9639  0.8139
  672MPD2     N10002   3.215   4.453   0.724  0.0858 -0.4861 -0.2901
  672MPD2    H510003   3.209   4.549   0.756  1.0206 -0.5451  0.0753
  672MPD2    N110004   2.955   4.077   0.544 -0.0207  0.4496  0.5146
  672MPD2    H710005   2.870   4.050   0.495  0.3023  0.2743  0.0457
  673TMC3    C110006   3.031   3.867   0.468 -0.0287 -0.5025  0.4584
  673TMC3    C210007   3.096   3.748   0.501  0.7504  0.0755  0.1758
  673TMC3    C310008   3.066   3.643   0.423 -0.7278  0.3970  0.2175
  673TMC3    C410009   2.958   3.882   0.358  0.1678  0.1180 -0.6144
  673TMC3    C510010   2.941   3.776   0.278 -0.1727  0.7055  0.6334
  673TMC3    C610011   2.998   3.655   0.306 -0.8599 -0.1836 -0.3514
  673TMC3     C10012   3.051   3.976   0.558  0.3973 -0.4965  0.1063
  673TMC3     O10013   3.145   3.969   0.638 -0.3199 -0.7275  0.4322
  673TMC3     H10014   3.170   3.743   0.580 -0.5268 -2.2153  1.2682
  673TMC3    H110015   2.920   3.979   0.329  0.3179  0.2250 -0.4566
  673TMC3    H210016   2.985   3.576   0.233 -1.4184  0.4079 -0.9071
  673TMC3    C710017   2.911   3.807   0.139 -0.4172 -0.3349  0.0559
  673TMC3    C810018   3.177   3.551   0.393 -0.3636 -0.7876  0.7174
  673TMC3    O110019   2.965   3.732   0.060 -0.3383 -0.1241 -0.1659
  673TMC3    O210020   3.200   3.533   0.277 -0.1015  0.4579  0.3461
  674MPD2     C10021   2.720   3.737  17.144 -0.1470  0.1923 -0.6772
  674MPD2    C110022   2.751   3.624  17.212  0.9367 -1.0223  0.1653
  674MPD2    C210023   2.702   3.611  17.338 -0.2783  0.0029 -0.2866
  674MPD2    C310024   2.633   3.711  17.400 -0.0661  0.0362 -1.3103
  674MPD2    C410025   2.593   3.824  17.328  0.6236 -0.2238 -0.1447
  674MPD2    C510026   2.638   3.833  17.201 -0.0513 -0.2246 -1.0122
  674MPD2     H10027   2.705   3.510  17.380  4.2362  0.0232 -0.5564
  674MPD2    H110028   2.526   3.903  17.361  0.0082 -1.3141  1.2434
  674MPD2    H210029   2.759   3.752  17.045 -0.3217  0.4119 -0.7121
  674MPD2    H310030   2.614   3.925  17.149  1.7975  1.6821  1.4865
  674MPD2     N10031   2.596   3.681  17.532  0.2166 -0.3588 -0.2156
  674MPD2    H510032   2.631   3.594  17.570 -2.4664 -0.6811  1.4614
  674MPD2    N110033   2.838   3.529  17.158  0.1567 -0.1974 -0.6342
  674MPD2    H710034   2.858   3.530  17.059  2.6869  2.3443 -0.1054
  675TMC3    C110035   2.955   3.423  17.339 -0.0467  0.8482 -0.3274
  675TMC3    C210036   2.956   3.312  17.427  0.1794 -0.2717  0.2309
  675TMC3    C310037   2.994   3.334  17.554 -0.2490 -0.0348  0.1917
  675TMC3    C410038   3.014   3.541  17.377 -0.3942  0.4786 -0.2332
  675TMC3    C510039   3.083   3.540  17.499  0.0484  0.2363 -0.5575
  675TMC3    C610040   3.065   3.445  17.598  0.0199 -0.0726  0.1790
  675TMC3     C10041   2.875   3.405  17.217  0.3680  0.1955  1.1555
  675TMC3     O10042   2.862   3.294  17.168 -0.1608 -0.1130  0.0406
  675TMC3     H10043   2.912   3.219  17.392  0.2978  0.1050 -0.9218
  675TMC3    H110044   3.019   3.621  17.304 -0.1812 -1.5183 -2.4202
  675TMC3    H210045   3.120   3.442  17.691 -0.8576  1.9349  0.7660
  675TMC3    C710046   3.206   3.626  17.524 -0.0353 -0.0642 -0.2229
  675TMC3    C810047   3.011   3.218  17.636  0.0663 -0.8568  0.6062
  675TMC3    O110048   3.288   3.631  17.429  0.1989  0.2751 -0.0945
  675TMC3    O210049   3.047   3.120  17.571 -0.1874 -0.1649  0.3491
  676MPD2     C10050   0.972   2.064  11.549  0.0109 -0.3523 -0.3448
  676MPD2    C110051   0.844   2.020  11.549 -0.5828  0.6022 -0.5875
  676MPD2    C210052   0.791   1.957  11.432  0.4824  0.0901 -0.2397
  676MPD2    C310053   0.869   1.951  11.310  0.0165  0.1428  0.4771
  676MPD2    C410054   1.002   1.986  11.321  0.4249 -0.5203 -0.7684
  676MPD2    C510055   1.047   2.045  11.439 -0.1051 -0.1812 -0.0803
  676MPD2     H10056   0.682   1.952  11.434  0.4878  0.3192  0.8204
  676MPD2    H110057   1.068   1.981  11.235  1.8194 -0.3746  0.2987
  676MPD2    H210058   1.018   2.122  11.628  1.1704 -1.0029 -0.5443
  676MPD2    H310059   1.153   2.051  11.461 -0.2656  0.2630  0.5673
  676MPD2     N10060   0.822   1.896  11.189  0.0722 -0.2100  0.4223
  676MPD2    H510061   0.888   1.897  11.112  0.1697 -0.9963  0.4938
  676MPD2    N110062   0.765   2.043  11.665 -0.1588  0.4187  0.2058
  676MPD2    H710063   0.665   2.027  11.658 -0.4025  1.7947  0.5555
  677TMC3    C110064   0.695   2.124  11.861  0.1268  0.3731  0.2352
  677TMC3    C210065   0.574   2.059  11.852 -0.4130 -0.5704 -0.2507
  677TMC3    C310066   0.465   2.134  11.882 -0.0380  0.2038  0.1082
  677TMC3    C410067   0.702   2.256  11.878 -0.5481 -0.4098 -0.8280
  677TMC3    C510068   0.583   2.319  11.900  0.2725 -0.3892 -0.0708
  677TMC3    C610069   0.464   2.266  11.908  0.0123 -0.2469  0.2308
  677TMC3     C10070   0.810   2.074  11.787 -0.3349  0.0549 -0.0152
  677TMC3     O10071   0.927   2.089  11.824 -0.1879 -0.2353 -0.3492
  677TMC3     H10072   0.565   1.952  11.835 -3.1166 -0.7670  2.4015
  677TMC3    H110073   0.801   2.301  11.878 -0.5927 -0.3143  1.6984
  677TMC3    H210074   0.373   2.318  11.936 -0.3295 -0.8529  0.2347
  677TMC3    C710075   0.578   2.464  11.892 -0.5067 -0.1057 -0.9663
  677TMC3    C810076   0.341   2.063  11.910 -0.1834  0.2939 -0.3756
  677TMC3    O110077   0.497   2.523  11.957 -0.6242 -0.6319  0.4500
  677TMC3    O210078   0.242   2.084  11.838  0.5406 -0.0845  0.0680
  678MPD2     C10079   2.197   2.232   1.102  0.1489 -0.6565  0.1409
  678MPD2    C110080   2.188   2.140   1.001  0.3907 -0.3449 -0.4729
  678MPD2    C210081   2.061   2.095   0.974 -1.1264 -0.0753 -0.1489
  678MPD2    C310082   1.946   2.133   1.046  0.8760 -0.1174 -0.2377
  678MPD2    C410083   1.955   2.226   1.149  0.1449  0.4740 -0.5512
  678MPD2    C510084   2.087   2.269   1.172 -0.3244  0.5575 -0.1997
  678MPD2     H10085   2.050   2.014   0.902 -0.2627 -0.9166  0.6657
  678MPD2    H110086   1.877   2.242   1.222 -1.7057 -1.5368 -2.0922
  678MPD2    H210087   2.291   2.275   1.137  1.3282 -0.7111 -2.9836
  678MPD2    H310088   2.097   2.341   1.252  2.3240 -0.2966  0.2324
  678MPD2     N10089   1.821   2.070   1.012 -0.1822 -0.2778  0.1457
  678MPD2    H510090   1.826   2.017   0.926  1.5480  1.2212 -0.6904
  678MPD2    N110091   2.295   2.102   0.922  0.1277 -0.3008 -0.1933
  678MPD2    H710092   2.281   2.022   0.862  1.0480 -1.3539  0.9954
  679TMC3    C110093   2.688   1.936   0.783  0.1844  0.1461  0.5005
  679TMC3    C210094   2.626   2.027   0.867  0.2961  0.2873 -0.2251
  679TMC3    C310095   2.502   2.066   0.830  0.1580  0.5501 -0.1652
  679TMC3    C410096   2.636   1.890   0.665  0.0607 -0.4681  0.0273
  679TMC3    C510097   2.507   1.936   0.632  0.0326  0.8309 -0.4888
  679TMC3    C610098   2.438   2.025   0.713 -0.3769 -0.3136 -0.0266
  679TMC3     C10099   2.823   1.891   0.809  0.2881  0.1084  0.5584
  679TMC3     O10100   2.862   1.783   0.767 -0.0985 -0.3446 -0.0869
  679TMC3     H10101   2.675   2.048   0.961 -1.6672 -1.1331  1.1222
  679TMC3    H110102   2.689   1.818   0.605  0.4419 -0.9466  0.9297
  679TMC3    H210103   2.344   2.065   0.677 -0.0316  0.5419  0.0153
  679TMC3    C710104   2.452   1.933   0.494  0.4813 -0.5611  0.4075
  679TMC3    C810105   2.427   2.151   0.925  0.3471  0.1679  0.2089
  679TMC3    O110106   2.337   1.982   0.483 -0.5382  0.2298  0.9487
  679TMC3    O210107   2.491   2.211   1.012  0.3491 -0.3392  0.0819
  680MPD2     C10108   1.826   0.635  13.642 -0.5043  0.2619  0.3412
  680MPD2    C110109   1.918   0.562  13.714 -0.2872 -0.2388 -0.0986
  680MPD2    C210110   2.009   0.617  13.802  0.3660  0.6039 -0.4730
  680MPD2    C310111   2.011   0.757  13.805  0.9931 -0.2785  1.1772
  680MPD2    C410112   1.908   0.828  13.744 -0.2857  0.0519  0.4035
  680MPD2    C510113   1.820   0.770  13.659  1.1553  0.0468  0.1513
  680MPD2     H10114   2.080   0.559  13.858 -1.8510  0.0659  1.7624
  680MPD2    H110115   1.911   0.936  13.757  1.2563 -0.0474  0.9454
  680MPD2    H210116   1.748   0.594  13.579  1.0366 -1.9466 -0.1456
  680MPD2    H310117   1.747   0.821  13.598  0.7808  0.3656  0.8642
  680MPD2     N10118   2.099   0.837  13.877  0.4056 -0.1223 -0.1262
  680MPD2    H510119   2.073   0.935  13.875 -3.7012 -1.2263 -0.9897
  680MPD2    N110120   1.910   0.422  13.709 -0.4082  0.3309 -0.1418
  680MPD2    H710121   1.980   0.378  13.768 -2.1297 -0.2934  1.4275
  681TMC3    C110122   1.863   0.198  13.654  0.5031 -0.9140  0.5694
  681TMC3    C210123   1.892   0.157  13.780 -0.2961 -0.5850  0.3295
  681TMC3    C310124   1.892   0.021  13.799 -0.2430 -0.1890  0.3512
  681TMC3    C410125   1.844   0.106  13.551 -0.3766  0.4157 -0.2582
  681TMC3    C510126   1.835   4.711  13.580 -0.4023 -0.3931  0.4065
  681TMC3    C610127   1.851   4.663  13.705 -0.5264 -0.1700 -0.2322
  681TMC3     C10128   1.846   0.339  13.625  0.5798 -0.2646 -1.1590
  681TMC3     O10129   1.775   0.373  13.532 -0.3419  0.2489  0.2864
  681TMC3     H10130   1.896   0.220  13.868 -0.1357 -0.2814  0.1013
  681TMC3    H110131   1.834   0.129  13.446  0.4312 -0.4312 -0.5173
  681TMC3    H210132   1.865   4.563  13.746 -1.3723 -0.3869 -0.4772
  681TMC3    C710133   1.878   4.620  13.473  0.6728 -0.1617 -0.6788
  681TMC3    C810134   1.907   4.718  13.939 -0.0977 -0.0419 -0.4578
  681TMC3    O110135   1.844   4.501  13.472 -0.3306  0.2115  0.1003
  681TMC3    O210136   1.846   4.616  13.966  0.5888  0.2074  0.0409
  682MPD2     C10137   4.680   2.554  10.625  0.5093 -0.4114  0.6702
  682MPD2    C110138   4.611   2.446  10.673  0.8061 -0.5650 -0.0749
  682MPD2    C210139   4.549   2.463  10.798  0.5840 -0.2865  0.2006
  682MPD2    C310140   4.567   2.577  10.880  0.4864 -0.0163  0.5868
  682MPD2    C410141   4.616   2.690  10.818  0.4210  0.3648  1.1830
  682MPD2    C510142   4.671   2.676  10.696 -0.0453  0.3693  0.2212
  682MPD2     H10143   4.505   2.371  10.836 -0.8572 -0.3209 -1.5740
  682MPD2    H110144   4.616   2.791  10.858  0.1966  1.1964 -0.9515
  682MPD2    H210145   0.006   2.566  10.538  2.2689  0.2146  2.0540
  682MPD2    H310146   4.728   2.761  10.660  0.1542  0.0534 -0.2115
  682MPD2     N10147   4.505   2.585  11.006 -0.5468  0.1505 -0.1223
  682MPD2    H510148   4.472   2.679  11.027  0.8667  0.8819 -1.1689
  682MPD2    N110149   4.627   2.323  10.612  0.1920 -0.4072  0.0687
  682MPD2    H710150   4.588   2.244  10.662 -2.8342  0.6826 -0.5367
  683TMC3    C110151   4.268   2.533  11.372  0.5473  0.1987  1.0497
  683TMC3    C210152   4.141   2.474  11.344 -0.6405  0.3750 -0.6369
  683TMC3    C310153   4.132   2.416  11.221  0.0029 -0.1208  0.1716
  683TMC3    C410154   4.352   2.568  11.274  0.2470  0.3398  0.3872
  683TMC3    C510155   4.335   2.514  11.154  0.0365  0.1428  0.6611
  683TMC3    C610156   4.229   2.434  11.123 -0.1522  0.4988 -0.3979
  683TMC3     C10157   4.322   2.551  11.505  0.8144 -0.3059 -0.0701
  683TMC3     O10158   4.417   2.625  11.529 -0.0813 -0.0700 -0.0368
  683TMC3     H10159   4.068   2.465  11.424  0.8092 -1.4768  0.4888
  683TMC3    H110160   4.454   2.590  11.301 -0.4069  0.9826  2.3252
  683TMC3    H210161   4.228   2.390  11.024  2.1408  0.6007 -0.4659
  683TMC3    C710162   4.444   2.480  11.066  1.1112 -0.7547 -0.0363
  683TMC3    C810163   4.037   2.310  11.209 -0.4024 -0.6901 -0.9767
  683TMC3    O110164   4.473   2.364  11.043 -0.2293  0.1606  0.6942
  683TMC3    O210165   3.924   2.325  11.249 -0.0275 -0.2152 -0.1611
  684MPD2     C10166   2.748   1.078  16.019 -0.0968  0.0898 -0.2139
  684MPD2    C110167   2.854   1.158  15.987 -0.0117  0.1492  0.3732
  684MPD2    C210168   2.873   1.285  16.050 -0.5530  0.0722 -0.2752
  684MPD2    C310169   2.775   1.331  16.135  0.4302  0.3689  0.3063
  684MPD2    C410170   2.668   1.248  16.166  0.5208 -0.6334 -0.6042
  684MPD2    C510171   2.661   1.125  16.113 -0.1959 -0.4144 -0.0230
  684MPD2     H10172   2.956   1.343  16.012 -0.0659  1.1409  2.4387
  684MPD2    H110173   2.597   1.281  16.241 -1.4218 -1.0950 -2.2279
  684MPD2    H210174   2.728   0.979  15.978 -0.7958 -0.0499  0.4464
  684MPD2    H310175   2.595   1.050  16.155 -1.6173 -0.4574 -2.3111
  684MPD2     N10176   2.769   1.459  16.179  0.4237  0.1296 -0.1358
  684MPD2    H510177   2.685   1.489  16.227 -0.5369 -0.9006 -1.2046
  684MPD2    N110178   2.945   1.120  15.883  0.0784  0.4934  0.1410
  684MPD2    H710179   3.025   1.180  15.866 -0.5571  1.4994  0.7253
  685TMC3    C110180   2.997   1.054  15.666  0.1193  0.5198  0.1021
  685TMC3    C210181   2.904   1.071  15.559  0.0120  0.3647 -0.3382
  685TMC3    C310182   2.911   1.190  15.489  0.2952 -0.0650 -0.8366
  685TMC3    C410183   3.095   1.147  15.687 -0.2986 -0.2919 -0.1007
  685TMC3    C510184   3.105   1.253  15.603 -0.2634 -0.3748 -0.6247
  685TMC3    C610185   3.011   1.278  15.512  0.5249 -0.5294 -0.0261
  685TMC3     C10186   2.915   1.027  15.786 -0.3930  0.0997  0.6782
  685TMC3     O10187   2.824   0.954  15.771  0.2411 -0.4135 -0.2123
  685TMC3     H10188   2.830   0.994  15.543 -1.0426  0.9161  1.9032
  685TMC3    H110189   3.168   1.134  15.766  2.2524 -0.3780 -2.4265
  685TMC3    H210190   3.002   1.372  15.460  0.7069  0.7935  2.3667
  685TMC3    C710191   3.175   1.354  15.669  0.2581  0.3394  0.3708
  685TMC3    C810192   2.778   1.248  15.451 -0.1188 -0.4229  0.0606
  685TMC3    O110193   3.156   1.360  15.790 -0.0539 -0.2372  0.1025
  685TMC3    O210194   2.769   1.328  15.361  1.0502 -0.2419  0.1596
  686MPD2     C10195   4.391   0.926  15.434  0.0520 -0.0564  0.1329
  686MPD2    C110196   4.393   0.900  15.571  0.6958  0.2030 -0.7961
  686MPD2    C210197   4.460   0.782  15.613  0.4678  0.1982 -0.2316
  686MPD2    C310198   4.514   0.676  15.529 -0.0359 -0.9927 -0.9400
  686MPD2    C410199   4.519   0.719  15.400 -0.3316  0.1988  0.7454
  686MPD2    C510200   4.450   0.834  15.352 -0.4661  0.2491  0.6144
  686MPD2     H10201   4.467   0.761  15.719  0.5847  5.2598  0.7637
  686MPD2    H110202   4.551   0.647  15.325 -0.0389  1.3944 -0.2800
  686MPD2    H210203   4.335   1.004  15.384 -0.0720  0.9760  1.8934
  686MPD2    H310204   4.445   0.842  15.244  1.6962  0.7106  0.5298
  686MPD2     N10205   4.556   0.538  15.560 -0.0979  0.2299 -0.6740
  686MPD2    H510206   4.608   0.497  15.484  0.7935  0.6497 -0.2899
  686MPD2    N110207   4.324   0.989  15.653  0.5965 -0.0111  0.2564
  686MPD2    H710208   4.267   1.061  15.609 -3.1470 -2.4307  1.1579
  687TMC3    C110209   4.452   0.489  15.774 -0.5701 -1.2707  0.3977
  687TMC3    C210210   4.336   0.547  15.731  0.2518 -0.3810 -0.0895
  687TMC3    C310211   4.248   0.592  15.832 -0.4933  0.0151  0.2993
  687TMC3    C410212   4.486   0.489  15.898 -0.0689  0.2842 -0.3803
  687TMC3    C510213   4.408   0.543  15.996  0.1523  0.1133 -0.7500
  687TMC3    C610214   4.286   0.602  15.961 -0.2405  0.2287 -0.0742
  687TMC3     C10215   4.566   0.470  15.680  1.0417  0.5633  0.1860
  687TMC3     O10216   4.638   0.370  15.703 -0.1909 -0.2478  0.0118
  687TMC3     H10217   4.312   0.540  15.626 -0.8278 -1.4010  0.2329
  687TMC3    H110218   4.585   0.447  15.914  0.2585  1.0133 -0.5147
  687TMC3    H210219   4.227   0.650  16.038 -0.4213 -1.0978  0.6013
  687TMC3    C710220   4.488   0.615  16.101  0.3894  0.0426 -0.1413
  687TMC3    C810221   4.126   0.655  15.799 -0.7270  0.0473  0.0398
  687TMC3    O110222   4.544   0.552  16.187 -0.2715  0.6180 -0.1172
  687TMC3    O210223   4.047   0.673  15.893  1.1000 -0.0194  0.6897
  688MPD2     C10224   3.479   0.552  17.289 -0.0490  0.1097 -0.3678
  688MPD2    C110225   3.397   0.445  17.270  0.3303 -0.1421 -0.5131
  688MPD2    C210226   3.412   0.362  17.166  0.0390 -0.1611 -0.5978
  688MPD2    C310227   3.507   0.389  17.072 -0.2263 -0.4030  0.2187
  688MPD2    C410228   3.589   0.499  17.088 -0.0025  0.3750  0.4594
  688MPD2    C510229   3.576   0.574  17.197  0.9758  0.1718 -0.4666
  688MPD2     H10230   3.355   0.269  17.165 -3.3717  1.9225  2.6400
  688MPD2    H110231   3.666   0.534  17.020 -0.1031 -0.4593 -0.0827
  688MPD2    H210232   3.478   0.607  17.382 -1.4440  0.9573 -0.8792
  688MPD2    H310233   3.652   0.649  17.216  0.7291  0.5555 -0.9864
  688MPD2     N10234   3.549   0.302  16.967 -0.7974  0.1396  0.2665
  688MPD2    H510235   3.640   0.322  16.926 -0.7894  0.5870  0.5011
  688MPD2    N110236   3.309   0.407  17.374 -0.2038  0.4204 -0.5523
  688MPD2    H710237   3.262   0.317  17.378  0.8837 -0.0225  2.4721
  689TMC3    C110238   3.164   0.444  17.562  0.1918  0.3511 -0.0889
  689TMC3    C210239   3.134   0.533  17.665 -0.2256  0.7937 -0.1287
  689TMC3    C310240   3.088   0.472   0.026  0.1439  0.2527  0.5452
  689TMC3    C410241   3.127   0.309  17.561 -0.1213 -0.4879 -0.2629
  689TMC3    C510242   3.070   0.260  17.678  0.1301  0.1578 -0.5644
  689TMC3    C610243   3.051   0.342   0.034  1.0938  0.5179  0.1286
  689TMC3     C10244   3.255   0.500  17.462 -0.1375 -0.3313 -0.6770
  689TMC3     O10245   3.256   0.623  17.455  0.1071  0.0111  0.9033
  689TMC3     H10246   3.184   0.629  17.667  1.3415 -0.0123 -0.8371
  689TMC3    H110247   3.141   0.240  17.479  1.6129 -2.1612  1.4545
  689TMC3    H210248   2.997   0.306   0.121  1.6405 -0.9102 -0.1276
  689TMC3    C710249   3.075   0.119  17.703  0.1809  0.0761 -0.6754
  689TMC3    C810250   3.053   0.547   0.151  0.2827 -0.0051  0.1957
  689TMC3    O110251   3.080   0.085   0.071  0.2848 -0.1252  0.6164
  689TMC3    O210252   3.002   0.485   0.241  0.3066 -0.8200 -0.2112
  690MPD2     C10253   1.193   2.090  15.442  0.0586 -0.2081 -0.8721
  690MPD2    C110254   1.114   2.099  15.330 -0.7357 -0.1274 -0.3604
  690MPD2    C210255   1.175   2.124  15.204 -0.3249  0.5032  0.0628
  690MPD2    C310256   1.310   2.158  15.197  0.5563 -0.3204 -0.1965
  690MPD2    C410257   1.385   2.150  15.312 -0.4003  0.4635  0.7313
  690MPD2    C510258   1.323   2.125  15.434  0.2178  0.4602 -0.0707
  690MPD2     H10259   1.110   2.117  15.117 -1.0211 -1.2188  0.7324
  690MPD2    H110260   1.484   2.192  15.321  1.2406 -3.0059 -0.9209
  690MPD2    H210261   1.166   2.042  15.536  0.6927  1.5195  0.1847
  690MPD2    H310262   1.383   2.137  15.524 -1.3952  2.6365  0.7181
  690MPD2     N10263   1.371   2.179  15.075 -0.2492 -0.0293  0.0100
  690MPD2    H510264   1.305   2.206  15.002 -1.2266 -1.3900  0.4063
  690MPD2    N110265   0.975   2.061  15.337 -0.2347 -0.7324  0.9447
  690MPD2    H710266   0.925   2.042  15.251  0.4080 -0.7663  0.5772
  691TMC3    C110267   0.794   1.951  15.421 -0.9046  0.5572 -0.9344
  691TMC3    C210268   0.670   2.002  15.401  0.3443 -0.4293  0.2157
  691TMC3    C310269   0.568   1.925  15.447 -0.2403  0.4892  0.2869
  691TMC3    C410270   0.822   1.835  15.487  0.0319 -0.0393  0.1018
  691TMC3    C510271   0.716   1.756  15.515  0.4257  0.0442 -0.0319
  691TMC3    C610272   0.592   1.797  15.483 -0.2881 -0.1153 -0.0747
  691TMC3     C10273   0.908   2.039  15.447  0.4789 -0.2284  0.8249
  691TMC3     O10274   0.921   2.066  15.567  0.3344  0.4955 -1.0165
  691TMC3     H10275   0.654   2.105  15.370 -1.5067 -0.9569 -0.5797
  691TMC3    H110276   0.922   1.807  15.516 -0.8059 -1.1734  1.8547
  691TMC3    H210277   0.505   1.733  15.475 -0.1416 -0.1399 -1.3314
  691TMC3    C710278   0.742   1.616  15.512 -0.3878  0.0311  0.0871
  691TMC3    C810279   0.458   1.920  15.362  0.1520  0.2002 -0.0343
  691TMC3    O110280   0.858   1.592  15.474 -0.0766  0.6879 -0.2331
  691TMC3    O210281   0.467   1.913  15.240 -0.0292  0.1166  0.1340
  692TMC3    C110282   2.245   2.702  15.664  0.3686 -0.6622 -0.7517
  692TMC3    C210283   2.320   2.793  15.608  0.4782 -0.0343  0.0104
  692TMC3    C310284   2.459   2.778  15.609 -0.1868 -0.1313  0.0358
  692TMC3    C410285   2.285   2.582  15.692  0.4024  0.1312 -0.0171
  692TMC3    C510286   2.418   2.554  15.685  0.8080  0.5177 -0.0827
  692TMC3    C610287   2.500   2.646  15.633  0.2016  0.4341 -0.1527
  692TMC3     C10288   2.103   2.729  15.686  0.2774  0.4621 -0.1922
  692TMC3     O10289   2.058   2.663  15.779  0.3402 -0.1876 -0.3396
  692TMC3     H10290   2.279   2.892  15.588  0.3373  0.2996  1.9648
  692TMC3    H110291   2.212   2.508  15.724  2.4952 -2.9928 -2.4829
  692TMC3    H210292   2.604   2.620  15.645 -0.2655 -1.1399  0.4385
  692TMC3    C710293   2.437   2.418  15.643 -0.0817 -0.3317 -0.2382
  692TMC3    C810294   2.509   2.871  15.698 -0.4266 -0.2714 -0.4016
  692TMC3    O110295   2.352   2.376  15.568 -0.4886  0.5876  0.5496
  692TMC3    O210296   2.431   2.959  15.726  0.1309 -0.3225  0.3236
  693MPD2     C10297   1.860   1.424  10.896  0.0311 -1.2941  0.3379
  693MPD2    C110298   1.856   1.307  10.835  0.2279  0.2456 -1.3784
  693MPD2    C210299   1.972   1.228  10.838  0.1020  0.2667  0.4314
  693MPD2    C310300   2.070   1.256  10.930  0.4465 -0.0919  0.4334
  693MPD2    C410301   2.050   1.359  11.024 -0.2267  0.7582  0.1943
  693MPD2    C510302   1.947   1.438  11.002  0.3138  0.1950  0.3919
  693MPD2     H10303   1.978   1.142  10.772 -0.7565  1.4490 -1.1966
  693MPD2    H110304   2.119   1.379  11.105 -0.0692 -1.2792  0.5647
  693MPD2    H210305   1.769   1.482  10.908  1.7766  1.6529 -0.6150
  693MPD2    H310306   1.940   1.523  11.070  0.3092  1.5136 -1.2459
  693MPD2     N10307   2.182   1.178  10.957 -0.3683  0.4254 -0.3803
  693MPD2    H510308   2.228   1.191  11.046  1.3962 -1.3884 -1.0201
  693MPD2    N110309   1.733   1.277  10.779  0.1158  0.0125 -0.4715
  693MPD2    H710310   1.661   1.349  10.786  0.7982  0.5751  0.6918
  694TMC3    C110311   1.569   1.115  10.719  0.5869  0.4947  0.0204
  694TMC3    C210312   1.531   1.013  10.638 -0.1956 -0.0247  0.3568
  694TMC3    C310313   1.451   0.911  10.680 -0.0000 -0.0447  0.6472
  694TMC3    C410314   1.523   1.121  10.846  0.5774 -0.0654  0.1446
  694TMC3    C510315   1.443   1.017  10.889  0.0207  0.2659 -1.0020
  694TMC3    C610316   1.404   0.910  10.812 -0.1617  0.1513 -0.4262
  694TMC3     C10317   1.708   1.158  10.708 -0.4604 -0.0744 -0.2897
  694TMC3     O10318   1.792   1.075  10.686  0.0843 -0.1199  0.3894
  694TMC3     H10319   1.579   1.009  10.541 -0.8882 -1.7540  0.0802
  694TMC3    H110320   1.538   1.201  10.917 -0.0794  0.1774  0.0120
  694TMC3    H210321   1.349   0.825  10.851  0.6010 -0.4434 -0.6530
  694TMC3    C710322   1.426   1.014  11.030  0.4338 -0.3076  0.0514
  694TMC3    C810323   1.386   0.822  10.587  0.6799 -0.6735  0.2932
  694TMC3    O110324   1.436   1.125  11.091 -0.6261 -0.0705  0.3092
  694TMC3    O210325   1.357   0.714  10.635 -0.3389 -0.2985  0.2710
  695MPD2     C10326   2.692   2.350  13.531  0.2050 -0.0029 -0.0119
  695MPD2    C110327   2.699   2.447  13.624 -1.3464  0.1660 -0.4719
  695MPD2    C210328   2.587   2.478  13.694  0.3884 -0.1968 -0.3159
  695MPD2    C310329   2.463   2.422  13.664  0.3872  0.3468  0.0844
  695MPD2    C410330   2.459   2.335  13.564 -0.6617  0.4221 -0.3529
  695MPD2    C510331   2.575   2.298  13.505  0.1523  0.5350 -0.7737
  695MPD2     H10332   2.587   2.535  13.786 -1.9478 -1.8439  0.6974
  695MPD2    H110333   2.371   2.284  13.527 -0.1544 -0.0081 -0.9657
  695MPD2    H210334   2.772   2.309  13.470 -0.3101 -1.9427  0.6149
  695MPD2    H310335   2.567   2.225  13.425 -0.7339 -0.2125  0.0055
  695MPD2     N10336   2.341   2.463  13.726  0.0721  0.4778  0.8349
  695MPD2    H510337   2.345   2.552  13.776  1.3355  0.9331 -0.0846
  695MPD2    N110338   2.814   2.521  13.654 -0.1579  0.3179 -0.7001
  695MPD2    H710339   2.802   2.587  13.730  3.0572  0.5164 -0.3610
  696TMC3    C110340   2.124   2.502  13.779 -0.5222  0.0084  0.6882
  696TMC3    C210341   2.087   2.469  13.904  0.0720  0.8389  0.8113
  696TMC3    C310342   2.016   2.560  13.976 -0.9026 -0.3460 -1.0696
  696TMC3    C410343   2.132   2.632  13.732 -0.1153  0.0594  0.1268
  696TMC3    C510344   2.057   2.722  13.808  1.0255 -0.0023  0.3557
  696TMC3    C610345   1.993   2.683  13.924  0.1199  0.1597 -0.7733
  696TMC3     C10346   2.216   2.402  13.727 -0.1546  0.3137 -0.5342
  696TMC3     O10347   2.173   2.288  13.720 -0.1085 -0.6525  0.0643
  696TMC3     H10348   2.099   2.367  13.937  0.2278  0.9429  1.0781
  696TMC3    H110349   2.184   2.664  13.643  0.6894 -1.2237  0.1286
  696TMC3    H210350   1.939   2.755  13.984  0.7455 -0.2150  0.2471
  696TMC3    C710351   2.083   2.865  13.778  0.3584 -0.2576  1.1712
  696TMC3    C810352   2.058   2.566  14.110  0.3653 -0.1335  0.5195
  696TMC3    O110353   2.153   2.892  13.681  0.2971  0.0069  0.2515
  696TMC3    O210354   2.056   2.464  14.176 -0.1334  0.6366  0.1010
  697MPD2     C10355   2.243   0.086  16.090  0.5291  0.5215 -0.0452
  697MPD2    C110356   2.252   0.021  15.967  0.5929  0.4611 -0.8998
  697MPD2    C210357   2.314   0.092  15.860  0.1196 -0.3350  0.1207
  697MPD2    C310358   2.354   0.223  15.876  0.2240  0.1946 -0.2626
  697MPD2    C410359   2.342   0.283  16.000  0.1081 -0.7475  0.0513
  697MPD2    C510360   2.286   0.213  16.107 -0.0140 -0.1135  0.4167
  697MPD2     H10361   2.327   0.046  15.763 -1.9869 -1.4820  0.3957
  697MPD2    H110362   2.377   0.382  16.027  0.9433 -1.0812  0.2151
  697MPD2    H210363   2.196   0.042  16.177 -0.1714  2.0264  0.3394
  697MPD2    H310364   2.254   0.262  16.198  1.2816 -0.2767  0.9514
  697MPD2     N10365   2.407   0.292  15.767  0.1374  0.1214 -0.4843
  697MPD2    H510366   2.406   0.249  15.675  0.6396  0.4124 -0.6243
  697MPD2    N110367   2.209   4.625  15.948 -0.4419  0.1325  0.3094
  697MPD2    H710368   2.242   4.585  15.861  1.4304 -1.3597  1.7060
  698TMC3    C110369   2.480   0.453  15.617 -0.1665 -0.0005 -0.4838
  698TMC3    C210370   2.587   0.533  15.591 -0.3650 -0.0641  0.1439
  698TMC3    C310371   2.636   0.544  15.463  0.0661 -0.4540  0.6231
  698TMC3    C410372   2.422   0.376  15.517 -0.2540 -0.7809  1.0016
  698TMC3    C510373   2.476   0.389  15.390  1.0828  0.3406 -0.1724
  698TMC3    C610374   2.577   0.477  15.358 -0.2486  0.2670 -0.0670
  698TMC3     C10375   2.455   0.419  15.762 -0.0507  0.0583 -0.9122
  698TMC3     O10376   2.489   0.497  15.853  0.4320  0.0746 -0.1711
  698TMC3     H10377   2.620   0.593  15.675  0.3918  1.1676 -1.0363
  698TMC3    H110378   2.334   0.313  15.526 -0.3650 -0.9849 -1.5782
  698TMC3    H210379   2.592   0.508  15.255 -1.2295 -1.6037 -0.7566
  698TMC3    C710380   2.398   0.324  15.282 -0.2042  0.0836 -0.0746
  698TMC3    C810381   2.751   0.623  15.438  0.1647 -0.6830  0.1662
  698TMC3    O110382   2.276   0.304  15.289 -0.2894 -0.1265 -0.0192
  698TMC3    O210383   2.783   0.704  15.523 -0.3611  0.3580 -1.0652
  699TMC3    C110384   2.102   3.204  13.261 -0.2508  0.3655 -1.0778
  699TMC3    C210385   2.087   3.072  13.286  0.1396  0.1718  0.1026
  699TMC3    C310386   1.999   3.026  13.386  0.1921 -1.4533  0.4476
  699TMC3    C410387   2.021   3.297  13.315  0.0864 -0.2826  0.5675
  699TMC3    C510388   1.921   3.252  13.399  0.1805  0.4608 -0.0266
  699TMC3    C610389   1.915   3.119  13.437  0.1596  0.0218  0.3504
  699TMC3     C10390   2.187   3.251  13.153  0.2258  0.2910  0.2301
  699TMC3     O10391   2.175   3.362  13.102 -0.3915  0.5031 -0.2146
  699TMC3     H10392   2.146   2.993  13.239  2.0906  0.5584  1.8812
  699TMC3    H110393   2.032   3.405  13.302  0.3387 -0.0538  2.7223
  699TMC3    H210394   1.847   3.095  13.518  0.3687  0.7940  0.7518
  699TMC3    C710395   1.835   3.353  13.457  0.3493  0.0497 -0.4898
  699TMC3    C810396   1.964   2.890  13.414 -0.3494  1.0010 -0.2489
  699TMC3    O110397   1.808   3.339  13.573 -0.3408 -0.3439 -0.6291
  699TMC3    O210398   1.856   2.875  13.469  0.3817 -0.2486  0.1090
  700TMC3    C110399   1.337   0.397  17.113  0.1355  1.0624 -0.2100
  700TMC3    C210400   1.364   0.266  17.097 -0.3940  0.2839 -0.2766
  700TMC3    C310401   1.457   0.213  17.186  0.1514  0.1137  0.3312
  700TMC3    C410402   1.384   0.474  17.217  0.3770 -0.4392 -0.4884
  700TMC3    C510403   1.481   0.416  17.302 -0.4264 -0.7879  0.0933
  700TMC3    C610404   1.515   0.292  17.284 -0.6560 -0.5533  0.2159
  700TMC3     C10405   1.334   0.463  16.986 -0.0507 -0.4085 -0.6174
  700TMC3     O10406   1.372   0.582  16.996  0.0629  0.0229  0.2615
  700TMC3     H10407   1.323   0.197  17.025 -2.9673  0.0735  1.3871
  700TMC3    H110408   1.344   0.574  17.232  0.6179 -0.4027 -0.0857
  700TMC3    H210409   1.604   0.261  17.337  0.9588 -0.1054 -2.2094
  700TMC3    C710410   1.586   0.502  17.340 -0.0683 -0.2120  0.5853
  700TMC3    C810411   1.508   0.068  17.182 -0.0318 -0.2267  0.1691
  700TMC3    O110412   1.653   0.485  17.440 -0.4941  0.6176 -0.2429
  700TMC3    O210413   1.604   0.042  17.252  0.8354 -0.0926 -0.3807
  701TMC3    C110414   1.258   4.035  15.273  0.2708 -0.1563  0.2389
  701TMC3    C210415   1.194   4.051  15.157 -0.4534 -0.8584 -0.1511
  701TMC3    C310416   1.230   4.155  15.082  0.1848 -0.2545  0.1635
  701TMC3    C410417   1.357   4.116  15.323 -0.3353 -0.4367  0.0316
  701TMC3    C510418   1.377   4.222  15.244  0.2755 -0.9751  0.0976
  701TMC3    C610419   1.325   4.241  15.117  0.9801 -0.5595  0.3129
  701TMC3     C10420   1.213   3.943  15.381 -0.1124  0.4862 -0.5086
  701TMC3     O10421   1.261   3.945  15.492 -0.0217 -0.0266 -0.0101
  701TMC3     H10422   1.112   3.986  15.129 -0.3325  0.1190 -2.8586
  701TMC3    H110423   1.395   4.099  15.423  0.7594  0.1919 -0.2755
  701TMC3    H210424   1.346   4.330  15.059  2.5879  1.8878  4.6365
  701TMC3    C710425   1.464   4.330  15.283 -0.0805  0.0614  0.0962
  701TMC3    C810426   1.157   4.198  14.961  0.3071  0.0968 -0.0141
  701TMC3    O110427   1.528   4.380  15.194 -0.1946 -0.6216  0.1432
  701TMC3    O210428   1.181   4.308  14.915 -0.3205  0.4918  0.0379
  702MPD2     C10429   1.037   1.328  10.699  0.4711 -0.1424 -0.4222
  702MPD2    C110430   1.018   1.465  10.697 -0.2773 -0.8886  0.1104
  702MPD2    C210431   1.129   1.541  10.696  0.0351  0.0939  0.5730
  702MPD2    C310432   1.255   1.490  10.712  0.0504  0.4696  0.5692
  702MPD2    C410433   1.272   1.357  10.714  0.5304 -0.0968 -0.7744
  702MPD2    C510434   1.164   1.280  10.691  0.0349  0.2279  0.2572
  702MPD2     H10435   1.130   1.649  10.694  1.5031  0.0563 -0.5730
  702MPD2    H110436   1.369   1.313  10.731  0.4530 -0.9708 -2.6284
  702MPD2    H210437   0.953   1.260  10.699  1.2574 -1.1014 -2.5446
  702MPD2    H310438   1.183   1.173  10.690 -1.4783 -0.0706  2.2710
  702MPD2     N10439   1.352   1.583  10.717 -0.6213  0.9232  0.3519
  702MPD2    H510440   1.320   1.678  10.726  0.4160  1.3999 -1.0402
  702MPD2    N110441   0.896   1.523  10.730  0.3923 -0.7487  0.4799
  702MPD2    H710442   0.827   1.461  10.771  1.1363 -2.2809 -0.5984
  703TMC3    C110443   1.570   1.684  10.745 -0.3192  0.4324 -0.2113
  703TMC3    C210444   1.511   1.801  10.789  0.4039  0.6698  0.7190
  703TMC3    C310445   1.600   1.898  10.830 -0.0248 -0.1468 -0.2952
  703TMC3    C410446   1.703   1.663  10.739  0.3238 -0.1993 -0.0675
  703TMC3    C510447   1.790   1.762  10.789 -1.2633  0.1490  0.4467
  703TMC3    C610448   1.736   1.884  10.825  0.2853  0.1240 -0.9119
  703TMC3     C10449   1.488   1.563  10.735  0.5818  0.2078 -0.0276
  703TMC3     O10450   1.541   1.454  10.746  0.0727  0.2334  0.1749
  703TMC3     H10451   1.404   1.814  10.773  0.1538 -1.1668  0.9328
  703TMC3    H110452   1.739   1.577  10.684  0.6072 -0.2476  0.1913
  703TMC3    H210453   1.806   1.962  10.854 -2.2687  2.2860 -0.6381
  703TMC3    C710454   1.931   1.757  10.759 -0.5864 -0.9714 -0.2863
  703TMC3    C810455   1.550   2.026  10.879 -0.2354 -0.4137 -0.2869
  703TMC3    O110456   1.990   1.863  10.775  0.1525  0.5330  0.4149
  703TMC3    O210457   1.632   2.106  10.917  0.8782 -0.2788 -0.2683
  704TMC3    C110458   2.884   0.024  11.745  0.1160  0.1550  0.0989
  704TMC3    C210459   3.004   0.018  11.672  0.4047 -0.6592 -0.2693
  704TMC3    C310460   3.066   4.632  11.661 -0.0946  0.0739 -0.0476
  704TMC3    C410461   2.824   4.654  11.799  1.4323  0.6465  0.2699
  704TMC3    C510462   2.889   4.529  11.779 -0.3729 -0.6088 -0.0937
  704TMC3    C610463   3.006   4.520  11.711  0.0701 -0.0578 -0.4488
  704TMC3     C10464   2.801   0.142  11.745 -0.1065 -0.3077 -0.6616
  704TMC3     O10465   2.683   0.129  11.774 -0.1406 -0.2690  0.3247
  704TMC3     H10466   3.043   0.112  11.635  1.0927 -0.0611  1.9357
  704TMC3    H110467   2.731   4.660  11.855 -0.1812  1.6066 -2.5126
  704TMC3    H210468   3.059   4.426  11.722  0.6392  0.3266  0.1420
  704TMC3    C710469   2.857   4.410  11.850  0.1970 -0.0767  0.2072
  704TMC3    C810470   3.201   4.626  11.618  0.1747  0.3126 -0.0590
  704TMC3    O110471   2.891   4.307  11.801 -0.7611 -0.7068  0.0917
  704TMC3    O210472   3.241   4.512  11.608  0.1111 -0.7093  0.3151
  705MPD2     C10473   2.475   2.542  16.592 -0.2220 -0.5858  0.6436
  705MPD2    C110474   2.502   2.670  16.615  0.1464  0.3362  0.0314
  705MPD2    C210475   2.415   2.747  16.686  0.2715 -0.2555 -0.5020
  705MPD2    C310476   2.293   2.699  16.730  0.3117 -0.1096 -0.1200
  705MPD2    C410477   2.268   2.565  16.698 -0.7725  0.9491  0.0269
  705MPD2    C510478   2.358   2.487  16.628  0.1112  0.3138  0.0183
  705MPD2     H10479   2.448   2.850  16.699  0.4510 -0.4132  0.2616
  705MPD2    H110480   2.178   2.514  16.732  0.3150 -0.8526  0.1747
  705MPD2    H210481   2.545   2.475  16.543 -0.8553 -1.2190  0.6097
  705MPD2    H310482   2.346   2.379  16.617  0.4852  0.0790  1.9430
  705MPD2     N10483   2.195   2.769  16.802  0.2813  0.1954 -0.1856
  705MPD2    H510484   2.107   2.719  16.804  0.0908  0.5830  1.0273
  705MPD2    N110485   2.619   2.731  16.577  0.5721 -0.8691  0.5249
  705MPD2    H710486   2.632   2.826  16.610 -1.9862 -0.7365  1.0823
  706TMC3    C110487   2.987   2.857  16.320  0.4130  0.5899 -0.0974
  706TMC3    C210488   2.990   2.983  16.378 -0.8150 -0.0334 -0.0591
  706TMC3    C310489   2.890   3.009  16.476  0.5618  0.8031 -0.0920
  706TMC3    C410490   2.904   2.753  16.359 -0.1148 -0.2387 -0.3422
  706TMC3    C510491   2.815   2.785  16.465 -0.4445 -0.1820  0.3285
  706TMC3    C610492   2.806   2.914  16.521  0.0855  0.2857 -0.0070
  706TMC3     C10493   3.082   2.841  16.213 -0.5397  0.3353  0.7683
  706TMC3     O10494   3.176   2.916  16.206 -0.0955 -0.3184  0.0205
  706TMC3     H10495   3.061   3.057  16.343  0.9248 -2.3494 -1.4025
  706TMC3    H110496   2.928   2.654  16.321 -0.1768 -0.4145  0.0722
  706TMC3    H210497   2.729   2.939  16.593 -0.0551 -0.5783  0.1466
  706TMC3    C710498   2.716   2.684  16.490 -0.1599  0.2979  0.4748
  706TMC3    C810499   2.877   3.149  16.509 -0.6964 -0.5979 -0.0759
  706TMC3    O110500   2.724   2.580  16.424 -0.1877 -0.6810 -0.6441
  706TMC3    O210501   2.944   3.220  16.437  0.5150  0.2056  0.6718
  707TMC3    C110502   4.452   1.559   0.057  0.1186  0.4083 -0.0723
  707TMC3    C210503   4.454   1.438   0.120  0.6899 -0.4641 -1.3276
  707TMC3    C310504   4.342   1.358   0.109 -0.4386  0.7523  0.4024
  707TMC3    C410505   4.343   1.605  17.743 -0.1050  0.7922 -0.5651
  707TMC3    C510506   4.236   1.517  17.727  0.0977 -0.2453 -0.2833
  707TMC3    C610507   4.239   1.391   0.028  0.0274  0.4142 -0.0106
  707TMC3     C10508   4.543   1.659   0.115 -0.0632 -0.3160 -0.4602
  707TMC3     O10509   4.604   1.615   0.207 -0.3562  0.4348 -0.0949
  707TMC3     H10510   4.540   1.398   0.171  1.5707  0.6421 -1.9408
  707TMC3    H110511   4.337   1.701  17.695 -0.3937  1.4335  0.7387
  707TMC3    H210512   4.162   1.318   0.006  2.6747 -1.6923 -2.3108
  707TMC3    C710513   4.123   1.544  17.640  0.5976 -0.2857  0.1129
  707TMC3    C810514   4.357   1.208   0.134  0.0750  0.2176 -0.2664
  707TMC3    O110515   4.030   1.467  17.632  0.1711 -0.0164  0.0291
  707TMC3    O210516   4.283   1.136   0.068 -0.2630 -0.1003 -0.3783
  708MPD2     C10517   1.198   1.212  13.502 -0.7054 -0.2326 -0.1453
  708MPD2    C110518   1.197   1.222  13.639  0.7688  0.0464 -0.0179
  708MPD2    C210519   1.312   1.271  13.700  0.1032  0.3655  0.7003
  708MPD2    C310520   1.428   1.311  13.633 -1.0352  0.3018  0.1756
  708MPD2    C410521   1.434   1.290  13.502 -0.0444  0.6159  0.0758
  708MPD2    C510522   1.317   1.244  13.444  0.2065 -0.4077 -0.2374
  708MPD2     H10523   1.315   1.289  13.807  0.5524 -2.3941  1.1392
  708MPD2    H110524   1.525   1.315  13.450  0.4426  2.2726  1.7089
  708MPD2    H210525   1.115   1.176  13.442 -1.3921  2.1674 -0.6085
  708MPD2    H310526   1.318   1.232  13.336 -0.2336 -1.7773 -0.0882
  708MPD2     N10527   1.537   1.354  13.710 -0.0300 -0.4447  0.1188
  708MPD2    H510528   1.534   1.353  13.812  3.5715  4.8555  0.2806
  708MPD2    N110529   1.078   1.189  13.708  0.5697 -0.7996 -0.8950
  708MPD2    H710530   0.997   1.165  13.651  0.3094 -2.0828  0.0074
  709TMC3    C110531   0.943   1.130  13.897 -0.8734 -0.8365 -0.2004
  709TMC3    C210532   0.829   1.164  13.821  0.0729  0.0890 -0.2281
  709TMC3    C310533   0.729   1.227  13.893  0.3578  0.2359 -0.0698
  709TMC3    C410534   0.956   1.125  14.034 -0.0980  0.1166  0.3297
  709TMC3    C510535   0.857   1.200  14.095 -0.3589 -0.3233  0.3113
  709TMC3    C610536   0.746   1.242  14.030  0.0068  0.2943  0.0785
  709TMC3     C10537   1.066   1.180  13.839 -0.1161 -0.3946  0.5898
  709TMC3     O10538   1.147   1.219  13.920  0.9907  0.1182 -0.6081
  709TMC3     H10539   0.823   1.158  13.713  0.5453  0.5004 -0.2786
  709TMC3    H110540   1.047   1.090  14.081 -0.2774 -0.5049  0.2162
  709TMC3    H210541   0.685   1.307  14.092 -2.0076 -1.2443 -0.2909
  709TMC3    C710542   0.903   1.296  14.193 -0.2601  0.0395  0.8697
  709TMC3    C810543   0.594   1.193  13.861  0.5614  0.2495 -0.4824
  709TMC3    O110544   0.828   1.339  14.280  0.3696  0.4610  0.0347
  709TMC3    O210545   0.522   1.175  13.955  0.1605 -0.5085 -0.0210
  710TMC3    C110546   2.016   2.400  17.679  0.3842 -0.4483 -0.1749
  710TMC3    C210547   2.051   2.414  17.551 -0.0786 -0.8166 -0.6641
  710TMC3    C310548   2.133   2.311  17.501 -0.2810 -0.6144  0.3330
  710TMC3    C410549   2.034   2.289   0.006 -0.6435  0.1912 -0.3202
  710TMC3    C510550   2.111   2.189  17.707  0.8052 -0.7838  0.1861
  710TMC3    C610551   2.145   2.195  17.576  0.3421  0.7708  0.7627
  710TMC3     C10552   1.915   2.496  17.717  0.3668 -0.1997 -0.0142
  710TMC3     O10553   1.868   2.549  17.615  0.5989  0.4803  0.2542
  710TMC3     H10554   2.051   2.509  17.498  2.7884 -1.1512 -1.2588
  710TMC3    H110555   1.985   2.290   0.103  1.0801 -0.1882  0.5494
  710TMC3    H210556   2.195   2.107  17.538  1.0075  1.8314 -0.7865
  710TMC3    C710557   2.202   2.127   0.054  0.4167 -0.2567 -0.5602
  710TMC3    C810558   2.226   2.321  17.392  0.1331 -0.1304 -0.9943
  710TMC3    O110559   2.211   2.178   0.164 -0.8849 -0.6687  0.0337
  710TMC3    O210560   2.307   2.232  17.382  0.2619 -0.7536 -0.1797
  711TMC3    C110561   1.816   3.866  15.305 -0.2163  0.0484 -0.4701
  711TMC3    C210562   1.814   3.866  15.445 -0.9542 -0.4484 -0.4433
  711TMC3    C310563   1.930   3.879  15.517  0.3230  0.1681  0.0609
  711TMC3    C410564   1.939   3.876  15.241 -0.0969  0.0619 -0.3039
  711TMC3    C510565   2.049   3.863  15.320  0.1487  0.2388 -0.1798
  711TMC3    C610566   2.051   3.881  15.455 -0.1400 -0.1116  0.2073
  711TMC3     C10567   1.715   3.789  15.238 -0.0263  0.2581 -0.1580
  711TMC3     O10568   1.729   3.776  15.121  1.1707  0.2391 -0.2819
  711TMC3     H10569   1.732   3.836  15.509 -1.9439  1.0492 -0.9942
  711TMC3    H110570   1.937   3.864  15.133 -0.3488 -0.3595 -0.2539
  711TMC3    H210571   2.137   3.855  15.516 -0.2664 -2.5016 -0.6123
  711TMC3    C710572   2.130   3.760  15.280  0.3901  0.0621 -0.5477
  711TMC3    C810573   1.921   3.821  15.648  0.1394 -0.6886 -0.2639
  711TMC3    O110574   2.152   3.676  15.365 -0.0960  0.0215 -0.4289
  711TMC3    O210575   1.845   3.724  15.649 -0.1339  0.5065 -0.1037
  712MPD2     C10576   2.968   4.261  13.903 -0.5104 -0.1913  0.7411
  712MPD2    C110577   2.898   4.340  13.813  0.4643  0.3291 -0.5050
  712MPD2    C210578   2.892   4.474  13.839 -0.6238 -0.1482 -0.5803
  712MPD2    C310579   2.979   4.531  13.935  1.0074  0.5342 -0.5872
  712MPD2    C410580   3.069   4.453  14.007 -0.0394 -0.5159 -0.1592
  712MPD2    C510581   3.047   4.318  13.996 -0.1843 -0.3800 -0.5775
  712MPD2     H10582   2.829   4.537  13.776  0.8834 -0.5944 -2.5375
  712MPD2    H110583   3.156   4.487  14.060 -0.0179  0.2823 -0.7162
  712MPD2    H210584   2.968   4.153  13.897  2.3817 -0.1183 -0.3314
  712MPD2    H310585   3.103   4.251  14.060  1.7902  0.8001 -1.0666
  712MPD2     N10586   2.998   4.669  13.937  0.3639  0.7852 -0.5519
  712MPD2    H510587   3.082   4.707  13.980  1.0147  0.6913 -1.7414
  712MPD2    N110588   2.833   4.295  13.697  0.2527  0.0898 -0.2369
  712MPD2    H710589   2.787   4.362  13.635 -0.5482  1.9628  2.3982
  713TMC3    C110590   2.965   0.129  13.819  0.2549  0.5757 -0.6489
  713TMC3    C210591   3.058   0.102  13.725  0.4286  0.2236 -0.5214
  713TMC3    C310592   3.098   0.207  13.645 -0.0587  0.2577  0.2287
  713TMC3    C410593   2.903   0.250  13.840  0.9333  0.4090 -0.2895
  713TMC3    C510594   2.954   0.349  13.759  0.1822  0.0436 -0.4420
  713TMC3    C610595   3.040   0.326  13.660  0.3434  0.7077  0.4203
  713TMC3     C10596   2.906   0.020  13.893  0.7521  0.4857  0.3696
  713TMC3     O10597   2.784   0.019  13.897  0.5438  0.0693  0.2724
  713TMC3     H10598   3.110   0.007  13.719  0.7223  0.2331  2.0076
  713TMC3    H110599   2.813   0.254  13.900  1.2076 -2.2236  0.3146
  713TMC3    H210600   3.078   0.406  13.597 -0.6630  1.0816  0.2819
  713TMC3    C710601   2.908   0.493  13.757 -0.0421  0.3957 -0.3832
  713TMC3    C810602   3.134   0.169  13.509 -0.3468 -0.1489 -0.4584
  713TMC3    O110603   2.992   0.584  13.733  0.6568 -0.1625  0.2564
  713TMC3    O210604   3.074   0.232  13.423  0.2515  0.4247 -0.0739
  714MPD2     C10605   0.924   3.202   1.123 -0.2007 -0.0573 -0.4907
  714MPD2    C110606   0.883   3.072   1.110 -0.3349 -0.3987 -0.0895
  714MPD2    C210607   0.752   3.049   1.077  0.3574 -0.0665 -0.9461
  714MPD2    C310608   0.662   3.157   1.064  0.4063 -0.2021  0.3657
  714MPD2    C410609   0.711   3.285   1.082  0.2156 -0.7590 -0.1094
  714MPD2    C510610   0.840   3.307   1.111  1.1661  0.1437 -0.0392
  714MPD2     H10611   0.720   2.946   1.072  0.9076 -0.2970  0.0838
  714MPD2    H110612   0.643   3.368   1.074 -1.0237 -1.4853  2.9430
  714MPD2    H210613   1.029   3.217   1.144 -0.5782 -1.1850  2.2166
  714MPD2    H310614   0.877   3.406   1.135  0.1102  0.5218  0.0290
  714MPD2     N10615   0.531   3.120   1.025  0.5535 -0.2353  0.2315
  714MPD2    H510616   0.513   3.021   1.009 -0.5205 -0.3162  1.9528
  714MPD2    N110617   0.977   2.971   1.127 -0.5238  1.2508 -0.3027
  714MPD2    H710618   1.061   2.999   1.176 -0.8567 -0.2009  1.1077
  715TMC3    C110619   1.066   2.757   1.132 -0.6746 -0.3347  0.6648
  715TMC3    C210620   1.094   2.647   1.063 -0.8856 -0.1161  0.1035
  715TMC3    C310621   1.202   2.565   1.098  0.4025  0.0143 -0.6483
  715TMC3    C410622   1.144   2.796   1.237  0.1665  0.2247 -0.2205
  715TMC3    C510623   1.256   2.726   1.265 -0.3673 -0.2872  0.1882
  715TMC3    C610624   1.292   2.617   1.183  0.3815 -0.1503 -0.6848
  715TMC3     C10625   0.954   2.843   1.082  0.0480  0.0966 -0.2792
  715TMC3     O10626   0.889   2.801   0.986  0.0959 -0.1323 -0.4502
  715TMC3     H10627   1.031   2.611   0.982 -0.0996  2.5091 -1.6629
  715TMC3    H110628   1.099   2.854   1.317  0.1852  1.0419 -0.8005
  715TMC3    H210629   1.376   2.558   1.219  0.1917 -0.3803 -0.6182
  715TMC3    C710630   1.347   2.763   1.374 -0.6243  0.2261 -0.0362
  715TMC3    C810631   1.255   2.488   0.986  0.3001  0.2966 -1.0496
  715TMC3    O110632   1.447   2.691   1.381  0.0843 -0.6375 -0.2476
  715TMC3    O210633   1.185   2.485   0.888  0.3903  0.1336 -0.1240
  716MPD2     C10634   0.244   2.139  10.398  0.1011  0.5507 -0.0628
  716MPD2    C110635   0.268   2.186  10.270  0.1017 -0.2907 -0.4577
  716MPD2    C210636   0.322   2.100  10.176  0.8600  0.1764  0.0438
  716MPD2    C310637   0.358   1.969  10.215  0.1583  0.1805  0.7871
  716MPD2    C410638   0.342   1.933  10.347  0.0486 -0.6761 -0.4407
  716MPD2    C510639   0.289   2.015  10.436 -0.6743 -0.3006  0.2145
  716MPD2     H10640   0.341   2.138  10.076 -2.3180 -0.3693 -0.7822
  716MPD2    H110641   0.378   1.839  10.389  0.7464  0.4899  1.5660
  716MPD2    H210642   0.203   2.203  10.476 -2.5414  1.2921 -2.0715
  716MPD2    H310643   0.286   1.993  10.542 -0.0138  0.3625  0.3745
  716MPD2     N10644   0.409   1.882  10.114 -0.1850 -0.5821 -0.4240
  716MPD2    H510645   0.432   1.922  10.024  0.7331 -1.9795 -0.8044
  716MPD2    N110646   0.220   2.320  10.249  0.5112  0.1730  0.0949
  716MPD2    H710647   0.161   2.364  10.320 -1.1417 -1.4677 -0.2832
  717TMC3    C110648   0.532   1.707  10.033 -0.1328 -0.0036  0.6168
  717TMC3    C210649   0.476   1.702   9.910  0.3375  0.1576 -0.0112
  717TMC3    C310650   0.535   1.624   9.814  0.5417  0.5406 -0.0944
  717TMC3    C410651   0.651   1.643  10.055  0.0975  0.5902 -0.2740
  717TMC3    C510652   0.714   1.573   9.957  0.2568  0.4875  0.4204
  717TMC3    C610653   0.655   1.568   9.835 -0.3027  0.4295  0.3291
  717TMC3     C10654   0.460   1.756  10.140  0.2102  0.4075  0.4512
  717TMC3     O10655   0.469   1.693  10.246  0.6126 -0.3728  0.3271
  717TMC3     H10656   0.387   1.761   9.893  0.7663  0.5542 -0.8863
  717TMC3    H110657   0.708   1.643  10.148 -0.2600  1.8278 -0.0566
  717TMC3    H210658   0.689   1.504   9.754  3.8178  1.8846  0.8908
  717TMC3    C710659   0.845   1.516   9.967 -0.5420 -0.6715 -0.4514
  717TMC3    C810660   0.453   1.602   9.702  0.3991 -0.9106  0.5251
  717TMC3    O110661   0.865   1.412   9.907 -0.2987 -0.3904  0.0160
  717TMC3    O210662   0.367   1.680   9.672  0.2020 -0.0715  0.0869
  718MPD2     C10663   0.323   0.175  12.870  0.0390 -0.5738 -0.4112
  718MPD2    C110664   0.255   0.130  12.759 -0.6107  0.2087  0.6559
  718MPD2    C210665   0.134   0.069  12.773 -0.5952  0.7938  0.7908
  718MPD2    C310666   0.072   0.064  12.896 -0.7965  0.5333 -0.1782
  718MPD2    C410667   0.138   0.113  13.008 -0.8579  0.4174 -0.0997
  718MPD2    C510668   0.261   0.172  12.989 -0.1035 -0.1898  0.4544
  718MPD2     H10669   0.076   0.054  12.682 -0.0318  1.6423  0.2916
  718MPD2    H110670   0.097   0.118  13.109 -0.5154  3.6095 -0.1091
  718MPD2    H210671   0.418   0.225  12.859  0.4349 -0.9205  1.4237
  718MPD2    H310672   0.314   0.208  13.077  0.2681 -4.0055  1.7804
  718MPD2     N10673   4.680   0.008  12.902  0.2479  0.5009 -0.0855
  718MPD2    H510674   4.651   4.692  12.821 -0.2044 -1.1069  1.1555
  718MPD2    N110675   0.310   0.157  12.629  0.3237  0.2504  0.0106
  718MPD2    H710676   0.397   0.209  12.622 -0.2784  1.1116 -0.9846
  719TMC3    C110677   0.285   0.221  12.403  0.0482 -0.2402 -0.2205
  719TMC3    C210678   0.179   0.223  12.314 -0.2821  0.3731 -0.4145
  719TMC3    C310679   0.133   0.348  12.273 -0.4393 -0.5319  0.2640
  719TMC3    C410680   0.351   0.331  12.445  0.0418  0.5570  0.0307
  719TMC3    C510681   0.323   0.449  12.377  0.8266  0.0127  0.1884
  719TMC3    C610682   0.207   0.462  12.296 -0.0529  0.3386 -0.4920
  719TMC3     C10683   0.262   0.121  12.504 -0.2727 -0.5459 -0.3423
  719TMC3     O10684   0.176   0.037  12.482  0.2554 -0.7541 -0.1936
  719TMC3     H10685   0.143   0.128  12.276  1.4347 -0.9148  1.1805
  719TMC3    H110686   0.431   0.339  12.517  0.1301  2.4899 -0.2823
  719TMC3    H210687   0.153   0.553  12.274 -1.0025  0.2880  1.6398
  719TMC3    C710688   0.433   0.542  12.366 -0.2240  0.2239  0.9076
  719TMC3    C810689   4.732   0.366  12.250  0.9633 -0.3966 -0.3758
  719TMC3    O110690   0.545   0.504  12.397  0.1612  0.5475  0.9462
  719TMC3    O210691   4.693   0.473  12.203  0.1862  0.3823 -0.2499
  720MPD2     C10692   3.447   1.329  13.851  0.6754  0.4227 -0.2799
  720MPD2    C110693   3.533   1.419  13.796  0.0227 -0.2038  0.0107
  720MPD2    C210694   3.664   1.418  13.842 -0.1009  0.0204  0.1228
  720MPD2    C310695   3.703   1.347  13.957  0.4251 -0.2852  0.4271
  720MPD2    C410696   3.614   1.266  14.017 -0.1049  0.0840  0.5236
  720MPD2    C510697   3.491   1.255  13.956  0.7113  0.0585  0.1807
  720MPD2     H10698   3.736   1.483  13.793 -1.6116  1.4513 -0.1955
  720MPD2    H110699   3.631   1.216  14.111 -1.6480 -0.6579  0.4065
  720MPD2    H210700   3.345   1.328  13.816 -0.2601  0.1612  2.4287
  720MPD2    H310701   3.416   1.197  14.009 -0.5359  1.5991  0.0907
  720MPD2     N10702   3.834   1.373  14.001 -0.0317 -0.0849 -0.7124
  720MPD2    H510703   3.892   1.436  13.946 -0.9474  2.1060  0.8198
  720MPD2    N110704   3.505   1.498  13.681  0.0495 -0.1915  0.1491
  720MPD2    H710705   3.586   1.553  13.654 -0.0355 -0.3285 -0.3879
  721TMC3    C110706   4.046   1.344  14.095 -0.4085  0.4409  0.5435
  721TMC3    C210707   4.121   1.312  14.202 -0.2359  0.2819  0.7642
  721TMC3    C310708   4.263   1.327  14.186 -0.1458 -0.7479 -0.5788
  721TMC3    C410709   4.103   1.388  13.980  0.8168  0.2459 -0.7008
  721TMC3    C510710   4.244   1.398  13.966 -0.5658  0.4457  0.2315
  721TMC3    C610711   4.322   1.358  14.064  0.3631 -0.4306 -0.4178
  721TMC3     C10712   3.905   1.311  14.100 -0.0641  0.9221  0.2871
  721TMC3     O10713   3.870   1.230  14.187 -0.2359  0.0400 -0.1870
  721TMC3     H10714   4.070   1.270  14.288 -0.8550  0.5015  0.5059
  721TMC3    H110715   4.044   1.419  13.893  2.4066  0.9579 -1.5220
  721TMC3    H210716   4.430   1.361  14.057  0.5324  4.5398  4.5539
  721TMC3    C710717   4.309   1.475  13.865 -0.6337  0.4925 -0.1135
  721TMC3    C810718   4.351   1.282  14.294  0.1733  0.6369 -0.6427
  721TMC3    O110719   4.426   1.502  13.878  0.5220 -0.7358  0.4020
  721TMC3    O210720   4.469   1.254  14.266  0.4091 -0.3063  0.2207
  722MPD2     C10721   2.003   0.354  13.114 -0.6209  0.1429  0.2306
  722MPD2    C110722   1.977   0.490  13.098 -0.6402 -0.1536 -0.1562
  722MPD2    C210723   1.924   0.535  12.977  0.1725 -0.0716 -0.3544
  722MPD2    C310724   1.912   0.445  12.875 -0.6149 -0.0687  0.2749
  722MPD2    C410725   1.947   0.317  12.888 -0.2153 -0.1852  0.1571
  722MPD2    C510726   1.990   0.269  13.005  0.2192  0.5490  0.9463
  722MPD2     H10727   1.900   0.640  12.964 -0.9503 -0.1130  1.4097
  722MPD2    H110728   1.944   0.256  12.799  0.1031  0.9767 -0.6435
  722MPD2    H210729   2.037   0.304  13.204 -0.2096 -1.1878 -0.6589
  722MPD2    H310730   2.008   0.163  13.018  0.2042  0.3576 -0.6280
  722MPD2     N10731   1.839   0.472  12.758 -0.1726  0.3876 -0.3004
  722MPD2    H510732   1.808   0.389  12.707  1.2641 -0.1034 -0.3594
  722MPD2    N110733   1.999   0.584  13.202  0.4671  0.1056 -0.0250
  722MPD2    H710734   1.982   0.682  13.181  0.5596 -0.0166 -0.6611
  723TMC3    C110735   1.716   0.581  12.596  0.2818  0.1220  0.2475
  723TMC3    C210736   1.637   0.467  12.587  0.2010  0.9493 -0.4123
  723TMC3    C310737   1.555   0.444  12.479 -0.2439  0.3986  0.4100
  723TMC3    C410738   1.704   0.682  12.506 -0.0569 -0.5030 -0.1886
  723TMC3    C510739   1.617   0.660  12.405 -0.7563  0.8204 -0.3721
  723TMC3    C610740   1.540   0.546  12.388  0.0135  0.3083  0.3071
  723TMC3     C10741   1.793   0.594  12.716  0.0315 -0.0995  0.4341
  723TMC3     O10742   1.821   0.708  12.756  0.6815 -0.5687 -0.4722
  723TMC3     H10743   1.630   0.402  12.673  2.2871  0.8888 -0.2816
  723TMC3    H110744   1.748   0.779  12.523 -0.1565 -0.2603 -1.3377
  723TMC3    H210745   1.471   0.530  12.305 -0.4440  1.6660  0.4226
  723TMC3    C710746   1.561   0.778  12.333 -0.5033 -0.2744 -0.2006
  723TMC3    C810747   1.440   0.359  12.489 -0.4141  0.7834 -0.5012
  723TMC3    O110748   1.499   0.748  12.228  0.1399  0.8250  0.3043
  723TMC3    O210749   1.333   0.397  12.446 -0.1651  0.1190 -0.0902
  724TMC3    C110750   2.680   3.323  10.331 -0.1452 -0.1648  0.2130
  724TMC3    C210751   2.676   3.380  10.208  0.0101 -0.1636  0.4347
  724TMC3    C310752   2.717   3.514  10.201  0.1537  0.5348 -0.2090
  724TMC3    C410753   2.705   3.402  10.444  0.5049 -0.2504 -0.5954
  724TMC3    C510754   2.734   3.534  10.435  0.0584 -0.3294  0.3204
  724TMC3    C610755   2.732   3.588  10.313  0.0808  0.2518 -0.5081
  724TMC3     C10756   2.672   3.180  10.344  0.0060 -0.4154 -1.0087
  724TMC3     O10757   2.714   3.125  10.443  0.7913 -1.2444 -0.2144
  724TMC3     H10758   2.687   3.314  10.122  1.1672  0.6200 -0.0200
  724TMC3    H110759   2.674   3.352  10.535  0.3518  0.3337 -0.3265
  724TMC3    H210760   2.763   3.691  10.297 -0.6885  0.7233  1.0972
  724TMC3    C710761   2.778   3.610  10.549  0.2340  0.3382  0.3321
  724TMC3    C810762   2.687   3.571  10.073 -0.0148 -0.3271  0.7611
  724TMC3    O110763   2.770   3.732  10.547  0.3992  0.3141 -0.4452
  724TMC3    O210764   2.661   3.492   9.983 -0.0524  0.5680 -0.5845
  725TMC3    C110765   4.454   2.111  13.050 -0.2349 -0.8715 -1.1915
  725TMC3    C210766   4.357   2.190  13.099 -0.0485  0.3437  0.5989
  725TMC3    C310767   4.247   2.207  13.022  0.8290 -0.0517 -0.2352
  725TMC3    C410768   4.432   2.023  12.941 -0.3535  0.4667  0.3510
  725TMC3    C510769   4.314   2.040  12.874  0.5636 -0.1983  0.5807
  725TMC3    C610770   4.225   2.136  12.906  0.2955 -0.3956 -0.1077
  725TMC3     C10771   4.588   2.171  13.068 -0.2622  0.1376 -0.2804
  725TMC3     O10772   4.585   2.287  13.111 -0.1514  0.1889 -0.4993
  725TMC3     H10773   4.372   2.252  13.186 -1.7797  0.3379  0.9039
  725TMC3    H110774   4.505   1.959  12.892  1.7406  1.2475  2.4916
  725TMC3    H210775   4.133   2.147  12.849  1.7762 -3.0256 -2.9987
  725TMC3    C710776   4.278   1.927  12.794  0.6262  0.1172  0.4483
  725TMC3    C810777   4.205   2.338  13.024  0.8704  0.1255 -0.0130
  725TMC3    O110778   4.210   1.957  12.697  0.8500 -0.2774 -0.0651
  725TMC3    O210779   4.195   2.391  13.136  0.1649 -0.1171  0.1774
  726MPD2     C10780   1.891   3.875  10.359 -0.3934  0.0926 -0.0516
  726MPD2    C110781   1.786   3.958  10.327  1.0738  0.2416  0.0823
  726MPD2    C210782   1.664   3.923  10.380  0.0004  0.0946  0.2277
  726MPD2    C310783   1.635   3.811  10.456 -0.4589 -0.5159 -0.1814
  726MPD2    C410784   1.744   3.733  10.483 -0.5727 -0.1938 -0.4649
  726MPD2    C510785   1.867   3.766  10.433 -0.3816 -0.2448 -0.0608
  726MPD2     H10786   1.578   3.980  10.344  1.3652  0.5636 -2.2915
  726MPD2    H110787   1.736   3.642  10.541  0.8003 -1.3587 -2.1156
  726MPD2    H210788   1.994   3.892  10.329 -1.9224  2.8404 -3.7258
  726MPD2    H310789   1.953   3.710  10.468  0.1701 -1.2929 -3.0530
  726MPD2     N10790   1.516   3.781  10.523  0.0868 -0.1171  1.0839
  726MPD2    H510791   1.509   3.697  10.580 -0.2025 -0.9664 -0.2022
  726MPD2    N110792   1.801   4.077  10.251  0.0815  0.4903  0.6835
  726MPD2    H710793   1.711   4.121  10.234  0.7773  1.1346 -1.2287
  727TMC3    C110794   1.915   4.250  10.129  0.3582  0.3599 -0.2458
  727TMC3    C210795   2.033   4.323  10.112  0.1571  0.5079 -0.2196
  727TMC3    C310796   2.037   4.437  10.035  0.2729 -0.4964 -0.0004
  727TMC3    C410797   1.804   4.280  10.057 -0.5243 -0.0039 -1.0184
  727TMC3    C510798   1.811   4.394   9.983 -0.0437 -0.2851  0.1271
  727TMC3    C610799   1.921   4.479   9.974 -0.5933 -0.3503  0.5426
  727TMC3     C10800   1.922   4.125  10.206 -0.0657 -0.6033 -0.7697
  727TMC3     O10801   2.038   4.086  10.232 -0.8568 -0.2239  0.2205
  727TMC3     H10802   2.116   4.296  10.177  0.9317  0.4811 -1.2270
  727TMC3    H110803   1.714   4.219  10.060 -0.2285 -0.3194  2.2046
  727TMC3    H210804   1.919   4.559   9.901 -2.0504 -2.0565 -1.2818
  727TMC3    C710805   1.708   4.413   9.885 -0.5400 -0.1977  0.0042
  727TMC3    C810806   2.147   4.526  10.065  0.0189 -0.4985 -0.2210
  727TMC3    O110807   1.739   4.471   9.784  0.1229 -0.2706 -0.1009
  727TMC3    O210808   2.216   4.509  10.167 -0.6436 -0.1528  0.3456
  728TMC3    C110809   1.529   2.191  14.908 -1.0120 -0.6204 -0.5015
  728TMC3    C210810   1.663   2.183  14.878 -0.0144  0.6254 -0.3213
  728TMC3    C310811   1.706   2.241  14.763 -0.3207  0.6400  0.9731
  728TMC3    C410812   1.437   2.255  14.831  0.0089 -0.4927  0.0834
  728TMC3    C510813   1.482   2.302  14.709 -0.2340  0.5078 -0.4469
  728TMC3    C610814   1.617   2.302  14.676  0.6011  0.1043  0.4677
  728TMC3     C10815   1.500   2.164  15.046 -0.1667 -0.3086  0.3577
  728TMC3     O10816   1.593   2.134  15.117 -0.7906 -0.1989  0.6252
  728TMC3     H10817   1.742   2.141  14.939  0.5789  2.7139  0.3309
  728TMC3    H110818   1.330   2.244  14.840  0.0620 -0.3450  0.9071
  728TMC3    H210819   1.649   2.336  14.579  2.4824 -3.3754 -0.1465
  728TMC3    C710820   1.381   2.377  14.630  0.0574 -0.5005  0.5785
  728TMC3    C810821   1.851   2.274  14.759  0.9674  0.0918  1.2736
  728TMC3    O110822   1.298   2.303  14.577 -0.2272 -0.4954 -0.4261
  728TMC3    O210823   1.927   2.199  14.817  0.4357  0.0354  0.3091
  729MPD2     C10824   3.654   3.031  16.526 -0.2010 -0.6855 -0.4836
  729MPD2    C110825   3.760   3.115  16.504  0.3839 -0.7036 -0.2811
  729MPD2    C210826   3.828   3.166  16.615  0.1433  0.1389  0.9458
  729MPD2    C310827   3.790   3.130  16.741 -0.3476  0.6434 -0.1067
  729MPD2    C410828   3.691   3.038  16.763  1.0962 -0.3389  0.1422
  729MPD2    C510829   3.625   2.989  16.658 -0.6394  0.2748  0.2161
  729MPD2     H10830   3.894   3.253  16.610 -0.4330  0.4474 -1.2098
  729MPD2    H110831   3.679   2.994  16.861  0.1482 -0.1752  0.0984
  729MPD2    H210832   3.593   2.993  16.445 -0.1394 -1.4950 -0.1481
  729MPD2    H310833   3.541   2.927  16.689  0.9953 -1.7902  0.4981
  729MPD2     N10834   3.850   3.192  16.854  0.7236 -0.4025  0.5516
  729MPD2    H510835   3.799   3.174  16.939  1.3369 -0.6299  0.8702
  729MPD2    N110836   3.789   3.155  16.372  0.4229 -0.6767 -0.0876
  729MPD2    H710837   3.725   3.127  16.298 -1.2888 -0.4386  1.3006
  730TMC3    C110838   3.950   3.384  16.967 -0.4515 -0.6615 -0.2241
  730TMC3    C210839   4.057   3.472  16.979  0.0301 -0.3595  0.2960
  730TMC3    C310840   4.042   3.597  17.044  0.2613  0.4145 -0.4140
  730TMC3    C410841   3.830   3.407  17.029 -0.5112  0.5824 -0.2887
  730TMC3    C510842   3.820   3.528  17.095 -0.3873  0.6910  0.2617
  730TMC3    C610843   3.926   3.619  17.106  1.1226 -0.0545 -0.2983
  730TMC3     C10844   3.957   3.287  16.858  0.0469  0.6533 -1.3184
  730TMC3     O10845   4.038   3.309  16.769 -0.3016 -0.1053  0.1183
  730TMC3     H10846   4.148   3.439  16.929  0.0716  1.3898 -0.7882
  730TMC3    H110847   3.744   3.341  17.019 -1.0201  1.1445  0.3503
  730TMC3    H210848   3.915   3.714  17.157 -2.2774 -0.8271  0.4666
  730TMC3    C710849   3.682   3.576  17.116 -0.1504 -0.0785  0.1399
  730TMC3    C810850   4.108   3.708  16.970 -0.8728 -0.0759 -0.6761
  730TMC3    O110851   3.602   3.526  17.036  0.7744 -0.0353 -0.3531
  730TMC3    O210852   4.140   3.680  16.856 -0.1865 -0.1971  0.3506
  731MPD2     C10853   3.610   2.474  11.954 -0.0111  0.2216  0.0525
  731MPD2    C110854   3.498   2.390  11.965 -0.5009  1.2674  0.5035
  731MPD2    C210855   3.467   2.324  12.080  0.1929 -0.2614  0.2300
  731MPD2    C310856   3.553   2.336  12.192 -0.3076  1.0622 -0.2535
  731MPD2    C410857   3.652   2.435  12.194 -0.7844 -0.0958 -0.3227
  731MPD2    C510858   3.672   2.507  12.076 -0.4957  0.0228  0.4094
  731MPD2     H10859   3.382   2.257  12.078 -0.3718  0.4753 -0.3301
  731MPD2    H110860   3.701   2.456  12.288 -0.4100  0.4990 -0.6497
  731MPD2    H210861   3.644   2.528  11.866 -1.3148 -1.0390 -1.2210
  731MPD2    H310862   3.762   2.566  12.067 -0.6488  0.1375 -0.3494
  731MPD2     N10863   3.525   2.251  12.299 -0.1627 -0.3022 -0.0566
  731MPD2    H510864   3.453   2.181  12.285 -2.3566  1.9406  0.0620
  731MPD2    N110865   3.437   2.368  11.842 -0.2711  0.0827 -0.6034
  731MPD2    H710866   3.468   2.430  11.768  0.6907  0.7384  0.3451
  732TMC3    C110867   3.354   2.213  11.674  0.3989 -0.0053  0.9746
  732TMC3    C210868   3.302   2.087  11.662  0.3344  0.3909  0.4160
  732TMC3    C310869   3.359   1.996  11.581 -0.0330  0.1897  0.3665
  732TMC3    C410870   3.468   2.241  11.605 -0.4717 -0.0157 -0.2757
  732TMC3    C510871   3.523   2.147  11.517  0.3050 -0.1595 -0.2626
  732TMC3    C610872   3.474   2.019  11.510 -0.0497 -0.3069 -1.3473
  732TMC3     C10873   3.345   2.266  11.814 -0.1512 -0.0284  0.2445
  732TMC3     O10874   3.279   2.196  11.890  0.1657 -0.2949  0.5663
  732TMC3     H10875   3.203   2.064  11.699 -0.1276  0.6097 -0.6920
  732TMC3    H110876   3.515   2.337  11.624  0.6314 -0.4491 -0.8485
  732TMC3    H210877   3.524   1.937  11.459  2.2304  0.0157  0.3359
  732TMC3    C710878   3.661   2.154  11.524  0.0820  0.2534  0.1140
  732TMC3    C810879   3.296   1.871  11.546 -0.0739 -0.2036  0.2386
  732TMC3    O110880   3.711   2.253  11.468  0.1477 -0.3590  0.4061
  732TMC3    O210881   3.347   1.818  11.447 -0.1742  0.0486 -0.0732
  733TMC3    C110882   4.249   4.607  12.997  0.1061 -0.3561  0.2753
  733TMC3    C210883   4.374   4.635  13.050  0.5756 -0.4144  0.6052
  733TMC3    C310884   4.459   4.704  12.966 -0.2513  0.2618 -1.1627
  733TMC3    C410885   4.207   4.653  12.871 -0.1256  0.2285  0.4229
  733TMC3    C510886   4.292   4.735  12.803  0.2889 -0.7551  0.4978
  733TMC3    C610887   4.419   0.021  12.847  0.1145  0.8378 -0.5279
  733TMC3     C10888   4.154   4.561  13.095  0.4998  0.4012 -0.3732
  733TMC3     O10889   4.173   4.587  13.212  0.2307  0.0424 -0.3352
  733TMC3     H10890   4.411   4.587  13.141 -0.0687 -2.0994 -0.0191
  733TMC3    H110891   4.120   4.629  12.812 -0.6042  0.8055  0.8856
  733TMC3    H210892   4.478   0.092  12.792 -0.0128  2.3642  1.2742
  733TMC3    C710893   4.252   0.044  12.673 -0.3172 -0.4417  0.6260
  733TMC3    C810894   4.595   0.001  13.014 -0.3847 -0.0545  0.1582
  733TMC3    O110895   4.138   0.075  12.643  0.5700  0.3700  0.0654
  733TMC3    O210896   4.608   0.036  13.129  0.6136 -0.7022 -0.9013
  734MPD2     C10897   1.995   2.771  11.718 -0.8603  0.1182 -0.0880
  734MPD2    C110898   1.865   2.726  11.693 -0.2370 -0.2247  0.4540
  734MPD2    C210899   1.814   2.758  11.567 -0.5230 -0.2134 -0.0209
  734MPD2    C310900   1.881   2.830  11.469 -0.1804 -0.2118 -0.3089
  734MPD2    C410901   2.007   2.857  11.495  0.0126  1.3286 -0.1076
  734MPD2    C510902   2.059   2.838  11.615  0.3068  0.8453 -0.3235
  734MPD2     H10903   1.717   2.717  11.542 -0.6250  1.3205 -2.2102
  734MPD2    H110904   2.071   2.903  11.420 -0.5641  0.4572 -1.1398
  734MPD2    H210905   2.036   2.760  11.818  0.1653 -0.5019 -0.5817
  734MPD2    H310906   2.160   2.872  11.637  0.9013 -0.9291 -0.3199
  734MPD2     N10907   1.811   2.851  11.350  0.2458  0.3736  0.0235
  734MPD2    H510908   1.711   2.833  11.358  0.4109 -1.2246 -1.7780
  734MPD2    N110909   1.792   2.642  11.783  0.1310 -0.2972 -0.0810
  734MPD2    H710910   1.838   2.613  11.869  2.2265 -0.6714 -1.3274
  735TMC3    C110911   1.619   2.499  11.860 -0.5797 -0.2372 -0.4555
  735TMC3    C210912   1.484   2.493  11.864 -0.2505  0.3774  0.0358
  735TMC3    C310913   1.409   2.371  11.864 -0.4368  0.5315  0.5195
  735TMC3    C410914   1.693   2.385  11.861 -0.2444 -0.0075  0.3471
  735TMC3    C510915   1.624   2.266  11.867  0.7176 -0.1726 -0.3202
  735TMC3    C610916   1.483   2.253  11.863 -0.3498  0.6249 -0.1970
  735TMC3     C10917   1.657   2.601  11.767  0.1477 -0.2685 -0.3824
  735TMC3     O10918   1.578   2.643  11.685  0.1521  0.5179  0.2236
  735TMC3     H10919   1.426   2.584  11.854 -2.3602 -0.8010  1.5579
  735TMC3    H110920   1.800   2.389  11.877 -0.6145  0.6792  2.6039
  735TMC3    H210921   1.435   2.159  11.837  1.5244 -0.9200  1.9575
  735TMC3    C710922   1.700   2.157  11.924  0.0100  0.1174  0.3207
  735TMC3    C810923   1.317   2.372  11.743 -0.8077 -0.0802 -0.2837
  735TMC3    O110924   1.813   2.183  11.969  1.1075 -0.3687 -0.2133
  735TMC3    O210925   1.239   2.275  11.726  0.0694  0.2792  0.5752
  736MPD2     C10926   1.575   1.819  12.008 -0.1362  0.0411  0.5600
  736MPD2    C110927   1.669   1.918  11.992  0.0767 -0.1674 -0.3633
  736MPD2    C210928   1.798   1.886  12.036  0.2792  0.1004 -0.5859
  736MPD2    C310929   1.837   1.759  12.064  0.0920 -0.9601  0.3465
  736MPD2    C410930   1.741   1.663  12.077 -0.5944 -0.2136  0.4508
  736MPD2    C510931   1.610   1.694  12.055  0.1280 -0.1904  1.0828
  736MPD2     H10932   1.878   1.958  12.025  0.3542  0.4215  2.0828
  736MPD2    H110933   1.760   1.562  12.110  1.1368 -0.7680 -2.2126
  736MPD2    H210934   1.477   1.830  11.962 -1.0005 -1.3335  2.0409
  736MPD2    H310935   1.539   1.612  12.060 -0.0198 -0.1141  0.3237
  736MPD2     N10936   1.969   1.716  12.081  0.0408  0.3351 -0.4005
  736MPD2    H510937   1.986   1.617  12.091  1.5033  0.6412  0.1865
  736MPD2    N110938   1.629   2.040  11.935 -0.4083  0.6799  0.5097
  736MPD2    H710939   1.535   2.037  11.898 -0.1596 -0.2291 -0.0464
  737TMC3    C110940   2.196   1.735  12.146  0.1072 -0.0157 -0.4580
  737TMC3    C210941   2.293   1.828  12.170 -0.1428 -0.3500  0.1588
  737TMC3    C310942   2.414   1.812  12.110  0.0453  0.5570  0.4632
  737TMC3    C410943   2.215   1.628  12.059 -0.2232  0.1084  0.1574
  737TMC3    C510944   2.339   1.618  11.999  0.4371  0.6522  0.5400
  737TMC3    C610945   2.439   1.707  12.027  0.4882 -0.1744  0.1070
  737TMC3     C10946   2.073   1.799  12.124 -0.0958  0.3890  0.8290
  737TMC3     O10947   2.079   1.918  12.147  0.0375  0.4067  0.0676
  737TMC3     H10948   2.286   1.914  12.236 -0.7361  0.9570 -1.6216
  737TMC3    H110949   2.135   1.561  12.028 -0.4785 -1.0622  3.3190
  737TMC3    H210950   2.533   1.715  11.974 -0.4091  0.0386 -1.4376
  737TMC3    C710951   2.337   1.537  11.876  0.5415 -0.0707  0.3757
  737TMC3    C810952   2.493   1.932  12.103  1.0213  0.3424  0.3406
  737TMC3    O110953   2.274   1.433  11.880 -0.6801 -0.1055  1.0503
  737TMC3    O210954   2.610   1.930  12.138 -0.0428 -0.7841 -0.5870
  738MPD2     C10955   2.996   0.764  15.321  0.7081 -0.8203 -0.5711
  738MPD2    C110956   2.913   0.679  15.255  0.4308  0.0225 -0.4525
  738MPD2    C210957   2.942   0.649  15.119  1.0421  0.4273 -0.3945
  738MPD2    C310958   3.054   0.698  15.055  0.4568  0.3068 -0.3159
  738MPD2    C410959   3.137   0.780  15.130 -0.1036  0.3970  0.0926
  738MPD2    C510960   3.100   0.817  15.253 -0.9823 -0.4633  0.5205
  738MPD2     H10961   2.876   0.582  15.064  1.7510 -1.0375  0.5390
  738MPD2    H110962   3.228   0.818  15.084 -0.0954  0.2964  0.0261
  738MPD2    H210963   2.976   0.802  15.421 -1.4947  0.1647 -1.3834
  738MPD2    H310964   3.165   0.892  15.297  0.6708 -1.7644  0.2936
  738MPD2     N10965   3.078   0.663  14.918  0.2570 -0.7687  0.2375
  738MPD2    H510966   3.008   0.624  14.857  0.2512  0.8618 -0.8010
  738MPD2    N110967   2.807   0.601  15.312  0.0626 -0.6145 -0.0316
  738MPD2    H710968   2.774   0.518  15.265 -1.7978  0.3968 -0.4984
  739TMC3    C110969   3.214   0.613  14.729  0.0711 -0.1186 -0.3482
  739TMC3    C210970   3.101   0.634  14.651 -0.8517  0.0746 -0.1242
  739TMC3    C310971   3.114   0.629  14.517 -0.6297  0.1758 -0.1059
  739TMC3    C410972   3.326   0.569  14.679  0.4476 -0.4911  0.2759
  739TMC3    C510973   3.328   0.545  14.549  0.3268 -0.3834 -0.5105
  739TMC3    C610974   3.226   0.573  14.460 -0.2105 -0.4623  0.8187
  739TMC3     C10975   3.208   0.662  14.866  0.3484 -0.0687 -0.2932
  739TMC3     O10976   3.314   0.674  14.927 -0.0330 -0.2256 -0.3688
  739TMC3     H10977   3.016   0.686  14.694  0.1108  0.5912  1.1592
  739TMC3    H110978   3.407   0.544  14.747  1.7320 -0.3556 -1.1947
  739TMC3    H210979   3.239   0.563  14.353  0.4552  0.6730  0.7882
  739TMC3    C710980   3.457   0.575  14.490 -0.4280 -0.1263 -0.2926
  739TMC3    C810981   3.019   0.706  14.433 -0.3257  0.0442  0.5200
  739TMC3    O110982   3.464   0.661  14.404  0.5989  0.4278  0.5246
  739TMC3    O210983   2.901   0.719  14.468 -0.3239 -0.3645  0.1594
  740TMC3    C110984   3.514   1.861  14.280  0.3346  0.0677  0.6187
  740TMC3    C210985   3.528   1.778  14.389 -0.3975  1.0084 -0.6920
  740TMC3    C310986   3.626   1.683  14.380 -0.3012  1.1783  0.0518
  740TMC3    C410987   3.591   1.856  14.168 -0.2674 -0.0541 -0.1476
  740TMC3    C510988   3.688   1.761  14.171  0.0484 -0.1365  0.4146
  740TMC3    C610989   3.706   1.671  14.270 -0.8839  0.1454  0.0158
  740TMC3     C10990   3.408   1.962  14.273  0.3919  0.0225  0.6222
  740TMC3     O10991   3.429   2.050  14.191  0.3300  0.3212 -0.4200
  740TMC3     H10992   3.472   1.779  14.481  0.8456  2.0159  0.0596
  740TMC3    H110993   3.560   1.896  14.072  0.4854 -1.3018 -0.9092
  740TMC3    H210994   3.781   1.593  14.263  1.4113  2.1951  1.9924
  740TMC3    C710995   3.789   1.751  14.061  0.3480 -0.2096 -0.0608
  740TMC3    C810996   3.635   1.559  14.458  0.2450  0.3457  0.4032
  740TMC3    O110997   3.877   1.667  14.077 -0.4907  0.6521  0.4888
  740TMC3    O210998   3.746   1.506  14.456  0.1309  0.2514 -0.2804
  741TMC3    C110999   3.055   1.218  14.379  0.2741 -0.0454 -0.2443
  741TMC3    C211000   2.928   1.193  14.397  1.0930 -0.0480 -0.3638
  741TMC3    C311001   2.902   1.104  14.505 -0.1172  0.4893 -0.1027
  741TMC3    C411002   3.161   1.160  14.446 -0.2653  0.1575  1.2873
  741TMC3    C511003   3.126   1.073  14.543 -0.3239 -0.3640 -0.1647
  741TMC3    C611004   2.998   1.044  14.580  0.4499 -0.0464 -0.0283
  741TMC3     C11005   3.085   1.267  14.244 -0.5786 -0.2958  0.4010
  741TMC3     O11006   3.203   1.286  14.216 -0.3041 -0.3328 -0.2753
  741TMC3     H11007   2.840   1.227  14.345 -0.7172  0.3828  3.0113
  741TMC3    H111008   3.264   1.180  14.417 -1.2489  0.7743 -1.7843
  741TMC3    H211009   2.973   0.964  14.649 -0.1559 -2.2388 -2.7850
  741TMC3    C711010   3.230   0.984  14.607 -0.5022  0.1320 -0.2062
  741TMC3    C811011   2.758   1.057  14.508 -0.1434 -0.3350 -0.4865
  741TMC3    O111012   3.195   0.930  14.708  0.4481  0.0846  0.6380
  741TMC3    O211013   2.691   1.093  14.413  0.1409 -0.4039 -0.1569
  742TMC3    C111014   2.737   4.433  15.538 -0.4544  0.1760  0.2138
  742TMC3    C211015   2.667   4.445  15.428 -0.1247  0.5493 -0.5609
  742TMC3    C311016   2.701   4.364  15.322  0.1635  0.0036 -0.0698
  742TMC3    C411017   2.852   4.360  15.549  0.1301  1.0109  1.0727
  742TMC3    C511018   2.888   4.283  15.438 -0.2336  0.0880 -0.4214
  742TMC3    C611019   2.823   4.299  15.321  0.2004  0.2355  0.2383
  742TMC3     C11020   2.676   4.483  15.660 -0.3955 -0.9026 -0.4680
  742TMC3     O11021   2.598   4.581  15.647  0.4166 -0.4987  0.2327
  742TMC3     H11022   2.568   4.488  15.442 -0.2596 -0.4640  1.5588
  742TMC3    H111023   2.913   4.358  15.639 -1.5013 -1.3539  2.1141
  742TMC3    H211024   2.851   4.240  15.235  1.1256 -1.0099  1.3815
  742TMC3    C711025   3.011   4.214  15.427  0.5371 -0.1031  0.4238
  742TMC3    C811026   2.620   4.344  15.203 -0.3265  0.3307 -0.4741
  742TMC3    O111027   3.039   4.143  15.328 -0.0424 -0.0752  0.1653
  742TMC3    O211028   2.664   4.270  15.118  0.0612 -0.7738  0.5188
  743MPD2     C11029   0.087   1.469   1.102  0.0563  0.5167  0.1639
  743MPD2    C111030   0.189   1.374   1.068 -0.3600  0.3954  0.4467
  743MPD2    C211031   0.316   1.417   1.099 -1.2633  0.1367  0.7975
  743MPD2    C311032   0.345   1.538   1.161  0.5369  0.8442  0.2399
  743MPD2    C411033   0.245   1.621   1.200  0.0848  0.2002 -0.3656
  743MPD2    C511034   0.121   1.592   1.152  0.1141  0.1400  0.0246
  743MPD2     H11035   0.398   1.359   1.059 -0.5944 -0.4284  3.0108
  743MPD2    H111036   0.270   1.723   1.228  0.7853 -0.1478  0.2622
  743MPD2    H211037   4.719   1.450   1.093  0.2206 -1.8587  3.1233
  743MPD2    H311038   0.052   1.675   1.160 -1.8527 -1.2825 -2.2279
  743MPD2     N11039   0.480   1.556   1.191 -0.8794  0.1677  0.0283
  743MPD2    H511040   0.540   1.475   1.177  0.2620  0.5524  2.6005
  743MPD2    N111041   0.148   1.253   1.004 -0.6758  0.0671 -0.0463
  743MPD2    H711042   0.050   1.227   0.999 -0.2849 -1.4589  0.2179
  744TMC3    C111043   0.174   1.031   0.922  0.0752  0.5407 -0.6012
  744TMC3    C211044   0.072   1.057   0.836 -0.7734  0.5448 -0.1917
  744TMC3    C311045   0.033   0.952   0.749 -0.2565 -0.0185 -0.1996
  744TMC3    C411046   0.246   0.913   0.911  0.3430 -0.0243  0.7431
  744TMC3    C511047   0.208   0.815   0.820  0.6129  0.0428  0.7273
  744TMC3    C611048   0.097   0.825   0.744 -0.2022 -0.6402  0.4621
  744TMC3     C11049   0.234   1.146   0.990 -0.5272 -0.1340  0.1695
  744TMC3     O11050   0.348   1.127   1.031 -0.0690  0.4881 -0.5828
  744TMC3     H11051   4.732   1.130   0.845 -1.6285 -0.3839 -0.0866
  744TMC3    H111052   0.335   0.909   0.973  0.1398 -0.8130  0.9845
  744TMC3    H211053   0.073   0.753   0.667 -0.1015  0.4622 -0.5822
  744TMC3    C711054   0.315   0.773   0.731  0.8197 -0.3739  0.3879
  744TMC3    C811055   4.710   0.997   0.629 -0.2529 -0.4782 -0.2789
  744TMC3    O111056   0.311   0.815   0.613 -0.2233  0.1583 -0.5876
  744TMC3    O211057   4.716   1.119   0.613 -0.1358  0.3347  0.2669
  745TMC3    C111058   2.735   4.146  13.554  0.4588 -0.1236  0.4418
  745TMC3    C211059   2.607   4.134  13.605  0.3093 -0.5628  0.1068
  745TMC3    C311060   2.501   4.204  13.547 -0.4692 -0.2884  0.4770
  745TMC3    C411061   2.761   4.223  13.449  0.5281  0.1352 -0.4286
  745TMC3    C511062   2.658   4.284  13.392 -0.7071  0.2135 -0.2564
  745TMC3    C611063   2.534   4.283  13.442 -0.1285  0.2226 -0.0010
  745TMC3     C11064   2.832   4.165  13.655  0.2003  0.7620 -0.6395
  745TMC3     O11065   2.870   4.062  13.705  0.3641 -0.1943 -0.3607
  745TMC3     H11066   2.592   4.070  13.692 -1.5210  0.0446  0.2434
  745TMC3    H111067   2.863   4.236  13.417  1.6822  1.6121  3.7578
  745TMC3    H211068   2.460   4.355  13.410  0.7193  0.3607 -1.6811
  745TMC3    C711069   2.684   4.407  13.318 -0.1583  0.2396  0.0933
  745TMC3    C811070   2.399   4.249  13.631 -0.2143 -0.5233  0.2427
  745TMC3    O111071   2.604   4.505  13.331  0.0384  0.1489  0.0615
  745TMC3    O211072   2.301   4.295  13.575 -0.1220  0.8975  0.0135
  746TMC3    C111073   0.681   1.745  11.053  0.2087 -0.0682  0.4412
  746TMC3    C211074   0.767   1.763  10.949  0.3825 -0.7217  0.9546
  746TMC3    C311075   0.747   1.690  10.831  0.0418 -0.0098  0.3183
  746TMC3    C411076   0.575   1.662  11.042  0.0719  0.1342  0.0047
  746TMC3    C511077   0.564   1.584  10.934  0.0673 -0.3480 -0.0454
  746TMC3    C611078   0.651   1.595  10.827 -0.1649 -0.4321 -0.8634
  746TMC3     C11079   0.708   1.820  11.178 -0.2457  0.3871 -0.4430
  746TMC3     O11080   0.624   1.785  11.259  0.0905 -0.9252 -0.3276
  746TMC3     H11081   0.863   1.813  10.953 -1.6397  3.2226  0.4070
  746TMC3    H111082   0.495   1.658  11.114  0.6719  1.8782  0.7664
  746TMC3    H211083   0.634   1.543  10.733  1.7288 -0.9919 -0.8895
  746TMC3    C711084   0.441   1.514  10.906  0.7796  0.1064 -0.4133
  746TMC3    C811085   0.869   1.659  10.755  0.2531 -0.5530  0.2205
  746TMC3    O111086   0.408   1.504  10.791  0.4706 -0.0816 -0.0625
  746TMC3    O211087   0.932   1.763  10.733  0.4228  0.0225  0.1526
  747TMC3    C111088   3.071   1.757  11.127 -1.3654  0.0442  0.4974
  747TMC3    C211089   2.955   1.683  11.135 -0.6931  0.4137  0.0769
  747TMC3    C311090   2.869   1.707  11.246  1.0279  0.7685  0.0567
  747TMC3    C411091   3.094   1.867  11.216  0.9719 -0.1586 -0.3172
  747TMC3    C511092   3.000   1.894  11.302 -0.3875 -0.6757 -0.0869
  747TMC3    C611093   2.889   1.817  11.324  0.8794  0.5502  1.2034
  747TMC3     C11094   3.164   1.740  11.018  0.3177 -0.4069 -0.1088
  747TMC3     O11095   3.268   1.803  11.028  0.2739 -0.0715  0.7363
  747TMC3     H11096   2.940   1.595  11.073  1.4059  1.6565 -2.1534
  747TMC3    H111097   3.182   1.928  11.203  1.7274 -1.1542  0.0891
  747TMC3    H211098   2.813   1.850  11.394 -0.3849 -0.6100  0.3750
  747TMC3    C711099   3.009   2.021  11.379  0.7002 -0.0241  0.9109
  747TMC3    C811100   2.767   1.608  11.284 -0.0981  0.0746 -0.0269
  747TMC3    O111101   2.923   2.034  11.462 -0.0823 -0.4364  0.5623
  747TMC3    O211102   2.767   1.511  11.208  0.1393 -0.5178  0.5377
  748MPD2     C11103   4.512   2.413   1.689 -0.3898  0.0831 -0.1066
  748MPD2    C111104   4.559   2.293   1.661  0.5039 -0.1274  0.4416
  748MPD2    C211105   4.674   2.290   1.585 -0.3910  0.4966 -0.4632
  748MPD2    C311106   0.012   2.407   1.555  0.2667  0.1860 -0.0951
  748MPD2    C411107   4.703   2.524   1.600  0.7209  0.6603 -0.5756
  748MPD2    C511108   4.579   2.525   1.659  0.9207 -0.5438 -0.4644
  748MPD2     H11109   4.717   2.197   1.549  0.4528  0.3530  0.9191
  748MPD2    H111110   0.014   2.618   1.583  3.5764 -0.9964 -1.4388
  748MPD2    H211111   4.414   2.420   1.734 -0.1155  1.9065  0.2013
  748MPD2    H311112   4.543   2.623   1.690  0.2091 -1.2251  0.8842
  748MPD2     N11113   0.137   2.396   1.485 -0.3882  0.2374 -0.4521
  748MPD2    H511114   0.176   2.306   1.461 -0.4390 -0.1927  1.1357
  748MPD2    N111115   4.488   2.181   1.701 -0.1415  0.2511  0.6204
  748MPD2    H711116   4.393   2.196   1.732 -1.0321 -1.9670 -1.1236
  749TMC3    C111117   0.323   2.440   1.349 -0.6873  0.4173 -0.3198
  749TMC3    C211118   0.397   2.341   1.400  0.6771 -0.1868 -0.7975
  749TMC3    C311119   0.510   2.296   1.337 -0.5241 -0.1542 -0.0455
  749TMC3    C411120   0.363   2.493   1.232  0.2916 -0.1121 -0.0522
  749TMC3    C511121   0.481   2.459   1.178 -0.5111 -0.0522  0.0888
  749TMC3    C611122   0.559   2.365   1.232 -0.7398 -0.3599 -0.5562
  749TMC3     C11123   0.218   2.494   1.429 -0.0446  0.4978  0.2902
  749TMC3     O11124   0.215   2.614   1.436  0.2761 -0.4994 -0.7702
  749TMC3     H11125   0.361   2.297   1.492 -0.3347  3.2426  0.4746
  749TMC3    H111126   0.305   2.575   1.192  1.2075  1.9570  2.8524
  749TMC3    H211127   0.655   2.338   1.188  0.9851  4.4624  0.2040
  749TMC3    C711128   0.534   2.549   1.076 -0.8021 -0.2406 -0.6127
  749TMC3    C811129   0.604   2.214   1.407 -0.3301  0.3586  0.4514
  749TMC3    O111130   0.650   2.536   1.044 -0.2468  0.2758  0.1385
  749TMC3    O211131   0.595   2.219   1.524  0.4140  0.3351  0.9123
  750MPD2     C11132   1.014   3.721  11.351 -1.0221  0.4399 -0.1674
  750MPD2    C111133   0.896   3.646  11.351 -0.2484  0.1397  0.4043
  750MPD2    C211134   0.842   3.608  11.232 -0.0200  0.3207 -1.1547
  750MPD2    C311135   0.906   3.632  11.111  0.2199  0.5457  0.6118
  750MPD2    C411136   1.024   3.702  11.104 -0.5330  0.5272  0.2278
  750MPD2    C511137   1.075   3.750  11.231 -0.2390  0.2050 -0.5963
  750MPD2     H11138   0.744   3.560  11.229 -1.3052  2.8993 -0.5011
  750MPD2    H111139   1.092   3.719  11.021 -1.4504  2.8298 -0.0344
  750MPD2    H211140   1.058   3.758  11.444 -1.5490 -1.5340  0.8615
  750MPD2    H311141   1.160   3.817  11.236  0.7836 -1.0590 -0.8807
  750MPD2     N11142   0.863   3.587  10.987 -0.3373 -0.1978 -0.3004
  750MPD2    H511143   0.933   3.557  10.920 -0.1385 -0.1231 -0.1273
  750MPD2    N111144   0.833   3.613  11.477 -0.4479  0.0170 -0.6722
  750MPD2    H711145   0.890   3.647  11.554 -0.6638 -0.3508 -0.3488
  751TMC3    C111146   0.756   3.431  10.873 -0.7537  0.0970  0.0975
  751TMC3    C211147   0.732   3.308  10.920  0.2881 -0.1555 -0.1209
  751TMC3    C311148   0.735   3.206  10.831 -0.4103  0.1824  0.7717
  751TMC3    C411149   0.794   3.457  10.744 -0.1775  0.1063  0.8204
  751TMC3    C511150   0.799   3.351  10.658  0.4101 -0.2596  0.2735
  751TMC3    C611151   0.770   3.224  10.699 -0.3091  1.3946  0.3855
  751TMC3     C11152   0.741   3.528  10.972 -0.2642 -0.7591  0.2521
  751TMC3     O11153   0.641   3.530  11.039  0.2562  0.4061 -0.0914
  751TMC3     H11154   0.704   3.293  11.024  0.2208  1.9163  0.1535
  751TMC3    H111155   0.807   3.560  10.713  1.4638 -0.3504 -0.0091
  751TMC3    H211156   0.774   3.138  10.632 -1.0999  0.3146  1.7392
  751TMC3    C711157   0.801   3.386  10.516 -0.0388 -0.1900  0.7431
  751TMC3    C811158   0.691   3.070  10.873  0.1088 -0.7263  0.7496
  751TMC3    O111159   0.842   3.500  10.489 -0.2429  0.6153  0.4084
  751TMC3    O211160   0.707   2.982  10.791 -0.4248  0.0333 -0.0690
  752TMC3    C111161   4.521   3.782  16.855  0.2854 -0.5870  0.0283
  752TMC3    C211162   4.563   3.876  16.949  0.1253 -0.3703  0.2485
  752TMC3    C311163   4.546   3.848  17.080  0.1908 -0.9481 -0.0079
  752TMC3    C411164   4.473   3.662  16.897  0.1372  0.4241  0.2931
  752TMC3    C511165   4.468   3.635  17.031 -0.1750  0.1767 -0.0073
  752TMC3    C611166   4.503   3.726  17.123  0.2121  0.1641  0.3606
  752TMC3     C11167   4.476   3.839  16.722 -0.5565  0.0524 -0.3473
  752TMC3     O11168   4.503   3.957  16.705 -0.5084  0.2409 -0.3764
  752TMC3     H11169   4.610   3.970  16.922  0.2664 -0.4043  0.3794
  752TMC3    H111170   4.411   3.598  16.835 -1.7140  1.5487  1.0097
  752TMC3    H211171   4.487   3.700  17.227 -1.2686 -1.4165 -0.2574
  752TMC3    C711172   4.394   3.516  17.079 -0.0996 -0.5646  0.2282
  752TMC3    C811173   4.593   3.943  17.180  0.3947  0.0857  0.4606
  752TMC3    O111174   4.380   3.430  16.994 -0.6750 -0.4998  0.0965
  752TMC3    O211175   4.621   3.891  17.287  0.0663  0.1631 -0.8101
  753TMC3    C111176   1.503   4.482  13.825  0.2150  0.8802  0.8703
  753TMC3    C211177   1.574   4.416  13.922  0.0270  0.9177 -0.0158
  753TMC3    C311178   1.561   4.281  13.936  0.6547 -0.0320 -0.0557
  753TMC3    C411179   1.429   4.412  13.732 -0.1990  0.8588  0.3174
  753TMC3    C511180   1.436   4.276  13.734 -0.6081  0.6149 -0.2148
  753TMC3    C611181   1.499   4.212  13.836  0.1040  0.1536  0.7687
  753TMC3     C11182   1.472   4.620  13.839 -0.6786  0.0431 -0.0696
  753TMC3     O11183   1.423   4.673  13.735  0.0635  0.4575  0.3539
  753TMC3     H11184   1.654   4.467  13.975  0.1212  0.8093 -0.0538
  753TMC3    H111185   1.373   4.467  13.657  2.1277  0.1932 -1.9282
  753TMC3    H211186   1.495   4.104  13.842 -1.2662  0.2105  0.9209
  753TMC3    C711187   1.424   4.201  13.614 -0.0148 -0.1090  1.1560
  753TMC3    C811188   1.653   4.212  14.020  0.5803  0.7954  0.2152
  753TMC3    O111189   1.459   4.084  13.624  0.2067 -0.1163 -0.2025
  753TMC3    O211190   1.688   4.100  13.988  0.0092 -0.5904 -1.3091
  754MPD2     C11191   0.913   3.193  13.277 -0.8162 -0.5727 -0.4052
  754MPD2    C111192   0.895   3.065  13.239 -0.2533  0.2769  0.7685
  754MPD2    C211193   0.792   3.026  13.162 -0.1119  0.3464  0.2481
  754MPD2    C311194   0.692   3.110  13.123 -0.5117  0.2220  0.0696
  754MPD2    C411195   0.708   3.250  13.166  0.5348 -0.1100 -0.0098
  754MPD2    C511196   0.818   3.287  13.244 -0.1488 -0.0157  0.3119
  754MPD2     H11197   0.802   2.921  13.136 -0.3939 -0.2841  2.6735
  754MPD2    H111198   0.636   3.329  13.145  0.7079 -0.3732 -1.5498
  754MPD2    H211199   0.995   3.229  13.338 -1.6011  3.3843 -1.6560
  754MPD2    H311200   0.825   3.391  13.272  1.4752 -0.0076 -0.1223
  754MPD2     N11201   0.562   3.070  13.075  1.1157  0.6027 -0.0863
  754MPD2    H511202   0.487   3.139  13.074  0.8187  0.3051  2.4029
  754MPD2    N111203   1.005   2.981  13.265 -0.3250  0.2587  0.0281
  754MPD2    H711204   1.082   3.043  13.286 -1.0572  0.4903  1.9784
  755MPD2     C11205   4.566   3.507  13.125 -0.8859  0.1292 -0.7860
  755MPD2    C111206   4.545   3.392  13.210  0.1162 -0.0606  0.3004
  755MPD2    C211207   4.631   3.286  13.193  0.8283  1.2077  0.6195
  755MPD2    C311208   4.717   3.279  13.084 -0.4219  0.1567  0.1868
  755MPD2    C411209   4.729   3.388  12.997 -0.4494  0.0249 -0.7633
  755MPD2    C511210   4.658   3.504  13.018  0.4233  0.5399 -0.1020
  755MPD2     H11211   4.627   3.203  13.263  1.7344  2.6659  2.3833
  755MPD2    H111212   0.067   3.388  12.921 -0.1357  1.9265 -0.4570
  755MPD2    H211213   4.506   3.596  13.138 -1.2588 -0.0754 -1.0840
  755MPD2    H311214   4.666   3.585  12.947 -1.6849  0.2488 -0.6808
  755MPD2     N11215   0.072   3.163  13.068 -0.5178 -0.2389 -0.3555
  755MPD2    H511216   0.135   3.161  12.988  2.3777  1.0119  1.8612
  755MPD2    N111217   4.469   3.400  13.329 -0.2213 -0.0409 -0.0254
  755MPD2    H711218   4.476   3.329  13.401 -0.6350  1.0056  1.0521
  756MPD2     C11219   0.645   4.719  10.111 -0.0019 -0.6108 -0.2697
  756MPD2    C111220   0.568   4.609  10.108 -0.0832 -0.2300 -0.6946
  756MPD2    C211221   0.488   4.587   9.992 -0.7459  0.1964 -0.1031
  756MPD2    C311222   0.490   4.683   9.890 -0.1182 -0.0688 -0.5708
  756MPD2    C411223   0.575   0.059   9.896 -0.5798  0.7980  0.3798
  756MPD2    C511224   0.654   0.071  10.008 -0.7518  0.2291  0.2411
  756MPD2     H11225   0.427   4.498   9.985  1.2072 -1.3431  2.2216
  756MPD2    H111226   0.575   0.141   9.825  0.0767  0.3455 -0.1458
  756MPD2    H211227   0.703   0.000  10.201 -0.7400 -1.8339  0.4722
  756MPD2    H311228   0.729   0.149  10.006 -1.9927  1.3844 -2.2581
  756MPD2     N11229   0.426   4.639   9.767  0.3613  0.4042 -0.2158
  756MPD2    H511230   0.378   4.550   9.757 -1.1804  1.2870 -0.7595
  756MPD2    N111231   0.573   4.517  10.209  0.5406 -0.2911 -0.3897
  756MPD2    H711232   0.491   4.458  10.223 -0.6531  1.4755  0.1242
  757MPD2     C11233   4.420   4.322   9.763 -0.2057 -0.7558 -0.1695
  757MPD2    C111234   4.540   4.283   9.820  0.5583  0.4720 -0.7901
  757MPD2    C211235   4.657   4.315   9.754  0.2511 -0.7986 -0.2923
  757MPD2    C311236   4.650   4.396   9.639 -0.2505 -0.4256 -0.1063
  757MPD2    C411237   4.527   4.446   9.590  0.2516  0.0697 -0.3012
  757MPD2    C511238   4.412   4.397   9.647  0.0168 -0.1443  0.5960
  757MPD2     H11239   0.013   4.280   9.794  0.6611  0.2956 -0.3265
  757MPD2    H111240   4.519   4.512   9.505 -2.7989  0.7668  0.5254
  757MPD2    H211241   4.324   4.295   9.806 -0.6857 -0.3456 -0.9937
  757MPD2    H311242   4.318   4.420   9.599 -0.2175 -0.2468  1.0040
  757MPD2     N11243   0.038   4.435   9.583 -0.4612 -0.2805  0.4698
  757MPD2    H511244   0.118   4.413   9.643  0.6311 -0.0502 -0.9177
  757MPD2    N111245   4.532   4.193   9.922  0.4931  0.6236  0.1617
  757MPD2    H711246   4.437   4.161   9.938 -0.2584  1.1368 -3.2769
  758MPD2     C11247   0.369   2.431  15.570 -0.2986 -0.4121 -0.5831
  758MPD2    C111248   0.446   2.396  15.670 -0.6827 -0.2097 -0.1152
  758MPD2    C211249   0.386   2.395  15.792 -0.2006  0.3908 -0.2991
  758MPD2    C311250   0.252   2.410  15.811  0.2129  0.0090  0.2287
  758MPD2    C411251   0.175   2.435  15.700  0.3131  0.2459  0.1831
  758MPD2    C511252   0.234   2.439  15.578 -0.1406 -0.4984 -0.2592
  758MPD2     H11253   0.443   2.391  15.884 -1.1858  0.6461  0.3275
  758MPD2    H111254   0.066   2.437  15.703  0.2904  0.1350 -0.6444
  758MPD2    H211255   0.408   2.442  15.469 -1.6338 -2.5437 -1.3205
  758MPD2    H311256   0.175   2.457  15.489 -0.1592  2.3037  0.3237
  758MPD2     N11257   0.191   2.434  15.931  0.2754  0.4712  0.0858
  758MPD2    H511258   0.103   2.485  15.935 -0.0818 -0.0512 -1.0570
  758MPD2    N111259   0.588   2.384  15.647 -0.7808  0.0977  0.0991
  758MPD2    H711260   0.616   2.392  15.549  2.3244  1.1717  1.0787
  759MPD2     C11261   3.875   1.733  10.173 -0.2713 -0.5189  0.5289
  759MPD2    C111262   3.786   1.631  10.144 -1.2748  0.0420 -0.2763
  759MPD2    C211263   3.750   1.624  10.009  0.0724 -0.0767 -0.1810
  759MPD2    C311264   3.802   1.702   9.907 -0.2672 -0.1373 -0.3169
  759MPD2    C411265   3.896   1.797   9.945  0.2883  0.1434 -0.0271
  759MPD2    C511266   3.925   1.813  10.072  0.1937  0.4287  0.0646
  759MPD2     H11267   3.679   1.546   9.982 -1.3549  2.1214 -2.8480
  759MPD2    H111268   3.954   1.866   9.884 -0.4524  1.6462  0.9609
  759MPD2    H211269   3.910   1.762  10.272 -1.0481 -0.9385  0.9252
  759MPD2    H311270   3.985   1.899  10.099 -0.5786  0.5638  1.3665
  759MPD2     N11271   3.758   1.686   9.773  1.0771 -0.6721  0.6162
  759MPD2    H511272   3.682   1.620   9.761  0.0968  0.3410  1.2910
  759MPD2    N111273   3.721   1.548  10.234  0.9565 -0.3162  0.0914
  759MPD2    H711274   3.652   1.480  10.203 -0.2940  0.3291  1.4230
  760MPD2     C11275   3.763   3.449  12.156 -0.4984 -0.1738  0.6153
  760MPD2    C111276   3.880   3.447  12.083  0.1246 -0.2662  0.7227
  760MPD2    C211277   3.969   3.347  12.095 -0.1961 -0.0453  0.7748
  760MPD2    C311278   3.929   3.235  12.172  0.1517  0.3759  0.5382
  760MPD2    C411279   3.808   3.233  12.248  0.0302 -0.4642 -0.1659
  760MPD2    C511280   3.732   3.349  12.241 -0.2870 -0.3108 -0.2785
  760MPD2     H11281   4.070   3.352  12.058  0.3105  0.7249  2.2593
  760MPD2    H111282   3.797   3.155  12.322  0.2830 -2.8073 -2.5990
  760MPD2    H211283   3.692   3.529  12.138 -1.1338 -1.4632 -2.5730
  760MPD2    H311284   3.647   3.354  12.308  0.3955 -2.1035  0.7294
  760MPD2     N11285   4.023   3.129  12.201 -0.6841  0.1323 -0.2350
  760MPD2    H511286   4.006   3.058  12.272  1.5656 -0.6466 -0.4563
  760MPD2    N111287   3.929   3.561  12.021  0.2953 -0.0320  0.1406
  760MPD2    H711288   4.004   3.545  11.956  0.1663 -0.1654  0.0253
  761MPD2     C11289   0.391   2.742  11.130  0.3324 -0.9644 -0.2239
  761MPD2    C111290   0.483   2.722  11.035 -0.6432  0.6376 -0.2228
  761MPD2    C211291   0.565   2.825  10.987  0.0181 -0.5426 -0.0820
  761MPD2    C311292   0.547   2.953  11.035  0.1951  0.3220  0.6201
  761MPD2    C411293   0.454   2.973  11.132  0.0385  0.1119  0.8656
  761MPD2    C511294   0.376   2.872  11.175 -0.8024 -0.2499 -0.2089
  761MPD2     H11295   0.652   2.800  10.928  2.3303 -1.6510  3.7768
  761MPD2    H111296   0.437   3.072  11.173  2.3107  0.6745  0.4030
  761MPD2    H211297   0.321   2.668  11.168 -0.0375 -0.1277  0.7275
  761MPD2    H311298   0.303   2.890  11.254  0.6249 -2.9100  1.7280
  761MPD2     N11299   0.615   3.069  10.984 -0.0186  0.2097 -1.2400
  761MPD2    H511300   0.603   3.163  11.021  2.7164  0.2585 -0.5027
  761MPD2    N111301   0.496   2.593  10.986 -0.0176 -0.0109  0.3858
  761MPD2    H711302   0.438   2.515  11.016 -0.2563 -0.4079 -1.1164
  762MPD2     C11303   1.185   2.377  10.925  0.3581 -0.5540 -0.4811
  762MPD2    C111304   1.115   2.257  10.936 -0.7100 -0.3278  0.5259
  762MPD2    C211305   1.189   2.140  10.913  0.3566 -0.1850 -0.5256
  762MPD2    C311306   1.333   2.146  10.904 -0.2794  0.0832 -0.5428
  762MPD2    C411307   1.393   2.271  10.899  0.5296  0.1009  0.3838
  762MPD2    C511308   1.320   2.385  10.907 -0.2996  0.1671  0.0687
  762MPD2     H11309   1.139   2.044  10.921 -1.1769  0.6309 -0.4221
  762MPD2    H111310   1.500   2.282  10.890  0.6673  0.0609  2.0864
  762MPD2    H211311   1.133   2.471  10.940 -0.0804 -1.1518  1.7145
  762MPD2    H311312   1.375   2.479  10.912 -1.3157  0.8115 -0.9747
  762MPD2     N11313   1.414   2.032  10.883 -0.0583  0.1659  0.7491
  762MPD2    H511314   1.366   1.942  10.881  2.6273 -1.2317 -1.1864
  762MPD2    N111315   0.974   2.275  10.950 -0.3881 -0.5165 -0.8200
  762MPD2    H711316   0.946   2.370  10.973 -0.2399 -0.3120 -1.4870
  763MPD2     C11317   2.000   2.402  16.198  0.3624  0.1160 -0.4306
  763MPD2    C111318   2.029   2.490  16.098  0.2568  0.4591  0.4928
  763MPD2    C211319   2.078   2.615  16.137  0.3288 -0.0550 -0.4438
  763MPD2    C311320   2.106   2.657  16.269  0.1700  0.3615 -0.4829
  763MPD2    C411321   2.058   2.570  16.366 -0.6855 -0.6211 -0.5952
  763MPD2    C511322   2.017   2.442  16.326 -0.1489  0.0960 -0.5917
  763MPD2     H11323   2.100   2.690  16.062 -0.0884 -1.1474 -1.6608
  763MPD2    H111324   2.077   2.601  16.468  2.3734 -1.1064 -1.0065
  763MPD2    H211325   1.946   2.309  16.185  1.9425 -0.8081 -0.3957
  763MPD2    H311326   1.988   2.370  16.402 -0.5332 -1.9470 -2.6784
  763MPD2     N11327   2.166   2.784  16.295  0.2591  0.1165  0.3771
  763MPD2    H511328   2.227   2.819  16.222  0.2467 -1.4501 -0.3942
  763MPD2    N111329   2.005   2.458  15.964  0.2232 -0.4849  0.0418
  763MPD2    H711330   2.016   2.536  15.900 -1.5635 -1.4963 -1.4957
  764MPD2     C11331   0.782   3.898  17.239 -0.2739  0.1763 -0.0205
  764MPD2    C111332   0.654   3.910  17.202  0.8652  0.2992 -0.3911
  764MPD2    C211333   0.554   3.866  17.292 -0.3532 -0.5121 -0.5708
  764MPD2    C311334   0.586   3.802  17.410 -0.7847 -0.1739  0.1873
  764MPD2    C411335   0.718   3.786  17.444  0.3799  0.0963  0.5478
  764MPD2    C511336   0.816   3.840  17.361 -0.1250 -0.7516  0.3355
  764MPD2     H11337   0.450   3.873  17.264  0.4382 -0.2580 -3.4729
  764MPD2    H111338   0.746   3.736  17.536 -0.0609 -0.1743  0.5324
  764MPD2    H211339   0.864   3.943  17.184 -0.1084 -1.4276 -1.0817
  764MPD2    H311340   0.914   3.855  17.404  0.0304 -0.8181  0.0016
  764MPD2     N11341   0.479   3.782  17.504  0.1742 -0.0200 -0.0331
  764MPD2    H511342   0.384   3.799  17.473  0.7931  0.8729 -1.4190
  764MPD2    N111343   0.618   3.973  17.082  0.2394 -0.3655 -0.4767
  764MPD2    H711344   0.519   3.991  17.065  0.4867  2.5322  1.2529
  765MPD2     C11345   4.677   1.956  15.309 -0.2271  0.2136  1.8326
  765MPD2    C111346   4.715   1.978  15.438  0.7930  0.3764 -0.3155
  765MPD2    C211347   0.109   1.972  15.477  0.2750 -1.2873  0.5952
  765MPD2    C311348   0.208   1.940  15.389  0.4326  0.7432  1.2005
  765MPD2    C411349   0.169   1.899  15.258  1.1382 -0.4131  0.1672
  765MPD2    C511350   0.037   1.925  15.220  0.3682 -0.0704 -0.5107
  765MPD2     H11351   0.138   2.009  15.575  1.9974 -3.1272  0.7810
  765MPD2    H111352   0.238   1.870  15.180  1.1114  0.4239 -0.1749
  765MPD2    H211353   4.572   1.958  15.280  0.7020 -1.1875 -1.5953
  765MPD2    H311354   0.014   1.918  15.115 -0.2995  1.2510 -0.4514
  765MPD2     N11355   0.345   1.924  15.443 -0.4825 -0.8023  0.1118
  765MPD2    H511356   0.361   1.937  15.543  0.2111  0.6064 -0.1877
  765MPD2    N111357   4.618   2.017  15.532 -0.0324 -0.6074 -0.8455
  765MPD2    H711358   4.522   2.004  15.500 -0.1883 -1.1229 -0.1754
  766MPD2     C11359   3.965   2.073  15.298  0.9995 -0.2440 -0.0460
  766MPD2    C111360   4.101   2.054  15.315 -0.7410 -0.3887  0.5343
  766MPD2    C211361   4.173   1.994  15.215  0.1848  0.0398  0.1186
  766MPD2    C311362   4.114   1.937  15.104 -0.6088  0.0013  0.3396
  766MPD2    C411363   3.977   1.947  15.097  0.5261  0.1098 -0.3708
  766MPD2    C511364   3.901   2.017  15.190 -0.4935 -0.4840 -0.5853
  766MPD2     H11365   4.281   1.991  15.213  0.1924  1.1619 -1.2191
  766MPD2    H111366   3.916   1.888  15.030  0.3261 -1.0003  0.7814
  766MPD2    H211367   3.896   2.124  15.364  0.5105 -1.5678  0.4694
  766MPD2    H311368   3.793   2.011  15.187 -0.4690 -0.5249 -1.3007
  766MPD2     N11369   4.188   1.886  14.991 -0.0135 -0.1482 -0.0445
  766MPD2    H511370   4.138   1.841  14.915 -0.8356  1.2510 -0.3231
  766MPD2    N111371   4.157   2.109  15.435  0.3651 -0.1659  0.3105
  766MPD2    H711372   4.088   2.148  15.498  0.0796  1.3762 -0.9676
  767MPD2     C11373   3.848   2.178  14.887 -0.6855 -0.2160 -0.6087
  767MPD2    C111374   3.978   2.182  14.841 -0.1363  0.5604 -0.4944
  767MPD2    C211375   4.006   2.119  14.715  1.3532  0.0369 -0.3827
  767MPD2    C311376   3.907   2.069  14.639 -0.2615  0.2065 -0.4928
  767MPD2    C411377   3.774   2.076  14.679 -0.1067 -0.2591 -0.3829
  767MPD2    C511378   3.750   2.124  14.808  0.0957  0.0332 -1.4031
  767MPD2     H11379   4.109   2.116  14.679  1.2815  0.2805 -0.6051
  767MPD2    H111380   3.686   2.037  14.630  0.0283  0.0945 -0.9000
  767MPD2    H211381   3.824   2.221  14.984  3.1210 -0.3504  0.3962
  767MPD2    H311382   3.646   2.127  14.840  0.4989  0.5927 -0.1306
  767MPD2     N11383   3.934   2.024  14.506  0.4273  0.4029 -0.5058
  767MPD2    H511384   4.025   1.989  14.477  1.0027  1.6222 -0.2083
  767MPD2    N111385   4.068   2.243  14.933  0.1246 -0.0456 -0.4164
  767MPD2    H711386   4.036   2.298  15.013 -0.4639 -0.1894 -0.5527
  768MPD2     C11387   0.609   0.911  10.365 -0.4798 -0.5109 -0.2219
  768MPD2    C111388   0.536   0.860  10.471  1.1195  0.1073 -0.1549
  768MPD2    C211389   0.598   0.792  10.572 -0.1179 -0.3596  0.1702
  768MPD2    C311390   0.735   0.772  10.564  0.4285  0.1150 -0.5799
  768MPD2    C411391   0.812   0.820  10.462 -0.1782  0.6479 -0.8067
  768MPD2    C511392   0.749   0.897  10.364 -0.6644 -0.3027  0.5023
  768MPD2     H11393   0.537   0.757  10.656 -0.8303  0.4897  0.0134
  768MPD2    H111394   0.919   0.808  10.451  0.0191  1.2711  0.3973
  768MPD2    H211395   0.551   0.959  10.288 -0.0369 -1.0744 -0.8971
  768MPD2    H311396   0.805   0.948  10.287 -1.7643  1.1353  0.6648
  768MPD2     N11397   0.808   0.730  10.676  0.1650  0.1884  0.1402
  768MPD2    H511398   0.909   0.719  10.667  0.0457 -0.9777  0.3448
  768MPD2    N111399   0.394   0.865  10.491 -0.1680 -0.5326 -0.0631
  768MPD2    H711400   0.353   0.804  10.560  3.0302 -0.5118  1.8000
  769MPD2     C11401   0.787   4.037  14.633  0.4481 -0.1522 -0.0062
  769MPD2    C111402   0.858   3.929  14.682  0.4888 -0.2454 -0.6406
  769MPD2    C211403   0.967   3.948  14.770 -0.1895 -0.2041  0.5307
  769MPD2    C311404   1.006   4.076  14.806  0.3792  0.1314 -0.3746
  769MPD2    C411405   0.937   4.181  14.754 -0.0664  0.3039 -0.3140
  769MPD2    C511406   0.828   4.161  14.674  0.8748  0.6127 -0.1869
  769MPD2     H11407   1.027   3.872  14.819 -0.5229  0.1241  1.4556
  769MPD2    H111408   0.968   4.282  14.779  1.2701  0.6056 -3.1646
  769MPD2    H211409   0.703   4.027  14.565  0.8060 -1.2744 -0.2918
  769MPD2    H311410   0.775   4.247  14.635  1.5529  1.2833  0.3531
  769MPD2     N11411   1.102   4.085  14.906 -0.2182 -0.8635  0.3451
  769MPD2    H511412   1.140   3.996  14.937 -0.7692 -1.2274 -0.0197
  769MPD2    N111413   0.812   3.797  14.652  0.6476 -0.0105 -0.6199
  769MPD2    H711414   0.735   3.784  14.587  0.9922 -0.4303 -0.9407
  770MPD2     C11415   0.975   2.723  14.723  0.2287  0.7706 -0.7274
  770MPD2    C111416   0.844   2.742  14.691  0.6237 -0.1527  0.0061
  770MPD2    C211417   0.788   2.864  14.697  0.3735  0.3476  0.0607
  770MPD2    C311418   0.868   2.969  14.743 -0.1191 -0.2987 -0.0230
  770MPD2    C411419   0.996   2.947  14.783  0.1896  0.3012 -0.0257
  770MPD2    C511420   1.050   2.826  14.773  1.0902  0.3677 -0.5048
  770MPD2     H11421   0.690   2.898  14.668  0.3717  2.5940  2.6382
  770MPD2    H111422   1.064   3.028  14.806 -0.4866  1.3541 -1.6913
  770MPD2    H211423   1.016   2.623  14.724  0.3146  0.7914 -1.9673
  770MPD2    H311424   1.149   2.801  14.810  0.8708  1.0161  0.5305
  770MPD2     N11425   0.822   3.100  14.719  0.1942 -0.7889  0.7330
  770MPD2    H511426   0.724   3.100  14.692  0.5526 -1.5132 -0.5889
  770MPD2    N111427   0.770   2.621  14.678  0.2025  0.0614  0.1757
  770MPD2    H711428   0.841   2.550  14.685  0.6754  0.6741  1.5592
  771MPD2     C11429   1.372   1.673  13.354 -0.4824  0.9207 -0.0427
  771MPD2    C111430   1.442   1.773  13.304  0.4178  0.6912 -0.0687
  771MPD2    C211431   1.483   1.762  13.169  0.1904  0.4467  0.5352
  771MPD2    C311432   1.450   1.656  13.095  0.1525  0.6862  0.7751
  771MPD2    C411433   1.376   1.555  13.149  0.1708 -0.1890 -0.0628
  771MPD2    C511434   1.338   1.569  13.276  0.3147 -0.6101  0.7712
  771MPD2     H11435   1.541   1.839  13.119 -0.8447  0.1490 -1.1003
  771MPD2    H111436   1.353   1.472  13.083 -0.7131  1.2126 -1.5332
  771MPD2    H211437   1.320   1.677  13.449 -0.2087 -1.0292  0.1897
  771MPD2    H311438   1.286   1.487  13.323  0.7153 -2.9984 -2.9473
  771MPD2     N11439   1.492   1.657  12.962 -0.0620  0.5814  0.5971
  771MPD2    H511440   1.542   1.739  12.928 -1.1431  1.3194  0.7673
  771MPD2    N111441   1.479   1.893  13.377  0.1758 -0.5706 -0.1117
  771MPD2    H711442   1.531   1.966  13.329  1.4880 -1.7339 -0.4683
  772MPD2     C11443   1.256   2.428  14.019  0.2076  0.0867  0.7409
  772MPD2    C111444   1.221   2.324  13.946 -0.1003  0.1303 -0.1936
  772MPD2    C211445   1.117   2.254  13.990  0.1027  0.3457  0.3874
  772MPD2    C311446   1.055   2.284  14.107  0.7984  0.1784 -0.2480
  772MPD2    C411447   1.100   2.391  14.180 -0.3739 -0.3833 -0.0595
  772MPD2    C511448   1.209   2.456  14.141  0.4937  0.4765  0.9462
  772MPD2     H11449   1.078   2.174  13.929 -0.4513  2.2319 -1.7140
  772MPD2    H111450   1.059   2.416  14.278  0.6929  0.3591  0.2020
  772MPD2    H211451   1.344   2.485  13.990  0.3342 -0.8022 -0.6684
  772MPD2    H311452   1.256   2.536  14.198 -0.9881  3.0157 -1.3756
  772MPD2     N11453   0.950   2.212  14.169 -0.5096  0.1824  0.0848
  772MPD2    H511454   0.928   2.244  14.262  1.4522 -2.6688  1.5201
  772MPD2    N111455   1.288   2.277  13.831  0.1740 -0.1394 -0.2641
  772MPD2    H711456   1.253   2.187  13.801  1.3761 -0.6489 -0.1496
  773MPD2     C11457   0.352   3.172  17.629 -1.0048  0.4510 -0.0629
  773MPD2    C111458   0.354   3.031  17.639 -0.7730  0.6802  0.0574
  773MPD2    C211459   0.429   2.979  17.740  0.0359  0.3364  0.3181
  773MPD2    C311460   0.507   3.059   0.074  0.0314  0.0142 -0.3567
  773MPD2    C411461   0.497   3.192   0.062  0.5237 -0.4725  0.0824
  773MPD2    C511462   0.426   3.255  17.713  0.1816  0.2478  0.6311
  773MPD2     H11463   0.436   2.871  17.748 -1.8603  0.3393  1.9251
  773MPD2    H111464   0.557   3.256   0.126  1.1052  0.0239 -0.9453
  773MPD2    H211465   0.295   3.224  17.553 -0.6418  2.7383  1.2495
  773MPD2    H311466   0.414   3.362  17.697  1.7147  0.6860  2.4026
  773MPD2     N11467   0.583   2.993   0.172 -0.7677 -1.0963  0.7468
  773MPD2    H511468   0.568   2.893   0.165  1.0576 -1.2395 -1.1340
  773MPD2    N111469   0.287   2.959  17.539 -0.0859  0.5427 -0.0887
  773MPD2    H711470   0.245   3.013  17.464  0.9012 -0.7729 -1.5894
  774MPD2     C11471   0.561   1.968  13.030 -0.8488  0.4213  0.0919
  774MPD2    C111472   0.499   2.028  13.138  0.3954  0.5154 -0.4619
  774MPD2    C211473   0.558   2.139  13.192 -0.0090  0.4422 -0.2773
  774MPD2    C311474   0.668   2.204  13.133  0.6457  0.1901  0.3741
  774MPD2    C411475   0.728   2.146  13.025  0.3189 -0.4783  0.0692
  774MPD2    C511476   0.670   2.033  12.971 -0.3404  0.5311  0.1389
  774MPD2     H11477   0.507   2.172  13.282 -4.1282  0.0061 -2.4124
  774MPD2    H111478   0.813   2.193  12.976 -1.3084  1.5875 -0.7654
  774MPD2    H211479   0.527   1.871  12.996 -1.0982  0.0394  1.4364
  774MPD2    H311480   0.718   1.991  12.883  0.3006  0.6682  0.4190
  774MPD2     N11481   0.710   2.326  13.194 -0.2460  0.1101 -0.0627
  774MPD2    H511482   0.663   2.347  13.282 -1.9256  0.7095 -1.1113
  774MPD2    N111483   0.394   1.975  13.212 -0.9560  0.1774  0.4997
  774MPD2    H711484   0.364   2.017  13.299  1.3171 -0.4770  1.5996
  775MPD2     C11485   1.979   3.779  16.394  0.6444 -0.7331 -0.5908
  775MPD2    C111486   1.880   3.776  16.295 -0.3990  0.2608 -0.1892
  775MPD2    C211487   1.879   3.875  16.196 -0.4565 -0.2951 -0.5860
  775MPD2    C311488   1.980   3.967  16.190 -0.2937  0.6475 -0.9489
  775MPD2    C411489   2.069   3.971  16.291  0.0473 -0.3878  0.2349
  775MPD2    C511490   2.068   3.879  16.386  0.0588 -0.1347  0.1842
  775MPD2     H11491   1.814   3.866  16.110 -0.8144  2.6795 -0.6147
  775MPD2    H111492   2.151   4.042  16.287 -2.3842  2.2863 -1.4545
  775MPD2    H211493   1.972   3.713  16.479  0.3384 -0.8379 -0.6990
  775MPD2    H311494   2.145   3.893  16.462  0.0777  1.4607 -0.1231
  775MPD2     N11495   1.989   4.066  16.088  0.0175  0.1680 -0.7108
  775MPD2    H511496   2.082   4.108  16.089 -0.7314  1.8016  0.1646
  775MPD2    N111497   1.770   3.692  16.335 -0.2031 -0.4806 -0.0976
  775MPD2    H711498   1.786   3.645  16.424  0.2215  0.8358  0.5118
  776MPD2     C11499   0.396   4.132  11.894 -0.2628 -0.6004  0.1038
  776MPD2    C111500   0.523   4.089  11.870  0.2428 -0.2184 -0.8541
  776MPD2    C211501   0.620   4.182  11.845  1.0044  0.3876 -0.2642
  776MPD2    C311502   0.585   4.314  11.837 -0.3431  0.0146 -0.1489
  776MPD2    C411503   0.458   4.358  11.870  0.4376 -0.2498  0.4539
  776MPD2    C511504   0.362   4.267  11.893  0.1740 -0.2262 -0.9126
  776MPD2     H11505   0.724   4.161  11.820  1.0813 -0.9071  1.1205
  776MPD2    H111506   0.432   4.463  11.872  0.8650 -0.1513  0.7655
  776MPD2    H211507   0.321   4.060  11.923 -1.7096  0.9041  0.0870
  776MPD2    H311508   0.262   4.297  11.921  0.8234  1.1966 -0.1267
  776MPD2     N11509   0.673   4.412  11.785  0.2009 -0.3892  0.1256
  776MPD2    H511510   0.638   4.502  11.754  1.1548  0.5117  1.6879
  776MPD2    N111511   0.544   3.949  11.865 -0.6253  0.1580  0.0037
  776MPD2    H711512   0.471   3.887  11.898  0.0970 -0.5022  0.3429
  777MPD2     C11513   1.363   1.451   0.506 -0.4412  0.8629 -0.4095
  777MPD2    C111514   1.248   1.425   0.574 -0.4615  0.0139  0.0710
  777MPD2    C211515   1.157   1.340   0.520  0.4233 -0.2250 -0.1722
  777MPD2    C311516   1.175   1.274   0.400  0.1713 -0.1810 -0.2037
  777MPD2    C411517   1.299   1.289   0.341  0.1013  0.3508  0.4687
  777MPD2    C511518   1.387   1.379   0.390  0.2409 -0.5765  0.2223
  777MPD2     H11519   1.067   1.322   0.577  0.6947  1.5842  0.8243
  777MPD2    H111520   1.339   1.225   0.263 -0.8470  1.4059 -0.8871
  777MPD2    H211521   1.438   1.521   0.539  3.6052 -3.2985 -0.7297
  777MPD2    H311522   1.484   1.384   0.343 -0.2609  2.1833 -0.5005
  777MPD2     N11523   1.074   1.178   0.350  0.5433  0.7614  0.3648
  777MPD2    H511524   0.995   1.151   0.408 -0.3822 -0.2350 -1.3755
  777MPD2    N111525   1.239   1.469   0.707  0.1628  0.8609  0.2741
  777MPD2    H711526   1.323   1.494   0.758 -0.8670  1.6566  1.5703
  778MPD2     C11527   2.172   1.966  14.596 -0.2323 -0.5132  0.3757
  778MPD2    C111528   2.160   1.853  14.512  0.6859  0.1339  0.3538
  778MPD2    C211529   2.247   1.842  14.407 -0.8162 -0.3774  0.2501
  778MPD2    C311530   2.345   1.929  14.389 -0.0555 -0.0404  0.0089
  778MPD2    C411531   2.360   2.034  14.469  0.4488 -0.1767  0.7728
  778MPD2    C511532   2.269   2.056  14.569  0.1657  0.7013 -0.1230
  778MPD2     H11533   2.226   1.763  14.335  3.6729 -2.7214  1.5266
  778MPD2    H111534   2.442   2.103  14.456 -2.0618  2.5665 -0.5566
  778MPD2    H211535   2.113   1.986  14.686  0.1699  1.1124  0.2722
  778MPD2    H311536   2.285   2.133  14.643 -0.4061  1.0889 -0.4109
  778MPD2     N11537   2.441   1.898  14.283 -0.6013  0.4669 -0.3085
  778MPD2    H511538   2.420   1.816  14.228  1.9376 -0.6742  0.4178
  778MPD2    N111539   2.070   1.744  14.537 -0.5537 -0.0582  0.5059
  778MPD2    H711540   2.050   1.682  14.460 -2.7763 -0.7094  1.6164
  779MPD2     C11541   1.583   0.357  14.480  0.4014 -0.6332 -1.0704
  779MPD2    C111542   1.714   0.360  14.530 -0.5514  0.6207  0.0206
  779MPD2    C211543   1.799   0.462  14.478 -0.7715  0.4040  0.1605
  779MPD2    C311544   1.761   0.559  14.387 -0.3323  0.7174 -0.0525
  779MPD2    C411545   1.635   0.540  14.332  0.5430  0.4996 -0.5236
  779MPD2    C511546   1.547   0.446  14.384  0.3124  0.3960 -0.0769
  779MPD2     H11547   1.896   0.475  14.526 -0.7688 -0.7897  0.4670
  779MPD2    H111548   1.585   0.613  14.269 -2.0998 -0.2854  0.6659
  779MPD2    H211549   1.518   0.272  14.497 -0.6079  0.5715  0.9689
  779MPD2    H311550   1.449   0.442  14.338  0.8557  0.2350 -1.2292
  779MPD2     N11551   1.846   0.666  14.358  0.3300 -0.2501 -0.7315
  779MPD2    H511552   1.932   0.665  14.412  0.8371 -1.6097 -1.5788
  779MPD2    N111553   1.774   0.271  14.619 -0.4296 -0.4884  0.2367
  779MPD2    H711554   1.871   0.281  14.649 -0.4873  0.5535  0.0709
  780MPD2     C11555   1.695   0.460   0.825 -0.1996 -0.1358  0.0397
  780MPD2    C111556   1.587   0.407   0.755 -0.5447 -0.5998  0.4499
  780MPD2    C211557   1.572   0.447   0.624  0.6464 -0.6983  0.4246
  780MPD2    C311558   1.659   0.539   0.572  0.5896 -0.5591  0.2194
  780MPD2    C411559   1.762   0.588   0.645 -1.0617  0.0744  0.3615
  780MPD2    C511560   1.786   0.549   0.768  0.5439  0.1442  1.1902
  780MPD2     H11561   1.488   0.412   0.565  0.5465 -0.0950  0.2103
  780MPD2    H111562   1.835   0.655   0.603 -0.2359 -0.4785  0.9074
  780MPD2    H211563   1.710   0.430   0.928 -1.3880  3.0493  1.1354
  780MPD2    H311564   1.865   0.579   0.835  0.9077 -1.4741  1.4714
  780MPD2     N11565   1.642   0.561   0.433 -0.6327  0.4868  0.2374
  780MPD2    H511566   1.572   0.512   0.379  0.7637  0.5187 -1.6096
  780MPD2    N111567   1.495   0.310   0.818  0.6341 -0.4908  0.1634
  780MPD2    H711568   1.502   0.295   0.918 -0.2144 -0.1139  0.2870
  781MPD2     C11569   2.680   2.495  12.599 -0.2334 -0.1464 -0.6862
  781MPD2    C111570   2.806   2.440  12.557  0.6604  0.4568 -0.5414
  781MPD2    C211571   2.853   2.484  12.434 -0.2718  1.5736  0.3230
  781MPD2    C311572   2.785   2.571  12.349 -0.2961 -0.3821  0.1983
  781MPD2    C411573   2.661   2.612  12.390 -0.1797  0.9465  0.6281
  781MPD2    C511574   2.616   2.583  12.513 -0.5688 -0.4357 -0.6088
  781MPD2     H11575   2.943   2.434  12.400 -1.7543  0.2417 -1.6360
  781MPD2    H111576   2.594   2.662  12.321  0.6687 -1.0979 -1.6558
  781MPD2    H211577   2.629   2.482  12.694  0.3744 -1.2808 -0.5130
  781MPD2    H311578   2.525   2.629  12.550  0.7192  0.8676  0.9443
  781MPD2     N11579   2.825   2.611  12.219 -0.3471  0.3621  0.3424
  781MPD2    H511580   2.758   2.672  12.174 -0.0269  0.3505 -0.1462
  781MPD2    N111581   2.876   2.360  12.648  0.1525 -0.1920 -0.5448
  781MPD2    H711582   2.976   2.358  12.632  0.3348 -0.6535  0.6850
  782MPD2     C11583   0.632   4.041  10.261  0.1418 -0.4055  0.4174
  782MPD2    C111584   0.762   4.031  10.212  0.5439 -0.0480 -0.6403
  782MPD2    C211585   0.865   4.029  10.299 -0.6908 -0.5633 -0.2603
  782MPD2    C311586   0.836   4.005  10.430 -0.0654  0.4836 -0.4900
  782MPD2    C411587   0.711   4.006  10.484  0.1371 -0.5736  0.4918
  782MPD2    C511588   0.601   4.030  10.399 -0.2146 -0.0604  0.4614
  782MPD2     H11589   0.969   4.029  10.268 -0.0230  2.4636  2.0234
  782MPD2    H111590   0.685   4.002  10.589 -2.4306 -2.8437 -0.2578
  782MPD2    H211591   0.548   4.046  10.193  0.3540  2.0293  0.3370
  782MPD2    H311592   0.501   4.035  10.441 -0.2157 -2.7420  0.7596
  782MPD2     N11593   0.940   3.961  10.511 -0.1118 -0.1977 -0.1229
  782MPD2    H511594   1.027   3.962  10.458 -1.1743  0.0641 -1.8661
  782MPD2    N111595   0.779   4.020  10.074  0.2941  0.1312  0.0662
  782MPD2    H711596   0.700   4.008  10.012  0.9178 -1.9540 -0.3313
  783MPD2     C11597   0.726   3.180  10.222 -0.7030  0.5723  0.2696
  783MPD2    C111598   0.750   3.298  10.291  0.4845  0.0224  0.1107
  783MPD2    C211599   0.782   3.418  10.226 -1.1442  0.3799  0.1285
  783MPD2    C311600   0.777   3.421  10.090  0.2300  0.1421 -0.3150
  783MPD2    C411601   0.741   3.315  10.019  0.2277  0.6151  0.5905
  783MPD2    C511602   0.714   3.195  10.084  0.8458 -0.1266  0.0306
  783MPD2     H11603   0.799   3.507  10.286 -2.3385  1.2423 -0.8095
  783MPD2    H111604   0.729   3.311   9.911 -0.6711  0.0503  0.7032
  783MPD2    H211605   0.703   3.084  10.267 -2.3620  1.1940  0.7565
  783MPD2    H311606   0.698   3.107  10.023  0.5908  0.0736 -0.1959
  783MPD2     N11607   0.820   3.541  10.025  1.0281  0.1445 -0.3756
  783MPD2    H511608   0.852   3.617  10.084  2.4004  0.0929 -1.0640
  783MPD2    N111609   0.762   3.285  10.427  0.5925 -0.1638 -0.2876
  783MPD2    H711610   0.734   3.196  10.465 -3.0754  1.5518  1.0319
  784MPD2     C11611   3.636   3.358   0.471 -0.3766  0.0797 -0.1492
  784MPD2    C111612   3.612   3.444   0.576  1.0375  0.5960 -1.0531
  784MPD2    C211613   3.480   3.480   0.592 -0.0087 -0.4688  0.8091
  784MPD2    C311614   3.382   3.451   0.495 -1.0152 -0.5755  0.1285
  784MPD2    C411615   3.421   3.372   0.386 -0.2689  0.4832  0.1225
  784MPD2    C511616   3.545   3.330   0.376  0.0988  0.5638 -0.8667
  784MPD2     H11617   3.463   3.553   0.671  1.1270  1.5561 -0.7949
  784MPD2    H111618   3.346   3.357   0.310 -0.1120  1.0231 -0.1351
  784MPD2    H211619   3.733   3.317   0.447 -0.3280  1.2332 -1.9164
  784MPD2    H311620   3.585   3.262   0.301  0.9027 -1.2894  1.2484
  784MPD2     N11621   3.258   3.527   0.497 -0.1161  0.3596 -0.1742
  784MPD2    H511622   3.233   3.567   0.587  1.0711  0.4836  0.0981
  784MPD2    N111623   3.710   3.487   0.666 -0.5290  0.1340  0.6248
  784MPD2    H711624   3.674   3.538   0.746 -0.8657  0.4891  0.2411
  785MPD2     C11625   3.925   2.598  10.771  0.8979  0.4896 -0.1940
  785MPD2    C111626   3.819   2.506  10.760  0.2735 -0.2845  0.8720
  785MPD2    C211627   3.847   2.369  10.778 -0.0924 -0.5230  0.7408
  785MPD2    C311628   3.981   2.333  10.797 -0.5049 -0.1746  0.2025
  785MPD2    C411629   4.081   2.425  10.811 -0.1811 -0.7128 -0.2749
  785MPD2    C511630   4.059   2.564  10.795 -0.6437  0.0497  0.3582
  785MPD2     H11631   3.771   2.292  10.767  0.9603 -1.4422 -0.1119
  785MPD2    H111632   4.187   2.409  10.830  0.1843 -1.2230 -2.7771
  785MPD2    H211633   3.904   2.702  10.749 -0.6879  0.1895 -0.0937
  785MPD2    H311634   4.125   2.648  10.810  1.3256 -1.7622  1.8333
  785MPD2     N11635   4.004   2.193  10.803 -0.2832  0.4130 -0.2813
  785MPD2    H511636   3.931   2.133  10.766 -1.1784 -0.3893  2.7477
  785MPD2    N111637   3.692   2.551  10.726 -0.1873 -0.1256 -0.5919
  785MPD2    H711638   3.676   2.651  10.718 -1.0485 -0.1220  1.0479
  786MPD2     C11639   2.176   4.399  14.939 -0.6764 -0.1577 -0.2551
  786MPD2    C111640   2.280   4.316  14.920 -0.4429  0.6255 -0.1530
  786MPD2    C211641   2.382   4.308  15.016  0.3302  0.2630  0.0795
  786MPD2    C311642   2.384   4.391  15.128 -0.2972  0.5218  0.2556
  786MPD2    C411643   2.276   4.482  15.142 -0.0902 -0.7567 -0.4106
  786MPD2    C511644   2.176   4.480  15.051 -0.3270 -0.2956 -0.3022
  786MPD2     H11645   2.470   4.252  14.987  0.8601  0.3553  1.5364
  786MPD2    H111646   2.274   4.558  15.220  1.4015  0.8655 -1.9392
  786MPD2    H211647   2.093   4.405  14.870 -1.5880  1.4137  0.9722
  786MPD2    H311648   2.096   4.551  15.064 -0.0705 -0.0387 -0.1364
  786MPD2     N11649   2.495   4.404  15.216  0.2146 -0.1888  0.2028
  786MPD2    H511650   2.487   4.474  15.289 -1.1294  1.5965 -1.6449
  786MPD2    N111651   2.296   4.234  14.802  0.1843 -0.5724  0.1430
  786MPD2    H711652   2.372   4.166  14.805 -2.5395 -3.5847  0.9225
  787MPD2     C11653   2.568   3.679  14.934  0.1180 -0.0484  0.5297
  787MPD2    C111654   2.580   3.701  14.796  0.0379  0.2421  0.3750
  787MPD2    C211655   2.660   3.610  14.725 -0.6445 -0.2317  0.0397
  787MPD2    C311656   2.725   3.504  14.783  0.2360  0.8234  0.1286
  787MPD2    C411657   2.714   3.487  14.920 -0.3214  0.1928  0.1193
  787MPD2    C511658   2.638   3.576  14.994  0.1231 -0.2731  0.7783
  787MPD2     H11659   2.660   3.618  14.617 -2.6423  2.0422  0.2094
  787MPD2    H111660   2.771   3.412  14.974  0.2985  0.3760 -0.2914
  787MPD2    H211661   2.514   3.737  15.007 -0.5864 -0.5817  0.4293
  787MPD2    H311662   2.633   3.560  15.101 -0.1763  0.2225  0.8376
  787MPD2     N11663   2.807   3.419  14.703 -0.3907  0.4636 -0.0984
  787MPD2    H511664   2.823   3.456  14.610  0.1795  0.5902  0.0512
  787MPD2    N111665   2.494   3.800  14.740 -0.2617  0.4241  0.0303
  787MPD2    H711666   2.433   3.845  14.808  0.6277 -0.2156  1.2587
  788MPD2     C11667   3.843   2.762   1.294 -0.3465 -0.9311  0.5478
  788MPD2    C111668   3.899   2.643   1.246  0.4579  0.0454 -0.0413
  788MPD2    C211669   4.017   2.645   1.180 -0.0557 -0.3490  0.5125
  788MPD2    C311670   4.079   2.759   1.145 -0.3740 -0.2330  0.4640
  788MPD2    C411671   4.024   2.875   1.196  0.3761  0.0831 -0.0301
  788MPD2    C511672   3.912   2.874   1.266 -0.4095  0.2500 -0.5385
  788MPD2     H11673   4.059   2.556   1.133  0.5217  0.5264 -0.6475
  788MPD2    H111674   4.079   2.967   1.180 -0.4179  0.4324 -0.7638
  788MPD2    H211675   3.751   2.761   1.352  0.2885 -0.4571  1.5411
  788MPD2    H311676   3.881   2.969   1.309 -0.1877  0.3719 -0.6496
  788MPD2     N11677   4.189   2.777   1.056  0.0879 -0.6980  0.0969
  788MPD2    H511678   4.218   2.874   1.044 -0.2773 -0.6529 -0.4201
  788MPD2    N111679   3.842   2.516   1.259  0.5632  0.2589 -0.1576
  788MPD2    H711680   3.897   2.445   1.211  0.6243  1.7145 -2.2160
  789MPD2     C11681   0.228   2.402  16.639  0.1668  0.3081  0.8221
  789MPD2    C111682   0.127   2.353  16.555 -0.3567  0.0909  0.5333
  789MPD2    C211683   0.005   2.412  16.563  0.2114 -0.0607  0.7417
  789MPD2    C311684   4.714   2.513  16.650  0.4153  0.2017  0.2161
  789MPD2    C411685   0.068   2.545  16.745 -0.2195 -0.3690 -0.1327
  789MPD2    C511686   0.189   2.488  16.740  0.4610  0.2998 -0.5571
  789MPD2     H11687   4.667   2.375  16.496  0.6891 -1.4449  0.9595
  789MPD2    H111688   0.049   2.621  16.819  0.7118  2.2086 -2.5291
  789MPD2    H211689   0.333   2.375  16.636  0.1340  0.5154 -1.8942
  789MPD2    H311690   0.268   2.511  16.810 -0.1896  2.2638 -0.4562
  789MPD2     N11691   4.594   2.591  16.654 -0.2470 -0.3679  0.1716
  789MPD2    H511692   4.591   2.659  16.729  1.3198 -1.3559  1.1207
  789MPD2    N111693   0.142   2.246  16.465 -0.0473 -0.3396  0.3096
  789MPD2    H711694   0.068   2.216  16.403 -0.1912  0.4531  0.1046
  790MPD2     C11695   0.435   4.508  13.748 -0.5645  0.3529 -0.4876
  790MPD2    C111696   0.563   4.469  13.712  0.0302 -0.3788  0.1236
  790MPD2    C211697   0.584   4.410  13.584  0.2396  0.3073  0.3164
  790MPD2    C311698   0.476   4.388  13.498  0.4225 -0.4407  0.4597
  790MPD2    C411699   0.351   4.425  13.535 -0.4352  0.0077  0.2388
  790MPD2    C511700   0.332   4.477  13.660  0.6183  0.0633 -0.4319
  790MPD2     H11701   0.686   4.394  13.550 -0.2687 -0.0831 -1.0209
  790MPD2    H111702   0.263   4.397  13.478 -0.7650  1.0037  0.2477
  790MPD2    H211703   0.429   4.560  13.842  0.4745  0.9785 -0.7617
  790MPD2    H311704   0.233   4.493  13.702  0.8576 -0.0225  0.1641
  790MPD2     N11705   0.499   4.331  13.371 -0.0589 -0.5194 -0.2185
  790MPD2    H511706   0.594   4.298  13.357  0.5995  2.1896 -2.0147
  790MPD2    N111707   0.672   4.490  13.799 -0.4193  0.2395  0.1617
  790MPD2    H711708   0.650   4.540  13.885 -0.8365  0.6213 -0.1717
  791MPD2     C11709   4.728   3.997  13.084 -0.2396 -1.0898 -0.6961
  791MPD2    C111710   0.072   4.011  12.963 -0.4354  0.4273 -0.7231
  791MPD2    C211711   0.019   3.964  12.846 -0.0260  0.2015  0.4268
  791MPD2    C311712   4.638   3.898  12.842 -0.1491 -0.1524 -0.3398
  791MPD2    C411713   4.563   3.878  12.961 -0.3475 -0.2445  0.0411
  791MPD2    C511714   4.608   3.935  13.078 -0.0485  0.4891 -0.8116
  791MPD2     H11715   0.068   3.979  12.750  2.9007 -0.2807  1.8412
  791MPD2    H111716   4.478   3.811  12.969 -0.6390  0.2650  1.2542
  791MPD2    H211717   0.035   4.049  13.168 -1.8440  0.6188 -0.8894
  791MPD2    H311718   4.545   3.912  13.163  1.2274  0.8475  0.2315
  791MPD2     N11719   4.592   3.854  12.719 -0.3299  0.3517  0.2143
  791MPD2    H511720   4.630   3.895  12.634  0.0130  0.6530  0.5176
  791MPD2    N111721   0.195   4.075  12.976 -0.1207 -0.4822 -0.2832
  791MPD2    H711722   0.216   4.096  13.073 -1.7853 -0.4469  0.0781
  792MPD2     C11723   1.180   4.122  11.430 -0.4559  0.9222 -0.1709
  792MPD2    C111724   1.109   4.203  11.347  0.5430 -0.1778  0.1447
  792MPD2    C211725   0.977   4.201  11.368 -0.2773 -0.1314 -0.1272
  792MPD2    C311726   0.910   4.123  11.457  0.1005  0.3264 -0.1918
  792MPD2    C411727   0.986   4.045  11.541  0.5669 -0.2032 -0.2334
  792MPD2    C511728   1.122   4.054  11.527 -0.2070  0.6409 -0.6802
  792MPD2     H11729   0.921   4.271  11.307  2.6338  1.2740 -1.2332
  792MPD2    H111730   0.943   3.989  11.623  2.4608 -0.6950  0.4129
  792MPD2    H211731   1.288   4.127  11.422 -0.4341  2.7717  1.1551
  792MPD2    H311732   1.181   4.003  11.602 -0.8407 -0.1529 -0.7194
  792MPD2     N11733   0.770   4.112  11.463  0.0168 -0.3356 -0.0781
  792MPD2    H511734   0.732   4.052  11.536  0.0205  1.6894  1.5945
  792MPD2    N111735   1.187   4.276  11.249 -0.0833  0.3660  0.1766
  792MPD2    H711736   1.288   4.282  11.261  0.2817 -2.0926 -1.6091
  793MPD2     C11737   0.172   4.365  10.881  0.5285  0.5355 -0.5767
  793MPD2    C111738   0.309   4.347  10.906  0.0481  0.5127 -0.3197
  793MPD2    C211739   0.350   4.318  11.038 -0.2622  0.6236  0.5253
  793MPD2    C311740   0.256   4.324  11.142 -0.3590  0.6625  0.0804
  793MPD2    C411741   0.125   4.348  11.111  1.3364  0.0196 -0.3379
  793MPD2    C511742   0.082   4.370  10.982 -0.2409  0.0969  0.0412
  793MPD2     H11743   0.455   4.302  11.056 -0.4192  0.8652  1.6254
  793MPD2    H111744   0.053   4.338  11.191  1.6268  0.8688  0.0269
  793MPD2    H211745   0.138   4.380  10.779 -1.9597 -2.1479 -0.1274
  793MPD2    H311746   4.717   4.356  10.953 -0.5330 -1.1575  1.6858
  793MPD2     N11747   0.308   4.315  11.270 -0.4398  0.2599  0.5411
  793MPD2    H511748   0.408   4.318  11.281 -0.3143 -0.8434 -0.2377
  793MPD2    N111749   0.407   4.339  10.802 -0.1521  0.5655 -0.3875
  793MPD2    H711750   0.502   4.319  10.834  0.0718  0.9268 -0.8357
  794MPD2     C11751   0.373   2.834  16.762 -0.2413 -0.2316 -0.1492
  794MPD2    C111752   0.283   2.896  16.843  0.6081  0.1709  0.4486
  794MPD2    C211753   0.216   3.008  16.787 -0.2484 -0.8825  0.3362
  794MPD2    C311754   0.256   3.065  16.672  0.3531 -0.6814  0.6853
  794MPD2    C411755   0.362   3.010  16.603  0.4056  0.0638 -0.0162
  794MPD2    C511756   0.414   2.890  16.643  0.6358 -0.8952  0.2300
  794MPD2     H11757   0.121   3.028  16.836 -0.1993  1.3469 -0.4690
  794MPD2    H111758   0.409   3.069  16.525  0.7921 -0.1227  0.0738
  794MPD2    H211759   0.412   2.740  16.801  1.1969  0.6699  0.5808
  794MPD2    H311760   0.497   2.853  16.585  1.0040  0.9176 -0.3922
  794MPD2     N11761   0.182   3.162  16.601  0.2292  0.4701 -0.6142
  794MPD2    H511762   0.204   3.183  16.504 -1.7481  0.6681 -1.0327
  794MPD2    N111763   0.229   2.835  16.962 -0.6114 -0.3673 -0.1027
  794MPD2    H711764   0.266   2.745  16.989 -0.3426 -1.0498 -2.7084
  795MPD2     C11765   2.575   0.861  13.727 -0.0920  0.1818  0.0758
  795MPD2    C111766   2.511   0.744  13.711  0.0186  0.8928 -0.6163
  795MPD2    C211767   2.572   0.624  13.738  0.5284  0.3495  0.2558
  795MPD2    C311768   2.702   0.621  13.778  0.5749  0.5659 -0.5092
  795MPD2    C411769   2.761   0.739  13.811  0.1640  0.1627  0.0621
  795MPD2    C511770   2.702   0.852  13.774 -0.1410 -0.0234 -0.4589
  795MPD2     H11771   2.525   0.527  13.722 -1.8549  1.3590  1.1718
  795MPD2    H111772   2.856   0.736  13.863  0.4229 -1.7033 -0.5347
  795MPD2    H211773   2.532   0.960  13.716 -0.9707 -0.0405  1.5285
  795MPD2    H311774   2.755   0.944  13.794 -1.8085  1.2907 -2.1693
  795MPD2     N11775   2.776   0.498  13.776  0.4629 -0.6794  0.1410
  795MPD2    H511776   2.721   0.417  13.750 -0.1453 -0.2906  0.2148
  795MPD2    N111777   2.380   0.745  13.649 -0.1428 -0.2453  0.1946
  795MPD2    H711778   2.350   0.654  13.614  0.2945 -0.7187  1.0473
  796MPD2     C11779   2.577   1.928  15.737  0.2548 -0.2683 -0.0970
  796MPD2    C111780   2.618   2.005  15.839  0.2657 -0.4494 -0.2357
  796MPD2    C211781   2.600   2.141  15.828 -0.6495 -0.2139  0.4346
  796MPD2    C311782   2.529   2.198  15.728  0.4680 -0.2086  0.2569
  796MPD2    C411783   2.487   2.121  15.626 -0.6131 -0.1131  0.4197
  796MPD2    C511784   2.518   1.989  15.623  0.1720  0.1028  0.0978
  796MPD2     H11785   2.642   2.216  15.895 -0.7150 -1.2557  1.6389
  796MPD2    H111786   2.435   2.151  15.535  0.4057  2.2142  0.6100
  796MPD2    H211787   2.583   1.820  15.744 -1.5425 -0.2645  1.5339
  796MPD2    H311788   2.484   1.928  15.540 -3.8425  2.8596 -0.2842
  796MPD2     N11789   2.515   2.338  15.729 -0.0379  0.2404  0.2987
  796MPD2    H511790   2.559   2.388  15.806  2.7144  0.3547 -1.3427
  796MPD2    N111791   2.700   1.933  15.929  0.0572 -0.2006 -0.5257
  796MPD2    H711792   2.701   1.832  15.925 -1.6627 -0.1668 -1.6927
  797MPD2     C11793   3.338   1.658  17.519 -0.6519 -0.3697 -0.3045
  797MPD2    C111794   3.379   1.783  17.568 -0.1173 -0.1384  0.1420
  797MPD2    C211795   3.322   1.901  17.513 -0.1882  0.2947  0.4916
  797MPD2    C311796   3.221   1.894  17.419  0.4669 -0.7579  0.1752
  797MPD2    C411797   3.179   1.770  17.378  0.5152  0.4303 -0.3483
  797MPD2    C511798   3.229   1.656  17.438  0.0255 -0.1476  0.2784
  797MPD2     H11799   3.361   2.000  17.532  2.7396 -0.6343 -0.6831
  797MPD2    H111800   3.108   1.749  17.299 -0.6821 -0.8363  1.0620
  797MPD2    H211801   3.390   1.567  17.548  0.2414  0.7178  1.5047
  797MPD2    H311802   3.182   1.562  17.413 -1.9345  1.3204 -1.5523
  797MPD2     N11803   3.181   2.012  17.363 -0.1936  0.2502 -0.5810
  797MPD2    H511804   3.234   2.093  17.396  0.9843 -0.5315 -0.5485
  797MPD2    N111805   3.488   1.807  17.656  0.0689 -0.2320  0.2754
  797MPD2    H711806   3.503   1.903  17.684  0.5701 -0.4870  0.8802
  798MPD2     C11807   3.680   2.506  17.407  0.3042  0.2230  0.6920
  798MPD2    C111808   3.577   2.418  17.438  0.0225  0.0148  0.1107
  798MPD2    C211809   3.602   2.308  17.523 -0.0053 -0.1449  0.1153
  798MPD2    C311810   3.731   2.282  17.573  0.1442 -0.9390  0.6507
  798MPD2    C411811   3.835   2.362  17.532  0.6917  0.0539  0.3950
  798MPD2    C511812   3.801   2.475  17.460 -0.3634 -0.1238  0.2860
  798MPD2     H11813   3.530   2.232  17.547 -0.3124  0.1120  0.0092
  798MPD2    H111814   3.936   2.348  17.567  0.7520  0.7718  0.5041
  798MPD2    H211815   3.665   2.591  17.341 -1.6749 -0.8703 -0.2524
  798MPD2    H311816   3.884   2.543  17.445 -1.2753  1.3373  1.7934
  798MPD2     N11817   3.752   2.162  17.646 -0.8464 -1.1766 -0.1566
  798MPD2    H511818   3.669   2.110  17.674 -1.5653  1.2955  2.3491
  798MPD2    N111819   3.453   2.423  17.366  0.0948 -0.2221 -0.0448
  798MPD2    H711820   3.437   2.508  17.314 -1.5853 -1.2359 -1.1734
  799MPD2     C11821   2.433   2.839  14.841  0.9787 -0.2646  0.7643
  799MPD2    C111822   2.502   2.862  14.721 -0.0132  0.5347  0.5154
  799MPD2    C211823   2.475   2.976  14.651 -0.2351  0.3755 -0.3364
  799MPD2    C311824   2.377   3.069  14.695  0.3660 -0.9726 -0.2294
  799MPD2    C411825   2.307   3.039  14.810  0.0482  0.3725 -0.1950
  799MPD2    C511826   2.339   2.925  14.885 -0.2608  0.3844  0.4820
  799MPD2     H11827   2.540   2.999  14.568  0.3848 -0.9021 -0.1975
  799MPD2    H111828   2.224   3.099  14.845 -0.9371 -0.5260 -0.9877
  799MPD2    H211829   2.454   2.744  14.890 -1.7148 -0.5573  1.3439
  799MPD2    H311830   2.285   2.900  14.975  1.0282 -1.0988  0.8514
  799MPD2     N11831   2.348   3.187  14.627 -0.7790  0.0520 -0.4706
  799MPD2    H511832   2.264   3.236  14.654  1.6756  2.2086  3.2477
  799MPD2    N111833   2.618   2.793  14.676 -0.6159  0.6767 -0.0577
  799MPD2    H711834   2.671   2.819  14.594 -1.9157 -0.6951 -1.3419
  800MPD2     C11835   2.340   4.533  14.053 -0.0427  0.0980 -0.0708
  800MPD2    C111836   2.457   4.459  14.067 -0.4809  0.5981  0.4020
  800MPD2    C211837   2.477   4.369  13.967 -0.2799 -0.0640 -0.0206
  800MPD2    C311838   2.396   4.342  13.858  0.2254 -0.1436  0.0238
  800MPD2    C411839   2.279   4.412  13.848 -0.1120 -0.3668 -0.0236
  800MPD2    C511840   2.249   4.504  13.947  0.0706 -0.1026  0.2084
  800MPD2     H11841   2.569   4.312  13.969  0.7692  1.6667  0.8894
  800MPD2    H111842   2.207   4.400  13.769 -1.6891 -3.1393  1.8211
  800MPD2    H211843   2.316   4.612  14.124 -1.3597 -0.4544  0.0917
  800MPD2    H311844   2.179   4.584  13.928 -0.1570 -0.1720  0.7668
  800MPD2     N11845   2.449   4.257  13.758 -0.4321  0.5502  0.2122
  800MPD2    H511846   2.547   4.231  13.762 -0.6894 -0.5241 -0.5844
  800MPD2    N111847   2.562   4.499  14.157 -0.8073  0.2526 -0.4349
  800MPD2    H711848   2.569   4.595  14.190 -4.7440  0.5651 -0.5170
  801MPD2     C11849   2.961   0.350  14.175 -0.4191 -0.1153 -0.0682
  801MPD2    C111850   2.844   0.282  14.193 -0.2104  0.1088 -0.2994
  801MPD2    C211851   2.717   0.348  14.190 -0.2007  0.6794  0.8896
  801MPD2    C311852   2.720   0.489  14.179  0.8174 -0.6901 -0.6176
  801MPD2    C411853   2.840   0.552  14.156 -0.3384 -1.1875  0.8159
  801MPD2    C511854   2.959   0.486  14.150  0.0179  0.2536  0.2521
  801MPD2     H11855   2.621   0.299  14.198  1.0266 -1.9997 -0.5923
  801MPD2    H111856   2.852   0.658  14.136  0.2633 -1.5586 -0.8186
  801MPD2    H211857   3.047   0.292  14.144  0.4918  1.3366 -0.3052
  801MPD2    H311858   3.046   0.539  14.115  0.0855 -0.4997 -0.7125
  801MPD2     N11859   2.603   0.560  14.208 -0.1567 -0.4887 -0.3721
  801MPD2    H511860   2.619   0.657  14.233 -1.2825 -0.3064 -0.3411
  801MPD2    N111861   2.839   0.146  14.207 -0.0591 -0.0873  0.5230
  801MPD2    H711862   2.744   0.110  14.211 -0.4699  0.8240 -0.9608
  802MPD2     C11863   2.556   1.496   0.320  0.3324  0.0809 -0.2686
  802MPD2    C111864   2.461   1.392   0.326 -0.2484 -0.5587 -0.1017
  802MPD2    C211865   2.499   1.267   0.289  0.3231 -0.3621  0.0973
  802MPD2    C311866   2.629   1.242   0.242  0.2355  0.3068  0.1373
  802MPD2    C411867   2.722   1.347   0.233 -0.2323  0.3236 -0.6681
  802MPD2    C511868   2.688   1.469   0.278 -0.2942  0.1871  0.1272
  802MPD2     H11869   2.415   1.200   0.275 -0.6328  1.0945 -1.1489
  802MPD2    H111870   2.820   1.338   0.187  0.3057  1.2241  0.3111
  802MPD2    H211871   2.536   1.596   0.357 -0.5637  0.7891 -2.6219
  802MPD2    H311872   2.757   1.552   0.287  0.8490 -0.6582 -0.8872
  802MPD2     N11873   2.666   1.118   0.180  0.8397  0.1289 -0.2414
  802MPD2    H511874   2.757   1.119   0.135  0.8666 -0.4960 -0.2002
  802MPD2    N111875   2.324   1.410   0.373  0.5370 -0.5458 -0.1369
  802MPD2    H711876   2.258   1.338   0.345  1.2876 -1.2340 -0.1266
  803MPD2     C11877   3.736   3.815  11.630 -0.6305  0.4043 -0.0893
  803MPD2    C111878   3.685   3.935  11.671 -0.5010  0.5287 -0.0209
  803MPD2    C211879   3.599   3.937  11.779  0.5103  0.3617 -0.4113
  803MPD2    C311880   3.576   3.818  11.855 -0.2302  0.0054  0.3270
  803MPD2    C411881   3.640   3.704  11.817 -0.2226  0.1817 -0.6319
  803MPD2    C511882   3.717   3.701  11.699  0.0721  0.1559  0.1101
  803MPD2     H11883   3.562   4.030  11.821 -1.2708 -0.0567 -1.0434
  803MPD2    H111884   3.638   3.611  11.874  1.0998  0.6838  0.2260
  803MPD2    H211885   3.805   3.801  11.547  0.8467  0.6031  1.1158
  803MPD2    H311886   3.771   3.612  11.669  1.2831  1.5858 -1.9376
  803MPD2     N11887   3.505   3.808  11.973 -0.2231 -0.5009  0.0589
  803MPD2    H511888   3.503   3.714  12.012 -0.1598  0.2703  1.9155
  803MPD2    N111889   3.726   4.057  11.612  1.3276 -0.5154 -0.7312
  803MPD2    H711890   3.695   4.142  11.657 -0.3820 -1.4292 -0.1903
  804MPD2     C11891   3.190   0.525  16.539 -1.0616  0.1381 -0.2738
  804MPD2    C111892   3.185   0.508  16.676 -0.3662  0.5326  0.2108
  804MPD2    C211893   3.257   0.596  16.754  0.5216  0.3590 -0.1838
  804MPD2    C311894   3.338   0.693  16.696  0.2250 -0.1869 -1.0864
  804MPD2    C411895   3.332   0.713  16.561 -0.2973 -0.1707 -0.4262
  804MPD2    C511896   3.264   0.622  16.477 -0.2889 -0.9234  0.3022
  804MPD2     H11897   3.261   0.573  16.860 -0.6843 -0.8597 -0.3975
  804MPD2    H111898   3.380   0.794  16.508 -0.3028  1.0002  1.3672
  804MPD2    H211899   3.136   0.463  16.468 -0.5937  0.8544 -1.2634
  804MPD2    H311900   3.258   0.630  16.369 -2.4759 -0.4669  0.4568
  804MPD2     N11901   3.421   0.774  16.778 -0.6946  0.1010  0.6975
  804MPD2    H511902   3.392   0.774  16.875 -2.0575  2.9032  0.2994
  804MPD2    N111903   3.101   0.414  16.739 -0.3434  0.2660  0.2546
  804MPD2    H711904   3.095   0.417  16.841  0.2225  0.1802  0.2913
  805MPD2     C11905   1.974   3.708  15.915  0.2337  0.2766 -0.4473
  805MPD2    C111906   2.061   3.789  15.844  0.3093  0.1823 -0.8239
  805MPD2    C211907   2.179   3.834  15.901 -0.0467  0.2219  0.5373
  805MPD2    C311908   2.224   3.775  16.015 -0.1430 -0.4721  0.3762
  805MPD2    C411909   2.140   3.676  16.071  0.1066 -0.0408  0.0301
  805MPD2    C511910   2.015   3.649  16.029  0.5753  0.1766 -0.6797
  805MPD2     H11911   2.247   3.901  15.849 -2.3606  2.9583  1.0326
  805MPD2    H111912   2.163   3.620  16.161  1.2653 -0.4882 -0.5473
  805MPD2    H211913   1.874   3.681  15.880  0.4900  0.1971 -1.1233
  805MPD2    H311914   1.951   3.586  16.091 -0.0908  0.6439 -0.8885
  805MPD2     N11915   2.353   3.822  16.068 -0.1130 -0.0265  0.2066
  805MPD2    H511916   2.410   3.889  16.017 -0.1266  0.6852  1.1115
  805MPD2    N111917   2.033   3.843  15.717 -0.0234 -0.5323  0.2342
  805MPD2    H711918   2.102   3.909  15.683  0.4836 -0.9881  0.3789
  806MPD2     C11919   3.217   3.027   0.308  0.2574 -0.2677  1.2093
  806MPD2    C111920   3.132   3.126   0.348 -0.7608 -0.2140 -0.1329
  806MPD2    C211921   3.075   3.197   0.247 -0.3129 -0.0857 -1.0518
  806MPD2    C311922   3.083   3.166   0.117  0.0601 -0.7685  0.5306
  806MPD2    C411923   3.148   3.047   0.084  0.6560 -0.0274  0.3076
  806MPD2    C511924   3.231   2.996   0.174  0.1495 -0.5926 -0.0948
  806MPD2     H11925   3.019   3.285   0.278  0.5388  0.1645 -0.2298
  806MPD2    H111926   3.162   3.005  17.737  0.3599 -1.5365  0.8992
  806MPD2    H211927   3.290   2.996   0.383  1.5108  0.7258  0.4041
  806MPD2    H311928   3.301   2.916   0.152  1.4332  0.8048 -1.1802
  806MPD2     N11929   3.018   3.243   0.019 -0.0074 -0.2799  0.5316
  806MPD2    H511930   2.960   3.321   0.049  0.0122  0.3153 -0.9365
  806MPD2    N111931   3.129   3.166   0.484  0.3920  0.0451 -0.4498
  806MPD2    H711932   3.188   3.123   0.555 -0.0584 -0.4843 -0.3896
  807MPD2     C11933   2.623   2.938   1.078  1.1869  0.3486 -0.7268
  807MPD2    C111934   2.760   2.935   1.090  0.1058 -0.1521 -0.3584
  807MPD2    C211935   2.817   2.844   1.175  0.2729  0.0202  0.5235
  807MPD2    C311936   2.737   2.750   1.238  0.1177  0.5346 -0.5359
  807MPD2    C411937   2.598   2.767   1.235 -0.2662 -0.0891  0.3487
  807MPD2    C511938   2.541   2.864   1.159  0.0135 -0.3730  0.2448
  807MPD2     H11939   2.925   2.835   1.180  0.1554  1.0996  4.4534
  807MPD2    H111940   2.533   2.697   1.287  0.9880 -0.8721  0.8758
  807MPD2    H211941   2.565   2.999   1.009  0.8325  0.5872 -0.2224
  807MPD2    H311942   2.436   2.864   1.132  0.2572  0.7498 -0.7337
  807MPD2     N11943   2.806   2.654   1.314 -0.3819  0.0824 -0.6384
  807MPD2    H511944   2.907   2.652   1.304 -0.2668 -2.2023  1.1399
  807MPD2    N111945   2.841   3.032   1.026 -0.3618 -0.2023  0.0775
  807MPD2    H711946   2.942   3.024   1.037 -0.5896 -2.4572  0.6663
  808MPD2     C11947   3.118   4.730   9.513 -0.2078 -0.1630 -0.2453
  808MPD2    C111948   3.150   0.009   9.652  0.2072 -0.8983 -0.8083
  808MPD2    C211949   3.192   0.130   9.692  0.1804  0.2927  0.0140
  808MPD2    C311950   3.204   0.239   9.612  0.2305 -0.6148  0.0683
  808MPD2    C411951   3.182   0.217   9.477  0.3636  0.3297 -0.9259
  808MPD2    C511952   3.143   0.093   9.421 -0.1146 -0.3222 -0.4453
  808MPD2     H11953   3.216   0.133   9.797 -0.1919  1.0531  0.0766
  808MPD2    H111954   3.203   0.305   9.417  0.9932  0.0636 -1.0908
  808MPD2    H211955   3.068   4.640   9.480  0.2758 -0.1625 -0.9733
  808MPD2    H311956   3.135   0.085   9.314 -1.9803 -1.2180 -0.2409
  808MPD2     N11957   3.246   0.366   9.663 -0.3342 -0.4394 -0.3598
  808MPD2    H511958   3.271   0.441   9.599 -0.7193  0.4725  0.5610
  808MPD2    N111959   3.139   4.652   9.753  0.9619  0.5828 -0.5281
  808MPD2    H711960   3.186   4.675   9.840  0.1475  3.4622 -0.8367
  809MPD2     C11961   3.748   0.781   9.153  0.8774 -0.3763 -0.2466
  809MPD2    C111962   3.810   0.812   9.269  0.3353  0.3068  0.2396
  809MPD2    C211963   3.751   0.784   9.390  0.9140  0.0156  0.8267
  809MPD2    C311964   3.629   0.717   9.395 -0.6895 -1.1240 -0.1106
  809MPD2    C411965   3.571   0.678   9.270 -0.0674 -0.0083 -0.6244
  809MPD2    C511966   3.626   0.714   9.149 -0.0348 -0.8148  0.0056
  809MPD2     H11967   3.796   0.817   9.483 -1.8267  0.6458  1.9362
  809MPD2    H111968   3.493   0.603   9.265  0.0711 -0.4163  3.1629
  809MPD2    H211969   3.797   0.796   9.057 -0.8173  1.6958 -0.7752
  809MPD2    H311970   3.575   0.691   9.057 -0.6033  0.4560  0.0131
  809MPD2     N11971   3.553   0.695   9.515  0.3623 -0.0594  0.5391
  809MPD2    H511972   3.467   0.642   9.501  0.9229 -0.2237 -2.3118
  809MPD2    N111973   3.939   0.870   9.275  0.1932  0.1322  0.1595
  809MPD2    H711974   3.979   0.885   9.367 -1.9632 -1.4092  1.3487
  810MPD2     C11975   2.739   4.429  10.610  0.6299  0.2863 -0.2489
  810MPD2    C111976   2.681   4.516  10.522 -0.7504  0.6839  1.0244
  810MPD2    C211977   2.647   4.642  10.573  0.4737  0.6370 -0.3797
  810MPD2    C311978   2.664   4.679  10.706 -0.0694 -0.0115 -0.5346
  810MPD2    C411979   2.728   4.591  10.788 -0.5126  0.7402  0.9762
  810MPD2    C511980   2.769   4.471  10.739  0.0178  0.3399  0.3878
  810MPD2     H11981   2.590   4.709  10.510  0.7935 -0.5169 -1.9213
  810MPD2    H111982   2.753   4.613  10.891 -0.6405 -0.7494  1.3165
  810MPD2    H211983   2.770   4.329  10.583 -0.4632 -0.4567  1.2718
  810MPD2    H311984   2.828   4.416  10.811 -1.1278 -1.4465 -0.0257
  810MPD2     N11985   2.633   0.072  10.752  0.8240 -0.0345  0.5514
  810MPD2    H511986   2.637   0.091  10.852 -0.1347  1.3658  0.3349
  810MPD2    N111987   2.645   4.466  10.396  0.2247  0.0231 -0.6789
  810MPD2    H711988   2.652   4.366  10.381 -1.6698 -0.5131  1.9735
  811MPD2     C11989   2.324   4.649   9.511  0.5316  0.0179  0.0400
  811MPD2    C111990   2.382   4.700   9.630 -0.1399  0.0872 -0.0813
  811MPD2    C211991   2.384   0.099   9.656 -0.8857  0.0435  0.2033
  811MPD2    C311992   2.318   0.188   9.578 -1.1243  0.0198  0.4454
  811MPD2    C411993   2.255   0.135   9.464 -0.3874 -0.2933 -0.1793
  811MPD2    C511994   2.269   4.737   9.434  0.3958 -0.1442 -0.5736
  811MPD2     H11995   2.429   0.134   9.748 -0.3194 -1.1316  0.3791
  811MPD2    H111996   2.205   0.202   9.396 -0.4368  1.7202  1.8468
  811MPD2    H211997   2.319   4.543   9.487 -1.3459 -0.5418  2.8999
  811MPD2    H311998   2.210   4.694   9.353  0.3938 -3.2546  1.0870
  811MPD2     N11999   2.328   0.324   9.610  0.4116 -0.3852 -0.7458
  811MPD2    H512000   2.386   0.344   9.691 -0.3189 -0.5727 -0.1803
  811MPD2    N112001   2.436   4.607   9.723 -0.0205  0.1663  0.2691
  811MPD2    H712002   2.414   4.510   9.704 -0.8850  0.4055  0.0124
  812MPD2     C12003   1.631   4.125  12.093 -0.2367  0.1515  0.4984
  812MPD2    C112004   1.576   4.164  12.208 -0.2012  0.7904  0.3002
  812MPD2    C212005   1.548   4.067  12.303  0.0270  0.1169 -0.2844
  812MPD2    C312006   1.595   3.936  12.294  0.1544 -0.1338 -0.0575
  812MPD2    C412007   1.650   3.904  12.172 -0.0006  0.4383  0.4795
  812MPD2    C512008   1.671   3.996  12.076 -0.0634 -0.0624  0.6181
  812MPD2     H12009   1.495   4.090  12.394  0.4221 -0.6934  0.1435
  812MPD2    H112010   1.681   3.803  12.147 -1.8260 -0.0809  0.2523
  812MPD2    H212011   1.652   4.196  12.014 -0.2239  2.4087  2.5222
  812MPD2    H312012   1.721   3.972  11.983  0.9131  1.0083  0.8626
  812MPD2     N12013   1.572   3.842  12.396 -0.2045  0.5324 -0.3785
  812MPD2    H512014   1.520   3.868  12.480 -1.2855  2.6977 -1.7131
  812MPD2    N112015   1.534   4.297  12.224 -0.1884 -0.5060  0.9640
  812MPD2    H712016   1.551   4.363  12.149  0.6613 -0.8620  0.8447
  813MPD2     C12017   4.608   1.166  12.681 -0.7336 -0.5604  0.1048
  813MPD2    C112018   4.665   1.077  12.766  0.2732 -0.6705 -0.6189
  813MPD2    C212019   4.581   0.983  12.832 -0.3989 -0.2402  0.9279
  813MPD2    C312020   4.449   0.964  12.799  0.5274 -0.6400 -0.1492
  813MPD2    C412021   4.394   1.059  12.716 -0.2654 -0.1058  0.0403
  813MPD2    C512022   4.469   1.160  12.659  0.5744 -0.3338 -0.5621
  813MPD2     H12023   4.614   0.912  12.908 -0.3983  0.0525  1.2034
  813MPD2    H112024   4.291   1.057  12.683 -0.5555  0.3333  0.9289
  813MPD2    H212025   4.664   1.248  12.638 -2.1994 -0.0997 -0.9408
  813MPD2    H312026   4.427   1.218  12.578 -0.4558  0.9429  0.9006
  813MPD2     N12027   4.360   0.878  12.869  0.1619  0.3287 -0.1751
  813MPD2    H512028   4.260   0.898  12.866  0.1658  0.3834  0.0916
  813MPD2    N112029   0.066   1.098  12.802  0.2207  0.2261 -0.2464
  813MPD2    H712030   0.118   1.172  12.758 -0.3900  1.4104  1.0302
  814MPD2     C12031   1.312   2.309  12.721 -0.0012  0.3511  1.1216
  814MPD2    C112032   1.334   2.384  12.604  0.6814 -0.2484 -0.6416
  814MPD2    C212033   1.421   2.491  12.610 -0.4746 -0.4144 -0.4350
  814MPD2    C312034   1.491   2.527  12.725 -0.5340  0.6973 -0.1652
  814MPD2    C412035   1.460   2.461  12.841  0.4369 -1.0788  0.9732
  814MPD2    C512036   1.370   2.359  12.838 -0.7907  0.1014 -0.0773
  814MPD2     H12037   1.420   2.558  12.525  0.6292  1.0469  0.6784
  814MPD2    H112038   1.505   2.495  12.934  0.3265  1.0422  0.2417
  814MPD2    H212039   1.246   2.224  12.718 -1.3494  1.4347 -0.1867
  814MPD2    H312040   1.351   2.295  12.923  0.3953 -1.3463 -0.9078
  814MPD2     N12041   1.577   2.636  12.732 -0.6996 -0.4822 -0.3420
  814MPD2    H512042   1.607   2.678  12.819 -1.5222 -0.0110 -0.2903
  814MPD2    N112043   1.256   2.365  12.485  0.4377 -0.8653  0.1321
  814MPD2    H712044   1.256   2.439  12.416 -0.6119 -1.4015 -0.4417
  815MPD2     C12045   1.632   1.001  11.465  0.6012 -0.1505 -0.2654
  815MPD2    C112046   1.601   0.868  11.463 -0.3183  0.9082 -0.4290
  815MPD2    C212047   1.522   0.812  11.564 -0.1172  0.0023  0.0208
  815MPD2    C312048   1.473   0.883  11.665 -0.5197  0.3305  0.2191
  815MPD2    C412049   1.514   1.014  11.667  0.3454  0.0005  0.8046
  815MPD2    C512050   1.585   1.074  11.567  0.6661 -0.0812  0.0363
  815MPD2     H12051   1.502   0.705  11.568 -0.3899  0.1039  1.5103
  815MPD2    H112052   1.486   1.080  11.748  0.2824  1.9295 -0.7834
  815MPD2    H212053   1.695   1.052  11.392  0.4767 -2.0326 -1.7007
  815MPD2    H312054   1.590   1.182  11.568  2.3631 -0.1642 -0.1070
  815MPD2     N12055   1.390   0.822  11.757 -0.5381  0.2321 -0.2437
  815MPD2    H512056   1.392   0.721  11.747 -0.2292  0.5187 -3.2031
  815MPD2    N112057   1.646   0.786  11.354  0.6027  0.3255  0.5151
  815MPD2    H712058   1.671   0.840  11.272 -0.7414 -1.5688 -1.1336
  816MPD2     C12059   1.286   4.546  17.063 -0.0906 -0.3656 -0.0054
  816MPD2    C112060   1.408   4.595  17.089  0.5060  0.2319  0.2494
  816MPD2    C212061   1.524   4.520  17.066  0.1144 -0.8334 -0.9472
  816MPD2    C312062   1.511   4.391  17.023  0.3513 -0.3898  0.1460
  816MPD2    C412063   1.388   4.326  17.021 -0.0890  0.2877 -0.1320
  816MPD2    C512064   1.274   4.405  17.041 -0.1306 -0.2140  0.6924
  816MPD2     H12065   1.621   4.562  17.089 -0.2632 -1.1662  1.2930
  816MPD2    H112066   1.366   4.220  17.015  1.1714 -0.0440  1.2084
  816MPD2    H212067   1.192   4.598  17.077  0.0702 -0.5485  1.8555
  816MPD2    H312068   1.177   4.358  17.055  0.0043 -0.3970  1.0057
  816MPD2     N12069   1.633   4.321  16.994  0.5137 -0.1728  0.2020
  816MPD2    H512070   1.722   4.364  17.015 -0.4181  1.8979 -0.1585
  816MPD2    N112071   1.407   4.730  17.127  0.2619 -0.5880 -0.8188
  816MPD2    H712072   1.322   0.043  17.107  1.0671  0.7633 -0.7787
  817MPD2     C12073   1.236   2.271  10.563 -1.0319 -0.7167 -0.1087
  817MPD2    C112074   1.122   2.198  10.525  0.5900 -0.3156 -0.3559
  817MPD2    C212075   1.005   2.264  10.503 -0.0341 -1.4996  0.0820
  817MPD2    C312076   0.998   2.393  10.537  0.3054  0.0665  0.2376
  817MPD2    C412077   1.111   2.472  10.580  0.1653  0.5271  0.0321
  817MPD2    C512078   1.230   2.404  10.580 -0.4794  0.3057 -0.4548
  817MPD2     H12079   0.930   2.202  10.456 -1.3800  0.7795 -0.7628
  817MPD2    H112080   1.100   2.578  10.602 -0.2700  0.4878 -0.0050
  817MPD2    H212081   1.333   2.230  10.589 -0.5716  1.7142  2.0617
  817MPD2    H312082   1.317   2.455  10.619 -0.0931 -0.6400 -0.0994
  817MPD2     N12083   0.875   2.457  10.501 -0.4371 -0.3900  0.4995
  817MPD2    H512084   0.800   2.390  10.490 -1.2519  0.3423  1.6358
  817MPD2    N112085   1.125   2.058  10.499  0.2778  0.3232  0.5607
  817MPD2    H712086   1.036   2.018  10.472  0.5572 -0.9150  1.4748
  818MPD2     C12087   0.111   1.950   9.851  0.2498 -0.4595  0.0475
  818MPD2    C112088   0.016   1.872   9.907  0.5848  0.3485  0.3722
  818MPD2    C212089   4.717   1.755   9.843  0.8091  0.8039  0.0327
  818MPD2    C312090   0.004   1.736   9.706 -0.6084 -0.6892 -0.2401
  818MPD2    C412091   0.094   1.825   9.649  0.6070  0.1144  0.0830
  818MPD2    C512092   0.145   1.931   9.722  0.1341 -0.4497 -0.1126
  818MPD2     H12093   4.659   1.679   9.895  1.2064 -0.4455 -1.3673
  818MPD2    H112094   0.128   1.808   9.548 -0.0331 -1.6423  0.1562
  818MPD2    H212095   0.168   2.031   9.896 -1.3681  0.9079 -0.3756
  818MPD2    H312096   0.222   1.999   9.686 -1.3129  0.6417 -1.1584
  818MPD2     N12097   4.705   1.617   9.627  0.2650 -0.5091 -0.0803
  818MPD2    H512098   0.015   1.599   9.540  0.2049  0.2120 -0.2618
  818MPD2    N112099   4.712   1.898  10.041 -0.2051  0.1729  0.2598
  818MPD2    H712100   4.654   1.826  10.084  0.3538 -0.3007  0.2115
  819MPD2     C12101   2.854   3.334  15.825  0.9153 -0.2596  0.4465
  819MPD2    C112102   2.888   3.261  15.712  0.6952 -0.4677 -0.1680
  819MPD2    C212103   3.024   3.229  15.700 -0.0595 -0.2650  0.3648
  819MPD2    C312104   3.112   3.238  15.801 -0.2674 -0.0728  0.7476
  819MPD2    C412105   3.076   3.308  15.919  0.2678 -0.0287 -0.7989
  819MPD2    C512106   2.948   3.362  15.920 -0.9306  0.3502  0.0394
  819MPD2     H12107   3.061   3.175  15.613  1.6841 -1.0900  1.6177
  819MPD2    H112108   3.144   3.327  16.001  1.7392 -1.8023 -1.6140
  819MPD2    H212109   2.750   3.364  15.830  0.7336 -0.9725  0.8441
  819MPD2    H312110   2.909   3.407  16.011 -0.2463  0.7090  0.1586
  819MPD2     N12111   3.243   3.177  15.795  0.1114 -0.1670 -0.7517
  819MPD2    H512112   3.255   3.132  15.705  1.9713 -1.9596  0.4093
  819MPD2    N112113   2.789   3.238  15.608  0.1158  0.3671 -0.2760
  819MPD2    H712114   2.700   3.284  15.621 -0.8798 -1.2118 -1.5206
  820MPD2     C12115   2.212   3.640  14.942 -0.8117 -0.3482  0.4747
  820MPD2    C112116   2.216   3.643  15.076  1.0418  0.1960  0.3653
  820MPD2    C212117   2.270   3.537  15.133  0.1423  0.4308  0.2085
  820MPD2    C312118   2.325   3.431  15.074  0.3419  0.2089 -0.7191
  820MPD2    C412119   2.327   3.433  14.939  0.8920 -0.7735 -0.6847
  820MPD2    C512120   2.274   3.538  14.874  0.6992 -0.2607 -0.0312
  820MPD2     H12121   2.275   3.550  15.241  2.0242 -0.7460  0.2683
  820MPD2    H112122   2.360   3.342  14.890  0.9499 -0.5945 -0.9788
  820MPD2    H212123   2.171   3.715  14.876 -0.8598  0.5759  1.5465
  820MPD2    H312124   2.263   3.528  14.767  2.2719 -2.0780 -0.0193
  820MPD2     N12125   2.399   3.334  15.141  0.1888 -0.5284  0.3716
  820MPD2    H512126   2.428   3.261  15.077  0.7013 -1.1024  1.2609
  820MPD2    N112127   2.149   3.750  15.145  0.0741  0.5388 -0.3404
  820MPD2    H712128   2.128   3.828  15.084 -1.6881 -0.3940 -0.9162
  821MPD2     C12129   2.740   4.594  13.093 -0.2977  0.8939 -0.0660
  821MPD2    C112130   2.809   4.474  13.114  0.5864 -0.1789 -0.2117
  821MPD2    C212131   2.914   4.434  13.032 -0.4471 -0.2752 -0.2313
  821MPD2    C312132   2.959   4.511  12.926  0.1802 -0.1142 -0.4138
  821MPD2    C412133   2.879   4.621  12.901 -0.4898 -0.7950 -0.1549
  821MPD2    C512134   2.779   4.667  12.984 -0.0180 -0.5031 -0.4341
  821MPD2     H12135   2.966   4.344  13.062 -0.3616  0.1420  0.8772
  821MPD2    H112136   2.896   4.680  12.812 -3.4802 -1.1543 -0.9676
  821MPD2    H212137   2.663   4.640  13.153 -0.0893  1.3047 -0.1121
  821MPD2    H312138   2.735   0.026  12.964  0.1836  0.0046  1.5424
  821MPD2     N12139   3.079   4.485  12.852 -0.4886 -0.4612 -0.2282
  821MPD2    H512140   3.099   4.538  12.768 -1.4837  0.0580 -0.1317
  821MPD2    N112141   2.776   4.386  13.220 -0.2335  0.6655 -0.3595
  821MPD2    H712142   2.819   4.295  13.217 -0.3449  0.6547 -1.7661
  822MPD2     C12143   3.779   4.459  15.614  1.3325  0.5475  0.5505
  822MPD2    C112144   3.736   4.423  15.740 -0.5476  0.0830  0.1130
  822MPD2    C212145   3.635   4.503  15.786 -0.1335 -0.3218  0.6817
  822MPD2    C312146   3.601   4.623  15.726 -0.1972 -0.3450 -0.2913
  822MPD2    C412147   3.655   4.654  15.601  0.4314 -0.3962 -0.0427
  822MPD2    C512148   3.737   4.565  15.541  0.4659  0.3326  0.8843
  822MPD2     H12149   3.587   4.476  15.879 -0.5805 -1.4395  0.1197
  822MPD2    H112150   3.641   0.007  15.544 -0.8126 -1.8660 -2.1239
  822MPD2    H212151   3.848   4.390  15.566  0.2763 -1.3061  1.7095
  822MPD2    H312152   3.773   4.581  15.440  0.2676 -0.1402  0.7349
  822MPD2     N12153   3.507   4.699  15.800 -0.1099 -0.4476 -0.2834
  822MPD2    H512154   3.480   4.662  15.890  1.7310 -0.0952  0.3964
  822MPD2    N112155   3.774   4.311  15.812 -0.1406  0.0717  0.3268
  822MPD2    H712156   3.726   4.290  15.899  0.2799 -0.4834  0.4246
  823MPD2     C12157   3.263   0.126  16.557 -0.0538 -0.0350 -0.4750
  823MPD2    C112158   3.251   0.043  16.450 -0.6431 -0.8929  0.4153
  823MPD2    C212159   3.223   4.649  16.469 -1.0251  0.3393 -0.1923
  823MPD2    C312160   3.221   4.596  16.595 -0.0197 -0.0623 -0.0142
  823MPD2    C412161   3.222   4.681  16.698 -0.2595 -0.3662 -0.6278
  823MPD2    C512162   3.253   0.074  16.681 -1.1220 -0.2625 -0.3081
  823MPD2     H12163   3.202   4.586  16.383  2.4518 -1.9082  0.6108
  823MPD2    H112164   3.221   4.645  16.801 -0.1475  1.5511  0.0342
  823MPD2    H212165   3.279   0.233  16.546  1.9509 -0.3381 -0.4995
  823MPD2    H312166   3.253   0.148  16.760 -1.3411  0.6354 -1.1474
  823MPD2     N12167   3.212   4.455  16.615 -0.0295  0.0640 -0.1371
  823MPD2    H512168   3.185   4.428  16.709 -0.8493 -2.3354 -1.0479
  823MPD2    N112169   3.270   0.103  16.323  0.0134  1.0715  0.4685
  823MPD2    H712170   3.293   0.201  16.333  2.1444  0.4922  1.1311
  824MPD2     C12171   3.758   3.505  15.799 -0.6478 -0.8038  0.8021
  824MPD2    C112172   3.850   3.607  15.777  0.4504  0.3347  0.3300
  824MPD2    C212173   3.974   3.572  15.722  1.1461 -0.2734  0.3918
  824MPD2    C312174   4.003   3.449  15.682  0.6461  1.1520  0.3975
  824MPD2    C412175   3.913   3.351  15.707 -0.5104  0.0885  0.0976
  824MPD2    C512176   3.793   3.377  15.761 -0.2117  0.1701 -0.4145
  824MPD2     H12177   4.036   3.656  15.692  0.7532 -0.2977 -0.4827
  824MPD2    H112178   3.923   3.262  15.645  2.3632  1.4672 -1.4299
  824MPD2    H212179   3.657   3.519  15.836 -0.5244 -0.8774  1.1578
  824MPD2    H312180   3.712   3.307  15.779 -0.3973  0.0213 -1.8422
  824MPD2     N12181   4.129   3.425  15.620 -0.0163  0.6291  0.7782
  824MPD2    H512182   4.198   3.499  15.614 -0.9745  1.3549 -1.5140
  824MPD2    N112183   3.825   3.739  15.808  0.4720 -0.1652  0.5561
  824MPD2    H712184   3.899   3.808  15.798 -1.3437  1.6098 -0.5379
  825MPD2     C12185   0.189   3.625  15.555  0.0051  0.2677  0.5127
  825MPD2    C112186   0.076   3.645  15.483 -0.3995  0.0478  0.9618
  825MPD2    C212187   0.042   3.764  15.420  0.4174 -0.4545  0.7969
  825MPD2    C312188   0.147   3.859  15.407  0.4791  0.0644 -0.0539
  825MPD2    C412189   0.266   3.833  15.468  0.6879  0.3368 -0.7495
  825MPD2    C512190   0.290   3.716  15.539 -0.1592  0.9482 -0.0986
  825MPD2     H12191   4.685   3.778  15.370  0.7442  1.9003  0.8358
  825MPD2    H112192   0.345   3.908  15.470  0.9939 -0.0582  2.5481
  825MPD2    H212193   0.200   3.540  15.622 -0.3428  0.8723  1.3366
  825MPD2    H312194   0.376   3.722  15.605  0.7328  2.3032 -1.3996
  825MPD2     N12195   0.133   3.985  15.340 -0.1367  0.2034  0.2950
  825MPD2    H512196   0.218   4.040  15.346 -0.0860  0.3953 -2.4495
  825MPD2    N112197   4.718   3.542  15.506  0.2633 -0.2423  0.0345
  825MPD2    H712198   0.009   3.454  15.548 -0.7474 -0.9852 -0.8145
  826MPD2     C12199   0.065   3.783  13.735  0.5078 -0.3194  0.4442
  826MPD2    C112200   4.734   3.768  13.615  0.1301 -0.2914 -0.6586
  826MPD2    C212201   4.593   3.797  13.612  0.3274  0.0194 -0.1971
  826MPD2    C312202   4.530   3.857  13.724  0.1829 -0.0441 -0.0872
  826MPD2    C412203   4.608   3.879  13.831 -0.9331 -0.0329 -0.1289
  826MPD2    C512204   4.738   3.838  13.836  0.4277 -0.8449  0.3041
  826MPD2     H12205   4.545   3.788  13.515 -0.0088  0.8279 -0.1088
  826MPD2    H112206   4.564   3.922  13.921 -1.3740 -1.3114  0.2607
  826MPD2    H212207   0.170   3.755  13.745  0.2509 -2.4010 -2.4932
  826MPD2    H312208   0.059   3.875  13.919 -1.3534  1.9979  0.3119
  826MPD2     N12209   4.411   3.925  13.721 -0.2214  0.6392  0.0637
  826MPD2    H512210   4.390   3.992  13.795  0.9043 -0.3490  1.2789
  826MPD2    N112211   0.066   3.709  13.511 -0.6563 -0.3364 -0.2086
  826MPD2    H712212   0.155   3.666  13.530  0.7218  1.8375 -1.6920
  827MPD2     C12213   0.639   0.515   9.810 -0.1891 -1.3164  0.9519
  827MPD2    C112214   0.565   0.450   9.907 -0.2511  0.2101 -0.0403
  827MPD2    C212215   0.428   0.432   9.885 -0.2774 -0.0757  0.0987
  827MPD2    C312216   0.368   0.489   9.771 -0.5344  0.3408  0.4392
  827MPD2    C412217   0.441   0.551   9.675 -0.4038  0.0191  0.2085
  827MPD2    C512218   0.580   0.560   9.695 -0.0000 -0.4641 -0.9053
  827MPD2     H12219   0.361   0.391   9.960 -0.0842  1.9918  1.3887
  827MPD2    H112220   0.400   0.580   9.579 -2.9744 -1.7964  0.7668
  827MPD2    H212221   0.743   0.542   9.819 -0.4370 -0.4314  1.1318
  827MPD2    H312222   0.644   0.600   9.617  1.4482  1.7073  1.3929
  827MPD2     N12223   0.228   0.468   9.755  0.5122 -0.0067  0.0403
  827MPD2    H512224   0.183   0.409   9.824  1.6995 -0.6854  0.2278
  827MPD2    N112225   0.636   0.419  10.029  0.3485  0.1434  0.3596
  827MPD2    H712226   0.736   0.437  10.024  0.2373  1.0998  1.3881
  828MPD2     C12227   3.741   4.445  11.905 -0.1265 -0.1135 -0.1801
  828MPD2    C112228   3.651   4.553  11.899  0.5980  0.4650 -0.1958
  828MPD2    C212229   3.704   4.675  11.869  0.2213 -0.0968  0.0622
  828MPD2    C312230   3.838   4.691  11.830  0.1414 -0.4330  0.2321
  828MPD2    C412231   3.924   4.577  11.843  0.0704  0.7119  0.6072
  828MPD2    C512232   3.874   4.454  11.878  0.1664  0.6330  0.4043
  828MPD2     H12233   3.638   0.022  11.862 -0.4629 -0.4360  2.4569
  828MPD2    H112234   4.031   4.586  11.825  0.1897 -2.2614 -0.1334
  828MPD2    H212235   3.713   4.349  11.946  0.6204  0.3911  1.4947
  828MPD2    H312236   3.929   4.365  11.907 -0.2063 -0.2043 -1.4478
  828MPD2     N12237   3.897   0.070  11.777 -0.3121 -0.2131 -0.3782
  828MPD2    H512238   3.997   0.065  11.764 -0.0786 -1.6214  1.9008
  828MPD2    N112239   3.519   4.558  11.951 -0.3020  0.2480 -0.6044
  828MPD2    H712240   3.472   4.647  11.960  0.1385  0.4296 -0.1314
  829MPD2     C12241   2.962   0.478  12.008  0.1381  0.0370  0.5322
  829MPD2    C112242   2.875   0.368  12.030  0.2806 -0.5527  0.3054
  829MPD2    C212243   2.936   0.242  12.043  0.8927 -0.3833 -1.2290
  829MPD2    C312244   3.074   0.220  12.031 -0.0279 -0.7480 -0.4370
  829MPD2    C412245   3.154   0.334  12.013  0.1068  0.0036  0.0800
  829MPD2    C512246   3.098   0.459  11.999 -0.0163  0.2744 -0.0773
  829MPD2     H12247   2.879   0.152  12.066 -0.8492  0.3024 -2.8714
  829MPD2    H112248   3.262   0.323  12.012  0.1243  0.1931 -2.1264
  829MPD2    H212249   2.917   0.576  11.998 -2.2078 -1.1960 -0.7315
  829MPD2    H312250   3.166   0.539  11.974  1.2823 -0.7893  0.0450
  829MPD2     N12251   3.135   0.094  12.048  0.2022 -0.0231 -0.4358
  829MPD2    H512252   3.236   0.102  12.056  0.5158 -1.6295 -2.5657
  829MPD2    N112253   2.734   0.389  12.041  0.5159  0.0002  0.0154
  829MPD2    H712254   2.705   0.483  12.018  1.2937  0.4206  0.7696
  830MPD2     C12255   3.414   3.016  15.237  0.0506  0.3171 -0.2595
  830MPD2    C112256   3.531   3.002  15.315 -0.4088  0.2198 -0.0159
  830MPD2    C212257   3.644   2.978  15.244  0.4236  0.2820 -0.3671
  830MPD2    C312258   3.634   2.946  15.108  0.5377 -0.1258  0.6901
  830MPD2    C412259   3.513   2.938  15.039  0.5019 -0.4430  0.0263
  830MPD2    C512260   3.399   2.971  15.109 -0.2022 -0.5807  0.1467
  830MPD2     H12261   3.742   2.972  15.291  0.7592 -1.7519 -1.2746
  830MPD2    H112262   3.506   2.910  14.935 -0.1185  1.5748 -0.4734
  830MPD2    H212263   3.320   3.041  15.286  0.1585  1.4998 -0.6590
  830MPD2    H312264   3.302   2.975  15.061 -0.8503  1.8641  1.6750
  830MPD2     N12265   3.743   2.909  15.024  0.1211 -0.0524 -0.1276
  830MPD2    H512266   3.721   2.892  14.926 -0.7066 -0.6780  0.1599
  830MPD2    N112267   3.525   3.018  15.457  0.1698  0.5745  0.3770
  830MPD2    H712268   3.433   3.036  15.495  1.1402  0.6805  2.6433
  831MPD2     C12269   3.703   4.718  16.180  0.9309 -0.0663  0.0355
  831MPD2    C112270   3.738   4.612  16.100 -0.4422 -0.2966  0.1243
  831MPD2    C212271   3.687   4.487  16.117 -0.2270 -0.0526 -0.2513
  831MPD2    C312272   3.577   4.472  16.201  0.2843  0.2248 -0.1916
  831MPD2    C412273   3.543   4.577  16.289  0.2714 -0.2805  0.0479
  831MPD2    C512274   3.606   4.704  16.276 -0.6877 -0.0831  0.2274
  831MPD2     H12275   3.719   4.413  16.044 -2.1130 -0.6750 -0.4389
  831MPD2    H112276   3.450   4.569  16.344  0.6236 -3.0728  0.2250
  831MPD2    H212277   3.756   0.074  16.171  1.1281 -0.2305 -0.5784
  831MPD2    H312278   3.573   0.043  16.344 -1.9385 -0.1801 -0.2829
  831MPD2     N12279   3.488   4.363  16.188  0.3697 -0.0225  0.2618
  831MPD2    H512280   3.414   4.350  16.256 -0.3713  1.4482 -0.2591
  831MPD2    N112281   3.842   4.621  16.007 -0.3697  0.9197 -0.2979
  831MPD2    H712282   3.871   4.531  15.970  2.5430  1.5452  0.4740
  832MPD2     C12283   2.346   1.000  17.263  0.1832  0.1600 -0.2990
  832MPD2    C112284   2.356   1.076  17.145 -0.2453 -0.8239 -0.8565
  832MPD2    C212285   2.269   1.049  17.043 -0.1170 -0.1824  0.3778
  832MPD2    C312286   2.167   0.956  17.057  0.7469 -0.0520 -0.8873
  832MPD2    C412287   2.165   0.875  17.173 -0.4741  0.4543 -0.1459
  832MPD2    C512288   2.250   0.900  17.273 -0.4850 -0.1588  0.1806
  832MPD2     H12289   2.270   1.116  16.957 -1.2323  1.8934  1.9730
  832MPD2    H112290   2.091   0.797  17.189 -1.4470  1.0276 -1.8041
  832MPD2    H212291   2.411   1.026  17.346 -0.2411  1.8768 -0.4993
  832MPD2    H312292   2.235   0.844  17.364  0.5647  0.8847  1.0065
  832MPD2     N12293   2.068   0.933  16.963 -0.5634  0.3285  0.1594
  832MPD2    H512294   2.022   0.842  16.962 -1.0683  0.6147 -3.3193
  832MPD2    N112295   2.444   1.181  17.136  0.0618  0.5011  0.3276
  832MPD2    H712296   2.481   1.211  17.226 -1.9079 -0.0467  1.3146
  833MPD2     C12297   4.480   2.717  12.962  0.1144  0.2075 -0.1915
  833MPD2    C112298   4.486   2.836  12.891 -0.0614 -0.5573  0.4943
  833MPD2    C212299   4.541   2.835  12.760 -0.2357  0.2025  0.2410
  833MPD2    C312300   4.591   2.715  12.702 -0.1572 -0.2890  0.4407
  833MPD2    C412301   4.577   2.600  12.777  0.4119  0.5741  0.3978
  833MPD2    C512302   4.529   2.605  12.910  0.0413 -0.8429  0.0925
  833MPD2     H12303   4.532   2.923  12.696  1.1626  0.2167  0.0599
  833MPD2    H112304   4.617   2.503  12.751 -0.0829  0.7753 -1.0886
  833MPD2    H212305   4.440   2.722  13.063 -1.2639  0.7733 -0.7772
  833MPD2    H312306   4.535   2.521  12.978  0.5570  0.9411  2.2163
  833MPD2     N12307   4.644   2.705  12.569  0.6265  0.2901  0.7588
  833MPD2    H512308   4.668   2.611  12.538  0.0156  0.0959  0.8586
  833MPD2    N112309   4.434   2.947  12.955 -0.1489  0.0465 -0.0340
  833MPD2    H712310   4.379   2.936  13.040 -1.2472  0.3481 -0.7170
  834MPD2     C12311   4.262   2.306  11.768 -0.4825 -0.1579  0.0117
  834MPD2    C112312   4.300   2.426  11.717  0.8118  0.5529  0.4213
  834MPD2    C212313   4.364   2.518  11.789  0.2527  0.2512  0.1236
  834MPD2    C312314   4.403   2.489  11.917  0.4148  0.6610 -0.7272
  834MPD2    C412315   4.372   2.365  11.968 -0.3017 -0.3124 -0.0172
  834MPD2    C512316   4.312   2.272  11.892  0.2384 -0.0355  0.0742
  834MPD2     H12317   4.390   2.612  11.742 -1.5875  0.6190 -0.1500
  834MPD2    H112318   4.406   2.335  12.067  0.1677  0.7549  0.1369
  834MPD2    H212319   4.191   2.240  11.719 -1.7486 -0.1710  1.8934
  834MPD2    H312320   4.286   2.173  11.927  1.1344  0.3115  1.7302
  834MPD2     N12321   4.481   2.582  11.990  0.6031  0.0694  0.5981
  834MPD2    H512322   4.502   2.669  11.941  0.3068 -0.3483 -0.2702
  834MPD2    N112323   4.280   2.446  11.583  0.6498 -0.8358 -0.4390
  834MPD2    H712324   4.211   2.380  11.548 -2.9628  1.0623  3.0321
  835MPD2     C12325   4.585   0.623  11.058 -0.0949 -0.1631  0.0623
  835MPD2    C112326   4.505   0.703  11.138  0.8279  0.4381  0.7118
  835MPD2    C212327   4.524   0.705  11.277 -0.2373 -0.2358  0.0668
  835MPD2    C312328   4.608   0.622  11.341  0.3480  0.0017 -0.6837
  835MPD2    C412329   4.695   0.552  11.265  0.2643 -0.6815 -0.1702
  835MPD2    C512330   4.681   0.547  11.126  0.2478  0.1225 -0.5828
  835MPD2     H12331   4.459   0.774  11.329 -0.9090  1.0768 -2.5264
  835MPD2    H112332   0.023   0.477  11.308  2.3700  0.1360 -1.9540
  835MPD2    H212333   4.572   0.600  10.953  0.5831 -0.5626  0.0656
  835MPD2    H312334   0.003   0.485  11.060 -0.6439 -1.9033  0.5196
  835MPD2     N12335   4.606   0.603  11.481 -0.0574 -0.3241  0.1723
  835MPD2    H512336   4.663   0.528  11.519 -2.1516 -2.0036  0.0429
  835MPD2    N112337   4.399   0.769  11.069  0.4596  0.1347 -0.2978
  835MPD2    H712338   4.399   0.757  10.968 -0.5131  0.9449 -0.3987
  836MPD2     C12339   4.165   1.018  12.037 -0.1929 -0.2642 -0.0838
  836MPD2    C112340   4.176   0.881  12.047 -0.6149  0.0222  0.3157
  836MPD2    C212341   4.057   0.805  12.077 -0.2152 -0.7085  0.4430
  836MPD2    C312342   3.936   0.870  12.112  0.6517  0.8316  0.4411
  836MPD2    C412343   3.933   1.009  12.109  0.9047 -0.0224 -1.0793
  836MPD2    C512344   4.047   1.076  12.080 -0.0330  0.2223  0.0368
  836MPD2     H12345   4.071   0.699  12.093 -0.2942 -0.8689 -0.5426
  836MPD2    H112346   3.845   1.066  12.135  2.3628  1.6219  0.2657
  836MPD2    H212347   4.242   1.090  12.011  1.4785 -1.7591  0.6867
  836MPD2    H312348   4.041   1.184  12.085 -0.4374  0.2241 -0.4693
  836MPD2     N12349   3.813   0.809  12.149 -0.5656 -0.5690  0.1485
  836MPD2    H512350   3.727   0.863  12.154 -0.9514 -1.1650  0.0082
  836MPD2    N112351   4.294   0.815  12.011  0.3671  0.2866  0.3013
  836MPD2    H712352   4.374   0.868  11.979  1.4836 -0.4774  1.8452
  837MPD2     C12353   2.754   0.965   9.867 -0.6476 -0.2251 -0.4590
  837MPD2    C112354   2.633   0.925   9.925 -1.2120  0.1150  1.4506
  837MPD2    C212355   2.575   1.008  10.016  0.4436  0.4399  0.5529
  837MPD2    C312356   2.629   1.130  10.046  1.0854 -0.1893  0.4706
  837MPD2    C412357   2.739   1.168   9.980  0.9555 -0.5021  0.8673
  837MPD2    C512358   2.810   1.081   9.906 -0.3263  0.6343  0.1496
  837MPD2     H12359   2.481   0.990  10.067  0.2644  0.6791  0.3092
  837MPD2    H112360   2.792   1.256  10.016 -0.3305  1.8294 -3.0292
  837MPD2    H212361   2.811   0.903   9.799  1.0066  0.5040  0.2619
  837MPD2    H312362   2.904   1.108   9.859 -0.6727  0.9588 -0.3511
  837MPD2     N12363   2.562   1.221  10.133  0.6065  0.2785 -0.2096
  837MPD2    H512364   2.486   1.181  10.187  0.2565  2.0607  0.5937
  837MPD2    N112365   2.551   0.818   9.887 -0.2495  0.1556 -0.0209
  837MPD2    H712366   2.466   0.795   9.938 -0.7423 -1.0675 -1.3987
  838MPD2     C12367   0.762   2.400  11.278 -0.1726  0.1770 -0.1796
  838MPD2    C112368   0.722   2.532  11.291  0.5686 -0.0650 -0.3836
  838MPD2    C212369   0.617   2.575  11.369 -0.0761 -0.3770  0.0222
  838MPD2    C312370   0.558   2.477  11.441  0.6216  0.3466  0.1127
  838MPD2    C412371   0.604   2.350  11.438  0.2579  0.6023 -0.2316
  838MPD2    C512372   0.698   2.310  11.351 -0.7975 -0.2498 -0.1161
  838MPD2     H12373   0.586   2.678  11.386  0.5260 -0.0419 -0.9393
  838MPD2    H112374   0.567   2.269  11.500  0.2334 -0.2039 -1.3185
  838MPD2    H212375   0.852   2.360  11.234 -0.7977  0.0721 -1.3587
  838MPD2    H312376   0.744   2.215  11.371 -2.4504 -1.1027 -0.3524
  838MPD2     N12377   0.467   2.511  11.538 -0.5433 -0.1798  0.2125
  838MPD2    H512378   0.452   2.611  11.551 -1.7392 -0.3922  0.4479
  838MPD2    N112379   0.793   2.630  11.224  0.2325 -0.2100 -0.2515
  838MPD2    H712380   0.784   2.720  11.270  1.9855 -0.4791  0.6335
  839MPD2     C12381   0.711   2.740  11.868 -0.0897  0.3606 -1.1097
  839MPD2    C112382   0.726   2.634  11.778 -0.0659  0.0367 -0.1708
  839MPD2    C212383   0.795   2.648  11.663 -0.3082 -0.0955  0.0586
  839MPD2    C312384   0.857   2.768  11.630 -0.1652 -0.3193  0.3742
  839MPD2    C412385   0.846   2.872  11.716 -0.3806  0.5468 -0.0806
  839MPD2    C512386   0.768   2.859  11.826  0.1170 -0.4474 -0.0039
  839MPD2     H12387   0.808   2.558  11.604  1.4471 -0.3908  0.8867
  839MPD2    H112388   0.888   2.972  11.704 -1.9822  1.3670  1.0747
  839MPD2    H212389   0.650   2.735  11.958 -1.3284  0.6779 -1.9308
  839MPD2    H312390   0.767   2.938  11.900 -0.4618  0.3690 -0.8852
  839MPD2     N12391   0.937   2.779  11.516 -0.0935 -0.2058  0.1209
  839MPD2    H512392   0.938   2.691  11.465 -0.6293 -1.4715  2.2816
  839MPD2    N112393   0.674   2.503  11.801 -0.0824  0.6627 -0.3975
  839MPD2    H712394   0.698   2.426  11.740  0.1434 -0.0275  0.5556
  840MPD2     C12395   1.105   0.800  10.157  0.4837  0.0150  0.7616
  840MPD2    C112396   1.110   0.720  10.266 -0.0932  0.2182 -0.0207
  840MPD2    C212397   1.211   0.735  10.357  0.5604  0.0195  0.0925
  840MPD2    C312398   1.307   0.833  10.346  0.1648  0.2691 -0.7803
  840MPD2    C412399   1.300   0.916  10.240 -0.0393 -0.4210  0.5314
  840MPD2    C512400   1.208   0.895  10.141  1.0680 -0.0728  0.4838
  840MPD2     H12401   1.220   0.678  10.448 -1.7478  0.1850  0.4183
  840MPD2    H112402   1.363   1.003  10.228 -1.7110  0.8048  0.6748
  840MPD2    H212403   1.027   0.790  10.083  1.8842 -3.5600 -0.2284
  840MPD2    H312404   1.208   0.957  10.052 -0.4286  0.3104  0.7399
  840MPD2     N12405   1.376   0.879  10.466  0.3857 -0.2771  0.1184
  840MPD2    H512406   1.399   0.978  10.467  1.5799 -0.5504 -1.7597
  840MPD2    N112407   1.005   0.625  10.280 -0.0315 -0.3173 -0.4005
  840MPD2    H712408   0.932   0.627  10.209  0.6167  1.3717 -1.0138
  841MPD2     C12409   0.542   0.820  15.046 -0.1232  0.0859 -0.2424
  841MPD2    C112410   0.499   0.783  14.922  0.2513 -0.1795  0.2916
  841MPD2    C212411   0.556   0.846  14.815 -0.6620 -0.2320  0.1729
  841MPD2    C312412   0.661   0.936  14.835 -0.4527  0.0577  0.7883
  841MPD2    C412413   0.708   0.963  14.957  0.0294 -0.0440  0.2046
  841MPD2    C512414   0.639   0.914  15.060 -0.3310 -0.2727  0.2020
  841MPD2     H12415   0.519   0.816  14.718 -2.0308 -1.3499  1.0361
  841MPD2    H112416   0.785   1.039  14.964  1.1586 -0.8949 -2.7492
  841MPD2    H212417   0.485   0.787  15.133  1.1956 -2.1261 -0.2216
  841MPD2    H312418   0.654   0.957  15.158 -0.2883  4.9952 -2.0654
  841MPD2     N12419   0.707   0.990  14.719  0.2418  0.3747 -0.4711
  841MPD2    H512420   0.649   0.970  14.638 -0.9260 -0.1410  0.4891
  841MPD2    N112421   0.403   0.678  14.902 -0.2232 -0.5931  0.3807
  841MPD2    H712422   0.371   0.664  14.807 -0.2316  0.3886  0.2393
  842MPD2     C12423   1.446   1.251  16.147  0.3629  0.1970 -0.2303
  842MPD2    C112424   1.323   1.293  16.184 -0.5248 -0.2286  0.4187
  842MPD2    C212425   1.267   1.247  16.302 -0.6048  0.1598  0.2829
  842MPD2    C312426   1.347   1.166  16.387 -0.1786  0.2326 -0.2391
  842MPD2    C412427   1.470   1.124  16.349 -0.8102  0.9516 -0.6498
  842MPD2    C512428   1.521   1.166  16.226 -0.4278  0.0198 -0.7699
  842MPD2     H12429   1.160   1.255  16.316 -0.4644  1.7406  0.4166
  842MPD2    H112430   1.540   1.070  16.411 -0.6275  2.6879  0.6733
  842MPD2    H212431   1.501   1.299  16.066  0.1056  1.0853  0.1142
  842MPD2    H312432   1.618   1.135  16.188 -0.4498 -1.6993  0.5604
  842MPD2     N12433   1.293   1.107  16.507 -0.4217 -0.3587 -0.7294
  842MPD2    H512434   1.356   1.060  16.571  0.0429  2.2979  0.7390
  842MPD2    N112435   1.256   1.383  16.097 -0.0402 -0.1093 -0.6726
  842MPD2    H712436   1.312   1.417  16.020  2.0618  0.3115  1.0407
  843MPD2     C12437   3.166   2.624  17.613  0.5771 -0.8015 -0.6287
  843MPD2    C112438   3.215   2.500  17.659  0.2588  0.1088  0.2224
  843MPD2    C212439   3.346   2.492  17.700  0.0589 -0.0964 -0.4587
  843MPD2    C312440   3.425   2.604  17.718 -0.1782  0.4023  0.1025
  843MPD2    C412441   3.375   2.721  17.676  0.0372  0.3587 -0.4423
  843MPD2    C512442   3.250   2.730  17.618 -0.4385  0.5046  0.6315
  843MPD2     H12443   3.390   2.394  17.715  0.5230  0.1102 -0.4527
  843MPD2    H112444   3.442   2.806  17.671  1.3022 -0.7784 -2.6693
  843MPD2    H212445   3.071   2.632  17.561  0.8991  0.9712 -0.9271
  843MPD2    H312446   3.216   2.819  17.566 -2.2397 -0.5861 -0.0621
  843MPD2     N12447   3.559   2.593   0.002  0.1684 -0.0193  0.6853
  843MPD2    H512448   3.615   2.675  17.731  1.2027 -1.7309 -2.9073
  843MPD2    N112449   3.121   2.390  17.667  0.0556 -0.2835  0.2110
  843MPD2    H712450   3.027   2.412  17.635  0.0258  0.8057  1.0531
  844MPD2     C12451   1.848   0.217  16.654  0.4789  0.2805 -0.7156
  844MPD2    C112452   1.915   0.253  16.537  0.3698  0.1685  0.1036
  844MPD2    C212453   1.996   0.372  16.545 -0.5952 -0.4316  0.3929
  844MPD2    C312454   2.029   0.429  16.663  0.0487 -0.0717 -0.6279
  844MPD2    C412455   1.983   0.365  16.774  0.0041 -0.3575  0.0862
  844MPD2    C512456   1.889   0.267  16.773 -0.0834  0.1204 -0.1418
  844MPD2     H12457   2.038   0.400  16.449  1.9718 -0.3197  1.5503
  844MPD2    H112458   1.991   0.404  16.874 -2.6130  0.1323  0.0904
  844MPD2    H212459   1.767   0.145  16.662 -1.8743  2.8116 -2.1534
  844MPD2    H312460   1.832   0.250  16.863 -0.0221 -0.6488 -0.2526
  844MPD2     N12461   2.107   0.548  16.680  0.5305 -0.2918 -0.1662
  844MPD2    H512462   2.126   0.569  16.778  0.2446 -2.5874  0.3788
  844MPD2    N112463   1.902   0.181  16.417 -0.5260 -0.2515 -0.4919
  844MPD2    H712464   1.932   0.233  16.336 -3.0321  2.8100  0.5381
  845MPD2     C12465   2.275   1.581  16.596 -0.1338  0.0931  0.5602
  845MPD2    C112466   2.314   1.536  16.726 -0.1360  0.3904 -0.0930
  845MPD2    C212467   2.334   1.400  16.744 -0.2783 -0.2455 -0.1819
  845MPD2    C312468   2.313   1.317  16.638  0.0821 -0.1387 -0.0732
  845MPD2    C412469   2.274   1.368  16.513  0.2446 -0.1596  0.0238
  845MPD2    C512470   2.263   1.499  16.486  0.9282  0.5095 -0.0399
  845MPD2     H12471   2.370   1.365  16.840  0.3741 -2.9638 -1.3872
  845MPD2    H112472   2.269   1.308  16.423 -0.7353  0.0912 -0.0928
  845MPD2    H212473   2.263   1.688  16.580 -0.8056  0.0335  0.6846
  845MPD2    H312474   2.231   1.543  16.392  0.1757 -1.6908 -0.8082
  845MPD2     N12475   2.338   1.181  16.663  0.3422  0.7635  0.3623
  845MPD2    H512476   2.376   1.153  16.753 -1.6338  0.8001  1.2300
  845MPD2    N112477   2.342   1.634  16.824 -0.3448  0.0347 -0.7441
  845MPD2    H712478   2.313   1.726  16.792  1.2654  0.1806 -1.7878
  846MPD2     C12479   4.013   1.906  13.626 -0.7053  0.3464 -0.2299
  846MPD2    C112480   3.935   2.011  13.680 -0.3267 -0.4536 -0.3748
  846MPD2    C212481   3.850   1.985  13.789  0.4327  0.4102  0.3356
  846MPD2    C312482   3.862   1.863  13.856 -0.2125  0.1111 -0.0261
  846MPD2    C412483   3.958   1.769  13.817  0.7365 -0.3646  0.2947
  846MPD2    C512484   4.030   1.791  13.702 -0.4075  0.0979 -0.0078
  846MPD2     H12485   3.782   2.064  13.819  0.2318  1.0323 -1.7364
  846MPD2    H112486   3.978   1.680  13.875  3.4812 -0.9645 -1.5468
  846MPD2    H212487   4.078   1.919  13.540  0.5947  1.5342  0.9279
  846MPD2    H312488   4.099   1.715  13.669  1.1558  1.1600  0.8311
  846MPD2     N12489   3.774   1.848  13.965  0.1079  0.2468 -0.1356
  846MPD2    H512490   3.704   1.921  13.976 -0.2387 -0.1450  0.2888
  846MPD2    N112491   3.934   2.140  13.609  0.7303  0.2528 -0.2053
  846MPD2    H712492   3.892   2.216  13.661  0.4731 -0.1836  0.2219
  847MPD2     C12493   3.582   2.803  14.058 -0.6377 -0.1077  0.5886
  847MPD2    C112494   3.714   2.849  14.075 -0.3522 -0.6114 -0.0117
  847MPD2    C212495   3.802   2.777  14.162  0.2368  0.5391 -0.0478
  847MPD2    C312496   3.756   2.666  14.233  0.2988  0.0386  0.3041
  847MPD2    C412497   3.632   2.614  14.199  0.1879  0.2394 -0.6798
  847MPD2    C512498   3.550   2.681  14.115  0.0130  1.0826 -1.3604
  847MPD2     H12499   3.900   2.814  14.193 -0.5992  2.5969  0.1569
  847MPD2    H112500   3.602   2.519  14.241  0.9263  0.1480 -0.3503
  847MPD2    H212501   3.502   2.852  14.004 -0.3900  0.9977  1.2275
  847MPD2    H312502   3.448   2.646  14.102  0.8936 -1.9790  0.2572
  847MPD2     N12503   3.848   2.612  14.324  0.1350 -0.3030 -0.1059
  847MPD2    H512504   3.941   2.653  14.324  0.0206 -0.0263  1.6304
  847MPD2    N112505   3.766   2.973  14.028  0.1256 -0.6250 -0.2842
  847MPD2    H712506   3.858   2.998  14.063  0.3195 -1.5933 -0.0790
  848MPD2     C12507   1.911   1.083  16.125  0.1121 -0.3962  0.4510
  848MPD2    C112508   1.926   1.150  16.244  0.0944 -0.6952 -0.0050
  848MPD2    C212509   1.958   1.286  16.253 -0.0190 -0.2576  0.2539
  848MPD2    C312510   1.992   1.354  16.133  0.2606  0.5452  0.0363
  848MPD2    C412511   1.986   1.285  16.018 -0.3374 -0.6817  0.9759
  848MPD2    C512512   1.942   1.155  16.013  0.3005  0.2893 -0.6962
  848MPD2     H12513   1.959   1.335  16.350 -0.5939  2.5036 -1.1326
  848MPD2    H112514   1.999   1.321  15.916  0.5122  1.2557  1.7797
  848MPD2    H212515   1.871   0.983  16.113 -2.1420  0.5254  0.3393
  848MPD2    H312516   1.918   1.102  15.921 -0.0707  0.1601 -0.5223
  848MPD2     N12517   2.017   1.495  16.125  0.5267 -0.3398  0.3262
  848MPD2    H512518   2.048   1.533  16.036  0.4703  1.6811  1.1666
  848MPD2    N112519   1.901   1.093  16.373  0.1197 -0.3953 -0.3178
  848MPD2    H712520   1.903   1.161  16.448  1.7855  1.3623 -1.9679
  849MPD2     C12521   1.094   1.456  14.365  0.3194 -0.6929  0.5121
  849MPD2    C112522   1.128   1.388  14.250  0.0494  0.2585 -0.7226
  849MPD2    C212523   1.259   1.405  14.194 -0.3634  0.0349  0.4818
  849MPD2    C312524   1.345   1.499  14.234 -0.6775  0.3028  0.2019
  849MPD2    C412525   1.303   1.579  14.340  0.3862  0.1086  0.0047
  849MPD2    C512526   1.181   1.556  14.403 -0.0431  0.2071  0.7491
  849MPD2     H12527   1.289   1.344  14.109  1.1319 -0.1278  1.1286
  849MPD2    H112528   1.358   1.666  14.373  0.7510  0.1611 -0.7417
  849MPD2    H212529   0.999   1.453  14.417  0.6251  1.0337  1.1793
  849MPD2    H312530   1.147   1.626  14.479 -1.6648 -0.0309  0.2312
  849MPD2     N12531   1.472   1.527  14.174  0.2565 -0.5711  0.6597
  849MPD2    H512532   1.533   1.596  14.216  0.7779 -0.0888 -0.8868
  849MPD2    N112533   1.034   1.323  14.169  0.0585 -0.1605  0.0627
  849MPD2    H712534   1.080   1.278  14.091 -0.1850  1.3643 -0.9827
  850MPD2     C12535   3.558   3.280  14.980 -0.0291 -0.0884  0.0454
  850MPD2    C112536   3.519   3.393  15.038  0.1597  0.4393  0.0384
  850MPD2    C212537   3.606   3.507  15.042 -0.4768 -0.3411  0.2049
  850MPD2    C312538   3.731   3.500  14.986 -1.0017 -0.1837  0.2430
  850MPD2    C412539   3.766   3.385  14.922 -0.1802 -1.1961 -0.2304
  850MPD2    C512540   3.681   3.278  14.926 -0.1974  0.8019  0.6393
  850MPD2     H12541   3.572   3.597  15.093  0.3718 -0.0639  0.2741
  850MPD2    H112542   3.852   3.372  14.858  0.0134  2.4447 -0.7165
  850MPD2    H212543   3.487   3.198  14.981 -1.4814  1.1711  0.7799
  850MPD2    H312544   3.722   3.187  14.884 -0.1875  0.2394  1.8578
  850MPD2     N12545   3.823   3.605  14.994 -0.1637  0.3291 -0.2761
  850MPD2    H512546   3.916   3.582  14.961 -0.2819  0.4533 -0.7006
  850MPD2    N112547   3.392   3.380  15.103 -0.0687 -0.1531  0.1578
  850MPD2    H712548   3.330   3.324  15.045 -1.3478  1.5534 -0.0956
  851MPD2     C12549   4.087   3.559  15.302  0.9772  0.6824 -0.2585
  851MPD2    C112550   3.989   3.461  15.316 -0.4403  0.7874  0.0161
  851MPD2    C212551   4.011   3.334  15.262  0.4107  0.8517 -0.3497
  851MPD2    C312552   4.132   3.305  15.197  0.0903  0.5233  0.3540
  851MPD2    C412553   4.231   3.404  15.193  0.3859  0.5379  0.0352
  851MPD2    C512554   4.208   3.525  15.246  0.8473  0.2826 -0.0253
  851MPD2     H12555   3.937   3.255  15.256  0.8467  0.3530  1.0039
  851MPD2    H112556   4.326   3.379  15.146 -0.2764 -1.8365 -0.0416
  851MPD2    H212557   4.068   3.653  15.352 -1.0800 -1.1031  2.2961
  851MPD2    H312558   4.277   3.607  15.234 -0.1905  1.1987  0.2482
  851MPD2     N12559   4.146   3.181  15.131 -0.1312 -0.0618  0.4105
  851MPD2    H512560   4.074   3.110  15.136  0.4141 -0.6411 -0.0380
  851MPD2    N112561   3.863   3.495  15.369  0.0017  0.0417  0.2418
  851MPD2    H712562   3.855   3.593  15.395  0.2364  0.8495 -2.7394
  852MPD2     C12563   4.342   1.991  10.162  0.3558  0.1580  0.7801
  852MPD2    C112564   4.296   2.072  10.264 -0.1790  0.4059  0.1544
  852MPD2    C212565   4.301   2.207  10.239 -0.2765  0.8993 -0.4874
  852MPD2    C312566   4.348   2.261  10.120  0.2220  0.7365 -0.1507
  852MPD2    C412567   4.389   2.183  10.019  0.4522  0.0062  0.5449
  852MPD2    C512568   4.388   2.046  10.047 -0.1671 -0.2701  0.1155
  852MPD2     H12569   4.263   2.281  10.308 -1.1593  0.6665 -0.7257
  852MPD2    H112570   4.436   2.214   9.927  2.4744  1.6351  2.1339
  852MPD2    H212571   4.336   1.884  10.179  2.8484 -0.1001  0.1129
  852MPD2    H312572   4.431   1.975   9.978  0.3783  0.0298  0.1467
  852MPD2     N12573   4.345   2.406  10.120 -0.5032  0.0249 -0.5237
  852MPD2    H512574   4.304   2.453  10.200  0.4188  2.3908 -1.4489
  852MPD2    N112575   4.241   2.029  10.386 -0.5115 -0.4479  0.0801
  852MPD2    H712576   4.218   2.098  10.456 -1.5699  0.3582 -1.0488
  853MPD2     C12577   0.539   1.408  12.374  0.1782 -0.0723 -0.4829
  853MPD2    C112578   0.422   1.454  12.323  0.7338 -0.4197  0.2618
  853MPD2    C212579   0.411   1.455  12.188  0.7936  0.3549 -0.2233
  853MPD2    C312580   0.524   1.414  12.109 -0.2275  0.9060  0.2058
  853MPD2    C412581   0.639   1.364  12.166 -0.1139  0.6195 -0.4716
  853MPD2    C512582   0.646   1.365  12.301 -0.0077  0.3079  0.5480
  853MPD2     H12583   0.319   1.483  12.137 -0.5617 -2.3635  0.7389
  853MPD2    H112584   0.713   1.311  12.108 -2.3074 -0.7208 -2.0175
  853MPD2    H212585   0.547   1.409  12.482  0.6660  0.1212 -0.5206
  853MPD2    H312586   0.726   1.326  12.363 -0.8934 -1.0582  0.8437
  853MPD2     N12587   0.522   1.413  11.968 -0.0285  0.9831  0.5746
  853MPD2    H512588   0.608   1.377  11.928 -0.0351  0.8530  0.6779
  853MPD2    N112589   0.314   1.500  12.416  0.4458  0.4813 -0.1404
  853MPD2    H712590   0.331   1.493  12.516 -1.6972 -0.7594  0.1287
  854MPD2     C12591   1.942   1.858  12.570  0.3340  0.0822  0.0532
  854MPD2    C112592   1.896   1.856  12.696  0.4455 -0.2077  0.3676
  854MPD2    C212593   1.933   1.755  12.785 -0.1123 -0.1903  0.3897
  854MPD2    C312594   2.016   1.660  12.732 -0.1838 -0.1388 -0.0786
  854MPD2    C412595   2.048   1.662  12.596  0.3252  0.3618 -0.7465
  854MPD2    C512596   2.015   1.764  12.515 -0.1160  0.2061  0.3039
  854MPD2     H12597   1.896   1.752  12.887 -1.5456  2.1582 -0.0486
  854MPD2    H112598   2.112   1.581  12.563  1.9116  0.9808  0.8086
  854MPD2    H212599   1.918   1.941  12.504  0.2949  0.2076  0.2254
  854MPD2    H312600   2.049   1.771  12.412 -1.3517  2.4067  0.0338
  854MPD2     N12601   2.054   1.542  12.801 -0.1924 -0.1474 -0.4280
  854MPD2    H512602   2.128   1.485  12.761 -1.6966 -3.1185  1.0948
  854MPD2    N112603   1.827   1.970  12.748  0.2200 -0.1868 -1.1507
  854MPD2    H712604   1.856   2.060  12.710  0.8319 -0.6865 -1.8740
  855MPD2     C12605   2.385   1.468  13.713  0.1507  0.8760  0.0744
  855MPD2    C112606   2.375   1.334  13.685  0.1875 -0.4153 -0.2102
  855MPD2    C212607   2.330   1.289  13.559 -0.7821 -0.7186 -0.4979
  855MPD2    C312608   2.305   1.387  13.464 -0.5264 -0.2808 -0.1564
  855MPD2    C412609   2.320   1.516  13.495  0.5144  0.5312  0.7735
  855MPD2    C512610   2.371   1.558  13.614  0.3985  0.3415 -0.3973
  855MPD2     H12611   2.315   1.186  13.530 -2.8941 -1.1485  2.1163
  855MPD2    H112612   2.283   1.593  13.429  0.3700 -0.5934 -0.4700
  855MPD2    H212613   2.406   1.497  13.816 -1.2014  1.4408  0.1932
  855MPD2    H312614   2.372   1.665  13.635  0.4851  0.0559  1.0624
  855MPD2     N12615   2.252   1.359  13.335  0.0310  0.3878 -0.2828
  855MPD2    H512616   2.219   1.435  13.276 -0.8198 -0.6694 -1.1607
  855MPD2    N112617   2.368   1.229  13.775 -0.2295  0.5963  0.0478
  855MPD2    H712618   2.327   1.142  13.742  1.9891 -0.4670  0.1233
  856MPD2     C12619   0.087   2.367  13.962  0.3571 -0.2108  0.3246
  856MPD2    C112620   0.143   2.483  14.021  0.4130  0.3562 -0.5058
  856MPD2    C212621   0.068   2.597  14.040  0.0669  0.2961  0.5969
  856MPD2    C312622   4.675   2.609  13.998  0.4114  0.4769 -0.1506
  856MPD2    C412623   4.618   2.493  13.947  0.4348  0.8560 -0.1966
  856MPD2    C512624   4.691   2.381  13.922  0.6453 -1.3625 -0.1020
  856MPD2     H12625   0.116   2.678  14.094  1.8244 -0.3631  0.0202
  856MPD2    H112626   4.519   2.490  13.902  0.5543 -2.5117 -0.2826
  856MPD2    H212627   0.133   2.269  13.966  1.5943  0.4837  3.1417
  856MPD2    H312628   4.650   2.290  13.879 -3.8006  0.4318  0.3625
  856MPD2     N12629   4.594   2.727  14.004 -0.2554 -0.1239 -0.0296
  856MPD2    H512630   4.498   2.721  13.969 -1.0182 -0.5609  2.1664
  856MPD2    N112631   0.278   2.492  14.070 -0.0409  1.0782  0.4061
  856MPD2    H712632   0.308   2.579  14.114  2.9696 -0.4920  1.3862
  857MPD2     C12633   1.191   4.680  12.663  0.4090 -0.7901  0.3717
  857MPD2    C112634   1.327   4.660  12.660  0.2993 -0.3887 -0.9954
  857MPD2    C212635   1.410   0.027  12.631  0.1512 -0.1106  0.5197
  857MPD2    C312636   1.363   0.144  12.589  0.4225 -0.0325 -0.1324
  857MPD2    C412637   1.226   0.164  12.577 -0.9505 -0.0969  0.0558
  857MPD2    C512638   1.141   0.058  12.608 -0.3458  0.2118  0.5811
  857MPD2     H12639   1.518   0.020  12.638  0.4523  0.4767 -3.7503
  857MPD2    H112640   1.175   0.258  12.556 -1.4780 -0.1759  0.9747
  857MPD2    H212641   1.125   4.602  12.699  0.4377 -1.1421 -0.3350
  857MPD2    H312642   1.034   0.074  12.607 -0.5384 -0.9660  2.9832
  857MPD2     N12643   1.463   0.241  12.549 -0.5007 -0.4144 -0.1477
  857MPD2    H512644   1.556   0.233  12.590  0.0473 -0.0233 -1.3038
  857MPD2    N112645   1.379   4.529  12.691 -0.0965  0.3631  0.4762
  857MPD2    H712646   1.316   4.455  12.721  1.4467 -0.7609  0.9708
  858MPD2     C12647   2.358   3.626  16.609 -0.4048  0.6782 -0.1323
  858MPD2    C112648   2.332   3.503  16.668  0.1964 -0.3413  0.2283
  858MPD2    C212649   2.303   3.510  16.807  0.0568  0.2113 -0.0832
  858MPD2    C312650   2.308   3.635  16.878  0.3255 -0.7269 -0.0827
  858MPD2    C412651   2.302   3.751  16.813 -0.4403 -0.0140 -0.0077
  858MPD2    C512652   2.329   3.746  16.671 -0.0356 -0.3849  0.5515
  858MPD2     H12653   2.294   3.417  16.862 -0.4028 -0.7305 -1.7590
  858MPD2    H112654   2.284   3.844  16.866 -1.4886  0.2831 -0.8850
  858MPD2    H212655   2.395   3.637  16.507 -2.5828 -1.2203 -1.1417
  858MPD2    H312656   2.337   3.841  16.620 -0.7760  0.0051  1.1612
  858MPD2     N12657   2.309   3.651  17.016 -0.1603  0.0576 -0.7414
  858MPD2    H512658   2.287   3.748  17.037 -0.1427 -0.3259  1.0542
  858MPD2    N112659   2.336   3.385  16.595 -0.2956  0.0985  0.5937
  858MPD2    H712660   2.375   3.388  16.501  0.3967  0.3656  0.8882
  859MPD2     C12661   1.120   0.993  15.512 -0.5411 -0.2306  0.3428
  859MPD2    C112662   1.033   1.002  15.405 -0.0834  0.1305  0.3538
  859MPD2    C212663   0.944   0.894  15.383  0.3992 -0.1877 -0.3363
  859MPD2    C312664   0.932   0.791  15.475  0.0964  0.9762 -0.4722
  859MPD2    C412665   1.007   0.791  15.584  0.2591 -0.5269  0.4444
  859MPD2    C512666   1.102   0.886  15.600 -0.2940 -0.1191 -0.9329
  859MPD2     H12667   0.889   0.889  15.290 -0.5499 -2.0232  0.3214
  859MPD2    H112668   1.000   0.718  15.663  2.8842 -1.1936  0.0563
  859MPD2    H212669   1.201   1.063  15.530 -1.8766  0.9704  1.6682
  859MPD2    H312670   1.165   0.892  15.688 -1.3389 -1.7676 -0.0790
  859MPD2     N12671   0.856   0.678  15.443 -0.0536  0.1128 -0.3624
  859MPD2    H512672   0.843   0.609  15.517 -0.0171  1.2440  0.6985
  859MPD2    N112673   1.039   1.110  15.322 -0.2764 -0.2464 -0.3487
  859MPD2    H712674   1.116   1.174  15.338 -0.7446  0.0056  0.8979
  860MPD2     C12675   3.137   1.635  11.493  0.6264 -0.0695 -0.6502
  860MPD2    C112676   3.118   1.715  11.609  0.0220 -0.1563 -0.6371
  860MPD2    C212677   3.013   1.689  11.694  0.1274 -0.0279  0.1054
  860MPD2    C312678   2.934   1.585  11.678  0.0845 -0.3162  0.3126
  860MPD2    C412679   2.950   1.503  11.568  0.1526 -0.2575  0.2152
  860MPD2    C512680   3.052   1.529  11.476 -0.5653  0.2684 -0.6493
  860MPD2     H12681   3.000   1.753  11.780  0.4280 -0.3001  0.3526
  860MPD2    H112682   2.892   1.415  11.543  2.2090 -1.9697  1.4540
  860MPD2    H212683   3.202   1.656  11.409  1.0751  0.9030 -0.0697
  860MPD2    H312684   3.048   1.471  11.385  0.6183 -1.7815  0.6097
  860MPD2     N12685   2.838   1.558  11.779 -0.3568  0.7198 -0.5051
  860MPD2    H512686   2.820   1.639  11.836  3.1039 -0.4628  2.2695
  860MPD2    N112687   3.197   1.831  11.636  0.1594 -0.1605  0.1673
  860MPD2    H712688   3.180   1.874  11.727  1.5663  0.3546  0.1835
  861MPD2     C12689   2.388   4.247  10.711  0.2666  0.1379 -0.0838
  861MPD2    C112690   2.379   4.375  10.755 -0.2715 -0.2297 -0.0693
  861MPD2    C212691   2.345   4.481  10.675  0.2662 -0.5073  0.2312
  861MPD2    C312692   2.323   4.461  10.534 -0.1518 -0.9603 -0.0023
  861MPD2    C412693   2.336   4.332  10.486 -0.4087  0.7804  0.8343
  861MPD2    C512694   2.372   4.229  10.572  0.1588  0.0271  0.1503
  861MPD2     H12695   2.336   4.580  10.719  0.4417  0.5801 -2.2090
  861MPD2    H112696   2.323   4.296  10.385 -0.0560  1.6965  0.4618
  861MPD2    H212697   2.409   4.157  10.768  0.8513 -0.5657 -1.4125
  861MPD2    H312698   2.380   4.129  10.530  3.0218 -0.1136  1.0456
  861MPD2     N12699   2.285   4.556  10.442  0.0161  0.2173  0.0748
  861MPD2    H512700   2.272   4.520  10.348  2.9666  3.0072 -1.3982
  861MPD2    N112701   2.394   4.404  10.897  0.1113  0.1921  0.0083
  861MPD2    H712702   2.366   4.491  10.941 -0.4728 -0.0486  0.1039
  862MPD2     C12703   1.615   4.540  10.253 -0.6844 -0.1466 -0.3869
  862MPD2    C112704   1.718   4.524  10.341  0.3318 -0.3876 -0.4338
  862MPD2    C212705   1.720   4.417  10.431  0.0437 -0.4600  0.0878
  862MPD2    C312706   1.617   4.328  10.432 -0.8401 -0.5498  0.0342
  862MPD2    C412707   1.507   4.348  10.347 -0.5730 -0.3074  0.5454
  862MPD2    C512708   1.509   4.452  10.254 -0.6791 -0.0300  0.1582
  862MPD2     H12709   1.789   4.422  10.514 -1.2173  1.7564  0.9734
  862MPD2    H112710   1.419   4.285  10.347  0.6719 -2.0458  2.7241
  862MPD2    H212711   1.610   4.614  10.175 -1.8359 -0.9547 -1.0850
  862MPD2    H312712   1.435   4.462  10.175  0.4183  1.7639 -0.6413
  862MPD2     N12713   1.613   4.216  10.521 -0.0984 -0.1516 -0.2234
  862MPD2    H512714   1.525   4.168  10.539 -0.6380  1.7490  2.2996
  862MPD2    N112715   1.822   4.620  10.359  0.1190  0.0054 -0.2434
  862MPD2    H712716   1.889   4.603  10.433 -1.9939 -0.6632  1.5064
  863MPD2     C12717   0.750   2.321  16.353  0.2199 -0.3210  0.4020
  863MPD2    C112718   0.669   2.404  16.435  0.4487 -0.1112 -1.2452
  863MPD2    C212719   0.703   2.430  16.564 -0.2685  0.4271  0.3930
  863MPD2    C312720   0.815   2.366  16.614 -0.5868  0.3841  0.7467
  863MPD2    C412721   0.885   2.272  16.544  0.0474 -0.0823 -0.2638
  863MPD2    C512722   0.846   2.250  16.415 -0.1849  0.1007 -0.2682
  863MPD2     H12723   0.653   2.499  16.631 -0.5856  0.3346  0.2514
  863MPD2    H112724   0.972   2.211  16.566 -0.8880 -1.5322 -0.5826
  863MPD2    H212725   0.718   2.301  16.251  0.2659  1.5000  0.0311
  863MPD2    H312726   0.890   2.172  16.354  0.7554  0.6714 -0.3263
  863MPD2     N12727   0.867   2.388  16.744  0.3984  0.2567  0.2122
  863MPD2    H512728   0.942   2.333  16.784 -0.6677 -3.2667 -2.6421
  863MPD2    N112729   0.557   2.443  16.365  0.5229 -0.6278  0.1505
  863MPD2    H712730   0.535   2.400  16.275  1.3092  1.6034 -1.1166
  864MPD2     C12731   0.878   3.399  17.256  0.0305  0.8228  0.3405
  864MPD2    C112732   0.970   3.336  17.170  0.0083  0.6506  0.0968
  864MPD2    C212733   1.105   3.378  17.159 -0.2712 -0.7598 -0.2333
  864MPD2    C312734   1.156   3.475  17.238 -0.2159  0.1592  0.2672
  864MPD2    C412735   1.068   3.543  17.317  0.2513 -0.2917 -0.8240
  864MPD2    C512736   0.929   3.506  17.328  0.3751  0.5396 -0.6335
  864MPD2     H12737   1.169   3.326  17.089 -1.3372 -0.0717 -1.7154
  864MPD2    H112738   1.088   3.633  17.374 -1.4249 -1.3212  1.3998
  864MPD2    H212739   0.775   3.366  17.263  0.3542 -0.2375  0.1401
  864MPD2    H312740   0.871   3.568  17.395  0.6590  1.2029 -1.0086
  864MPD2     N12741   1.287   3.528  17.231 -0.4569 -0.0534  0.7171
  864MPD2    H512742   1.312   3.595  17.304  0.4954  1.0606 -0.6341
  864MPD2    N112743   0.913   3.225  17.100  0.4493 -0.8551  0.4892
  864MPD2    H712744   0.812   3.219  17.099  0.4744 -1.5421  2.7064
  865MPD2     C12745   1.136   3.774  16.898 -0.0659  0.9595  0.0537
  865MPD2    C112746   1.276   3.759  16.874  0.5261  0.5034 -0.4364
  865MPD2    C212747   1.371   3.824  16.953  0.3501  0.6150  0.2789
  865MPD2    C312748   1.331   3.891  17.068 -0.5620 -0.4981  0.7074
  865MPD2    C412749   1.200   3.909  17.089  0.6624  0.1730  0.6613
  865MPD2    C512750   1.102   3.855  17.004 -0.2687  0.4387  0.0451
  865MPD2     H12751   1.477   3.810  16.932  0.3439 -1.5624  1.6147
  865MPD2    H112752   1.161   3.964  17.174 -0.3170  1.3457 -0.5615
  865MPD2    H212753   1.061   3.718  16.842  0.2319  2.3896 -1.7586
  865MPD2    H312754   0.996   3.874  17.020 -0.2680 -0.6434  1.2889
  865MPD2     N12755   1.427   3.947  17.153 -0.7180 -0.3074 -0.4525
  865MPD2    H512756   1.392   4.011  17.223 -0.1223  0.1216 -0.5465
  865MPD2    N112757   1.305   3.689  16.761 -0.5092  0.2634 -0.5333
  865MPD2    H712758   1.231   3.630  16.724 -0.2969  0.3480 -1.0831
  866MPD2     C12759   3.086   0.407  10.849 -0.9296  0.1107  0.1269
  866MPD2    C112760   3.056   0.272  10.882 -0.1361  0.2648  0.0010
  866MPD2    C212761   2.929   0.245  10.938 -0.2129  0.2343 -0.2103
  866MPD2    C312762   2.847   0.355  10.976 -0.2468  0.5299  0.2037
  866MPD2    C412763   2.902   0.482  10.969  0.7675  0.2758  0.1526
  866MPD2    C512764   3.008   0.511  10.891 -0.0953 -0.3974 -0.4779
  866MPD2     H12765   2.884   0.150  10.966  0.9856 -0.4012 -0.4151
  866MPD2    H112766   2.854   0.566  11.017 -0.1628 -1.8625  2.9292
  866MPD2    H212767   3.187   0.436  10.820 -0.3752 -1.0101  0.9329
  866MPD2    H312768   3.040   0.614  10.878  3.0750 -1.2769  0.3917
  866MPD2     N12769   2.706   0.351  11.008  0.0486  0.6285  0.7486
  866MPD2    H512770   2.655   0.436  11.030  0.9179  0.4558  3.4790
  866MPD2    N112771   3.136   0.177  10.821 -0.3070 -0.3797  0.0619
  866MPD2    H712772   3.207   0.209  10.756 -0.9417 -0.4542 -0.6609
  867MPD2     C12773   4.690   3.995  16.352  0.0875 -0.1968 -0.4833
  867MPD2    C112774   4.735   3.915  16.449 -0.6649  0.3226 -0.3227
  867MPD2    C212775   0.107   3.959  16.528  0.1817 -0.2086 -0.6847
  867MPD2    C312776   0.164   4.078  16.510  0.1289  0.9958 -0.2819
  867MPD2    C412777   0.121   4.153  16.408  0.0813  0.0617  0.2907
  867MPD2    C512778   0.008   4.119  16.330 -0.2347  0.2121 -0.5673
  867MPD2     H12779   0.154   3.888  16.596 -1.5431 -1.7586 -1.1077
  867MPD2    H112780   0.169   4.249  16.392  0.8368 -0.3754 -0.0401
  867MPD2    H212781   4.605   3.960  16.295  1.0308 -1.1080 -1.3254
  867MPD2    H312782   4.716   4.177  16.244  0.1055 -0.4318 -1.1191
  867MPD2     N12783   0.281   4.125  16.578 -0.4081 -0.7806 -0.2307
  867MPD2    H512784   0.344   4.196  16.543 -3.0275  1.7874  0.2625
  867MPD2    N112785   4.692   3.781  16.439 -0.0566 -0.0489 -0.3578
  867MPD2    H712786   4.638   3.750  16.358  1.1467  0.8402 -1.4913
  868MPD2     C12787   1.633   3.577  13.264  0.4701 -0.1090  0.2465
  868MPD2    C112788   1.676   3.522  13.377  0.1685  0.0515 -1.1794
  868MPD2    C212789   1.626   3.559  13.496 -0.3707  0.2846  0.3250
  868MPD2    C312790   1.517   3.656  13.497  0.7917  0.5443  0.1222
  868MPD2    C412791   1.482   3.713  13.377 -0.3338 -0.6457  0.3884
  868MPD2    C512792   1.543   3.677  13.261 -0.0170  0.0078 -0.5123
  868MPD2     H12793   1.681   3.530  13.584  0.6921 -1.0103 -0.7728
  868MPD2    H112794   1.413   3.797  13.375 -1.5293 -1.6500 -1.2161
  868MPD2    H212795   1.672   3.530  13.175 -1.3050  2.3002 -1.7810
  868MPD2    H312796   1.517   3.717  13.163 -0.5465  0.1560 -0.3113
  868MPD2     N12797   1.470   3.707  13.622 -0.2250 -0.0063  0.4798
  868MPD2    H512798   1.503   3.662  13.707  0.6870 -0.7035 -0.2450
  868MPD2    N112799   1.780   3.432  13.366 -0.0925  0.8287 -0.1231
  868MPD2    H712800   1.823   3.424  13.274 -0.2003  0.6960 -0.1626
  869MPD2     C12801   2.690   1.323   0.984  0.3484  0.3116 -0.0578
  869MPD2    C112802   2.762   1.441   0.997  0.1097  0.0357 -0.2459
  869MPD2    C212803   2.896   1.444   0.985  0.3793  0.0269  0.8117
  869MPD2    C312804   2.967   1.340   0.937 -0.4475 -0.0151  0.2292
  869MPD2    C412805   2.900   1.222   0.919 -0.4352 -0.5702  0.0472
  869MPD2    C512806   2.766   1.209   0.948  0.7619  0.4970  0.1837
  869MPD2     H12807   2.948   1.537   0.962 -1.3459  0.6562 -0.5580
  869MPD2    H112808   2.962   1.134   0.908  0.5757  0.1205  0.2127
  869MPD2    H212809   2.582   1.317   0.990  0.5078 -2.8662 -0.7135
  869MPD2    H312810   2.724   1.113   0.921  0.6068  1.2249 -2.2083
  869MPD2     N12811   3.100   1.340   0.893 -0.9621  0.4878  0.1389
  869MPD2    H512812   3.130   1.250   0.858  2.0651  1.5123  0.1192
  869MPD2    N112813   2.691   1.551   1.045 -0.0546  0.3230  0.1868
  869MPD2    H712814   2.590   1.546   1.046 -0.0468  0.0053 -1.0563
  870MPD2     C12815   1.546   4.448   0.997  0.2960 -0.5465  0.6364
  870MPD2    C112816   1.620   4.562   0.971 -0.2812  0.4353 -0.8279
  870MPD2    C212817   1.612   4.619   0.842 -0.0281 -0.2433 -0.3309
  870MPD2    C312818   1.523   4.564   0.750  0.6622  0.8727  0.1712
  870MPD2    C412819   1.435   4.467   0.787 -0.1860 -0.5918  1.0533
  870MPD2    C512820   1.446   4.412   0.910 -0.1103 -0.3025  0.2043
  870MPD2     H12821   1.686   4.692   0.814  1.0561 -0.1840  2.7351
  870MPD2    H112822   1.360   4.433   0.717  0.1334 -0.8635  0.8465
  870MPD2    H212823   1.561   4.395   1.091 -0.7467 -1.5622  0.2349
  870MPD2    H312824   1.378   4.334   0.943 -0.5393 -1.1714 -2.7408
  870MPD2     N12825   1.532   4.618   0.617  0.9941  0.2017 -0.0037
  870MPD2    H512826   1.602   4.686   0.591  1.9581 -0.5934  0.5180
  870MPD2    N112827   1.711   4.600   1.074  0.0212  0.2333  0.2731
  870MPD2    H712828   1.703   4.541   1.156 -0.4657 -0.3031 -0.1604
  871MPD2     C12829   3.163   3.750  16.177  0.0500 -0.1695  0.6363
  871MPD2    C112830   3.257   3.788  16.272 -0.7001  0.0708 -1.1681
  871MPD2    C212831   3.384   3.738  16.257  0.1997  0.0668  0.2650
  871MPD2    C312832   3.408   3.635  16.172 -0.5628  0.0164 -1.3838
  871MPD2    C412833   3.312   3.583  16.094 -0.1396  0.1465 -0.1275
  871MPD2    C512834   3.186   3.643  16.093  0.0363 -0.1413  0.1439
  871MPD2     H12835   3.468   3.774  16.315  1.1378  0.3231 -1.2533
  871MPD2    H112836   3.320   3.492  16.035 -0.6860  0.6403 -0.9648
  871MPD2    H212837   3.064   3.796  16.181  0.5531  0.7976  2.5479
  871MPD2    H312838   3.117   3.597  16.024  0.4566  0.3814 -0.6324
  871MPD2     N12839   3.538   3.576  16.181 -0.3111  1.2802  0.0594
  871MPD2    H512840   3.616   3.621  16.229 -0.1760  0.7302  0.3654
  871MPD2    N112841   3.226   3.883  16.363 -0.2632 -0.2067 -0.6875
  871MPD2    H712842   3.143   3.940  16.352  1.0811  1.7877 -0.5966
  872MPD2     C12843   4.386   1.552  13.356  0.3025 -0.2820 -0.0960
  872MPD2    C112844   4.449   1.601  13.466 -0.5114  0.0933  0.1004
  872MPD2    C212845   4.397   1.577  13.589  0.7486 -0.6345  0.0439
  872MPD2    C312846   4.282   1.506  13.612  0.0308 -1.1072  0.0515
  872MPD2    C412847   4.206   1.473  13.500  0.4457  0.0227  0.2423
  872MPD2    C512848   4.259   1.502  13.374 -0.3810  0.3463  0.3315
  872MPD2     H12849   4.453   1.611  13.676  1.2654 -1.0233 -0.1375
  872MPD2    H112850   4.112   1.421  13.517 -1.0657  1.9851 -1.9842
  872MPD2    H212851   4.421   1.548  13.253  3.6200  4.1067  0.8462
  872MPD2    H312852   4.211   1.458  13.287 -0.6483  1.9940 -0.3558
  872MPD2     N12853   4.238   1.470  13.746 -0.3168 -0.1364  0.6504
  872MPD2    H512854   4.151   1.418  13.745  1.8275 -3.7136 -1.1702
  872MPD2    N112855   4.581   1.651  13.461 -0.3964 -0.1249  0.2964
  872MPD2    H712856   4.626   1.674  13.549  0.3229  2.7444 -0.8210
  873MPD2     C12857   1.887   1.575   0.728  0.3729  0.1666 -0.0355
  873MPD2    C112858   1.745   1.572   0.742  0.5731 -0.6075  0.0856
  873MPD2    C212859   1.673   1.451   0.725  0.3726  0.1376  0.9943
  873MPD2    C312860   1.744   1.338   0.687  0.3213  0.4079  0.0931
  873MPD2    C412861   1.880   1.341   0.665 -0.0365 -0.1225 -0.1218
  873MPD2    C512862   1.949   1.453   0.693 -0.0124 -0.5414  0.1918
  873MPD2     H12863   1.565   1.450   0.732  0.4610  1.4514  2.7009
  873MPD2    H112864   1.928   1.257   0.616 -0.2409  0.9669 -2.1758
  873MPD2    H212865   1.937   1.665   0.760  1.2696 -0.2244 -0.3232
  873MPD2    H312866   2.058   1.451   0.688 -0.0059 -0.9103  0.4710
  873MPD2     N12867   1.674   1.214   0.655 -0.1913 -0.1893  0.4320
  873MPD2    H512868   1.721   1.138   0.607 -0.1811  1.6616 -2.4996
  873MPD2    N112869   1.680   1.695   0.776  0.0435  0.2743 -0.7410
  873MPD2    H712870   1.744   1.773   0.790  1.0566 -0.3093 -2.1600
  874MPD2     C12871   1.425   1.879  15.628  0.3532  0.1223  0.5263
  874MPD2    C112872   1.404   1.847  15.760  0.4900 -0.6082 -0.5939
  874MPD2    C212873   1.503   1.868  15.856 -0.6912  0.2030  0.0947
  874MPD2    C312874   1.628   1.918  15.818  0.6849 -0.1047 -0.2221
  874MPD2    C412875   1.652   1.941  15.682 -0.2616 -0.7761  0.8519
  874MPD2    C512876   1.552   1.924  15.592 -0.4467  0.1211  0.3016
  874MPD2     H12877   1.487   1.836  15.958  2.5871 -1.8288 -0.0467
  874MPD2    H112878   1.747   1.985  15.655  0.1968 -2.4326 -0.2519
  874MPD2    H212879   1.341   1.865  15.560  2.4034 -0.3566 -1.9261
  874MPD2    H312880   1.573   1.943  15.488 -1.7046  0.1972  0.0601
  874MPD2     N12881   1.726   1.929  15.912 -0.5613  0.1552 -0.0443
  874MPD2    H512882   1.693   1.923  16.008 -0.2156  1.9723  0.1717
  874MPD2    N112883   1.291   1.779  15.815  0.1909  0.1597 -0.2556
  874MPD2    H712884   1.290   1.747  15.911  1.0780  2.6348  0.5813
  875MPD2     C12885   2.402   0.125  14.806  0.6582 -0.3532 -0.8982
  875MPD2    C112886   2.302   0.143  14.895 -0.0838 -0.0399 -0.8962
  875MPD2    C212887   2.319   0.209  15.014 -0.1358 -0.9711 -0.5164
  875MPD2    C312888   2.447   0.233  15.054  0.1699 -0.3698  0.3684
  875MPD2    C412889   2.555   0.204  14.974 -0.0530  0.1120 -0.0324
  875MPD2    C512890   2.530   0.162  14.845 -0.6149  0.3059  0.5371
  875MPD2     H12891   2.231   0.216  15.077  0.0024 -2.3852 -0.1873
  875MPD2    H112892   2.654   0.246  14.992 -0.9182  2.3754 -0.4824
  875MPD2    H212893   2.388   0.090  14.705  1.5385 -0.6307 -0.9243
  875MPD2    H312894   2.604   0.149  14.767 -0.9174 -1.5358  0.5655
  875MPD2     N12895   2.479   0.301  15.171  0.3792 -0.0324 -0.0470
  875MPD2    H512896   2.579   0.317  15.181  0.4195  0.4265 -1.2625
  875MPD2    N112897   2.170   0.093  14.869 -0.0733  0.5910 -0.0277
  875MPD2    H712898   2.094   0.121  14.931  0.6892  0.2855  1.0533
  876MPD2     C12899   1.055   1.353  15.648 -0.1771  0.5504  0.7559
  876MPD2    C112900   1.195   1.361  15.654  0.8839 -0.3593 -0.0745
  876MPD2    C212901   1.256   1.269  15.733  0.1370  0.3450  0.0088
  876MPD2    C312902   1.192   1.187  15.816 -0.1448  0.6725 -0.4984
  876MPD2    C412903   1.051   1.189  15.818  0.3854 -0.1035 -1.0830
  876MPD2    C512904   0.986   1.263  15.725  0.3654  0.3601  0.0352
  876MPD2     H12905   1.364   1.273  15.748  0.2350 -2.3468 -0.0671
  876MPD2    H112906   0.995   1.142  15.898  0.7230  1.1978 -0.0910
  876MPD2    H212907   1.001   1.428  15.591 -0.9786 -0.1264  0.6372
  876MPD2    H312908   0.878   1.269  15.724  0.2353 -1.8611 -0.3884
  876MPD2     N12909   1.269   1.105  15.890 -0.1117 -0.1022 -0.0772
  876MPD2    H512910   1.369   1.123  15.882  0.4695 -2.0516  2.6417
  876MPD2    N112911   1.256   1.459  15.572 -0.3276  0.2114 -0.6704
  876MPD2    H712912   1.185   1.526  15.544 -0.8212  0.4163  1.1057
  877MPD2     C12913   1.110   1.879  14.977 -0.5616 -0.4806  0.6624
  877MPD2    C112914   1.245   1.868  14.972 -0.1599 -0.4267  0.2108
  877MPD2    C212915   1.310   1.907  14.854 -0.7376 -0.3289  0.2801
  877MPD2    C312916   1.247   1.957  14.748  0.0629  0.0741  0.0249
  877MPD2    C412917   1.116   1.987  14.762  0.5505  0.5310 -0.5670
  877MPD2    C512918   1.051   1.959  14.879  0.1021 -1.0757 -0.1415
  877MPD2     H12919   1.418   1.895  14.852 -0.4919  1.8161  0.8089
  877MPD2    H112920   1.063   2.029  14.677 -1.7389  1.7844  1.4926
  877MPD2    H212921   1.054   1.863  15.068  0.2094 -3.3967  0.6374
  877MPD2    H312922   0.947   1.985  14.894  0.0369 -1.9593  1.0142
  877MPD2     N12923   1.295   1.989  14.620 -0.0676  0.0432 -0.1190
  877MPD2    H512924   1.230   2.025  14.551 -0.2179  0.1987  0.1069
  877MPD2    N112925   1.318   1.830  15.083 -0.3304  0.6735 -0.2117
  877MPD2    H712926   1.418   1.844  15.074 -0.2236  0.1092  0.0735
  878MPD2     C12927   0.253   1.055  13.510  0.3557 -0.0228 -0.1719
  878MPD2    C112928   0.362   1.097  13.441 -0.1214  0.2542  0.2194
  878MPD2    C212929   0.468   1.145  13.515 -0.5116  0.2731 -0.0498
  878MPD2    C312930   0.467   1.151  13.653 -0.4745 -0.0832 -0.2464
  878MPD2    C412931   0.365   1.089  13.719 -0.4333  0.2200 -0.3687
  878MPD2    C512932   0.259   1.052  13.647 -0.2479 -0.5911 -0.0686
  878MPD2     H12933   0.554   1.184  13.461 -0.7793  0.3450 -0.4289
  878MPD2    H112934   0.355   1.088  13.827  3.3745 -0.9826 -0.0166
  878MPD2    H212935   0.159   1.014  13.472  1.0366 -0.3585 -1.4897
  878MPD2    H312936   0.167   1.028  13.700 -0.4376  1.4038  0.5169
  878MPD2     N12937   0.585   1.189  13.720  0.2540  0.1305 -0.5864
  878MPD2    H512938   0.664   1.207  13.659 -0.9434  2.0135 -1.5796
  878MPD2    N112939   0.361   1.101  13.300  0.2238  0.0583 -0.0383
  878MPD2    H712940   0.278   1.070  13.251  0.7430 -0.2434 -0.7300
  879MPD2     C12941   1.799   2.656  16.811 -0.3724 -0.2774  0.1290
  879MPD2    C112942   1.691   2.605  16.872 -0.4448  0.1863 -0.3040
  879MPD2    C212943   1.593   2.538  16.796 -0.7087  0.2069  0.3785
  879MPD2    C312944   1.631   2.497  16.670  0.0844 -0.4416 -0.0128
  879MPD2    C412945   1.741   2.547  16.614  0.2130  0.8301 -1.0138
  879MPD2    C512946   1.828   2.617  16.685  0.7627 -0.0908  0.5366
  879MPD2     H12947   1.504   2.491  16.836  0.4809 -2.2954  0.1311
  879MPD2    H112948   1.769   2.516  16.514 -0.8039  0.4451 -1.1790
  879MPD2    H212949   1.875   2.711  16.865 -0.3892 -0.1429  0.0150
  879MPD2    H312950   1.916   2.656  16.635  0.3665  1.7454  1.2510
  879MPD2     N12951   1.569   2.387  16.599 -0.2344 -0.5060  0.3209
  879MPD2    H512952   1.600   2.373  16.503 -2.0110  2.8543 -0.7489
  879MPD2    N112953   1.683   2.632  17.006  0.0025 -0.1664  0.0862
  879MPD2    H712954   1.760   2.683  17.049  0.0362  0.9169 -1.2736
  880MPD2     C12955   2.769   4.150  17.534 -0.5304 -0.4811 -0.2021
  880MPD2    C112956   2.719   4.186  17.654 -0.3765  0.7311 -0.3599
  880MPD2    C212957   2.738   4.106   0.016  0.1677 -0.3698 -0.6273
  880MPD2    C312958   2.807   3.985   0.009  0.9045  0.2798  0.0694
  880MPD2    C412959   2.858   3.946  17.638  0.6983  0.7659 -0.7385
  880MPD2    C512960   2.832   4.026  17.526  0.7768 -0.0068  0.4521
  880MPD2     H12961   2.693   4.129   0.112 -1.0176  1.4976 -1.6399
  880MPD2    H112962   2.917   3.855  17.628 -3.2250 -1.7609 -0.6854
  880MPD2    H212963   2.770   4.216  17.448  0.0945 -1.8962 -1.2816
  880MPD2    H312964   2.864   3.978  17.434  1.8562 -1.6511  1.6861
  880MPD2     N12965   2.830   3.917   0.125  0.0568 -0.1019 -0.2640
  880MPD2    H512966   2.790   3.955   0.210  1.2494  0.5690  0.0030
  880MPD2    N112967   2.656   4.318  17.655 -0.2999 -0.0026  0.3083
  880MPD2    H712968   2.668   4.366  17.566 -2.3130  0.4898  0.3036
  881MPD2     C12969   2.845   0.496  17.315 -0.2045  0.5604  0.6120
  881MPD2    C112970   2.786   0.382  17.266 -0.1684  0.2238  0.2402
  881MPD2    C212971   2.770   0.276  17.365  0.7326 -0.2474  0.0214
  881MPD2    C312972   2.755   0.298  17.498 -0.2469 -0.2560  0.1116
  881MPD2    C412973   2.806   0.417  17.545 -0.1260 -0.2053 -0.5208
  881MPD2    C512974   2.856   0.514  17.456  0.0776 -0.5635  0.0353
  881MPD2     H12975   2.761   0.174  17.331  0.3213 -1.2724  3.2994
  881MPD2    H112976   2.817   0.435  17.651  1.3345 -1.4026 -0.4721
  881MPD2    H212977   2.890   0.573  17.254  0.6727  1.1332  2.0091
  881MPD2    H312978   2.899   0.605  17.496 -0.1426  0.4404 -2.0154
  881MPD2     N12979   2.715   0.197  17.592  0.3090 -0.3091 -0.1220
  881MPD2    H512980   2.682   0.241  17.677 -1.8421  0.3184 -1.2626
  881MPD2    N112981   2.814   0.348  17.127  0.1468 -0.3139 -0.1608
  881MPD2    H712982   2.849   0.423  17.069 -0.3543  0.6773  0.8340
  882MPD2     C12983   1.235   1.709  13.856  0.1312 -0.2608 -0.0268
  882MPD2    C112984   1.167   1.781  13.950  0.1448 -0.4501  0.3561
  882MPD2    C212985   1.034   1.749  13.971 -0.0625 -0.3764 -0.6424
  882MPD2    C312986   0.967   1.648  13.902  0.3957 -0.1763  0.5514
  882MPD2    C412987   1.045   1.568  13.814  0.5190  0.5662 -0.4058
  882MPD2    C512988   1.176   1.608  13.785 -0.2093 -0.3104 -0.0255
  882MPD2     H12989   0.974   1.812  14.037  1.0814  0.6391 -0.5596
  882MPD2    H112990   1.001   1.500  13.742  0.5076 -1.8184  1.8642
  882MPD2    H212991   1.339   1.727  13.828 -0.1032 -0.3384 -0.9282
  882MPD2    H312992   1.231   1.543  13.718 -0.3445 -3.3959  2.8932
  882MPD2     N12993   0.825   1.624  13.907  0.0473 -0.2621  0.0724
  882MPD2    H512994   0.796   1.542  13.855 -2.4147  0.7175 -0.1156
  882MPD2    N112995   1.253   1.874  14.015  0.3603 -0.2129 -0.0784
  882MPD2    H712996   1.351   1.877  13.989  0.4475 -1.2300  0.1402
  883MPD2     C12997   3.340   2.284  15.951 -0.1890  0.1269  0.0526
  883MPD2    C112998   3.423   2.225  15.857 -0.2973 -0.0468  0.7890
  883MPD2    C212999   3.552   2.269  15.855  0.3934  0.6030  0.0557
  883MPD2    C313000   3.600   2.374  15.935 -0.5614  0.1842 -0.2031
  883MPD2    C413001   3.518   2.423  16.036  0.4391 -0.1566  0.2425
  883MPD2    C513002   3.385   2.380  16.044 -0.8400 -0.2879 -0.0566
  883MPD2     H13003   3.619   2.228  15.781  1.4214  2.5541 -0.1045
  883MPD2    H113004   3.546   2.485  16.120 -0.9912 -1.2994  1.5711
  883MPD2    H213005   3.236   2.254  15.948 -0.5277  0.9988  2.6002
  883MPD2    H313006   3.321   2.425  16.118 -0.4945 -0.9115  0.6175
  883MPD2     N13007   3.739   2.406  15.929 -0.3343 -0.4792 -0.4531
  883MPD2    H513008   3.795   2.364  15.855 -0.2122 -0.5731 -0.3059
  883MPD2    N113009   3.386   2.118  15.765 -0.1100  0.1769  0.7650
  883MPD2    H713010   3.454   2.088  15.697  0.4312  0.0277  1.3687
  884MPD2     C13011   0.311   2.263  15.221 -0.0548  0.0177  0.7154
  884MPD2    C113012   0.264   2.313  15.101  0.7435 -0.5133  0.3540
  884MPD2    C213013   0.127   2.325  15.077 -0.5749  0.1051  0.4840
  884MPD2    C313014   0.041   2.292  15.180  0.2615 -0.2363 -0.5458
  884MPD2    C413015   0.087   2.247  15.303 -0.1419 -0.5068  0.1499
  884MPD2    C513016   0.221   2.237  15.326  0.1481  0.0907  0.1603
  884MPD2     H13017   0.100   2.354  14.977  2.0434  1.2656  0.1133
  884MPD2    H113018   0.017   2.206  15.374  1.8480 -2.7188  0.8335
  884MPD2    H213019   0.417   2.265  15.246 -0.3306  0.8829  1.7793
  884MPD2    H313020   0.260   2.212  15.424 -0.0859  1.8232  0.6939
  884MPD2     N13021   4.643   2.303  15.160  0.3020  0.4351 -0.2133
  884MPD2    H513022   4.616   2.357  15.078 -2.2081 -0.5474 -0.0269
  884MPD2    N113023   0.358   2.346  14.997 -0.5887  0.3598 -0.0734
  884MPD2    H713024   0.327   2.376  14.905  0.4250 -0.2648 -0.6140
  885MPD2     C13025   3.894   3.409   0.260 -0.1728  0.3691  1.2393
  885MPD2    C113026   3.879   3.278   0.229  0.2341 -0.7434  0.3997
  885MPD2    C213027   3.827   3.245   0.102  0.0972 -0.9386  1.0374
  885MPD2    C313028   3.794   3.350   0.018 -0.2106  0.2473 -0.6627
  885MPD2    C413029   3.790   3.479   0.061 -0.2884  0.5994 -0.3212
  885MPD2    C513030   3.837   3.509   0.184  0.1526 -0.4413 -0.2865
  885MPD2     H13031   3.809   3.147   0.060 -1.5730 -0.6963  1.1978
  885MPD2    H113032   3.758   3.557  17.743 -2.1332  1.3613  1.3579
  885MPD2    H213033   3.950   3.437   0.348  2.8327  0.1325 -0.6114
  885MPD2    H313034   3.849   3.608   0.227 -3.3639 -0.9019  1.6958
  885MPD2     N13035   3.740   3.319  17.644  0.6222 -0.1772 -0.1650
  885MPD2    H513036   3.733   3.219  17.625  0.2096 -0.2583  0.4418
  885MPD2    N113037   3.921   3.184   0.327  0.2809  0.6345 -0.0046
  885MPD2    H713038   3.958   3.228   0.410 -1.4354  1.2358  0.4366
  886MPD2     C13039   4.504   1.272  15.549 -0.4404  0.2671 -0.2753
  886MPD2    C113040   4.606   1.200  15.495  0.0842 -0.3907 -0.3209
  886MPD2    C213041   4.634   1.216  15.363 -0.1515 -0.3248 -0.0487
  886MPD2    C313042   4.568   1.301  15.276  0.3454  0.1640  0.1560
  886MPD2    C413043   4.459   1.364  15.334  0.6619  0.5124  0.6722
  886MPD2    C513044   4.425   1.345  15.466  0.1232  0.0376 -0.4752
  886MPD2     H13045   4.717   1.159  15.324  0.4203 -0.3159  1.1928
  886MPD2    H113046   4.391   1.421  15.271 -0.1379 -2.2033 -0.9290
  886MPD2    H213047   4.458   1.264  15.647 -1.8217  0.8702 -0.8683
  886MPD2    H313048   4.332   1.386  15.505  0.3741  0.1452  0.0009
  886MPD2     N13049   4.600   1.307  15.137 -1.1084  0.1428 -0.0813
  886MPD2    H513050   4.666   1.242  15.097  0.8151  0.2615  2.9130
  886MPD2    N113051   4.685   1.109  15.559 -0.5341  0.3416 -0.4697
  886MPD2    H713052   0.011   1.058  15.499  0.3039  1.0983 -0.2163
  887MPD2     C13053   0.637   1.122  15.559 -0.4175  0.1511  0.9804
  887MPD2    C113054   0.539   1.190  15.627 -0.5313 -0.8412  0.3488
  887MPD2    C213055   0.547   1.328  15.614 -0.3015 -0.3370  0.3177
  887MPD2    C313056   0.650   1.397  15.549  0.1096 -0.4888  0.5957
  887MPD2    C413057   0.748   1.323  15.493  0.1208 -0.0770 -0.2608
  887MPD2    C513058   0.739   1.189  15.500 -0.1676 -0.3232  0.3407
  887MPD2     H13059   0.459   1.384  15.643  1.2368  2.1429  0.1835
  887MPD2    H113060   0.833   1.361  15.438 -0.8863  1.7696 -0.5471
  887MPD2    H213061   0.654   1.015  15.557 -1.5499  0.0177 -1.3165
  887MPD2    H313062   0.816   1.127  15.454 -0.3664  1.2600 -2.1179
  887MPD2     N13063   0.642   1.536  15.542 -0.1534 -0.0452 -0.1803
  887MPD2    H513064   0.554   1.573  15.577 -0.6846 -1.2522 -0.2589
  887MPD2    N113065   0.434   1.126  15.696  0.3682 -0.1763 -0.4038
  887MPD2    H713066   0.350   1.176  15.723 -0.2436 -0.7260 -1.2924
  888MPD2     C13067   2.193   1.330  14.499 -0.1828  0.7141 -0.1480
  888MPD2    C113068   2.207   1.344  14.639 -0.3184 -0.2070  0.7889
  888MPD2    C213069   2.279   1.440  14.696  0.1381 -0.1604 -0.4998
  888MPD2    C313070   2.340   1.532  14.608 -0.3838  0.1881  0.6740
  888MPD2    C413071   2.326   1.520  14.469  0.0067  0.7947  0.3664
  888MPD2    C513072   2.242   1.425  14.412  0.1519 -0.3966 -0.0634
  888MPD2     H13073   2.288   1.458  14.803 -0.2919 -0.1093 -0.4734
  888MPD2    H113074   2.377   1.584  14.399 -0.0912  0.2345 -0.2161
  888MPD2    H213075   2.128   1.259  14.449  0.3374  1.2765 -1.6564
  888MPD2    H313076   2.240   1.403  14.306  0.1303 -2.1709  0.3030
  888MPD2     N13077   2.417   1.632  14.663  0.9402 -0.2090  0.1686
  888MPD2    H513078   2.398   1.652  14.761 -1.2050 -0.7692 -0.1287
  888MPD2    N113079   2.153   1.255  14.733  0.8570  0.3920  0.5662
  888MPD2    H713080   2.187   1.272  14.827  1.5372  1.3984  0.1383
  889MPD2     C13081   1.560   1.049  12.189  0.6211 -0.6984 -0.5569
  889MPD2    C113082   1.559   1.028  12.323  0.1293  0.1773  0.0407
  889MPD2    C213083   1.575   1.143  12.397  0.5477  0.8614  0.5776
  889MPD2    C313084   1.555   1.273  12.345  0.1581 -0.2599 -1.2786
  889MPD2    C413085   1.527   1.284  12.206  0.2836  0.2417 -0.1139
  889MPD2    C513086   1.530   1.165  12.131 -0.3560 -0.2160 -0.3320
  889MPD2     H13087   1.573   1.135  12.505 -0.5764  3.2692  0.7419
  889MPD2    H113088   1.495   1.377  12.162  0.4275  0.7615  0.8867
  889MPD2    H213089   1.556   0.959  12.128 -1.6547 -2.4445  2.1550
  889MPD2    H313090   1.501   1.154  12.027  1.5027 -1.4580 -0.7145
  889MPD2     N13091   1.561   1.384  12.433  0.0042 -0.3392  0.3224
  889MPD2    H513092   1.599   1.362  12.525  0.5205  1.1689  0.4739
  889MPD2    N113093   1.589   0.901  12.386 -0.3117  0.0929 -0.6097
  889MPD2    H713094   1.608   0.905  12.486  0.0410 -1.3960 -0.6097
  890MPD2     C13095   1.154   2.781  14.438  0.3157  0.0639 -0.0221
  890MPD2    C113096   1.253   2.829  14.526 -0.6099  0.3387 -0.2969
  890MPD2    C213097   1.330   2.733  14.586  1.1627 -0.1789 -0.5457
  890MPD2    C313098   1.302   2.599  14.574  0.4483 -0.2761  0.3860
  890MPD2    C413099   1.198   2.555  14.494  0.1078  0.2910  0.0266
  890MPD2    C513100   1.128   2.648  14.422  0.5446  0.0991  0.3206
  890MPD2     H13101   1.418   2.759  14.644  1.2984 -1.5513 -0.1249
  890MPD2    H113102   1.156   2.456  14.493 -1.0989  0.7879  1.1424
  890MPD2    H213103   1.086   2.846  14.385 -1.6547 -1.5055  0.5834
  890MPD2    H313104   1.053   2.610  14.355  0.8444  1.3980 -0.7490
  890MPD2     N13105   1.389   2.512  14.637 -0.0203  0.0390  0.1533
  890MPD2    H513106   1.462   2.557  14.690 -0.3303  0.0138  0.6005
  890MPD2    N113107   1.252   2.969  14.547  0.5936 -0.3301  0.2762
  890MPD2    H713108   1.180   3.020  14.497 -0.3535 -2.5112 -0.5584
  891MPD2     C13109   4.217   1.408  16.133 -0.0352  0.3122 -0.2789
  891MPD2    C113110   4.161   1.476  16.241  0.3384  0.1665  0.5748
  891MPD2    C213111   4.222   1.466  16.366 -0.1030 -0.7122 -0.4303
  891MPD2    C313112   4.336   1.395  16.384  0.5719  0.0626  0.2964
  891MPD2    C413113   4.387   1.323  16.277 -0.5615 -0.2257 -0.6196
  891MPD2    C513114   4.321   1.325  16.152  0.9324  0.0700 -0.2460
  891MPD2     H13115   4.184   1.511  16.457  1.0687  0.3522 -0.4600
  891MPD2    H113116   4.480   1.268  16.286 -0.3580  0.2918  0.3918
  891MPD2    H213117   4.180   1.403  16.031 -0.1095 -2.2303 -0.1272
  891MPD2    H313118   4.351   1.273  16.061  2.7359  0.9606 -0.1565
  891MPD2     N13119   4.393   1.402  16.512  0.3301 -0.4366 -0.6360
  891MPD2    H513120   4.349   1.464  16.580  0.6961  1.8558 -2.4675
  891MPD2    N113121   4.042   1.545  16.218  0.4831  0.4778  0.4166
  891MPD2    H713122   4.013   1.534  16.121 -0.2364  1.2945  0.5409
  892MPD2     C13123   0.279   1.758  14.730 -0.0484  0.4006 -0.4438
  892MPD2    C113124   0.187   1.773  14.623  1.1237 -0.2024 -0.1032
  892MPD2    C213125   0.218   1.732  14.496 -0.5675 -0.0361 -0.9410
  892MPD2    C313126   0.350   1.695  14.466  0.0998 -0.1787 -0.2878
  892MPD2    C413127   0.443   1.698  14.569  0.1191 -0.0190  0.2275
  892MPD2    C513128   0.407   1.725  14.698 -0.2825 -0.8261 -0.9308
  892MPD2     H13129   0.152   1.745  14.411 -0.4216  0.8215 -0.9232
  892MPD2    H113130   0.546   1.683  14.537  0.0266  0.9791 -0.5395
  892MPD2    H213131   0.250   1.768  14.834 -0.1241  1.2730 -0.5478
  892MPD2    H313132   0.487   1.739  14.770 -1.0488 -0.8234 -0.0805
  892MPD2     N13133   0.401   1.675  14.337  0.2643 -0.6628 -0.4895
  892MPD2    H513134   0.498   1.644  14.333  0.0351 -1.4242 -0.1421
  892MPD2    N113135   0.051   1.808  14.645  0.2394  0.1036 -0.0836
  892MPD2    H713136   4.738   1.838  14.563 -0.7049  0.4229  0.6410
  893MPD2     C13137   1.446   0.723   0.756  0.3473  0.2270  0.7534
  893MPD2    C113138   1.460   0.800   0.864  0.1660  0.2540  0.0064
  893MPD2    C213139   1.345   0.817   0.946  0.1127 -0.3102  0.0352
  893MPD2    C313140   1.231   0.748   0.920 -0.4338 -0.6374 -0.7286
  893MPD2    C413141   1.217   0.665   0.812  0.9450  0.1772 -0.0467
  893MPD2    C513142   1.329   0.656   0.732  0.2298  0.1557 -0.9880
  893MPD2     H13143   1.350   0.896   1.021  0.7917 -0.3273  0.0062
  893MPD2    H113144   1.131   0.604   0.787  1.4079 -1.2096  1.6839
  893MPD2    H213145   1.528   0.723   0.685  0.1537  1.7420  0.5334
  893MPD2    H313146   1.330   0.600   0.639  2.1222  2.6269 -2.4479
  893MPD2     N13147   1.116   0.766   1.001 -0.2356 -0.2507  0.6467
  893MPD2    H513148   1.037   0.708   0.976 -0.9738  0.5302  1.2031
  893MPD2    N113149   1.586   0.864   0.879 -0.2006 -0.7917  0.1029
  893MPD2    H713150   1.662   0.847   0.813  0.2362  0.1065  0.3777
  894MPD2     C13151   4.503   2.563   1.320  0.5664 -0.7022  0.6148
  894MPD2    C113152   4.459   2.691   1.321 -0.0280 -0.2667  0.6695
  894MPD2    C213153   4.520   2.784   1.238 -0.6737  0.2659 -0.3747
  894MPD2    C313154   4.643   2.756   1.188  0.3146 -0.0056  0.4678
  894MPD2    C413155   4.689   2.622   1.185  0.2072 -0.3578 -0.3407
  894MPD2    C513156   4.612   2.528   1.252  0.7349  0.3552 -0.6729
  894MPD2     H13157   4.478   2.883   1.221 -0.1804  0.3619 -1.0029
  894MPD2    H113158   0.040   2.597   1.130  0.6700  0.9420 -0.1966
  894MPD2    H213159   4.457   2.482   1.377 -1.4623 -0.5389 -0.7786
  894MPD2    H313160   4.635   2.423   1.241 -2.0746 -0.3598  0.2713
  894MPD2     N13161   4.714   2.860   1.119  0.1518  0.0183 -0.0956
  894MPD2    H513162   4.664   2.945   1.095 -2.3899 -1.1981  0.8543
  894MPD2    N113163   4.335   2.721   1.379 -0.0500 -0.4338  0.0346
  894MPD2    H713164   4.310   2.819   1.372  0.9487 -0.2910 -1.5531
  895MPD2     C13165   3.803   0.742  12.562  0.6901  0.2923 -0.1299
  895MPD2    C113166   3.700   0.771  12.649  0.5438 -0.6681  0.5478
  895MPD2    C213167   3.605   0.671  12.681 -0.3589  0.3777  0.2281
  895MPD2    C313168   3.607   0.543  12.620 -0.0328  0.0295 -0.2882
  895MPD2    C413169   3.706   0.520  12.522  0.5988  0.1830  0.1677
  895MPD2    C513170   3.795   0.617  12.499 -0.4105 -0.4850  0.1412
  895MPD2     H13171   3.523   0.701  12.744  2.1482  3.1194  2.2135
  895MPD2    H113172   3.712   0.430  12.461  1.3109  1.2247 -1.2910
  895MPD2    H213173   3.881   0.809  12.529 -0.4029  1.8347  0.4166
  895MPD2    H313174   3.881   0.598  12.436  1.7203  2.4986  2.0969
  895MPD2     N13175   3.508   0.452  12.654  0.7398 -0.4555 -0.0300
  895MPD2    H513176   3.430   0.484  12.711 -1.1208 -1.1959 -2.1988
  895MPD2    N113177   3.673   0.903  12.703 -0.3876 -0.4737 -0.0037
  895MPD2    H713178   3.584   0.914  12.752 -0.6477  2.1031 -1.0222
  896MPD2     C13179   2.317   3.467   1.712  0.5550  0.7155  0.2867
  896MPD2    C113180   2.289   3.433   1.578  0.2258 -0.0724  0.7655
  896MPD2    C213181   2.193   3.333   1.561 -0.1596  0.0787  0.3135
  896MPD2    C313182   2.125   3.269   1.666 -0.0697 -0.6304 -0.3381
  896MPD2    C413183   2.151   3.317   1.795  0.5383  0.6398 -0.4332
  896MPD2    C513184   2.248   3.414   1.817 -0.2809 -0.3206  0.6840
  896MPD2     H13185   2.158   3.303   1.463  1.0228  1.4247 -0.5241
  896MPD2    H113186   2.093   3.275   1.876 -0.7641 -0.2695 -1.8328
  896MPD2    H213187   2.379   3.551   1.740  0.5803  0.5327  0.7701
  896MPD2    H313188   2.279   3.441   1.917 -0.0853  0.7810  0.3182
  896MPD2     N13189   2.018   3.177   1.645  0.7597 -0.2869 -0.3395
  896MPD2    H513190   1.964   3.151   1.727 -0.9919 -0.2094 -1.4676
  896MPD2    N113191   2.333   3.516   1.479  0.1561 -0.2933  0.1736
  896MPD2    H713192   2.378   3.602   1.506 -0.5945  0.5529 -1.2514
  897MPD2     C13193   2.911   0.748  10.493 -0.4117 -0.4228 -0.2917
  897MPD2    C113194   2.848   0.869  10.490 -0.5605 -0.7132  0.6873
  897MPD2    C213195   2.754   0.898  10.595  0.1773 -0.0646  0.1918
  897MPD2    C313196   2.711   0.802  10.681  0.2317  0.7959  0.1005
  897MPD2    C413197   2.788   0.687  10.689  0.2531  0.0836 -0.1406
  897MPD2    C513198   2.885   0.660  10.599  0.3438 -0.0502 -0.4452
  897MPD2     H13199   2.700   0.992  10.600  0.0450 -0.0792 -0.9330
  897MPD2    H113200   2.776   0.617  10.771 -0.0484 -0.6734 -0.8250
  897MPD2    H213201   2.974   0.721  10.409 -1.1403  1.3942 -1.4230
  897MPD2    H313202   2.946   0.572  10.616  1.6578  1.0609  0.5639
  897MPD2     N13203   2.603   0.823  10.777 -0.0863 -0.0606 -0.4678
  897MPD2    H513204   2.563   0.915  10.761 -0.6263 -0.4644 -1.4894
  897MPD2    N113205   2.883   0.956  10.387 -0.3780 -0.4721 -0.2111
  897MPD2    H713206   2.935   0.914  10.311  0.7943 -0.5875  0.6608
  898MPD2     C13207   4.382   1.243  17.452  0.4159  0.3213  0.3431
  898MPD2    C113208   4.481   1.322  17.507 -0.3063 -0.0026  0.4081
  898MPD2    C213209   4.497   1.455  17.471 -0.0011 -0.3397 -0.8052
  898MPD2    C313210   4.402   1.505  17.385  0.0999  0.5334  0.0137
  898MPD2    C413211   4.308   1.425  17.328 -0.1544  0.2227  0.1677
  898MPD2    C513212   4.293   1.293  17.357 -0.4704  0.0430  0.5964
  898MPD2     H13213   4.585   1.513  17.498 -1.4744  1.2752  0.4767
  898MPD2    H113214   4.244   1.472  17.255 -2.3785 -1.0520  1.3123
  898MPD2    H213215   4.379   1.135  17.463 -1.4604  0.3750  0.2524
  898MPD2    H313216   4.234   1.224  17.298 -1.1944  0.8860  0.3401
  898MPD2     N13217   4.398   1.635  17.334  0.3441  0.0742 -0.0751
  898MPD2    H513218   4.365   1.641  17.238  0.5457 -0.0946 -0.1561
  898MPD2    N113219   4.584   1.280  17.597 -0.0205 -0.2800  0.0670
  898MPD2    H713220   4.654   1.345  17.630 -0.6522  1.4492 -2.0270
  899MPD2     C13221   0.870   1.883  17.083  0.0880  0.3494 -0.0381
  899MPD2    C113222   0.835   1.981  17.176 -0.3105 -0.0321 -0.2046
  899MPD2    C213223   0.763   1.944  17.283  0.0811 -0.6909 -0.2712
  899MPD2    C313224   0.726   1.812  17.311  0.7171 -0.0512  0.5748
  899MPD2    C413225   0.779   1.713  17.223  0.2360  0.3439  0.8183
  899MPD2    C513226   0.842   1.751  17.108  0.4225 -0.7964  0.6268
  899MPD2     H13227   0.715   2.017  17.349  0.0974  0.4161 -1.4940
  899MPD2    H113228   0.759   1.606  17.225  0.2447  0.3456  1.0232
  899MPD2    H213229   0.938   1.899  17.000  0.9039 -0.0496  0.5530
  899MPD2    H313230   0.879   1.674  17.041  0.2774 -0.8815  0.6447
  899MPD2     N13231   0.642   1.780  17.420 -0.1067  0.0090  0.6839
  899MPD2    H513232   0.621   1.858  17.482  1.6054  0.1476  1.1053
  899MPD2    N113233   0.871   2.114  17.149  0.7208 -0.3654 -0.2674
  899MPD2    H713234   0.921   2.135  17.063  0.2595 -0.4120 -0.5472
  900MPD2     C13235   0.885   3.768  12.611  0.0011  0.1698  0.5723
  900MPD2    C113236   0.760   3.702  12.625  0.2131  0.5140  0.0102
  900MPD2    C213237   0.641   3.769  12.602 -0.1441 -0.3685 -0.3508
  900MPD2    C313238   0.638   3.901  12.562 -0.0826  0.7278 -0.0984
  900MPD2    C413239   0.763   3.966  12.554  0.3906 -0.8541  0.4707
  900MPD2    C513240   0.881   3.895  12.573  0.5958 -0.8274  0.1053
  900MPD2     H13241   0.544   3.722  12.616  0.1200 -0.9975 -0.6626
  900MPD2    H113242   0.779   4.070  12.528 -3.1356  0.7797  4.7552
  900MPD2    H213243   0.976   3.724  12.650 -1.7781 -1.2904  3.0542
  900MPD2    H313244   0.973   3.952  12.562 -1.0712  2.1436  1.7017
  900MPD2     N13245   0.516   3.970  12.533 -0.1267 -0.6509 -0.2680
  900MPD2    H513246   0.431   3.914  12.538 -1.0885  0.7153 -1.5289
  900MPD2    N113247   0.772   3.564  12.650 -0.3083  0.5325 -0.0032
  900MPD2    H713248   0.867   3.530  12.657 -0.7472 -0.2350  2.4556
  901MPD2     C13249   0.214   2.612  12.690  0.3453 -0.1622 -0.0849
  901MPD2    C113250   0.343   2.572  12.662  0.5668  0.2708  0.5210
  901MPD2    C213251   0.446   2.670  12.662 -0.4099 -0.2219 -0.6474
  901MPD2    C313252   0.425   2.801  12.700 -0.2032 -0.4121 -0.0392
  901MPD2    C413253   0.290   2.837  12.706 -0.5711  0.4270 -0.7551
  901MPD2    C513254   0.193   2.740  12.721 -0.1513 -0.0671 -0.0733
  901MPD2     H13255   0.547   2.645  12.634 -0.2391 -1.5353  1.1386
  901MPD2    H113256   0.261   2.939  12.725  0.4511  0.3773  1.0474
  901MPD2    H213257   0.122   2.555  12.698 -0.0429  0.4139 -0.5101
  901MPD2    H313258   0.093   2.763  12.756 -0.7347 -0.9130 -1.1824
  901MPD2     N13259   0.535   2.891  12.705  0.0703  0.1732 -0.1907
  901MPD2    H513260   0.626   2.857  12.677  0.1748  0.3778 -0.1002
  901MPD2    N113261   0.366   2.437  12.638  0.0359  0.6839 -0.5356
  901MPD2    H713262   0.286   2.380  12.664 -1.6869  1.4625 -4.1060
  902MPD2     C13263   4.281   1.560  12.856 -0.4942  0.5595 -0.4085
  902MPD2    C113264   4.271   1.679  12.788 -0.2072  0.6198  0.0561
  902MPD2    C213265   4.240   1.684  12.653 -0.8417  0.2525  0.1267
  902MPD2    C313266   4.225   1.559  12.588  0.9113 -0.7959 -0.2688
  902MPD2    C413267   4.239   1.442  12.662 -0.5007  0.3136  0.3335
  902MPD2    C513268   4.260   1.440  12.797 -0.1955 -0.6093  0.0995
  902MPD2     H13269   4.243   1.771  12.588 -0.1752 -0.1727 -0.4096
  902MPD2    H113270   4.225   1.348  12.609 -0.1372 -0.5719  1.7854
  902MPD2    H213271   4.314   1.564  12.960 -2.9038 -2.9370  0.4718
  902MPD2    H313272   4.280   1.348  12.851 -2.6094 -0.5331  1.1277
  902MPD2     N13273   4.192   1.547  12.449  0.3041 -0.4144  0.7024
  902MPD2    H513274   4.174   1.454  12.414  1.5251 -0.4379  0.1291
  902MPD2    N113275   4.300   1.801  12.846  0.4222 -0.4602  0.1388
  902MPD2    H713276   4.352   1.799  12.934 -0.0285  0.2370  0.4246
  903MPD2     C13277   4.114   1.967  11.649 -0.0234  0.0638  0.1901
  903MPD2    C113278   4.022   1.908  11.734  0.0923  0.1436 -0.4197
  903MPD2    C213279   3.888   1.937  11.716 -0.4934 -0.0121  0.4232
  903MPD2    C313280   3.854   2.034  11.625  0.3328  0.0467 -1.0024
  903MPD2    C413281   3.946   2.097  11.544 -0.0568 -0.3288  0.2584
  903MPD2    C513282   4.079   2.057  11.554  0.0957 -0.2751  0.1507
  903MPD2     H13283   3.807   1.891  11.771  0.2521 -1.4349  0.3236
  903MPD2    H113284   3.924   2.163  11.461 -2.3754  1.4998  2.3567
  903MPD2    H213285   4.220   1.943  11.651  0.3637  1.8271  0.7409
  903MPD2    H313286   4.156   2.093  11.488 -0.9305 -0.7704 -1.3205
  903MPD2     N13287   3.716   2.063  11.607  0.0581 -0.9065 -0.7007
  903MPD2    H513288   3.650   2.003  11.657  1.2891 -0.8561  0.9826
  903MPD2    N113289   4.062   1.811  11.828  0.1327  0.1966  0.1374
  903MPD2    H713290   4.162   1.796  11.838  0.1908  1.2140  1.1611
  904MPD2     C13291   3.537   0.126  13.863 -0.0867 -0.3904  0.4544
  904MPD2    C113292   3.628   0.194  13.787 -0.6255  0.9285  0.2018
  904MPD2    C213293   3.763   0.159  13.794  0.2230 -0.7437 -0.2456
  904MPD2    C313294   3.799   0.051  13.870 -0.4872  0.6072 -1.1154
  904MPD2    C413295   3.703   4.711  13.934  0.3029 -0.1259  0.2992
  904MPD2    C513296   3.578   0.020  13.942  0.1811 -0.1205 -0.7486
  904MPD2     H13297   3.827   0.206  13.720  3.2583 -3.6252  0.5613
  904MPD2    H113298   3.736   4.626  13.992  0.2531  0.0170  0.5381
  904MPD2    H213299   3.431   0.150  13.869  0.4729  1.6663  1.9769
  904MPD2    H313300   3.502   4.694  13.985 -0.4289  0.3243 -1.1640
  904MPD2     N13301   3.936   0.022  13.888 -0.2656  0.3146 -0.3053
  904MPD2    H513302   3.961   4.669  13.926 -2.6464  0.4666  1.6082
  904MPD2    N113303   3.600   0.302  13.701  0.1214 -0.5613 -0.5345
  904MPD2    H713304   3.680   0.343  13.654  0.9458  1.7287  2.8193
  905MPD2     C13305   3.096   0.810  13.095  0.4676 -0.8710 -0.6749
  905MPD2    C113306   3.134   0.687  13.150 -0.2537 -0.5271  0.9201
  905MPD2    C213307   3.139   0.572  13.074  0.2662  0.9693  0.1171
  905MPD2    C313308   3.089   0.580  12.946  0.6197  0.7514  0.4388
  905MPD2    C413309   3.054   0.702  12.892 -0.1354  0.1731  0.1275
  905MPD2    C513310   3.054   0.809  12.967 -0.1111  0.4801 -0.3710
  905MPD2     H13311   3.183   0.479  13.110  0.3453  0.4760 -1.2702
  905MPD2    H113312   3.022   0.720  12.790 -1.1428  1.8825  0.7501
  905MPD2    H213313   3.110   0.902  13.150  2.1060 -0.3661 -1.9492
  905MPD2    H313314   3.029   0.904  12.920  2.2061  1.8751  1.2137
  905MPD2     N13315   3.094   0.471  12.857 -0.2403  0.8739  0.3426
  905MPD2    H513316   3.082   0.486  12.757 -2.9916  2.3982  0.9087
  905MPD2    N113317   3.202   0.699  13.267 -0.3824 -0.1336  0.2588
  905MPD2    H713318   3.217   0.786  13.318 -0.4724 -0.6439  1.1468
  906MPD2     C13319   1.321   0.942  11.294  0.1060 -0.1928  0.1848
  906MPD2    C113320   1.350   0.841  11.199 -0.3664 -0.0053  0.1390
  906MPD2    C213321   1.331   0.712  11.237  0.1834 -0.0657  0.2768
  906MPD2    C313322   1.270   0.675  11.362  0.0564 -0.0826 -0.2254
  906MPD2    C413323   1.217   0.773  11.433 -0.0345  0.9904  1.5445
  906MPD2    C513324   1.241   0.901  11.401  0.4610 -0.2101  0.3235
  906MPD2     H13325   1.373   0.637  11.172  2.6565  0.4204  1.3188
  906MPD2    H113326   1.164   0.762  11.526  0.2428 -2.0639  1.3496
  906MPD2    H213327   1.347   1.046  11.280 -2.9200  0.6162  0.4245
  906MPD2    H313328   1.199   0.972  11.471 -1.8705 -0.1755 -1.1047
  906MPD2     N13329   1.252   0.542  11.404  0.7943  0.1871  0.4366
  906MPD2    H513330   1.187   0.543  11.482 -0.4705 -2.2522 -0.5747
  906MPD2    N113331   1.406   0.880  11.075 -0.1175  0.4973  0.7319
  906MPD2    H713332   1.436   0.809  11.009 -0.3458 -0.7996  2.0126
  907MPD2     C13333   0.335   4.611  15.597 -0.7762 -0.1807  0.0674
  907MPD2    C113334   0.318   4.480  15.585  0.0761 -1.0867 -1.0569
  907MPD2    C213335   0.364   4.401  15.690 -0.4482 -0.1648 -0.7442
  907MPD2    C313336   0.457   4.448  15.781 -0.8878  0.1240  0.2591
  907MPD2    C413337   0.493   4.582  15.769  0.4534  0.0942 -0.8184
  907MPD2    C513338   0.422   4.669  15.683  0.1076  0.0629 -0.6854
  907MPD2     H13339   0.341   4.296  15.702 -0.7055  0.0605  0.7648
  907MPD2    H113340   0.575   4.625  15.824 -0.3050  0.8209 -0.2619
  907MPD2    H213341   0.296   4.685  15.527  4.2931  1.3186 -1.1455
  907MPD2    H313342   0.448   0.035  15.674  0.7594 -0.0004  0.6003
  907MPD2     N13343   0.519   4.365  15.876  0.1371  0.6127 -0.0359
  907MPD2    H513344   0.479   4.272  15.889  1.6726 -0.0987 -0.3774
  907MPD2    N113345   0.231   4.421  15.488  0.2071  0.3411 -0.1622
  907MPD2    H713346   0.223   4.320  15.490  0.9645  0.2513 -2.4668
  908MPD2     C13347   3.099   0.774   9.606 -0.1664 -0.1688  0.2419
  908MPD2    C113348   3.037   0.724   9.717 -0.2491 -0.6050  0.0173
  908MPD2    C213349   3.046   0.797   9.839 -0.6860 -0.4068 -0.3543
  908MPD2    C313350   3.119   0.914   9.850 -0.5667 -0.2806  0.0854
  908MPD2    C413351   3.169   0.966   9.729 -0.0912  0.1371 -0.6260
  908MPD2    C513352   3.156   0.896   9.615  0.5293  0.9928  0.3424
  908MPD2     H13353   2.995   0.762   9.929  1.3074  0.8570  1.2744
  908MPD2    H113354   3.213   1.065   9.732 -1.1085  0.6126 -1.3599
  908MPD2    H213355   3.098   0.725   9.510  1.5883 -1.6359  0.9793
  908MPD2    H313356   3.204   0.942   9.529  1.1880  1.5733  1.0215
  908MPD2     N13357   3.107   0.985   9.976  0.1391  0.1571  0.2621
  908MPD2    H513358   3.069   0.931  10.053 -0.1983 -0.8933 -0.6383
  908MPD2    N113359   2.986   0.592   9.704 -0.3576  0.4018 -0.1324
  908MPD2    H713360   2.995   0.564   9.607  0.4476 -0.0562  0.0739
  909MPD2     C13361   3.099   3.653  11.977  0.4942 -0.2132 -0.0017
  909MPD2    C113362   3.060   3.769  11.908 -0.4830 -0.4774  0.0367
  909MPD2    C213363   2.946   3.830  11.948 -0.6259 -0.0954  0.3552
  909MPD2    C313364   2.873   3.783  12.055 -0.1559  0.1647  0.0466
  909MPD2    C413365   2.910   3.666  12.118 -0.2784  0.4340  0.6360
  909MPD2    C513366   3.025   3.598  12.081 -0.2857  0.2908  0.2002
  909MPD2     H13367   2.916   3.919  11.894 -1.4109  0.9128  2.4606
  909MPD2    H113368   2.838   3.603  12.170  0.6696 -1.1919 -0.0089
  909MPD2    H213369   3.186   3.594  11.952  0.4889 -0.6166  0.9490
  909MPD2    H313370   3.038   3.500  12.125  0.6594 -0.0086 -0.7278
  909MPD2     N13371   2.757   3.856  12.081 -0.1818 -0.2554 -0.3350
  909MPD2    H513372   2.733   3.932  12.017 -0.8271  0.7848  1.1448
  909MPD2    N113373   3.128   3.815  11.792  0.0318 -0.3673 -0.1657
  909MPD2    H713374   3.098   3.902  11.750  0.0774 -0.0884  0.3958
  910MPD2     C13375   4.144   0.278  15.707  0.3899  0.0541 -0.0196
  910MPD2    C113376   4.240   0.250  15.611  0.2593  0.4635 -0.0677
  910MPD2    C213377   4.222   0.302  15.481 -0.7440  0.5470  0.4601
  910MPD2    C313378   4.113   0.384  15.448  0.3375  0.2176  0.1479
  910MPD2    C413379   4.025   0.415  15.549 -0.2244 -0.9614  0.5161
  910MPD2    C513380   4.046   0.368  15.670 -0.5945  0.0187  0.0946
  910MPD2     H13381   4.289   0.270  15.402 -1.8697 -1.2137  0.2208
  910MPD2    H113382   3.942   0.481  15.525 -2.0865 -2.7952  1.9662
  910MPD2    H213383   4.146   0.220  15.798  0.8878 -1.8944 -1.2604
  910MPD2    H313384   3.964   0.391  15.737 -0.5247 -1.1753  0.6000
  910MPD2     N13385   4.085   0.429  15.318 -0.1767 -0.3316  0.5130
  910MPD2    H513386   3.996   0.473  15.300 -0.0164 -0.6924 -1.1217
  910MPD2    N113387   4.352   0.171  15.630 -0.6546 -0.0286 -0.0510
  910MPD2    H713388   4.399   0.144  15.545 -1.3153  1.7461 -0.9584
  911MPD2     C13389   2.692   0.505  16.219 -0.2383  0.0874 -0.3097
  911MPD2    C113390   2.714   0.642  16.249  0.1869  0.4122 -0.7028
  911MPD2    C213391   2.604   0.725  16.269 -0.4551 -0.2609 -0.5178
  911MPD2    C313392   2.475   0.679  16.245 -0.4103 -0.1774 -0.0798
  911MPD2    C413393   2.453   0.544  16.223 -0.3091 -0.6270  0.0702
  911MPD2    C513394   2.559   0.465  16.205 -0.3672 -0.1186 -0.0509
  911MPD2     H13395   2.617   0.832  16.275 -3.2194  0.1018 -0.7108
  911MPD2    H113396   2.353   0.506  16.205 -1.3180  1.5331  1.0381
  911MPD2    H213397   2.771   0.431  16.223 -1.8689 -1.6564 -0.2298
  911MPD2    H313398   2.539   0.359  16.191  2.8174 -0.5886 -1.0202
  911MPD2     N13399   2.360   0.763  16.239 -0.8081  0.0091  0.5776
  911MPD2    H513400   2.281   0.718  16.193 -1.0331 -0.2907  1.2613
  911MPD2    N113401   2.850   0.698  16.243  0.3294  0.5931  0.2453
  911MPD2    H713402   2.925   0.641  16.205  1.4358  3.6538 -2.0867
  912MPD2     C13403   2.098   0.506  15.683 -0.7587 -0.4962  0.6540
  912MPD2    C113404   2.055   0.541  15.812  0.5364 -0.2687  0.4638
  912MPD2    C213405   1.984   0.450  15.888 -0.3021 -0.5690  0.2911
  912MPD2    C313406   1.957   0.319  15.842  0.2335 -0.1301 -0.1632
  912MPD2    C413407   2.004   0.283  15.718 -0.2796 -0.4218 -0.5011
  912MPD2    C513408   2.071   0.379  15.642 -0.3250 -0.0253 -0.6154
  912MPD2     H13409   1.944   0.490  15.981 -0.5749 -2.1112  0.8417
  912MPD2    H113410   1.981   0.191  15.666  0.6157 -1.1062  0.3283
  912MPD2    H213411   2.145   0.573  15.612 -1.1354  1.0833  1.8760
  912MPD2    H313412   2.094   0.360  15.538 -1.7356  0.8578 -1.0893
  912MPD2     N13413   1.909   0.231  15.940  0.2947  0.0695 -0.2198
  912MPD2    H513414   1.887   0.274  16.029 -0.4879 -0.1153 -0.3272
  912MPD2    N113415   2.097   0.664  15.864 -0.0321 -0.3919 -0.0865
  912MPD2    H713416   2.133   0.722  15.790 -0.6165 -0.8133 -0.7118
  913MPD2     C13417   3.020   2.429  10.490 -0.2575 -0.0253  0.3529
  913MPD2    C113418   3.030   2.540  10.569  0.4068 -0.2721 -0.0852
  913MPD2    C213419   3.035   2.664  10.508  0.0416 -0.0198 -0.2424
  913MPD2    C313420   3.015   2.681  10.373 -0.0108 -0.1857  0.4502
  913MPD2    C413421   3.019   2.567  10.299  0.7939  0.8809 -0.0154
  913MPD2    C513422   3.027   2.446  10.355  0.9151 -0.2005  0.3639
  913MPD2     H13423   3.027   2.752  10.570  0.3055  1.2123 -1.9409
  913MPD2    H113424   2.989   2.577  10.196  0.6744 -2.7935 -0.3122
  913MPD2    H213425   3.017   2.327  10.528  2.3334 -0.8790 -1.7285
  913MPD2    H313426   3.015   2.355  10.296  1.2673 -0.6989  1.0567
  913MPD2     N13427   3.004   2.800  10.300  0.4254  0.3186 -1.1812
  913MPD2    H513428   3.005   2.794  10.199  1.1750 -2.3547 -1.0056
  913MPD2    N113429   3.020   2.513  10.711 -0.7520 -0.5847  0.6689
  913MPD2    H713430   2.994   2.418  10.735 -1.4407 -0.5087  0.2132
  914MPD2     C13431   4.693   2.111  12.003 -0.2656 -0.0275  0.2927
  914MPD2    C113432   0.021   2.223  12.035 -0.3588  0.3365 -1.0886
  914MPD2    C213433   0.100   2.221  12.143  0.3387 -0.1900 -0.9161
  914MPD2    C313434   0.114   2.108  12.223  0.0486  0.5266  0.0845
  914MPD2    C413435   0.026   1.997  12.196 -0.0287 -0.4886 -0.2087
  914MPD2    C513436   4.693   2.002  12.086 -0.3300 -0.6666  0.9208
  914MPD2     H13437   0.174   2.299  12.159  0.0237  0.1071 -0.9053
  914MPD2    H113438   0.023   1.900  12.245  0.5863 -1.9603 -3.0681
  914MPD2    H213439   4.620   2.105  11.923 -2.8502  1.2725  2.5469
  914MPD2    H313440   4.622   1.924  12.062 -2.2254  1.6941 -1.1029
  914MPD2     N13441   0.218   2.113  12.316 -0.3018 -0.0757  0.6516
  914MPD2    H513442   0.262   2.204  12.324 -1.0366  0.0435  3.3494
  914MPD2    N113443   0.017   2.326  11.947 -0.3335 -0.4934 -0.1511
  914MPD2    H713444   4.721   2.301  11.855 -3.5110  3.0053  0.0868
  915MPD2     C13445   3.265   2.633  15.764 -0.2316  0.4187 -0.5608
  915MPD2    C113446   3.154   2.564  15.815  0.4826  0.4005 -0.5922
  915MPD2    C213447   3.076   2.605  15.923 -0.1455 -0.3032 -0.0110
  915MPD2    C313448   3.118   2.715  15.999  0.0568  0.8944 -0.7623
  915MPD2    C413449   3.225   2.794  15.943 -0.1411 -0.2489 -0.3773
  915MPD2    C513450   3.298   2.745  15.831 -0.4165 -0.8149  0.2009
  915MPD2     H13451   2.988   2.551  15.955 -1.0117  0.0627 -1.8042
  915MPD2    H113452   3.258   2.887  15.989 -1.9054  0.8111 -1.2568
  915MPD2    H213453   3.310   2.607  15.669  2.2791 -0.1007  0.7766
  915MPD2    H313454   3.374   2.813  15.792 -1.4879  0.2790  0.0283
  915MPD2     N13455   3.052   2.748  16.120  0.3754  0.4479 -0.7143
  915MPD2    H513456   2.965   2.696  16.134  0.4681  0.6478  0.6167
  915MPD2    N113457   3.120   2.444  15.743 -0.8262 -0.5444 -0.0309
  915MPD2    H713458   3.175   2.436  15.658  0.2427 -1.2340  0.7252
  916MPD2     C13459   1.842   1.012  15.690 -0.1813 -0.4892 -0.6323
  916MPD2    C113460   1.789   0.896  15.751  0.8024 -0.0013  0.3666
  916MPD2    C213461   1.813   0.771  15.691  0.8993  0.4356 -0.5564
  916MPD2    C313462   1.867   0.769  15.565 -0.0672  0.3473  0.2734
  916MPD2    C413463   1.922   0.883  15.508  0.2370  0.8700 -0.6020
  916MPD2    C513464   1.905   1.004  15.570  0.8079 -0.3315  0.9603
  916MPD2     H13465   1.765   0.682  15.729  1.4553  0.4396  0.1511
  916MPD2    H113466   1.979   0.885  15.417  1.7513  1.2264  0.3606
  916MPD2    H213467   1.837   1.108  15.739 -0.5499 -1.8509  2.0069
  916MPD2    H313468   1.943   1.093  15.522  0.5778  0.5395  2.4014
  916MPD2     N13469   1.850   0.647  15.497 -0.1876  0.0537  0.7391
  916MPD2    H513470   1.776   0.590  15.535 -0.4792 -0.8633 -1.1875
  916MPD2    N113471   1.720   0.909  15.869 -0.2990 -0.2909 -0.9605
  916MPD2    H713472   1.682   0.999  15.896 -2.4658 -1.8613  1.2312
  917MPD2     C13473   2.295   3.075  11.893 -0.0724  0.2594  0.5456
  917MPD2    C113474   2.174   3.103  11.828  0.9121  0.8092 -0.9188
  917MPD2    C213475   2.174   3.112  11.686 -0.4671 -0.3428 -0.0026
  917MPD2    C313476   2.292   3.088  11.615 -0.3784 -0.0948  0.4501
  917MPD2    C413477   2.409   3.060  11.687 -0.0077 -0.2990  0.5456
  917MPD2    C513478   2.409   3.046  11.821 -0.8537 -0.4768  0.4604
  917MPD2     H13479   2.083   3.128  11.629 -1.1365 -1.0247  0.8594
  917MPD2    H113480   2.505   3.034  11.645 -0.0761  0.7852 -0.2786
  917MPD2    H213481   2.302   3.058  12.000  0.9638 -2.5429  0.0139
  917MPD2    H313482   2.496   3.012  11.877  0.0616  2.0248  0.5721
  917MPD2     N13483   2.306   3.077  11.475 -0.5192 -0.1202  0.2524
  917MPD2    H513484   2.395   3.056  11.431 -0.2148  1.0594  0.3260
  917MPD2    N113485   2.064   3.133  11.914 -0.6409 -0.2346  0.3741
  917MPD2    H713486   2.079   3.129  12.014 -2.5366  1.9219  0.7387
  918MPD2     C13487   2.092   3.573  12.630  0.4159 -0.1699  0.3670
  918MPD2    C113488   2.163   3.540  12.522  0.1214  0.5789  0.4400
  918MPD2    C213489   2.116   3.469  12.421 -0.2826  0.2433 -0.4814
  918MPD2    C313490   1.986   3.420  12.422 -0.1536 -0.0106 -0.1454
  918MPD2    C413491   1.911   3.458  12.530  0.2727  0.1422 -0.5799
  918MPD2    C513492   1.961   3.530  12.631 -0.1430 -0.2170 -0.7075
  918MPD2     H13493   2.187   3.444  12.344  2.1194  2.0169  1.1769
  918MPD2    H113494   1.805   3.432  12.538 -0.0036  2.3414  2.6767
  918MPD2    H213495   2.119   3.644  12.707 -1.8217 -0.0337  1.0457
  918MPD2    H313496   1.891   3.559  12.708  0.6193 -2.5188  0.8650
  918MPD2     N13497   1.944   3.329  12.324 -0.3475  0.0761 -0.4996
  918MPD2    H513498   2.004   3.309  12.245  0.1001 -0.1724 -0.0954
  918MPD2    N113499   2.299   3.573  12.506 -0.2499 -0.7244  0.7064
  918MPD2    H713500   2.335   3.582  12.412 -0.8735  0.8440  0.6222
  919MPD2     C13501   2.568   2.219  12.111 -0.6949  0.0387 -0.1780
  919MPD2    C113502   2.474   2.166  12.031 -0.6954  0.7845  0.2022
  919MPD2    C213503   2.405   2.245  11.940 -0.0005 -0.3155 -0.1196
  919MPD2    C313504   2.438   2.379  11.938 -0.1750  0.2470  0.3437
  919MPD2    C413505   2.525   2.435  12.027  0.3349 -0.1050  0.3808
  919MPD2    C513506   2.592   2.356  12.111  0.7206  0.5073  0.2457
  919MPD2     H13507   2.327   2.203  11.877 -0.1837  1.0422 -0.8102
  919MPD2    H113508   2.529   2.542  12.042 -0.3829 -0.1940  1.1868
  919MPD2    H213509   2.614   2.159  12.188  0.2294  1.4075  0.3286
  919MPD2    H313510   2.647   2.404  12.191  1.0158  0.7571 -0.1044
  919MPD2     N13511   2.362   2.452  11.841  0.1662  0.4174  0.4079
  919MPD2    H513512   2.305   2.398  11.776 -2.5789  2.0011  1.5229
  919MPD2    N113513   2.426   2.033  12.038  0.1246  0.2854 -0.4375
  919MPD2    H713514   2.333   2.012  12.005  0.0563 -0.4260  0.2131
  920MPD2     C13515   2.655   2.558  10.922 -0.0397 -0.2003 -1.0085
  920MPD2    C113516   2.611   2.441  10.973  0.3535  0.0950 -0.4979
  920MPD2    C213517   2.559   2.446  11.094 -0.2643 -0.2305  0.2232
  920MPD2    C313518   2.554   2.561  11.174 -0.0520  0.0158  0.2763
  920MPD2    C413519   2.623   2.670  11.132  0.1664 -0.5901  0.3841
  920MPD2    C513520   2.663   2.670  10.998 -0.3105 -0.1387  0.3494
  920MPD2     H13521   2.506   2.363  11.138 -1.5814 -0.3267 -1.5431
  920MPD2    H113522   2.640   2.758  11.194 -0.9804 -0.8565  1.0959
  920MPD2    H213523   2.686   2.561  10.819  0.1420 -2.1440 -1.0128
  920MPD2    H313524   2.696   2.764  10.954  0.2330 -0.7083 -0.4416
  920MPD2     N13525   2.482   2.560  11.300 -0.3913 -0.4641  0.1401
  920MPD2    H513526   2.440   2.474  11.334  1.4268 -0.7192  1.7479
  920MPD2    N113527   2.616   2.326  10.895 -0.7875  0.4999  0.4539
  920MPD2    H713528   2.574   2.242  10.931  0.4924 -0.9022 -1.3021
  921MPD2     C13529   3.513   1.354  16.690  0.4159 -0.1481 -0.5605
  921MPD2    C113530   3.491   1.378  16.555  0.0183 -0.1132  0.7299
  921MPD2    C213531   3.404   1.289  16.495  0.4904  0.4706  0.5576
  921MPD2    C313532   3.364   1.176  16.563  0.1728  0.4379  0.3121
  921MPD2    C413533   3.386   1.155  16.697  0.6958 -0.0589 -0.1198
  921MPD2    C513534   3.468   1.243  16.758  1.2394  0.2380 -0.2457
  921MPD2     H13535   3.382   1.288  16.388  0.8284  2.3367  0.4785
  921MPD2    H113536   3.344   1.071  16.751 -0.7017  2.0125  2.0447
  921MPD2    H213537   3.585   1.414  16.745 -0.9593  0.3742  0.6693
  921MPD2    H313538   3.489   1.222  16.862  0.1337 -0.6779 -0.2028
  921MPD2     N13539   3.285   1.077  16.496 -0.6108 -0.0263 -0.7276
  921MPD2    H513540   3.216   1.024  16.548 -0.1541  0.9103  0.8481
  921MPD2    N113541   3.558   1.479  16.490 -0.5987 -0.1842  0.5037
  921MPD2    H713542   3.635   1.528  16.535 -1.6642 -0.3598  2.4945
  922MPD2     C13543   4.323   4.171  16.932  0.0842  0.6881 -0.2631
  922MPD2    C113544   4.279   4.150  17.061 -0.2177 -0.4180 -0.5850
  922MPD2    C213545   4.215   4.031  17.093 -0.1390 -0.2640 -0.1291
  922MPD2    C313546   4.185   3.938  17.000 -1.0926  0.0196  0.5630
  922MPD2    C413547   4.210   3.970  16.867  1.0685 -0.0408 -0.2623
  922MPD2    C513548   4.284   4.081  16.836 -0.3102 -0.6509 -0.4655
  922MPD2     H13549   4.199   4.009  17.198 -1.2257 -1.7673 -0.6053
  922MPD2    H113550   4.181   3.909  16.782 -3.1003 -1.7769  2.4136
  922MPD2    H213551   4.383   4.255  16.899  1.4019 -0.5208 -0.9910
  922MPD2    H313552   4.310   4.108  16.735 -2.4650  0.8512 -0.6344
  922MPD2     N13553   4.121   3.822  17.045  0.2888  1.0264 -0.0873
  922MPD2    H513554   4.102   3.817  17.145 -1.1775 -0.7534 -0.4632
  922MPD2    N113555   4.306   4.253  17.161 -0.1614 -0.0305 -1.3133
  922MPD2    H713556   4.299   4.225  17.258 -1.2239  2.5997 -0.6248
  923MPD2     C13557   0.328   1.311   9.294 -1.6209 -0.2340 -0.2772
  923MPD2    C113558   0.279   1.438   9.324 -0.3726 -0.5092  0.3708
  923MPD2    C213559   0.341   1.498   9.437 -0.1565 -0.1550 -0.2990
  923MPD2    C313560   0.427   1.433   9.522 -0.0986 -0.3899  0.3943
  923MPD2    C413561   0.470   1.302   9.485 -0.4022 -0.0907  0.3252
  923MPD2    C513562   0.420   1.247   9.368 -0.0853 -0.3654  0.1889
  923MPD2     H13563   0.300   1.595   9.461 -0.4922 -0.5227  0.5935
  923MPD2    H113564   0.532   1.240   9.547  0.1198  1.5874  1.4937
  923MPD2    H213565   0.283   1.270   9.204 -3.7984  1.8617 -0.1242
  923MPD2    H313566   0.433   1.140   9.352  1.6779 -0.0940 -0.1851
  923MPD2     N13567   0.480   1.480   9.644  0.2330 -0.4797 -1.2044
  923MPD2    H513568   0.533   1.413   9.700 -0.1944  0.7145  0.6279
  923MPD2    N113569   0.186   1.499   9.237 -0.4589 -0.0796  0.1009
  923MPD2    H713570   0.177   1.445   9.151  0.8099 -0.5581  0.2684
  924MPD2     C13571   0.580   3.488  15.840 -0.0659  0.1240  0.3501
  924MPD2    C113572   0.557   3.547  15.965 -0.2671  0.2049  0.3506
  924MPD2    C213573   0.594   3.681  15.986 -0.7821 -0.5493 -0.1932
  924MPD2    C313574   0.662   3.752  15.890  0.0512 -0.6826  0.9444
  924MPD2    C413575   0.673   3.695  15.758 -0.4208  0.2084 -0.5168
  924MPD2    C513576   0.633   3.560  15.733  0.7273 -0.0108 -0.5468
  924MPD2     H13577   0.586   3.710  16.090 -2.0258  0.9595 -0.7024
  924MPD2    H113578   0.720   3.744  15.674 -0.5447  1.4239  0.1281
  924MPD2    H213579   0.545   3.385  15.832  2.2315 -0.6794  0.5406
  924MPD2    H313580   0.660   3.513  15.639  0.6716 -1.0980 -0.0168
  924MPD2     N13581   0.713   3.880  15.909 -0.3855 -0.4836 -0.1499
  924MPD2    H513582   0.726   3.930  15.822  0.1559  1.8828  1.3087
  924MPD2    N113583   0.489   3.462  16.050 -0.1113  0.2304 -0.4781
  924MPD2    H713584   0.488   3.367  16.013 -1.2866  0.1832 -0.3203
  925MPD2     C13585   4.453   1.132  14.515 -0.1404  0.2564 -0.4030
  925MPD2    C113586   4.352   1.215  14.526 -0.0827  0.4101  0.1859
  925MPD2    C213587   4.293   1.245  14.645 -0.3690  0.1526 -0.4690
  925MPD2    C313588   4.344   1.188  14.764 -0.1298 -0.5908  0.0647
  925MPD2    C413589   4.442   1.091  14.758  0.2784 -0.3431 -0.5551
  925MPD2    C513590   4.495   1.063  14.627 -0.8348  0.1268 -0.8116
  925MPD2     H13591   4.209   1.315  14.644  0.9599  1.7560 -0.1656
  925MPD2    H113592   4.469   1.035  14.846  2.2821 -1.0136 -1.5821
  925MPD2    H213593   4.509   1.107  14.426  0.1389 -0.6874  0.0303
  925MPD2    H313594   4.559   0.976  14.615  1.2182  1.5634 -0.0905
  925MPD2     N13595   4.298   1.228  14.893  0.1402  0.3727  0.4366
  925MPD2    H513596   4.333   1.171  14.969  1.5717  2.2010  1.1581
  925MPD2    N113597   4.292   1.282  14.414  0.1210  0.6908 -0.5824
  925MPD2    H713598   4.212   1.343  14.430 -1.8429 -1.6426 -1.5206
  926MPD2     C13599   2.078   4.473  13.284  0.4264  0.0050  0.6961
  926MPD2    C113600   2.060   4.614  13.297  0.1992 -0.5245  0.4008
  926MPD2    C213601   2.130   4.693  13.207  0.2081  0.7200 -0.6820
  926MPD2    C313602   2.212   4.635  13.111 -0.2943 -0.0479  0.1226
  926MPD2    C413603   2.227   4.499  13.106 -0.1785  0.6124  0.4171
  926MPD2    C513604   2.159   4.416  13.190 -0.0337  0.0476  0.5509
  926MPD2     H13605   2.119   0.062  13.208  2.7258  0.9825 -2.4369
  926MPD2    H113606   2.287   4.455  13.027 -0.7971  2.2439 -0.9811
  926MPD2    H213607   2.022   4.409  13.351 -0.0999  1.0098  1.2080
  926MPD2    H313608   2.177   4.309  13.195 -0.0284 -0.0099 -0.7045
  926MPD2     N13609   2.289   4.708  13.019  0.5376  0.3029 -0.5579
  926MPD2    H513610   2.329   4.649  12.947  1.6770  0.6995 -0.2432
  926MPD2    N113611   1.977   4.674  13.393  0.3183 -0.0251  0.0369
  926MPD2    H713612   1.999   0.033  13.415  1.5012  0.2872 -2.5307
  927MPD2     C13613   2.268   2.603  17.170  0.2070  0.0157  0.0374
  927MPD2    C113614   2.294   2.468  17.210 -0.3984 -0.3575 -0.0768
  927MPD2    C213615   2.390   2.385  17.156  0.5597 -0.4284 -0.6865
  927MPD2    C313616   2.460   2.432  17.051  0.1058  0.5512 -0.0931
  927MPD2    C413617   2.437   2.563  17.006 -0.1038 -0.2724  0.4593
  927MPD2    C513618   2.343   2.647  17.060  0.7272  0.2657 -0.8592
  927MPD2     H13619   2.414   2.290  17.202 -1.4277 -0.2746  0.6720
  927MPD2    H113620   2.493   2.607  16.925 -0.2303  0.0141  0.5269
  927MPD2    H213621   2.199   2.675  17.211  1.3672  1.8795 -1.2684
  927MPD2    H313622   2.326   2.747  17.023 -1.1947  0.0512 -0.5627
  927MPD2     N13623   2.580   2.360  17.014 -0.7640  0.2850  0.2983
  927MPD2    H513624   2.591   2.267  17.053 -1.2065  0.9438  1.9962
  927MPD2    N113625   2.215   2.440  17.325 -0.1288  0.3633  0.2529
  927MPD2    H713626   2.142   2.507  17.346 -0.4027  0.4422 -0.9690
  928MPD2     C13627   0.627   0.626   0.833 -0.7335 -0.0200  0.2559
  928MPD2    C113628   0.545   0.683   0.744 -0.4300 -0.3384  0.0964
  928MPD2    C213629   0.583   0.737   0.621  0.1511  0.0074 -0.0767
  928MPD2    C313630   0.722   0.730   0.590  0.1739  0.6044 -0.8247
  928MPD2    C413631   0.811   0.680   0.690  0.9969 -0.3804 -0.0006
  928MPD2    C513632   0.767   0.626   0.801 -0.0381 -0.1143 -0.3006
  928MPD2     H13633   0.519   0.789   0.551  0.7446  1.5940  0.5485
  928MPD2    H113634   0.914   0.678   0.657 -0.2790 -2.6255 -3.7752
  928MPD2    H213635   0.594   0.586   0.928 -0.7526 -1.3178 -0.2967
  928MPD2    H313636   0.831   0.582   0.877  1.0389  1.9865  0.0186
  928MPD2     N13637   0.779   0.784   0.473  0.5204 -0.1537  0.0807
  928MPD2    H513638   0.879   0.769   0.462  0.8157  0.2272  2.3182
  928MPD2    N113639   0.413   0.694   0.787  0.4240  0.3948  0.3026
  928MPD2    H713640   0.391   0.664   0.882 -1.8447  3.8062  0.8881
  929MPD2     C13641   0.335   0.848   9.430 -0.2102 -0.3442 -0.2161
  929MPD2    C113642   0.308   0.918   9.545 -0.1869 -0.4870 -0.8479
  929MPD2    C213643   0.211   1.018   9.546 -0.4288  0.1590  0.3439
  929MPD2    C313644   0.137   1.041   9.432  0.1411  0.3609 -0.4159
  929MPD2    C413645   0.161   0.973   9.319 -0.2147 -0.0814  0.2375
  929MPD2    C513646   0.257   0.872   9.323  0.4669  0.1656  0.3573
  929MPD2     H13647   0.214   1.086   9.630  2.3508  0.1704  0.2511
  929MPD2    H113648   0.096   0.997   9.235  1.0172  2.4795  0.0019
  929MPD2    H213649   0.412   0.772   9.425  0.0952 -0.0950  0.6503
  929MPD2    H313650   0.294   0.809   9.242 -0.7447  1.1497 -0.9681
  929MPD2     N13651   0.041   1.147   9.442 -0.6635  0.0545 -0.2135
  929MPD2    H513652   0.037   1.182   9.537  1.7723  1.3609 -0.5888
  929MPD2    N113653   0.390   0.895   9.659 -0.4094  0.5599  0.1711
  929MPD2    H713654   0.459   0.823   9.644 -0.7758  0.1556  0.4042
  930MPD2     C13655   2.427   2.814  14.374 -0.2373  0.1074 -0.2058
  930MPD2    C113656   2.388   2.887  14.264 -0.6476  0.3648  0.0698
  930MPD2    C213657   2.281   2.845  14.190  0.4888  0.1735  0.1993
  930MPD2    C313658   2.220   2.728  14.212 -1.0364 -0.4116  0.6970
  930MPD2    C413659   2.262   2.654  14.319  0.0422 -0.5357 -0.7214
  930MPD2    C513660   2.367   2.692  14.394  0.0689 -0.1588 -0.5954
  930MPD2     H13661   2.244   2.889  14.099 -1.9991  1.3693  1.7849
  930MPD2    H113662   2.212   2.561  14.341 -0.7576  0.0770  0.0425
  930MPD2    H213663   2.509   2.839  14.440 -2.2487  0.5868  2.0895
  930MPD2    H313664   2.400   2.634  14.480 -0.0984  1.3708  0.4884
  930MPD2     N13665   2.122   2.685  14.120 -0.2726 -0.2509 -0.1679
  930MPD2    H513666   2.120   2.754  14.045  1.3153 -1.0981 -0.9889
  930MPD2    N113667   2.446   3.013  14.238  0.7578  0.0648 -0.4033
  930MPD2    H713668   2.508   3.053  14.309 -0.4344  2.3332 -0.6534
  931MPD2     C13669   2.481   1.911  17.740  0.4103 -0.2324  0.1181
  931MPD2    C113670   2.391   1.978   0.067 -0.0356  0.0360  0.1476
  931MPD2    C213671   2.403   1.967   0.202 -0.0326  0.4374  0.3667
  931MPD2    C313672   2.514   1.907   0.261  0.6483 -0.0978  0.5287
  931MPD2    C413673   2.608   1.848   0.183 -0.0423  0.2180 -0.7416
  931MPD2    C513674   2.591   1.845   0.047 -0.2017  0.1268 -0.1311
  931MPD2     H13675   2.336   2.030   0.261 -0.4349 -0.7522  1.1769
  931MPD2    H113676   2.692   1.794   0.226 -0.2605  0.3674 -0.1298
  931MPD2    H213677   2.465   1.919  17.633 -1.1002 -0.4428  0.3330
  931MPD2    H313678   2.652   1.783  17.734 -0.3379  1.2130 -1.3049
  931MPD2     N13679   2.545   1.907   0.396 -0.5301 -0.0942  0.0412
  931MPD2    H513680   2.637   1.876   0.427 -1.1038 -1.2874  0.5770
  931MPD2    N113681   2.291   2.041  17.747 -0.0025  0.3371 -0.1039
  931MPD2    H713682   2.291   2.036  17.646 -1.7491  0.4486 -0.1042
  932MPD2     C13683   3.889   2.045  11.207 -0.2353 -0.4122  0.2229
  932MPD2    C113684   4.017   2.064  11.169 -0.6370  0.4059 -0.0055
  932MPD2    C213685   4.087   1.949  11.134  0.4013  0.0793  0.6603
  932MPD2    C313686   4.038   1.820  11.150 -0.5277  0.4212 -0.9310
  932MPD2    C413687   3.913   1.803  11.200 -0.0929 -0.0988 -0.6405
  932MPD2    C513688   3.840   1.919  11.227 -0.2849 -0.4420 -0.3211
  932MPD2     H13689   4.184   1.966  11.089 -0.8454 -0.1937 -2.1781
  932MPD2    H113690   3.862   1.709  11.218 -0.1210 -0.0691 -0.5654
  932MPD2    H213691   3.820   2.127  11.229 -2.6580 -1.9274 -1.6767
  932MPD2    H313692   3.734   1.897  11.240 -0.3497 -1.5521 -2.8516
  932MPD2     N13693   4.104   1.704  11.097 -0.2718  0.3390 -0.4303
  932MPD2    H513694   4.055   1.617  11.119  4.3340 -1.7075  1.6471
  932MPD2    N113695   4.087   2.187  11.165 -0.2542 -0.6020  0.2898
  932MPD2    H713696   4.183   2.184  11.131 -0.3842  0.4156 -0.1809
  933MPD2     C13697   4.532   0.802   0.372  0.2615 -0.2026 -0.5388
  933MPD2    C113698   4.573   0.919   0.441 -0.0137 -0.8952  0.3303
  933MPD2    C213699   4.552   1.039   0.387 -0.1634 -0.4894  0.4156
  933MPD2    C313700   4.480   1.046   0.274  0.6370 -0.1483  0.2026
  933MPD2    C413701   4.431   0.935   0.208  0.1482  0.1055 -0.8418
  933MPD2    C513702   4.463   0.810   0.252  0.4576  0.2490 -0.5272
  933MPD2     H13703   4.586   1.128   0.439  1.6497 -1.1906  0.4187
  933MPD2    H113704   4.372   0.941   0.117 -2.3041 -1.2963  0.6338
  933MPD2    H213705   4.556   0.701   0.402 -0.0490  0.0092  0.4288
  933MPD2    H313706   4.431   0.724   0.194 -0.9439 -0.1818  0.8784
  933MPD2     N13707   4.446   1.177   0.234 -0.0645  0.3806  0.2974
  933MPD2    H513708   4.489   1.257   0.279  0.8363  1.5823 -2.7420
  933MPD2    N113709   4.647   0.904   0.559 -0.6965 -0.2385  0.0311
  933MPD2    H713710   4.649   0.811   0.598 -2.5647 -0.3406 -0.0997
  934MPD2     C13711   1.485   2.989   1.823  0.2436  0.4909 -0.4208
  934MPD2    C113712   1.531   2.878   1.758  0.6054  0.0088  0.6159
  934MPD2    C213713   1.485   2.838   1.631  0.5679 -0.4509  0.9394
  934MPD2    C313714   1.375   2.906   1.577 -0.2659  0.6312  0.1833
  934MPD2    C413715   1.340   3.024   1.635 -0.1995 -0.1380  0.2676
  934MPD2    C513716   1.389   3.063   1.756 -0.0455 -0.7542  0.2062
  934MPD2     H13717   1.540   2.756   1.587 -1.3893 -1.9893  1.3891
  934MPD2    H113718   1.269   3.094   1.592  1.0791  0.0725 -1.5048
  934MPD2    H213719   1.517   3.030   1.918 -0.6776  0.8746 -0.2775
  934MPD2    H313720   1.359   3.159   1.797  2.6254 -0.7218  2.1292
  934MPD2     N13721   1.309   2.871   1.454 -0.4962 -0.7358  0.0971
  934MPD2    H513722   1.225   2.923   1.433 -0.2444 -0.0336  0.7995
  934MPD2    N113723   1.638   2.802   1.813  0.0939  0.0108  0.1421
  934MPD2    H713724   1.674   2.728   1.753  2.3872  0.5562  0.8740
  935MPD2     C13725   1.641   2.246   0.731 -1.2595  0.6862  0.4314
  935MPD2    C113726   1.507   2.227   0.720 -0.6105  0.8385  0.2781
  935MPD2    C213727   1.420   2.305   0.797 -0.2278  0.2349 -0.0235
  935MPD2    C313728   1.470   2.375   0.906  0.0902 -0.0418 -0.5678
  935MPD2    C413729   1.601   2.379   0.927 -0.0300  0.2274 -0.6148
  935MPD2    C513730   1.686   2.323   0.834 -0.8042  0.2133  0.2615
  935MPD2     H13731   1.312   2.307   0.785 -0.4085  0.9057  1.7690
  935MPD2    H113732   1.640   2.442   1.007  0.2067 -0.5906 -0.0826
  935MPD2    H213733   1.710   2.197   0.664  0.0625 -0.2073  2.4531
  935MPD2    H313734   1.794   2.320   0.844 -0.9028 -0.1635  1.2077
  935MPD2     N13735   1.391   2.449   1.002  0.4499  0.1722 -0.2681
  935MPD2    H513736   1.432   2.478   1.090  0.7236  0.7594 -0.5921
  935MPD2    N113737   1.452   2.140   0.626 -0.1138  0.0972 -0.4043
  935MPD2    H713738   1.353   2.145   0.605  0.1374  0.2574 -1.5370
  936MPD2     C13739   4.284   0.230  12.438 -0.4388 -0.4799  0.3875
  936MPD2    C113740   4.374   0.139  12.485  0.0126  0.0738 -0.2827
  936MPD2    C213741   4.507   0.151  12.428  0.4530 -0.0208  0.5557
  936MPD2    C313742   4.539   0.264  12.353 -0.5687 -0.7106 -0.1603
  936MPD2    C413743   4.446   0.357  12.309  0.1247  0.8342  0.0415
  936MPD2    C513744   4.322   0.331  12.360  0.5453  0.3487 -0.1251
  936MPD2     H13745   4.588   0.092  12.470  0.8522  0.5843  0.6327
  936MPD2    H113746   4.462   0.453  12.262 -1.5375  0.9626 -0.2432
  936MPD2    H213747   4.181   0.238  12.470 -0.3056  0.7381  0.5442
  936MPD2    H313748   4.244   0.400  12.331 -0.0038  0.0659  0.6821
  936MPD2     N13749   4.669   0.265  12.316  0.0098 -0.3645 -0.2798
  936MPD2    H513750   4.725   0.203  12.373  1.6282  0.8111 -0.5934
  936MPD2    N113751   4.364   0.051  12.592 -1.1427  0.0355  0.3820
  936MPD2    H713752   4.450   0.003  12.619  0.2382  0.9258 -2.4818
  937MPD2     C13753   2.420   1.393  11.619 -0.2591  0.0461  0.8009
  937MPD2    C113754   2.434   1.527  11.648  0.3519  0.4326 -1.1033
  937MPD2    C213755   2.532   1.607  11.576  0.3948  0.2668  0.3301
  937MPD2    C313756   2.594   1.558  11.457 -0.2911  0.1633 -0.5596
  937MPD2    C413757   2.551   1.438  11.418 -0.4777  0.3076  0.1273
  937MPD2    C513758   2.480   1.352  11.501  0.2673 -0.3028  0.0874
  937MPD2     H13759   2.575   1.695  11.622  1.6893 -1.6494  2.7724
  937MPD2    H113760   2.580   1.393  11.325 -0.4033 -0.8940  0.7359
  937MPD2    H213761   2.356   1.328  11.678 -0.5861 -0.6314 -0.3034
  937MPD2    H313762   2.456   1.249  11.478 -3.4807  0.3992  0.8246
  937MPD2     N13763   2.692   1.646  11.386 -0.5443 -0.1700 -0.3535
  937MPD2    H513764   2.716   1.738  11.421  1.9445 -1.2425  0.7128
  937MPD2    N113765   2.406   1.590  11.772 -0.2755  0.0724 -0.0149
  937MPD2    H713766   2.436   1.685  11.791 -0.9705  0.3938 -0.5273
  938MPD2     C13767   0.461   2.878   0.682  0.8920  0.1565  0.1636
  938MPD2    C113768   0.573   2.860   0.762 -0.2810  0.0598  0.3988
  938MPD2    C213769   0.573   2.763   0.864  0.2372 -0.2980 -0.1399
  938MPD2    C313770   0.452   2.699   0.888  0.5366 -0.3004 -0.3675
  938MPD2    C413771   0.343   2.711   0.806  0.3534  0.3630 -0.8592
  938MPD2    C513772   0.347   2.810   0.711  0.3815 -0.9298  0.8366
  938MPD2     H13773   0.657   2.739   0.928 -1.0256  1.2979  2.1154
  938MPD2    H113774   0.250   2.656   0.808  0.9346 -0.6187 -1.1002
  938MPD2    H213775   0.456   2.951   0.602  1.1869 -0.2183 -0.1926
  938MPD2    H313776   0.259   2.832   0.651  0.9513 -3.2242 -0.8555
  938MPD2     N13777   0.437   2.609   1.002  0.0324  0.5109  0.4273
  938MPD2    H513778   0.342   2.594   1.034 -0.9602 -0.6932 -3.0609
  938MPD2    N113779   0.688   2.936   0.735 -0.2592  0.1211  0.9509
  938MPD2    H713780   0.771   2.909   0.786  1.9715  0.3922 -2.5216
  939MPD2     C13781   1.841   3.569   1.447  0.8087  0.5511  0.3914
  939MPD2    C113782   1.794   3.668   1.370  0.4478 -0.7428  0.1989
  939MPD2    C213783   1.796   3.653   1.235  0.8108 -0.1372 -0.4113
  939MPD2    C313784   1.849   3.535   1.171 -0.7035  0.5565 -0.7860
  939MPD2    C413785   1.890   3.437   1.258  0.0321 -0.4561 -0.3987
  939MPD2    C513786   1.879   3.449   1.396  0.2746 -0.1679 -0.0791
  939MPD2     H13787   1.761   3.726   1.164  0.6096  1.7565  1.6452
  939MPD2    H113788   1.904   3.339   1.213  0.5624 -1.0053  0.9606
  939MPD2    H213789   1.839   3.578   1.555 -0.0638  0.3836  0.3843
  939MPD2    H313790   1.919   3.364   1.450  0.1174  1.1346  2.0873
  939MPD2     N13791   1.832   3.527   1.036 -0.0429  0.6679  0.0190
  939MPD2    H513792   1.795   3.606   0.985  0.3000  0.7198 -0.1534
  939MPD2    N113793   1.759   3.789   1.438 -0.1806  0.3905 -0.4330
  939MPD2    H713794   1.762   3.793   1.540  1.1592 -0.1686 -0.4519
  940MPD2     C13795   0.758   4.717  13.410 -0.1837  0.0156 -0.4775
  940MPD2    C113796   0.626   0.007  13.403  0.1246  0.4389 -0.2799
  940MPD2    C213797   0.543   4.711  13.301 -0.3765  0.2580  0.5195
  940MPD2    C313798   0.590   4.631  13.207  0.9168 -0.0428  0.4069
  940MPD2    C413799   0.724   4.600  13.207  1.1663  0.0893  0.3665
  940MPD2    C513800   0.809   4.643  13.309 -0.0801  0.1385  0.5139
  940MPD2     H13801   0.436   4.728  13.307 -0.5167 -0.5943  0.4585
  940MPD2    H113802   0.764   4.539  13.127 -2.5685  1.7326 -2.7487
  940MPD2    H213803   0.822   0.005  13.494 -0.7477  1.3083 -0.4471
  940MPD2    H313804   0.914   4.618  13.297  0.3228  2.9912 -1.8536
  940MPD2     N13805   0.510   4.576  13.098  0.2605  0.0864 -0.5116
  940MPD2    H513806   0.562   4.538  13.019  0.1209 -0.2949 -0.4172
  940MPD2    N113807   0.578   0.081  13.518  0.5382  0.3859 -0.1038
  940MPD2    H713808   0.649   0.111  13.585  0.5333  0.6783 -0.2260
  941MPD2     C13809   4.597   4.248  10.337 -0.1411  0.7421 -0.1743
  941MPD2    C113810   4.721   4.298  10.379 -0.4672  0.4968 -0.2447
  941MPD2    C213811   0.051   4.236  10.482  0.7690  0.5231  0.3501
  941MPD2    C313812   4.722   4.142  10.555  0.3618  0.5028  0.2564
  941MPD2    C413813   4.591   4.101  10.526  0.0935  0.5886 -0.2606
  941MPD2    C513814   4.533   4.148  10.412 -0.4324  0.4928  0.4209
  941MPD2     H13815   0.138   4.279  10.531  1.3599  0.6559 -0.8207
  941MPD2    H113816   4.541   4.024  10.584  0.0538 -0.5394 -1.8053
  941MPD2    H213817   4.549   4.287  10.248 -1.9703  2.7830  1.7102
  941MPD2    H313818   4.437   4.105  10.384  0.3854 -0.5643 -0.7637
  941MPD2     N13819   0.037   4.084  10.671 -0.3483  0.4364  0.1241
  941MPD2    H513820   4.711   4.040  10.735 -1.6508 -0.2036 -1.6115
  941MPD2    N113821   0.047   4.413  10.320  0.3270  0.5192  0.3385
  941MPD2    H713822   0.143   4.426  10.350 -0.0380 -0.4257  1.9062
  942MPD2     C13823   4.008   1.447   9.232  0.4018  0.5478 -0.6328
  942MPD2    C113824   4.129   1.477   9.292 -0.6302  0.3712 -0.7065
  942MPD2    C213825   4.238   1.471   9.204  0.1951  0.0649 -0.1284
  942MPD2    C313826   4.230   1.419   9.073 -0.0491 -0.1983 -0.2820
  942MPD2    C413827   4.104   1.379   9.035 -0.2595  0.5537 -0.2117
  942MPD2    C513828   3.992   1.391   9.108 -0.4277 -0.4107  0.1224
  942MPD2     H13829   4.335   1.504   9.242  0.6063 -0.6055 -0.6003
  942MPD2    H113830   4.084   1.349   8.933  0.7537  0.2523 -0.3228
  942MPD2    H213831   3.922   1.467   9.295  1.2041  1.6540  0.1293
  942MPD2    H313832   3.903   1.355   9.057 -0.4054  1.3379 -1.1470
  942MPD2     N13833   4.336   1.387   8.979  0.0218 -0.2226 -0.0093
  942MPD2    H513834   4.309   1.330   8.900 -0.7967  0.5481 -0.2953
  942MPD2    N113835   4.138   1.531   9.417  0.0100 -0.1246 -0.7134
  942MPD2    H713836   4.225   1.576   9.442  0.3132 -1.5656  0.7864
  943MPD2     C13837   3.596   4.450  10.662 -0.6910 -0.8053 -0.5115
  943MPD2    C113838   3.541   4.327  10.631  0.2127  0.5228 -0.6445
  943MPD2    C213839   3.446   4.270  10.711 -0.5736  0.4601  0.4072
  943MPD2    C313840   3.397   4.338  10.822 -0.7990 -0.2544 -0.8046
  943MPD2    C413841   3.450   4.469  10.841  0.2492  0.3434  0.6145
  943MPD2    C513842   3.549   4.523  10.769  0.3401  0.5712  0.0703
  943MPD2     H13843   3.403   4.174  10.683  1.4899 -0.7862  1.5296
  943MPD2    H113844   3.414   4.527  10.925  0.1489  0.2967  0.6045
  943MPD2    H213845   3.680   4.491  10.607 -0.8933  0.1889 -0.0862
  943MPD2    H313846   3.571   4.626  10.792 -0.2440  0.6604  0.2474
  943MPD2     N13847   3.293   4.286  10.901 -0.3246 -0.0616 -0.0607
  943MPD2    H513848   3.283   4.187  10.883 -0.0154 -0.0318 -0.3947
  943MPD2    N113849   3.579   4.269  10.506  0.4763 -0.4158 -0.1926
  943MPD2    H713850   3.636   4.319  10.438 -0.0614  0.0675 -0.2946
  944MPD2     C13851   2.639   3.377  10.960 -0.1279 -0.8669 -0.1065
  944MPD2    C113852   2.687   3.318  11.070 -0.0579 -0.6861  0.1001
  944MPD2    C213853   2.627   3.347  11.193 -0.1586 -0.3872  0.4278
  944MPD2    C313854   2.511   3.430  11.205 -0.5025  0.2217  0.1962
  944MPD2    C413855   2.462   3.480  11.084 -0.1002  0.1473 -0.1507
  944MPD2    C513856   2.527   3.455  10.970 -0.2831  1.0783 -0.5896
  944MPD2     H13857   2.675   3.308  11.282  0.9416 -3.9837 -1.7378
  944MPD2    H113858   2.370   3.536  11.078 -0.7408 -0.8628  0.1609
  944MPD2    H213859   2.688   3.360  10.865 -0.6298  0.6836 -0.6500
  944MPD2    H313860   2.483   3.502  10.883 -0.8874  0.3324 -0.6850
  944MPD2     N13861   2.441   3.434  11.331  0.8389  0.3228 -0.4600
  944MPD2    H513862   2.474   3.377  11.409  1.3154 -0.4666 -1.2460
  944MPD2    N113863   2.799   3.239  11.051 -0.6700 -0.4239 -0.7135
  944MPD2    H713864   2.832   3.229  10.955 -0.9927  0.7248 -0.9520
    1TMC1    C113865   0.738   4.631  15.412  0.6066  0.4016  0.1707
    1TMC1    C213866   0.732   4.540  15.510 -0.5951  0.4795 -0.3302
    1TMC1    C313867   0.668   4.423  15.479 -1.3875  0.0462  0.1369
    1TMC1    C413868   0.689   4.616  15.288  0.3836 -0.0092 -0.2677
    1TMC1    C513869   0.630   4.498  15.258 -0.3148 -0.3626  0.4472
    1TMC1    C613870   0.607   4.403  15.359  0.9291 -0.1642  0.1025
    1TMC1     C13871   0.793   0.025  15.449  0.7045 -0.7270  0.4392
    1TMC1     O13872   0.794   0.062  15.565  0.0406  0.1231 -0.4509
    1TMC1     H13873   0.767   4.558  15.611  0.0366  0.5186 -0.5559
    1TMC1    H113874   0.691   4.695  15.213 -0.2797  0.3463  0.0847
    1TMC1    H213875   0.544   4.316  15.347 -2.4026  2.7435 -3.3728
    1TMC1    C713876   0.552   4.499  15.139 -0.0456 -0.1561 -0.7394
    1TMC1    C813877   0.668   4.314  15.574  0.6285 -0.4996  0.3193
    1TMC1    O113878   0.459   4.571  15.112 -0.1632 -0.1001 -0.1746
    1TMC1    O213879   0.586   4.224  15.559 -0.3973  0.1002  0.2320
    1TMC1    O313880   0.565   4.374  15.090 -0.1466 -0.2053 -0.0572
    1TMC1    H313881   0.655   4.335  15.097  0.3402  0.9960  0.3469
    1TMC1    O513882   0.786   4.299  15.638  0.3158  0.2690  0.1329
    1TMC1    H513883   0.827   4.387  15.651 -0.9377  0.5767  2.0572
    2MPD2     C13884   1.082   0.425  15.284 -0.0725 -0.6003  1.1156
    2MPD2    C113885   1.052   0.339  15.179  0.6298  0.6742  0.6226
    2MPD2    C213886   0.977   0.225  15.209 -0.0154  1.1073  0.4453
    2MPD2    C313887   0.930   0.191  15.328  0.2283  0.4918  0.5754
    2MPD2    C413888   0.957   0.281  15.435  0.3491  0.0566 -0.1774
    2MPD2    C513889   1.032   0.393  15.409 -0.7685 -0.3055  0.0503
    2MPD2     H13890   0.959   0.147  15.136  0.4630  1.2029  0.2247
    2MPD2    H113891   0.920   0.260  15.535 -1.3652  0.9507 -0.6230
    2MPD2    H213892   1.129   0.521  15.265 -0.8504 -0.6587 -1.1703
    2MPD2    H313893   1.035   0.471  15.485 -0.7792 -1.2026  0.9600
    2MPD2     N13894   0.859   0.079  15.340 -0.1162 -0.2532  0.3169
    2MPD2    H513895   0.884   0.025  15.257  2.0477 -2.4226  2.3683
    2MPD2    N113896   1.098   0.380  15.053  0.3513  0.0041 -0.3521
    2MPD2    H713897   1.154   0.465  15.044  1.5620 -0.8810 -1.1785
    3TMC2    C113898   1.102   0.405  14.818  0.1232 -0.4325  0.3454
    3TMC2    C213899   1.135   0.537  14.820  0.1085  0.2356  0.2503
    3TMC2    C313900   1.156   0.605  14.705  0.3832 -0.3077 -0.4893
    3TMC2    C413901   1.097   0.345  14.695  0.1454 -0.5690 -0.2515
    3TMC2    C513902   1.138   0.413  14.584 -0.6387 -0.2969  0.3332
    3TMC2    C613903   1.175   0.543  14.589 -0.3017 -0.4965  0.0229
    3TMC2     C13904   1.057   0.326  14.933 -0.3074  0.0959  0.5663
    3TMC2     O13905   1.000   0.217  14.912  0.4788 -0.0694  0.9670
    3TMC2     H13906   1.125   0.585  14.917  2.3081  2.3036 -0.5462
    3TMC2    H113907   1.090   0.237  14.688 -0.8722 -0.5594  0.5817
    3TMC2    H213908   1.204   0.596  14.499  2.9026 -1.9170  0.2139
    3TMC2    C713909   1.165   0.341  14.461 -0.1677 -0.3143  0.5301
    3TMC2    C813910   1.223   0.727  14.707 -0.3330 -0.4300 -0.3770
    3TMC2    O113911   1.182   0.224  14.469  0.4195  0.1185  0.4424
    3TMC2    O213912   1.164   0.835  14.705 -0.0258  0.3973  0.4987
    3TMC2    O513913   1.338   0.700  14.775 -0.2098  0.7780  0.4741
    3TMC2    H513914   1.340   0.602  14.785  0.3914  0.7485  0.0594
    4TMC2    C113915   0.838   0.787  13.634 -0.2128  0.7023 -0.5920
    4TMC2    C213916   0.884   0.742  13.518  0.7045  0.2601  0.0909
    4TMC2    C313917   0.989   0.655  13.517 -0.3080  0.4826 -0.3354
    4TMC2    C413918   0.895   0.743  13.751  0.0473 -0.1756  0.2439
    4TMC2    C513919   0.997   0.659  13.750  0.4088  0.2510  0.4082
    4TMC2    C613920   1.047   0.605  13.633  0.1853  0.0596  0.8804
    4TMC2     C13921   0.693   0.789  13.638 -0.1639  0.2698 -0.1641
    4TMC2     O13922   0.633   0.797  13.748 -0.6945 -0.2224  0.1633
    4TMC2     H13923   0.845   0.776  13.422  1.2630 -0.3086 -0.3373
    4TMC2    H113924   0.863   0.772  13.851  0.9497  0.0740  0.4608
    4TMC2    H213925   1.142   0.553  13.627  0.6778  0.8063  2.1495
    4TMC2    C713926   1.049   0.615  13.878  0.0351  0.8989 -0.9351
    4TMC2    C813927   1.047   0.618  13.393  0.5233 -0.0216 -1.1935
    4TMC2    O113928   1.022   0.689  13.973  0.1149 -0.0286 -0.1810
    4TMC2    O213929   1.010   0.683  13.298 -0.2057 -0.0220  0.1975
    4TMC2    O513930   1.082   0.488  13.391 -0.4421  0.0699 -0.1227
    4TMC2    H513931   1.079   0.436  13.473  1.7403  0.2825  0.0774
    5MPD2     C13932   0.232   0.684  13.421 -0.3976 -0.4159  0.6628
    5MPD2    C113933   0.330   0.705  13.316 -0.9296 -0.0494  0.6974
    5MPD2    C213934   0.461   0.730  13.354 -0.3074  0.4110  0.1980
    5MPD2    C313935   0.496   0.740  13.488 -0.3202 -1.4428 -0.3952
    5MPD2    C413936   0.394   0.733  13.587 -0.9488 -0.9501  0.0962
    5MPD2    C513937   0.267   0.702  13.551 -0.1493 -0.1129  0.3980
    5MPD2     H13938   0.535   0.759  13.281  0.9022 -0.4964  1.0462
    5MPD2    H113939   0.418   0.756  13.690 -1.3260 -0.4147  0.0655
    5MPD2    H213940   0.135   0.652  13.384  0.8627 -3.2022 -0.2857
    5MPD2    H313941   0.197   0.688  13.633 -1.8579  1.2891 -0.7986
    5MPD2     N13942   0.638   0.770  13.515 -0.4027 -0.3362  0.4077
    5MPD2    H513943   0.694   0.779  13.431  0.1018 -1.4945  0.6156
    5MPD2    N113944   0.283   0.698  13.183  0.0768 -0.0144 -0.4753
    5MPD2    H713945   0.186   0.671  13.171  0.2263 -0.8700  0.2809
    6MPD1     C13946   3.593   1.325  12.430  0.2671  0.2544  0.5982
    6MPD1    C113947   3.706   1.393  12.477  0.3009 -0.1905 -0.4124
    6MPD1    C213948   3.826   1.329  12.461 -0.6313  0.0129  0.6806
    6MPD1    C313949   3.832   1.204  12.412 -0.1333 -0.3377 -0.8211
    6MPD1    C413950   3.715   1.123  12.381  0.7033  0.1820 -0.0712
    6MPD1    C513951   3.594   1.190  12.396 -0.0354  0.5018  0.2491
    6MPD1     H13952   3.918   1.370  12.499 -1.4712 -0.9866  3.7863
    6MPD1    H113953   3.716   1.023  12.339  0.9586 -0.0144  0.4040
    6MPD1    H213954   3.497   1.375  12.428  0.8982  1.3723 -1.7253
    6MPD1    H313955   3.501   1.141  12.372 -0.5401  0.6880  1.8178
    6MPD1     N13956   3.951   1.136  12.400  0.4362  0.7714  0.3792
    6MPD1    H513957   3.940   1.037  12.378  0.7749  0.5725  1.1141
    6MPD1    N113958   3.703   1.530  12.495  0.3317  0.1422 -0.1419
    6MPD1    H613959   3.785   1.562  12.545 -1.3325  0.3985  2.4145
    6MPD1    H713960   3.624   1.564  12.549 -2.1360 -2.3038 -2.2155
    7MPD2     C13961   4.323   0.505  12.636 -0.1563 -0.0322 -0.3602
    7MPD2    C113962   4.416   0.593  12.584  0.5388 -0.0936 -0.2543
    7MPD2    C213963   4.549   0.583  12.613  0.1512  0.4148 -0.4799
    7MPD2    C313964   4.590   0.485  12.697 -0.7733  0.3384  0.0370
    7MPD2    C413965   4.500   0.390  12.739 -0.5547 -1.1100 -0.2070
    7MPD2    C513966   4.365   0.399  12.709  0.2497 -0.0047 -0.2722
    7MPD2     H13967   4.617   0.658  12.573 -0.2326  0.7013 -0.6015
    7MPD2    H113968   4.542   0.308  12.797  0.8768 -0.0042  0.3205
    7MPD2    H213969   4.218   0.499  12.608 -0.8223 -0.0816  2.1633
    7MPD2    H313970   4.301   0.328  12.759  0.4261  0.1280  0.1483
    7MPD2     N13971   4.724   0.484  12.738  0.7076 -0.3446 -0.3629
    7MPD2    H513972   0.048   0.544  12.686 -0.3643 -0.2631 -1.5328
    7MPD2    N113973   4.380   0.691  12.491 -0.2411  0.0697  0.0435
    7MPD2    H713974   4.460   0.723  12.438  0.0064  1.6846  1.3803
    8TMC3    C113975   0.170   0.497  12.854 -0.0649  0.8765  0.3420
    8TMC3    C213976   0.191   0.572  12.964 -0.2660  0.7931 -0.2092
    8TMC3    C313977   0.262   0.690  12.951 -0.3717  0.1906 -0.4942
    8TMC3    C413978   0.233   0.523  12.735  0.0439  0.0441 -0.5023
    8TMC3    C513979   0.290   0.646  12.716  0.4796 -0.1251 -0.3623
    8TMC3    C613980   0.310   0.728  12.830 -0.1869 -0.2791 -0.1938
    8TMC3     C13981   0.040   0.437  12.849  0.3338  0.3415  1.2047
    8TMC3     O13982   4.724   0.399  12.951 -0.0247  0.6269  0.1654
    8TMC3     H13983   0.165   0.533  13.062 -0.0996 -2.2034 -1.3581
    8TMC3    H113984   0.218   0.459  12.649 -0.2108 -0.0201 -0.4070
    8TMC3    H213985   0.354   0.825  12.813  3.7888 -1.8207  1.4168
    8TMC3    C713986   0.249   0.723  12.594 -0.1312  0.2043 -0.3649
    8TMC3    C813987   0.354   0.715  13.069 -0.0274 -0.9935 -0.5789
    8TMC3    O113988   0.158   0.669  12.538  0.6722  0.2476 -0.1554
    8TMC3    O213989   0.475   0.729  13.051 -0.7175  0.4322  0.6183
    9TMC3    C113990   4.178   1.076  12.374  0.4974 -0.0833 -0.1349
    9TMC3    C213991   4.296   1.114  12.311 -0.0100 -0.0978 -0.5585
    9TMC3    C313992   4.401   1.030  12.309  0.0352  0.6132  0.5659
    9TMC3    C413993   4.152   0.938  12.402  0.6547  0.3271 -0.1396
    9TMC3    C513994   4.260   0.853  12.383  0.5831 -0.0852 -0.1592
    9TMC3    C613995   4.383   0.896  12.339  0.8624 -0.4718  0.3930
    9TMC3     C13996   4.074   1.185  12.388 -0.0559  0.3171  0.0687
    9TMC3     O13997   4.102   1.303  12.370  0.1973  0.1132  0.5544
    9TMC3     H13998   4.310   1.220  12.296  0.7897 -0.5338 -2.9051
    9TMC3    H113999   4.061   0.907  12.451  0.0088  2.7990  0.2692
    9TMC3    H214000   4.462   0.825  12.319  4.3197  3.8053 -1.2541
    9TMC3    C714001   4.252   0.736  12.462  0.3671  0.8907 -0.1379
    9TMC3    C814002   4.527   1.090  12.330  0.1898  0.2431 -0.0988
    9TMC3    O114003   4.141   0.707  12.507  0.6806 -0.4535 -0.3918
    9TMC3    O214004   4.541   1.207  12.297 -0.7027  0.1362  0.1208
   10MPD2     C14005   0.276   1.070  12.485 -1.1847  0.3254  0.5568
   10MPD2    C114006   0.220   0.954  12.519 -0.1280  0.5989 -0.4162
   10MPD2    C214007   0.087   0.942  12.496  0.9372 -0.2553  0.7089
   10MPD2    C314008   0.013   1.028  12.423  0.3405  0.6417  0.1689
   10MPD2    C414009   0.073   1.143  12.377  0.4636  0.1238  0.5702
   10MPD2    C514010   0.207   1.160  12.413 -0.1349  0.5974  0.0192
   10MPD2     H14011   0.028   0.856  12.527  1.3033 -1.1295 -1.0301
   10MPD2    H114012   0.018   1.210  12.312 -0.4316  0.8844  2.1179
   10MPD2    H214013   0.380   1.094  12.502 -1.5076  1.4294  0.9715
   10MPD2    H314014   0.253   1.256  12.390  1.9126 -0.2886  0.4497
   10MPD2     N14015   4.614   1.007  12.398 -0.3009  0.5076 -0.2227
   10MPD2    H514016   4.579   0.913  12.412 -0.2164  0.5083 -0.0147
   10MPD2    N114017   0.292   0.850  12.587 -0.8717  0.7715 -0.5565
   10MPD2    H714018   0.382   0.867  12.630 -1.8222  1.1953  1.2729
   11MPD2     C14019   1.234   0.251  14.197  0.7496 -0.4833 -0.5205
   11MPD2    C114020   1.165   0.362  14.219 -0.0894 -0.5753 -0.4721
   11MPD2    C214021   1.123   0.450  14.121  0.9084 -0.0246 -0.9090
   11MPD2    C314022   1.157   0.418  13.988  0.3052  0.1361  0.1011
   11MPD2    C414023   1.221   0.295  13.965 -0.6404  0.2258  0.1140
   11MPD2    C514024   1.263   0.216  14.067  0.0072  0.4528 -0.1831
   11MPD2     H14025   1.073   0.542  14.147 -0.3906 -0.6319 -1.2434
   11MPD2    H114026   1.248   0.260  13.865  0.2632 -1.2761  0.8789
   11MPD2    H214027   1.269   0.175  14.267 -0.0341 -0.3277  0.0388
   11MPD2    H314028   1.313   0.123  14.044  0.9103  0.3618  2.1779
   11MPD2     N14029   1.122   0.494  13.872 -0.1540  0.2448 -0.2367
   11MPD2    H514030   1.134   0.448  13.782  4.3888  0.3805  0.2927
   11MPD2    N114031   1.145   0.414  14.346 -0.3848  0.0603 -0.1395
   11MPD2    H714032   1.113   0.509  14.357  3.0394  1.0828  0.9330
    1MPD1     C14033   2.975   1.248  16.487 -0.1006  0.0097  0.0613
    1MPD1    C114034   2.984   1.275  16.623  0.8449  0.2275 -0.1674
    1MPD1    C214035   3.060   1.378  16.656  0.0998 -0.6246  0.3608
    1MPD1    C314036   3.121   1.461  16.568  0.1590  1.0707  0.1156
    1MPD1    C414037   3.097   1.439  16.432  0.5608 -0.3261 -0.0841
    1MPD1    C514038   3.039   1.323  16.396  0.5961 -0.0075  0.3748
    1MPD1     H14039   3.069   1.398  16.763 -1.3326 -0.9354  0.5363
    1MPD1    H114040   3.159   1.491  16.360 -0.3140  0.7655 -0.0398
    1MPD1    H214041   2.906   1.176  16.444 -0.5681  0.0247  0.7666
    1MPD1    H314042   3.037   1.301  16.290  3.2761 -1.0927  0.5305
    1MPD1     N14043   3.201   1.574  16.596 -0.2682 -0.2034  0.0853
    1MPD1    H514044   3.246   1.620  16.518 -1.2144 -0.8719 -0.8666
    1MPD1    N114045   2.898   1.212  16.715 -0.3428 -0.3441  0.2740
    1MPD1    H614046   2.926   1.218  16.813  0.2851 -0.0053  0.0780
    1MPD1    H714047   2.881   1.114  16.697  0.3135 -0.5302  0.6375
    2MPD1     C14048   3.837   2.239  17.168  0.1581 -0.4743 -0.3153
    2MPD1    C114049   3.883   2.224  17.042 -0.4135 -0.2469 -0.4666
    2MPD1    C214050   3.795   2.166  16.947 -0.4921 -0.2352 -0.1610
    2MPD1    C314051   3.672   2.121  16.978 -0.9979 -0.1162  0.8115
    2MPD1    C414052   3.632   2.136  17.109  0.4937  0.4487  0.8318
    2MPD1    C514053   3.716   2.187  17.202  0.2252  0.3015  0.2357
    2MPD1     H14054   3.821   2.167  16.841 -2.5327  0.1388 -0.6595
    2MPD1    H114055   3.533   2.105  17.143  0.4619 -0.2172  0.1352
    2MPD1    H214056   3.894   2.287  17.247 -0.8964 -2.6635  1.7719
    2MPD1    H314057   3.679   2.186  17.304 -3.1844  2.9605 -0.9805
    2MPD1     N14058   3.594   2.054  16.873 -0.2649  0.6571  0.1979
    2MPD1    H514059   3.638   2.040  16.783 -0.0342 -0.5435  0.4998
    2MPD1    N114060   4.005   2.279  17.002  0.3556  0.3720 -0.7118
    2MPD1    H614061   4.028   2.252  16.906  0.7399  0.3902 -0.6238
    2MPD1    H714062   4.078   2.266  17.071  0.0085  1.9690 -0.0505
    3TMC3    C114063   3.422   1.924  16.774  0.1213 -0.2189  0.2294
    3TMC3    C214064   3.485   1.950  16.656 -0.0175 -0.1284  0.4111
    3TMC3    C314065   3.443   1.877  16.549 -0.3251 -0.8985  0.7431
    3TMC3    C414066   3.341   1.818  16.801  0.6114 -0.4350  0.0349
    3TMC3    C514067   3.305   1.747  16.692 -0.4859 -0.2326  0.1029
    3TMC3    C614068   3.354   1.777  16.567 -0.4851 -0.7435  0.4249
    3TMC3     C14069   3.473   1.992  16.894 -0.5433  0.5735 -0.0119
    3TMC3     O14070   3.407   1.979  16.997 -0.1765  0.5144  0.6430
    3TMC3     H14071   3.540   2.042  16.641  1.2674 -0.7628  1.2259
    3TMC3    H114072   3.316   1.794  16.904 -0.7296  1.8995  0.2572
    3TMC3    H214073   3.337   1.722  16.476  0.7269  2.7601 -1.9272
    3TMC3    C714074   3.236   1.620  16.717  0.4586 -0.5666 -0.0664
    3TMC3    C814075   3.486   1.909  16.415 -0.5410 -0.4294  0.3591
    3TMC3    O114076   3.199   1.584  16.827  0.0468 -0.1308  0.1591
    3TMC3    O214077   3.416   1.868  16.324 -0.3417 -0.7371  0.3259
    4MPD1     C14078   3.838   2.035  16.077 -0.0684  0.1607 -0.9290
    4MPD1    C114079   3.902   2.045  16.204  1.0023  0.1927 -0.3849
    4MPD1    C214080   3.819   2.042  16.309  0.1611 -0.6119  0.1832
    4MPD1    C314081   3.686   2.007  16.301  0.5587  0.2403  0.1696
    4MPD1    C414082   3.630   2.006  16.182  0.3069  0.1519  0.3814
    4MPD1    C514083   3.702   2.020  16.066 -0.0328  0.2159 -0.7832
    4MPD1     H14084   3.858   2.040  16.410  0.2457 -0.2201  0.1586
    4MPD1    H114085   3.525   1.987  16.165  0.6972  1.0749 -3.2014
    4MPD1    H214086   3.910   2.025  15.996  2.5491 -2.7249  1.7643
    4MPD1    H314087   3.656   2.008  15.969 -0.4593  0.3693 -0.5987
    4MPD1     N14088   3.618   1.964  16.416 -0.1668  0.3398 -0.0020
    4MPD1    H514089   3.664   1.982  16.505 -1.7950  1.5672  0.5729
    4MPD1    N114090   4.035   2.072  16.215 -0.5502 -0.5115  0.1117
    4MPD1    H614091   4.080   2.034  16.131 -0.4278  0.6865 -0.3569
    4MPD1    H714092   4.078   2.041  16.302 -2.8881 -1.1505  1.0379
    1TCq1    O114093   4.587   1.456  12.190  0.5783 -0.0151  0.3962
    1TCq1    C114094   4.630   1.514  12.076 -0.5853  0.3207  0.2276
    1TCq1    O214095   4.651   1.633  12.058  0.0100  0.1040 -0.1527
    1TCq1    C214096   4.677   1.409  11.985  0.0701 -0.0154  0.2317
    1TCq1    C314097   4.709   1.287  12.033  0.2758 -0.2598 -0.6003
    1TCq1    C414098   0.059   1.222  11.954 -0.1692  0.2762  0.6095
    1TCq1    C514099   0.084   1.255  11.822  0.3107 -0.5457  0.0304
    1TCq1    C614100   0.014   1.365  11.774  0.2125 -0.4524  0.2726
    1TCq1    C714101   4.705   1.455  11.862  0.5336 -0.2849 -0.0436
    1TCq1    C814102   0.013   1.392  11.626 -0.4025  0.3563 -0.5531
    1TCq1    O414103   0.068   1.307  11.553  0.2357  0.5965  1.0431
    1TCq1    C914104   0.120   1.089  11.999  0.3171 -0.1421 -0.7694
    1TCq1    O514105   0.058   1.046  12.098 -0.1219  0.2225  0.9527
    1TCq1    O614106   0.193   1.028  11.916 -0.0110 -0.2395  0.5410
    1TCq1    H114107   4.570   1.360  12.185  2.0596 -0.3550  1.9307
    1TCq1    H214108   4.710   1.255  12.136 -0.8231 -2.6585 -1.3289
    1TCq1    H314109   0.139   1.189  11.757 -0.3644 -0.1144 -0.9693
    1TCq1    H414110   4.692   1.559  11.833 -2.3734 -0.6230  0.0948
    2MPD1     C14111   4.632   1.685  11.210 -0.2445  0.4401  0.1986
    2MPD1    C114112   4.537   1.709  11.309 -0.3905 -1.0436 -1.0406
    2MPD1    C214113   4.560   1.654  11.436  0.8925  0.7314 -0.1212
    2MPD1    C314114   4.658   1.554  11.463 -0.0829  0.2208  0.4061
    2MPD1    C414115   4.736   1.520  11.351  0.9359  0.0753  0.1285
    2MPD1    C514116   4.728   1.588  11.232 -0.0466 -0.0585  0.1523
    2MPD1     H14117   4.502   1.673  11.526 -3.2554  2.0937 -3.1337
    2MPD1    H114118   0.071   1.440  11.356  1.0418  0.2007  0.6141
    2MPD1    H214119   4.623   1.729  11.111  0.6539 -1.2023 -0.6223
    2MPD1    H314120   0.055   1.567  11.148 -1.1606  1.9640 -1.2373
    2MPD1     N14121   4.672   1.501  11.596 -0.2773 -0.2667  0.0133
    2MPD1    H514122   4.618   1.539  11.672 -0.4762 -1.1069  0.2898
    2MPD1    N114123   4.446   1.813  11.296  0.2071 -0.0211 -0.2118
    2MPD1    H614124   4.371   1.808  11.364 -0.0357  1.3545 -0.3907
    2MPD1    H714125   4.395   1.815  11.208 -0.9746  0.2280  0.4756
    1TMC1    C114126   2.455   4.006   0.699 -0.7226 -0.0469 -0.7613
    1TMC1    C214127   2.345   4.094   0.701 -0.3406  0.0365 -0.2245
    1TMC1    C314128   2.322   4.166   0.586  0.7704 -0.3083  0.0319
    1TMC1    C414129   2.529   3.990   0.589 -0.6169 -0.2152 -0.0155
    1TMC1    C514130   2.487   4.048   0.473 -0.6066  0.6341 -0.4473
    1TMC1    C614131   2.395   4.151   0.476 -0.1840  0.1299  0.0008
    1TMC1     C14132   2.499   3.940   0.825 -0.6989 -0.0945 -0.1741
    1TMC1     O14133   2.580   3.853   0.816  0.2063  0.3761 -0.4281
    1TMC1     H14134   2.290   4.116   0.791 -2.5719 -3.5753 -0.7258
    1TMC1    H114135   2.615   3.924   0.584 -0.6546 -0.4011  1.7890
    1TMC1    H214136   2.383   4.212   0.387  0.1667  2.4133  1.5003
    1TMC1    C714137   2.585   4.056   0.366 -0.2424  0.0165  0.4522
    1TMC1    C814138   2.260   4.296   0.608  0.1783 -0.0322 -0.8082
    1TMC1    O114139   2.699   4.013   0.388 -0.7998 -0.4394  0.4204
    1TMC1    O214140   2.183   4.329   0.697 -0.4367 -0.1815 -0.8998
    1TMC1    O314141   2.513   4.031   0.251  0.2306  0.8244  0.3787
    1TMC1    H314142   2.419   4.057   0.255 -0.0530  0.0045 -1.3065
    1TMC1    O514143   2.355   4.381   0.569 -0.0046 -0.2832  0.5228
    1TMC1    H514144   2.433   4.348   0.520  1.1960  0.4707  1.9344
    2MPD1     C14145   2.556   3.945   1.331  0.2828  0.1509 -0.1307
    2MPD1    C114146   2.438   4.013   1.305 -0.0203  0.2641 -0.2041
    2MPD1    C214147   2.406   4.040   1.172 -0.8763 -0.9014  0.5220
    2MPD1    C314148   2.464   3.958   1.071 -0.0650  0.0879 -0.2331
    2MPD1    C414149   2.569   3.873   1.103 -0.2135 -0.2761 -0.1410
    2MPD1    C514150   2.619   3.887   1.230 -0.7230  0.6202 -0.5631
    2MPD1     H14151   2.323   4.107   1.152 -0.1495  0.3775  1.7597
    2MPD1    H114152   2.632   3.824   1.029  0.5981 -1.1221  1.1045
    2MPD1    H214153   2.594   3.917   1.428 -0.4907  1.9005  0.6721
    2MPD1    H314154   2.708   3.825   1.243 -0.2557  1.2692 -0.7010
    2MPD1     N14155   2.433   3.988   0.937 -0.4443 -0.0128 -0.3493
    2MPD1    H514156   2.360   4.057   0.926 -1.4892 -1.2358 -1.1336
    2MPD1    N114157   2.382   4.093   1.409  0.2032 -0.1672 -0.4254
    2MPD1    H614158   2.283   4.095   1.387  0.2254  0.4757 -0.4774
    2MPD1    H714159   2.388   4.043   1.498  1.9277  0.1613 -0.3485
    1MPD1     C14160   2.119   0.506  11.244  0.0113 -0.3184  0.2870
    1MPD1    C114161   2.116   0.520  11.379 -0.3855 -0.7012 -0.1392
    1MPD1    C214162   2.065   0.636  11.427 -0.9143  0.0685 -0.3293
    1MPD1    C314163   2.047   0.745  11.346  0.0426  0.1727 -0.1415
    1MPD1    C414164   2.057   0.739  11.207 -0.2523 -0.2145  0.1564
    1MPD1    C514165   2.101   0.614  11.162  0.4529 -0.0829 -0.4511
    1MPD1     H14166   2.054   0.655  11.533  0.1519 -0.1830 -0.1676
    1MPD1    H114167   2.057   0.827  11.145 -0.2721 -0.4661 -0.1998
    1MPD1    H214168   2.152   0.414  11.197  0.9513 -0.4731  1.2460
    1MPD1    H314169   2.124   0.606  11.056 -0.4231 -1.6888 -0.5068
    1MPD1     N14170   2.025   0.879  11.410 -0.1261  0.4301  0.7411
    1MPD1    H514171   2.034   0.871  11.511  0.9726 -0.4683  0.5738
    1MPD1    N114172   2.134   0.406  11.459 -0.0866 -0.4682  0.1584
    1MPD1    H614173   2.211   0.349  11.425  1.0867  0.1039  1.8876
    1MPD1    H714174   2.156   0.434  11.554  3.2960 -1.8180 -0.2345
    2MPD1     C14175   0.921   1.738  11.937  0.0762  0.4761 -0.0151
    2MPD1    C114176   0.800   1.708  11.882 -0.4512  0.5397  0.6479
    2MPD1    C214177   0.789   1.655  11.751  0.6618  0.4415  0.0247
    2MPD1    C314178   0.903   1.640  11.677  0.9519 -0.4156 -0.1968
    2MPD1    C414179   1.027   1.658  11.732 -0.0182  0.0637 -0.1010
    2MPD1    C514180   1.033   1.696  11.865  0.2755  0.4925 -0.3524
    2MPD1     H14181   0.690   1.633  11.714  0.4474  0.1924  0.7501
    2MPD1    H114182   1.116   1.628  11.679 -1.1043  3.1514 -3.7104
    2MPD1    H214183   0.938   1.782  12.034  0.7544 -0.7054  0.3991
    2MPD1    H314184   1.133   1.695  11.907  1.6745  0.3514 -3.6729
    2MPD1     N14185   0.907   1.592  11.549 -0.4576  0.3308  0.1395
    2MPD1    H514186   1.000   1.580  11.511 -0.5438 -0.3227  0.1493
    2MPD1    N114187   0.681   1.712  11.958 -0.2779 -0.4917  0.2605
    2MPD1    H614188   0.594   1.733  11.910 -2.2051  1.2143  4.5257
    2MPD1    H714189   0.693   1.791  12.021 -0.3888 -1.0244  0.9408
    3MPD1     C14190   0.430   0.966  10.881 -0.3519  0.0769 -0.5418
    3MPD1    C114191   0.428   0.959  11.020 -0.2861  0.6351  0.6841
    3MPD1    C214192   0.517   1.045  11.085  0.0490 -0.4279  0.0038
    3MPD1    C314193   0.577   1.150  11.024 -0.2103 -0.9597 -0.5141
    3MPD1    C414194   0.554   1.166  10.889  0.7308 -0.0611  0.3186
    3MPD1    C514195   0.480   1.075  10.818 -0.6123  0.5693  0.3172
    3MPD1     H14196   0.539   1.029  11.190  2.3109  0.7516 -0.2856
    3MPD1    H114197   0.603   1.244  10.832  1.3473 -1.6628 -1.3785
    3MPD1    H214198   0.384   0.890  10.819  1.2453  0.6595 -2.4483
    3MPD1    H314199   0.495   1.078  10.711 -3.0737  0.4157 -0.0318
    3MPD1     N14200   0.651   1.246  11.102 -1.0953  0.2403  0.2900
    3MPD1    H514201   0.637   1.231  11.201 -0.3994 -2.3109 -0.0016
    3MPD1    N114202   0.368   0.851  11.088 -0.1280  0.4361  0.8658
    3MPD1    H614203   0.350   0.884  11.182 -1.3198 -0.9159  1.1122
    3MPD1    H714204   0.275   0.840  11.048 -0.5468  1.5798  1.5599
    4MPD2     C14205   1.616   1.398  11.769 -0.3741 -0.2900  0.0440
    4MPD2    C114206   1.729   1.451  11.710 -0.0928 -0.3597  0.2098
    4MPD2    C214207   1.737   1.581  11.673 -0.0240 -0.2470 -0.0942
    4MPD2    C314208   1.627   1.663  11.691 -0.0322  0.1577 -0.3948
    4MPD2    C414209   1.511   1.611  11.746  0.3559 -0.1957  0.5131
    4MPD2    C514210   1.515   1.482  11.787  0.2257 -0.0545 -0.0821
    4MPD2     H14211   1.830   1.624  11.637  0.2852 -1.5784 -0.8622
    4MPD2    H114212   1.417   1.659  11.769 -0.2946 -1.2778  0.0925
    4MPD2    H214213   1.612   1.298  11.809 -0.1183  0.5798  2.2490
    4MPD2    H314214   1.422   1.452  11.836 -0.6058 -0.7183 -2.0612
    4MPD2     N14215   1.624   1.793  11.647 -0.7413  0.8839 -0.1231
    4MPD2    H514216   1.533   1.837  11.660  0.3227  3.1161 -0.1690
    4MPD2    N114217   1.850   1.376  11.690 -0.7446  0.4273 -0.4317
    4MPD2    H714218   1.911   1.420  11.622  0.8965 -1.3635 -0.1144
    5TMC3    C114219   1.994   1.199  11.659 -0.1706 -0.0618 -0.1668
    5TMC3    C214220   1.965   1.098  11.576 -0.6232  0.3199  0.5294
    5TMC3    C314221   2.014   1.116  11.444  0.1825 -0.3649  0.1796
    5TMC3    C414222   2.085   1.301  11.626 -0.4855 -0.0131  0.1443
    5TMC3    C514223   2.141   1.309  11.501  0.7434 -0.0743  0.5509
    5TMC3    C614224   2.094   1.216  11.410  0.1440 -0.6897 -0.4959
    5TMC3     C14225   1.872   1.245  11.715 -0.6298  0.0032 -0.0123
    5TMC3     O14226   1.799   1.158  11.762  0.2503  0.3883  0.2237
    5TMC3     H14227   1.890   1.025  11.605  0.2301  0.3251  2.7165
    5TMC3    H114228   2.111   1.374  11.701 -0.0047 -3.5249  3.3920
    5TMC3    H214229   2.137   1.218  11.311  1.2945 -2.7598 -0.0229
    5TMC3    C714230   2.146   1.451  11.460 -0.1138  0.1771  0.5942
    5TMC3    C814231   2.011   1.005  11.351 -0.1373  0.0580 -0.3221
    5TMC3    O114232   2.097   1.528  11.538 -0.3437  0.1462 -0.2224
    5TMC3    O214233   2.013   1.035  11.231 -0.3057  0.0437 -0.0238
    6TMC3    C114234   0.826   1.541  11.334  0.4072  0.0966 -0.7213
    6TMC3    C214235   0.762   1.446  11.258  0.1818 -0.2342 -0.7549
    6TMC3    C314236   0.829   1.395  11.150 -0.1248  0.1642 -0.7829
    6TMC3    C414237   0.950   1.589  11.296  0.1297 -0.3746 -0.2804
    6TMC3    C514238   1.011   1.534  11.183 -0.2931 -0.3920  0.8459
    6TMC3    C614239   0.948   1.442  11.104  0.0954  0.5270 -0.3520
    6TMC3     C14240   0.795   1.555  11.478 -0.4252  0.2046 -0.3240
    6TMC3     O14241   0.687   1.519  11.522 -0.0092 -0.0237  0.4687
    6TMC3     H14242   0.660   1.418  11.280 -0.9249  2.9411 -1.8575
    6TMC3    H114243   0.994   1.674  11.346  0.0979 -0.5580  0.0627
    6TMC3    H214244   0.992   1.418  11.008 -0.2497 -1.5529  0.0079
    6TMC3    C714245   1.107   1.620  11.116 -0.3832 -0.3360  0.3731
    6TMC3    C814246   0.750   1.324  11.048 -0.7910  0.2286 -0.5907
    6TMC3    O114247   1.081   1.740  11.108  0.5501  0.3309  0.5137
    6TMC3    O214248   0.783   1.338  10.931  0.2814  0.0182  0.9486
    7MPD2     C14249   2.107   1.848  11.128 -1.1346 -0.8275 -0.1316
    7MPD2    C114250   2.035   1.818  11.244 -0.0669 -0.4494  0.7016
    7MPD2    C214251   2.062   1.703  11.317  0.6558 -0.4544 -0.4443
    7MPD2    C314252   2.158   1.608  11.260  0.4936 -0.2992  0.1133
    7MPD2    C414253   2.227   1.637  11.153 -0.1339 -0.6583  0.0515
    7MPD2    C514254   2.201   1.757  11.091  1.0930  1.1140 -0.3503
    7MPD2     H14255   2.010   1.688  11.411  1.6895  0.4481  0.2743
    7MPD2    H114256   2.289   1.561  11.106 -2.4731 -2.7811  0.3701
    7MPD2    H214257   2.096   1.937  11.067  0.8620 -0.0855  0.5971
    7MPD2    H314258   2.251   1.775  10.996  0.0255  0.6625 -0.9936
    7MPD2     N14259   2.188   1.482  11.328 -0.2591  0.2447 -0.8045
    7MPD2    H514260   2.240   1.407  11.282 -3.0956 -2.2514  0.0819
    7MPD2    N114261   1.933   1.903  11.302 -0.1594 -0.2773 -0.4209
    7MPD2    H714262   1.893   1.878  11.391 -0.4299  1.7093  0.0038
    8TMC3    C114263   1.795   2.087  11.351  0.6062 -0.5042 -0.4878
    8TMC3    C214264   1.667   2.090  11.295 -0.0589 -0.5326  0.4625
    8TMC3    C314265   1.556   2.046  11.356 -0.2126 -0.4779  0.3668
    8TMC3    C414266   1.802   2.048  11.482 -0.2757  0.2584  0.3483
    8TMC3    C514267   1.691   1.999  11.541  0.7101 -0.1542  0.9065
    8TMC3    C614268   1.560   2.008  11.487 -0.2639  0.3115 -0.1275
    8TMC3     C14269   1.886   2.027  11.255  0.6615  0.9417  1.1816
    8TMC3     O14270   1.906   2.090  11.152 -0.0457 -0.4800  0.3380
    8TMC3     H14271   1.650   2.123  11.193 -0.9219  1.8597  1.3878
    8TMC3    H114272   1.899   2.042  11.529 -0.1154  4.1432  0.5663
    8TMC3    H214273   1.479   1.951  11.531 -2.2928  1.3065 -2.5920
    8TMC3    C714274   1.729   1.867  11.592 -0.2530 -0.1856 -0.0070
    8TMC3    C814275   1.477   1.954  11.280  0.1454  0.0584 -0.4278
    8TMC3    O114276   1.840   1.830  11.551 -0.4182 -0.4922 -0.0719
    8TMC3    O214277   1.370   1.918  11.330 -0.1246  0.6999 -0.4195
    9MPD2     C14278   1.620   1.656  11.146 -0.5436  0.5032 -0.2054
    9MPD2    C114279   1.527   1.757  11.151  0.0739 -0.5957 -0.0827
    9MPD2    C214280   1.390   1.722  11.130 -0.2780  0.1352 -0.0680
    9MPD2    C314281   1.357   1.597  11.091  0.8832  0.6676  0.4393
    9MPD2    C414282   1.456   1.506  11.073 -0.2637  0.6973  0.4050
    9MPD2    C514283   1.588   1.531  11.103  0.1602 -0.3588  0.4251
    9MPD2     H14284   1.319   1.803  11.138 -0.2604 -0.1569  3.3856
    9MPD2    H114285   1.429   1.408  11.034  0.8508  0.5550 -0.0086
    9MPD2    H214286   1.724   1.661  11.177 -1.3404 -1.1893  2.7851
    9MPD2    H314287   1.668   1.459  11.101  0.6238  0.1415  0.8347
    9MPD2     N14288   1.220   1.552  11.086  0.1435 -0.1187  0.2021
    9MPD2    H514289   1.211   1.451  11.086 -0.4611 -0.0672  0.5731
    9MPD2    N114290   1.561   1.884  11.196 -0.3023 -0.3141  0.0837
    9MPD2    H714291   1.659   1.909  11.205 -0.2363 -0.2979 -0.7167
    1MPD1     C14292   0.893   4.162  15.233  0.2427  0.1915  0.4425
    1MPD1    C114293   0.908   4.283  15.171  0.8171  0.4492 -0.7756
    1MPD1    C214294   0.983   4.378  15.229  0.6371  0.6545 -0.0697
    1MPD1    C314295   1.044   4.361  15.349 -0.3170  0.1473  0.5655
    1MPD1    C414296   1.024   4.238  15.415 -0.4935 -0.6773 -0.6717
    1MPD1    C514297   0.947   4.148  15.357 -0.4384 -0.4978  0.1675
    1MPD1     H14298   0.982   4.472  15.175 -3.5689  0.9328  0.5032
    1MPD1    H114299   1.071   4.214  15.510  0.3971  0.0571 -0.9216
    1MPD1    H214300   0.838   4.074  15.202  1.4707 -0.7403  0.8853
    1MPD1    H314301   0.924   4.055  15.408  0.9206 -2.0568 -2.0510
    1MPD1     N14302   1.122   4.461  15.411 -0.6002  0.3861  0.5259
    1MPD1    H514303   1.151   4.442  15.506 -1.5189 -0.9194  0.5340
    1MPD1    N114304   0.829   4.309  15.059  0.0915 -0.5439 -0.3047
    1MPD1    H614305   0.865   4.376  14.991  2.5393  0.1360  1.6833
    1MPD1    H714306   0.824   4.224  15.004 -2.4448  0.0404 -1.0024
    2TMC2    C114307   1.280   0.019  15.667  0.1128  0.0845 -0.7036
    2TMC2    C214308   1.309   0.142  15.609  0.0445 -0.5905 -0.0940
    2TMC2    C314309   1.319   0.154  15.475  0.4953 -0.0779  0.3704
    2TMC2    C414310   1.230   4.660  15.585  0.8208 -0.6418 -1.0365
    2TMC2    C514311   1.216   4.681  15.450 -0.4125  0.0564 -0.6818
    2TMC2    C614312   1.278   0.049  15.391  0.5892 -0.0174 -0.2567
    2TMC2     C14313   1.293   0.004  15.810 -1.0495 -0.0725 -0.1410
    2TMC2     O14314   1.244   4.640  15.854  0.0817 -0.1979  0.0621
    2TMC2     H14315   1.356   0.214  15.675  1.7868 -1.5400 -0.3069
    2TMC2    H114316   1.178   4.584  15.642  0.3562  1.4546  1.3068
    2TMC2    H214317   1.258   0.068  15.286  1.2824  0.9647 -0.2133
    2TMC2    C714318   1.145   4.590  15.369  1.3265  0.9640 -0.3628
    2TMC2    C814319   1.387   0.264  15.421 -0.4425 -0.0381 -0.0950
    2TMC2    O114320   1.106   4.643  15.264 -0.1794  0.0648  0.4749
    2TMC2    O214321   1.401   0.370  15.481 -0.4942 -0.3987 -0.2009
    2TMC2    O514322   1.457   0.218  15.317  0.0336 -0.5284  0.9156
    2TMC2    H514323   1.446   0.123  15.294  1.1819 -0.3240 -0.4623
    3MPD1     C14324   1.425   0.115  16.295 -0.6978  0.2684 -0.2762
    3MPD1    C114325   1.501   0.187  16.208 -0.8590  0.2312  0.3916
    3MPD1    C214326   1.479   0.180  16.073  0.0314  0.3048 -0.3245
    3MPD1    C314327   1.380   0.100  16.020 -0.2868  0.2698 -0.3629
    3MPD1    C414328   1.293   0.037  16.102 -0.5762  0.5244  0.1084
    3MPD1    C514329   1.318   0.048  16.240  0.0471 -1.0885 -0.0808
    3MPD1     H14330   1.545   0.230  16.003 -2.1889  0.4017 -2.3546
    3MPD1    H114331   1.206   4.721  16.068  1.0902 -0.7598 -2.1071
    3MPD1    H214332   1.444   0.119  16.402 -2.8553  0.4235  0.1058
    3MPD1    H314333   1.252   4.727  16.302  0.4489 -1.2106  0.2341
    3MPD1     N14334   1.364   0.097  15.878 -0.6640  0.0609  0.0341
    3MPD1    H514335   1.392   0.183  15.832  0.3636 -1.6738 -2.5794
    3MPD1    N114336   1.616   0.247  16.253 -0.1233 -0.0780 -0.0201
    3MPD1    H614337   1.653   0.320  16.191  1.3608 -1.5093 -0.8330
    3MPD1    H714338   1.630   0.264  16.352  2.6056 -0.6084 -0.2992
    1TMC1    C114339   3.980   3.886  13.328  0.1218 -0.3194 -0.3083
    1TMC1    C214340   4.030   3.788  13.245 -0.2290  0.3306  0.1401
    1TMC1    C314341   3.946   3.689  13.222  0.7704  0.3579 -0.7815
    1TMC1    C414342   3.859   3.884  13.392 -0.9114 -0.3325  0.2405
    1TMC1    C514343   3.795   3.764  13.379  0.8200  0.4605 -0.2167
    1TMC1    C614344   3.839   3.662  13.298  0.2266 -0.0705 -0.0834
    1TMC1     C14345   4.054   4.009  13.341  0.3807  1.0144  0.4439
    1TMC1     O14346   4.000   4.107  13.394 -0.1499  0.9431  0.0234
    1TMC1     H14347   4.108   3.807  13.172 -0.4969 -1.7852 -0.7014
    1TMC1    H114348   3.811   3.970  13.436  3.1038  1.9213  0.1797
    1TMC1    H214349   3.770   3.582  13.275 -0.8468  0.6739  0.5406
    1TMC1    C714350   3.655   3.779  13.391 -0.1992 -0.4512 -0.7118
    1TMC1    C814351   3.995   3.584  13.133  0.4809 -0.0893 -0.2943
    1TMC1    O114352   3.576   3.731  13.311  0.5553  0.3007 -0.6049
    1TMC1    O214353   3.951   3.472  13.162  0.2578 -0.3645 -0.4478
    1TMC1    O314354   3.635   3.806  13.515 -0.3307  0.8708 -0.0746
    1TMC1    H314355   3.717   3.789  13.565 -1.5590 -0.3823  1.5275
    1TMC1    O514356   4.021   3.629  13.012  0.0831 -0.0576  0.3362
    1TMC1    H514357   4.035   3.722  12.986 -0.3370 -0.2759 -0.6784
    2MPD2     C14358   4.261   4.231  13.342 -0.0090 -0.1894 -0.5451
    2MPD2    C114359   4.294   4.096  13.343 -0.0402  0.5095  0.0790
    2MPD2    C214360   4.423   4.062  13.361 -0.2421  0.5705 -0.3047
    2MPD2    C314361   4.524   4.156  13.397  0.1753 -0.4207 -0.8901
    2MPD2    C414362   4.494   4.291  13.393 -0.2094  0.6343  0.2746
    2MPD2    C514363   4.362   4.326  13.357  0.1468  0.2999 -0.0810
    2MPD2     H14364   4.446   3.956  13.362 -2.8445  0.0376  1.7248
    2MPD2    H114365   4.567   4.371  13.403  0.5431 -0.2394  1.7285
    2MPD2    H214366   4.164   4.269  13.311  0.2184  0.9987  0.2305
    2MPD2    H314367   4.337   4.430  13.338 -0.3662 -0.1087 -1.5694
    2MPD2     N14368   4.649   4.105  13.439 -0.3187 -0.1428 -0.4382
    2MPD2    H514369   4.669   4.008  13.415 -1.9837 -0.5904  0.0089
    2MPD2    N114370   4.197   3.992  13.319 -0.3602 -0.1237 -0.2455
    2MPD2    H714371   4.228   3.897  13.305  0.7802  0.4049 -1.2530
    3TCq1    O114372   0.476   4.123  13.838 -0.0928  0.3254  0.4303
    3TCq1    C114373   0.346   4.136  13.833 -0.4550  0.7221  0.0384
    3TCq1    O214374   0.266   4.124  13.924  0.0585  0.9589 -0.2082
    3TCq1    C214375   0.301   4.116  13.692 -0.0588 -0.2074 -0.3653
    3TCq1    C314376   0.377   4.055  13.597  0.8844 -0.4648 -0.4947
    3TCq1    C414377   0.323   4.029  13.476  0.1872 -0.0810  0.2152
    3TCq1    C514378   0.191   4.056  13.453  0.3404  0.3986  0.3406
    3TCq1    C614379   0.118   4.113  13.553 -0.4563 -0.1211  0.3394
    3TCq1    C714380   0.171   4.146  13.670  0.5757  1.0011 -0.1492
    3TCq1    C814381   4.730   4.175  13.522  0.4311  0.1511  0.3628
    3TCq1    O414382   4.698   4.271  13.591 -0.8962 -0.1343  0.5786
    3TCq1    C914383   0.405   3.971  13.370 -0.6489 -0.4945 -0.0960
    3TCq1    O514384   0.514   3.920  13.400 -0.3186  1.0508  0.4889
    3TCq1    O614385   0.354   3.958  13.259  0.4474 -0.0507 -0.0561
    3TCq1    H114386   0.526   4.131  13.754 -2.4185 -1.3764 -1.1362
    3TCq1    H214387   0.483   4.036  13.604  0.7294 -0.1777  2.8146
    3TCq1    H314388   0.142   4.031  13.360 -0.1642 -2.4753  1.3567
    3TCq1    H414389   0.115   4.200  13.745  0.3895  0.6530 -0.0388
    1MPD2     C14390   4.201   0.482  14.057  0.2703  0.7578 -0.1193
    1MPD2    C114391   4.131   0.400  14.136  0.0325 -0.3444  0.1876
    1MPD2    C214392   4.205   0.350  14.237 -0.2660  0.1371  0.3840
    1MPD2    C314393   4.337   0.383  14.262 -0.0129  0.3037 -0.0728
    1MPD2    C414394   4.407   0.464  14.176  0.3382 -0.7908  0.0837
    1MPD2    C514395   4.331   0.506  14.068  0.1115 -0.2837 -0.5277
    1MPD2     H14396   4.158   0.273  14.297  2.8892  0.5727  3.4133
    1MPD2    H114397   4.513   0.486  14.185  0.3799 -0.8135 -0.3445
    1MPD2    H214398   4.160   0.521  13.964  1.6481 -1.9844 -1.8428
    1MPD2    H314399   4.379   0.566  13.991 -1.8077 -0.9974 -2.2757
    1MPD2     N14400   4.414   0.341  14.380 -1.0440 -0.3353 -0.4810
    1MPD2    H514401   4.514   0.362  14.381 -1.0384 -0.3955  0.5676
    1MPD2    N114402   4.001   0.365  14.097 -0.6318  0.2119 -0.0721
    1MPD2    H714403   3.950   0.420  14.028 -1.2389 -0.1898  0.0609
    2TMC3    C114404   3.803   0.248  14.136 -0.0480 -0.3628 -0.0738
    2TMC3    C214405   3.743   0.136  14.186 -0.2253  0.0053 -0.2279
    2TMC3    C314406   3.623   0.140  14.247  0.2834 -0.3249  0.8803
    2TMC3    C414407   3.720   0.361  14.128  0.5246  0.8162 -0.2052
    2TMC3    C514408   3.589   0.353  14.165 -0.2109  0.0774 -0.4656
    2TMC3    C614409   3.534   0.249  14.237 -0.0658 -0.3414  0.1706
    2TMC3     C14410   3.936   0.261  14.155 -0.0605  0.1285 -0.3596
    2TMC3     O14411   3.970   0.174  14.237 -0.2287 -0.3134  0.6676
    2TMC3     H14412   3.800   0.044  14.192 -0.2845 -0.1241 -1.7065
    2TMC3    H114413   3.764   0.460  14.126  0.4662  0.8654  0.8968
    2TMC3    H214414   3.433   0.244  14.275  1.5006 -2.4460  4.1328
    2TMC3    C714415   3.501   0.458  14.120  0.6312 -0.1307  0.1890
    2TMC3    C814416   3.639   0.083  14.382  0.0501 -0.1968 -0.1944
    2TMC3    O114417   3.383   0.438  14.148  0.0314  0.1528  0.0729
    2TMC3    O214418   3.540   0.057  14.449 -0.4729 -0.3689 -0.0458
    3TCq1    O114419   3.584   1.309  13.285 -0.8634 -0.4128  0.1334
    3TCq1    C114420   3.701   1.355  13.338 -0.2619 -0.0569 -0.2356
    3TCq1    O214421   3.752   1.470  13.325 -0.1734  0.3557 -0.2774
    3TCq1    C214422   3.707   1.269  13.461  0.0489 -0.3912 -0.1534
    3TCq1    C314423   3.821   1.275  13.536  0.1407 -0.0149 -0.1681
    3TCq1    C414424   3.823   1.216  13.656 -0.4718  0.0241  1.1103
    3TCq1    C514425   3.718   1.141  13.705 -1.2913  0.2442  0.8223
    3TCq1    C614426   3.607   1.134  13.632  0.3351  0.1825  0.0085
    3TCq1    C714427   3.598   1.201  13.510  0.0133  0.3275 -0.5459
    3TCq1    C814428   3.515   1.023  13.653  0.0222  0.0165 -0.6191
    3TCq1    O414429   3.399   1.031  13.608  0.1639  0.6042  0.0596
    3TCq1    C914430   3.949   1.217  13.733  0.1234  0.5499  0.1108
    3TCq1    O514431   3.963   1.129  13.825  0.0433  0.7093 -0.1428
    3TCq1    O614432   4.038   1.300  13.700 -0.1604 -0.3923 -0.2070
    3TCq1    H114433   3.583   1.212  13.294 -0.9121 -0.5061 -0.9538
    3TCq1    H214434   3.915   1.318  13.504 -1.1232  3.1212  0.3004
    3TCq1    H314435   3.728   1.099  13.804 -3.5889  0.9278  1.3311
    3TCq1    H414436   3.501   1.213  13.462 -0.9001  1.4590  1.5721
    4MPD2     C14437   3.352   0.819  13.804  0.0844 -0.1187 -0.0267
    4MPD2    C114438   3.492   0.833  13.812 -0.7912  0.0749 -1.0913
    4MPD2    C214439   3.558   0.751  13.896  0.5436 -0.3097  0.0933
    4MPD2    C314440   3.486   0.649  13.967 -0.4079  0.4370  0.5876
    4MPD2    C414441   3.349   0.651  13.965  0.1385  0.0340  0.1791
    4MPD2    C514442   3.284   0.732  13.882  0.3616  0.1495 -0.2445
    4MPD2     H14443   3.664   0.766  13.914 -0.0698  1.6870  2.1372
    4MPD2    H114444   3.281   0.588  14.020  1.8383 -2.2794 -0.3698
    4MPD2    H214445   3.292   0.870  13.730 -1.0382  0.0757  1.0205
    4MPD2    H314446   3.176   0.724  13.872  0.1161  2.0486  0.8070
    4MPD2     N14447   3.555   0.545  14.032 -0.6033  0.7192 -0.4165
    4MPD2    H514448   3.651   0.537  14.001 -0.7112 -0.6465 -0.4002
    4MPD2    N114449   3.563   0.931  13.747  0.5214 -0.3404  0.0508
    4MPD2    H714450   3.663   0.939  13.763  1.0871 -0.5635 -3.3408
    5TMC2    C114451   4.385   0.054  14.735 -0.6973 -0.0432 -0.8936
    5TMC2    C214452   4.428   0.136  14.832 -0.5064 -0.8743 -0.2270
    5TMC2    C314453   4.492   0.248  14.790  0.0887 -0.6525  0.0588
    5TMC2    C414454   4.404   0.079  14.606  0.0614 -0.0582 -0.0077
    5TMC2    C514455   4.453   0.205  14.568  0.0226  0.1132  0.2396
    5TMC2    C614456   4.501   0.294  14.656  0.2447  0.5608 -0.2210
    5TMC2     C14457   4.264   4.718  14.759 -0.1012  0.3859  0.5914
    5TMC2     O14458   4.241   4.666  14.869 -0.1291  1.2495  0.2912
    5TMC2     H14459   4.403   0.115  14.935  0.0974 -0.2199  0.0589
    5TMC2    H114460   4.365   0.019  14.524 -3.3013 -0.3100  1.7996
    5TMC2    H214461   4.544   0.388  14.623 -2.4288  0.9581 -2.5538
    5TMC2    C714462   4.363   0.251  14.473 -0.1086 -0.5067  0.2632
    5TMC2    C814463   4.539   0.356  14.886  0.2453  0.5273 -0.0095
    5TMC2    O114464   4.248   0.205  14.478  0.1537 -0.0965 -0.5582
    5TMC2    O214465   4.478   0.384  14.989 -0.0231  0.0550 -0.1691
    5TMC2    O514466   4.664   0.394  14.849 -0.5509 -0.1920  0.0533
    5TMC2    H514467   4.688   0.353  14.763 -2.7079 -1.4821  0.0357
    6MPD2     C14468   3.759   4.676  14.628 -0.2588  0.3086 -0.0160
    6MPD2    C114469   3.828   0.013  14.532  0.1550 -0.2350  0.4696
    6MPD2    C214470   3.967   0.021  14.541 -0.4371  0.0206 -0.4995
    6MPD2    C314471   4.030   4.703  14.650 -0.9879 -0.3253  0.6424
    6MPD2    C414472   3.962   4.640  14.750 -0.2701 -0.7076  0.5398
    6MPD2    C514473   3.820   4.622  14.737 -0.3336 -0.1866  0.2524
    6MPD2     H14474   4.027   0.070  14.465 -1.9841  1.1686 -0.9844
    6MPD2    H114475   4.010   4.588  14.833  3.7557  1.6481 -0.3217
    6MPD2    H214476   3.651   4.673  14.628 -0.3186  2.1300  0.7954
    6MPD2    H314477   3.772   4.570  14.819  0.1546  0.5663  1.0188
    6MPD2     N14478   4.170   0.000  14.657 -0.3442 -0.1631 -0.5096
    6MPD2    H514479   4.200   0.057  14.578  0.7227 -1.6854 -1.1804
    6MPD2    N114480   3.770   0.075  14.419 -0.4816 -0.1363 -0.0174
    6MPD2    H714481   3.842   0.110  14.357 -1.8945  0.5390 -1.2692
  945NH3     N114482   3.271   3.027  11.725 -0.0487 -0.2096 -0.6341
  945NH3     H214483   3.330   2.948  11.747 -0.4284  0.1557  1.6401
  945NH3     H314484   3.329   3.110  11.734  0.6984 -0.7601 -0.4437
  945NH3     H414485   3.266   3.012  11.625 -0.8130 -1.0464 -0.4664
  946SOD     NA14486   1.048   4.362   5.030 -0.3881  0.0053 -0.0143
  947SOD     NA14487   1.255   3.542  11.247  0.0826 -0.4327  0.0874
  948SOD     NA14488   3.580   0.859   6.301 -0.0733 -0.0721  0.0349
  949SOD     NA14489   0.009   0.160  11.610  0.1365  0.2546  0.0323
  950SOD     NA14490   0.979   4.698   2.650  0.2497 -0.0912  0.1695
  951SOD     NA14491   0.114   0.423  15.736 -0.4708  0.1680  0.0086
  952SOD     NA14492   4.082   0.777  14.445 -0.2484  0.1066 -0.0902
  953SOD     NA14493   3.668   2.589  16.298  0.2154  0.2314 -0.4460
  954SOL     OW14494   1.673   2.649   7.622 -0.3440  0.4117 -0.3646
  954SOL    HW114495   1.675   2.705   7.699  1.9821 -0.0614 -0.0975
  954SOL    HW214496   1.735   2.698   7.568  0.5525  1.6981  1.8342
  955SOL     OW14497   0.420   1.932   9.562 -0.3700  0.2774 -0.4359
  955SOL    HW114498   0.474   1.946   9.640 -0.9532  0.3567 -0.0461
  955SOL    HW214499   0.369   1.855   9.585  2.2937 -1.1787  0.6783
  956SOL     OW14500   1.392   0.307   8.833  0.1466 -0.2718 -0.0337
  956SOL    HW114501   1.380   0.388   8.882 -0.4265  0.3655 -1.2088
  956SOL    HW214502   1.466   0.326   8.775  0.5499 -0.1752  0.5185
  957SOL     OW14503   0.699   0.885   8.181  0.6694 -0.2005 -0.3004
  957SOL    HW114504   0.698   0.902   8.275 -0.3585  0.5776 -0.4529
  957SOL    HW214505   0.627   0.822   8.174  1.2765 -1.0630  1.3573
  958SOL     OW14506   0.161   1.718  12.033  0.3171 -0.2348 -0.0999
  958SOL    HW114507   0.203   1.632  12.026  0.8177 -0.0844  1.0167
  958SOL    HW214508   0.086   1.701  12.091  0.2474  1.5464  0.3364
  959SOL     OW14509   4.645   3.237   2.826 -0.3021  0.8622  0.4374
  959SOL    HW114510   4.590   3.277   2.758  0.8055  3.3362  0.9796
  959SOL    HW214511   4.710   3.200   2.767 -1.0835 -0.0690  0.1603
  960SOL     OW14512   2.025   2.410   4.879  0.0440 -0.1972 -0.3052
  960SOL    HW114513   2.068   2.343   4.826 -1.4631 -0.1987 -1.5009
  960SOL    HW214514   1.980   2.360   4.947 -0.2082  0.4915  0.0388
  961SOL     OW14515   0.440   3.920   0.782  0.1286 -0.4980 -0.1649
  961SOL    HW114516   0.521   3.872   0.766  0.8035  0.8414 -0.8249
  961SOL    HW214517   0.407   3.931   0.693  0.1165  0.7261 -0.0129
  962SOL     OW14518   1.118   0.203   7.894  0.2231  0.2992  0.1651
  962SOL    HW114519   1.110   0.297   7.911 -1.7108  0.3311 -0.9193
  962SOL    HW214520   1.167   0.175   7.971 -1.7744 -0.7676  1.0492
  963SOL     OW14521   4.278   2.682   5.565 -0.1722 -0.5369  0.3847
  963SOL    HW114522   4.290   2.750   5.631  0.5042 -0.0246 -0.2665
  963SOL    HW214523   4.294   2.599   5.610  0.4255 -0.3602  0.4862
  964SOL     OW14524   3.864   4.249   8.917 -0.1930 -0.4782  0.3269
  964SOL    HW114525   3.849   4.171   8.971  0.3812 -1.0406 -0.3086
  964SOL    HW214526   3.881   4.320   8.978 -2.2567  0.2304  0.0632
  965SOL     OW14527   2.050   1.324  17.005 -0.0642  0.0726  0.0566
  965SOL    HW114528   2.047   1.406  16.956  0.7375  0.6680  0.9944
  965SOL    HW214529   2.062   1.254  16.941  1.6570  1.2966 -0.9583
  966SOL     OW14530   0.561   0.187   8.174  0.6931 -0.4700  0.3497
  966SOL    HW114531   0.647   0.144   8.168  0.8733 -0.1500  0.6080
  966SOL    HW214532   0.556   0.232   8.089 -1.4775 -0.8526  0.2710
  967SOL     OW14533   3.109   4.600   8.481  0.2069  0.4431 -0.1905
  967SOL    HW114534   3.083   4.551   8.402 -0.3711  1.3351 -0.5603
  967SOL    HW214535   3.111   4.525   8.541  0.6912  0.0088 -0.7451
  968SOL     OW14536   4.632   0.868  14.999 -0.2848 -0.5184  0.2797
  968SOL    HW114537   4.676   0.866  14.914  1.4991  0.8490  1.1742
  968SOL    HW214538   4.671   0.786  15.030 -0.0710 -1.3895 -2.2283
  969SOL     OW14539   3.178   3.235  11.986 -0.7857 -0.4775  0.5385
  969SOL    HW114540   3.210   3.252  11.897  1.9044 -4.2085  0.7790
  969SOL    HW214541   3.094   3.195  11.963 -0.8768  0.2509 -0.3864
  970SOL     OW14542   0.729   1.729   7.449 -0.3062  0.2336 -0.2530
  970SOL    HW114543   0.763   1.645   7.480  1.0146  1.4509  1.6690
  970SOL    HW214544   0.641   1.722   7.487  0.6963  1.5192  2.3415
  971SOL     OW14545   0.362   1.972   7.912 -0.3495  0.7585  0.0395
  971SOL    HW114546   0.346   1.934   7.998  0.8058 -2.1330 -1.0359
  971SOL    HW214547   0.293   1.933   7.858  0.3427 -0.9318  0.3793
  972SOL     OW14548   4.043   2.167   8.414 -0.3218  0.4201  0.2807
  972SOL    HW114549   4.027   2.261   8.414 -1.3850  0.2470 -1.2813
  972SOL    HW214550   3.972   2.138   8.471 -0.4826  0.8215  0.2821
  973SOL     OW14551   3.915   2.406   8.411 -0.3586 -0.0754  0.1108
  973SOL    HW114552   3.852   2.392   8.482  0.8529  1.1769  1.4358
  973SOL    HW214553   3.864   2.379   8.334 -0.2945  2.0165 -0.6688
  974SOL     OW14554   0.897   1.252   4.071  0.4772 -0.0134  0.2579
  974SOL    HW114555   0.823   1.239   4.131 -0.3371  2.9151 -0.1439
  974SOL    HW214556   0.847   1.270   3.992 -0.0316 -2.2951  0.0493
  975SOL     OW14557   2.001   1.076   8.157  0.0449 -0.3891  0.2086
  975SOL    HW114558   2.065   1.142   8.184  2.1267 -1.6216 -1.7703
  975SOL    HW214559   1.939   1.087   8.230 -0.4450 -1.1088 -0.1051
  976SOL     OW14560   4.107   0.910   7.960 -0.3796 -0.2692  0.0990
  976SOL    HW114561   4.107   0.949   7.872  2.7148  0.3055  0.3500
  976SOL    HW214562   4.141   0.982   8.013 -1.8134  0.1494  0.4573
  977SOL     OW14563   0.150   1.054   6.386  0.5800  0.0136 -0.3205
  977SOL    HW114564   0.066   1.098   6.376  0.0603 -1.4842 -2.5082
  977SOL    HW214565   0.169   1.054   6.480 -0.6545 -1.0621 -0.0685
  978SOL     OW14566   0.226   4.197  14.636 -0.1014  0.1427 -0.1695
  978SOL    HW114567   0.221   4.283  14.679 -1.8337 -0.4855  0.8541
  978SOL    HW214568   0.159   4.202  14.569  0.5390  1.6508 -0.7202
  979SOL     OW14569   1.413   2.818   8.572 -0.6072 -0.2231 -0.1038
  979SOL    HW114570   1.483   2.770   8.616  0.8658  2.1953  0.1675
  979SOL    HW214571   1.470   2.866   8.511  1.1617 -0.4194  1.3758
  980SOL     OW14572   1.845   1.002   5.331 -0.0959  1.0427  0.4178
  980SOL    HW114573   1.863   1.095   5.343 -1.1203  1.3360 -0.3563
  980SOL    HW214574   1.823   1.002   5.238 -0.9425 -0.2541  0.6183
  981SOL     OW14575   1.480   1.452   4.328 -0.0451 -0.3373  0.0598
  981SOL    HW114576   1.386   1.462   4.314 -0.1421 -0.9854  0.2540
  981SOL    HW214577   1.507   1.415   4.244  2.2151  3.4038 -0.8558
  982SOL     OW14578   3.962   2.065   9.582 -0.8196 -0.4873 -0.3972
  982SOL    HW114579   3.996   1.976   9.589  0.2984  0.1728  2.3894
  982SOL    HW214580   3.975   2.104   9.668 -0.3856 -2.4970  0.4303
  983SOL     OW14581   4.047   2.934  13.256  0.1752 -0.2351 -0.2389
  983SOL    HW114582   3.965   2.919  13.209 -0.7324 -0.2552  1.3493
  983SOL    HW214583   4.032   3.028  13.269  2.1332  0.1734 -0.9254
  984SOL     OW14584   3.489   1.991   7.029  0.2188 -0.6057 -0.0927
  984SOL    HW114585   3.418   1.939   7.066  1.9717 -1.5737  1.9434
  984SOL    HW214586   3.567   1.944   7.060 -0.1550 -0.5801  0.8933
  985SOL     OW14587   0.814   3.181   1.791  0.3664 -0.1755 -0.2089
  985SOL    HW114588   0.872   3.222   1.855  3.8651 -2.4580 -1.9069
  985SOL    HW214589   0.855   3.102   1.755  2.2681  1.1954 -1.0880
  986SOL     OW14590   0.710   0.515  13.883 -0.1094  0.0244 -0.0857
  986SOL    HW114591   0.736   0.492  13.973 -0.0756  0.8814  0.1193
  986SOL    HW214592   0.658   0.594  13.889 -0.0560 -0.0322  1.2276
  987SOL     OW14593   2.720   4.002  15.199 -0.5721  0.3524 -0.5802
  987SOL    HW114594   2.716   4.091  15.162 -1.4870  1.2943  1.7721
  987SOL    HW214595   2.790   3.976  15.138 -0.0988 -0.5146  0.3342
  988SOL     OW14596   1.259   0.432  10.137 -0.0877  0.0008  0.0941
  988SOL    HW114597   1.209   0.376  10.197 -3.2327  0.9907 -1.6316
  988SOL    HW214598   1.339   0.446  10.189 -1.0019 -0.2285  1.5845
  989SOL     OW14599   1.471   0.626   4.379 -0.6532 -0.1325 -0.1334
  989SOL    HW114600   1.517   0.564   4.323  0.3623 -0.8520  1.4794
  989SOL    HW214601   1.540   0.684   4.410 -0.0417 -0.3329 -1.1276
  990SOL     OW14602   1.150   2.429  16.307 -0.4974  0.4275  0.6480
  990SOL    HW114603   1.199   2.442  16.226  0.0897 -1.5716  0.6956
  990SOL    HW214604   1.084   2.499  16.300 -0.8560  0.0818  0.5940
  991SOL     OW14605   0.257   4.513   0.098 -0.0538 -0.4352 -0.3712
  991SOL    HW114606   0.348   4.530   0.074  0.0212 -0.2785  0.0228
  991SOL    HW214607   0.270   4.426   0.135  1.4293 -0.4732 -0.9848
  992SOL     OW14608   0.573   2.814   2.979  0.4918  0.0587  0.7630
  992SOL    HW114609   0.644   2.868   2.945  0.4369 -0.5686 -0.3117
  992SOL    HW214610   0.513   2.879   3.017 -0.2172  0.8381 -1.6893
  993SOL     OW14611   0.869   0.457   2.035  0.0402  0.5373 -0.5124
  993SOL    HW114612   0.874   0.406   1.954  1.9013 -0.2882  0.1286
  993SOL    HW214613   0.831   0.395   2.097 -1.4544  0.4944 -1.4749
  994SOL     OW14614   0.420   4.481   1.263 -0.2153 -0.0408 -0.5862
  994SOL    HW114615   0.401   4.559   1.316  3.5073 -0.3066  1.0771
  994SOL    HW214616   0.451   4.524   1.183  0.8293 -2.0658 -1.2459
  995SOL     OW14617   3.642   2.518  16.515 -0.1069 -0.5476 -0.4104
  995SOL    HW114618   3.626   2.565  16.597  1.7194 -0.9304  0.1577
  995SOL    HW214619   3.604   2.435  16.542 -0.8787 -0.2327 -0.5073
  996SOL     OW14620   1.097   2.797   4.270  0.1996  0.1683  0.4112
  996SOL    HW114621   1.187   2.764   4.266  0.9410  1.9725  2.1604
  996SOL    HW214622   1.111   2.852   4.192 -1.0861  1.5402  1.1539
  997SOL     OW14623   1.957   0.042   9.245 -0.3179  0.1979  0.5858
  997SOL    HW114624   2.009   0.121   9.227 -0.5227 -0.3297 -2.2955
  997SOL    HW214625   1.872   0.085   9.242 -1.7039 -2.4846  1.4358
  998SOL     OW14626   4.351   3.970   1.087 -0.2780 -0.3300  0.3176
  998SOL    HW114627   4.353   4.066   1.085 -0.1106 -0.4092 -2.8976
  998SOL    HW214628   4.338   3.960   0.993 -0.7689  0.4132  0.3073
  999SOL     OW14629   0.062   1.970   7.183  0.4376 -0.3426 -0.2904
  999SOL    HW114630   4.718   2.005   7.148 -0.4498 -1.2915  0.8243
  999SOL    HW214631   0.098   2.051   7.221  0.6179 -0.6043  0.0967
 1000SOL     OW14632   2.506   1.253  14.358  0.1541  0.0755 -0.4850
 1000SOL    HW114633   2.437   1.188  14.372 -1.0668  1.6023  0.5869
 1000SOL    HW214634   2.573   1.201  14.404  0.1973 -1.5268 -2.3747
 1001SOL     OW14635   4.241   4.444   1.116  0.0367  0.6310  0.2821
 1001SOL    HW114636   4.303   4.514   1.136  0.1905  0.0638  1.8344
 1001SOL    HW214637   4.190   4.433   1.197  0.4650 -3.4357  0.0277
 1002SOL     OW14638   0.161   4.655   6.210 -0.1875  0.0210  0.3473
 1002SOL    HW114639   0.249   4.652   6.173 -0.3382 -2.2630  0.2060
 1002SOL    HW214640   0.122   4.576   6.174  0.8593 -0.3003 -0.0783
 1003SOL     OW14641   2.177   4.540  17.587 -0.3200  0.2850 -0.3169
 1003SOL    HW114642   2.213   4.550  17.675 -1.1549 -0.4553  0.1066
 1003SOL    HW214643   2.092   4.582  17.592 -0.3975 -0.2119  2.5655
 1004SOL     OW14644   3.056   3.392  16.286 -0.3634 -0.6045 -0.0175
 1004SOL    HW114645   3.138   3.353  16.255 -0.5157 -0.2046 -0.9238
 1004SOL    HW214646   3.016   3.319  16.333 -3.2315  1.2670  0.4227
 1005SOL     OW14647   2.935   3.641   5.421  0.2385 -0.1581  0.4253
 1005SOL    HW114648   2.935   3.730   5.387  0.5528  0.6916  2.6161
 1005SOL    HW214649   2.962   3.591   5.345 -1.2315 -0.3523  0.0239
 1006SOL     OW14650   0.278   4.024   2.545 -0.0642  0.2445 -0.9909
 1006SOL    HW114651   0.302   4.109   2.509 -1.0842  1.0786  0.2677
 1006SOL    HW214652   0.184   4.016   2.530 -0.0647 -0.4586 -0.6293
 1007SOL     OW14653   3.230   2.781  15.463  0.1996  0.0432 -0.2845
 1007SOL    HW114654   3.219   2.690  15.491  0.5560  0.0308 -0.1804
 1007SOL    HW214655   3.285   2.765  15.387  0.4929 -1.4230  0.2333
 1008SOL     OW14656   3.238   2.716   0.835  0.0770  0.0296 -0.0723
 1008SOL    HW114657   3.189   2.782   0.787  0.5124  1.9401  2.0775
 1008SOL    HW214658   3.250   2.653   0.765 -2.0077  0.2996 -0.6769
 1009SOL     OW14659   2.075   2.458   9.632  0.3096 -1.1899  0.6212
 1009SOL    HW114660   2.082   2.422   9.721  1.9964 -0.1297  0.9109
 1009SOL    HW214661   2.093   2.375   9.587 -1.2378 -0.8510 -0.6246
 1010SOL     OW14662   3.651   1.686   2.082  0.2478 -0.0226  0.4965
 1010SOL    HW114663   3.630   1.766   2.035 -1.4385 -1.0915 -0.5475
 1010SOL    HW214664   3.732   1.721   2.120  1.5836 -0.5973 -1.7873
 1011SOL     OW14665   3.085   0.754   3.562 -0.4308 -0.0414  0.5040
 1011SOL    HW114666   3.000   0.749   3.518 -1.1783 -0.8673  2.0408
 1011SOL    HW214667   3.064   0.728   3.652  1.2655 -0.6079  0.7439
 1012SOL     OW14668   4.704   4.733  14.827  0.0171  0.1002 -0.0568
 1012SOL    HW114669   0.006   4.651  14.855 -1.5062 -0.0661  1.6489
 1012SOL    HW214670   4.628   4.734  14.885 -0.0478 -2.3944 -0.1373
 1013SOL     OW14671   2.626   3.187   6.037  0.3292 -0.0364  0.0647
 1013SOL    HW114672   2.614   3.264   6.092  3.4803  0.1360  0.4837
 1013SOL    HW214673   2.609   3.226   5.951  1.9640 -2.8987 -1.5493
 1014SOL     OW14674   0.811   0.765   2.010 -0.1705  0.2646  0.6208
 1014SOL    HW114675   0.849   0.682   2.039  1.4704  0.8015  0.0118
 1014SOL    HW214676   0.887   0.822   2.022  0.1648 -0.4114  1.6590
 1015SOL     OW14677   2.835   0.698  12.560 -0.1893 -0.0070  0.0600
 1015SOL    HW114678   2.896   0.761  12.522  1.2093 -1.1390  0.4475
 1015SOL    HW214679   2.905   0.642  12.592 -0.6367 -0.0610  0.9554
 1016SOL     OW14680   3.622   3.636   4.801 -0.5089  0.1933  0.1945
 1016SOL    HW114681   3.717   3.642   4.808 -0.5936  1.6813  0.0660
 1016SOL    HW214682   3.592   3.608   4.888 -0.0321  0.6226  0.4941
 1017SOL     OW14683   1.166   1.785   3.994 -0.1343 -0.1833  0.5452
 1017SOL    HW114684   1.164   1.705   4.046 -0.3491  0.0120  0.8391
 1017SOL    HW214685   1.197   1.840   4.066  2.7589 -0.1510 -0.7429
 1018SOL     OW14686   3.487   2.446   3.977 -0.1760 -0.2429  0.2554
 1018SOL    HW114687   3.441   2.378   3.927 -0.3404 -0.3450  0.5484
 1018SOL    HW214688   3.442   2.517   3.932  0.4650 -0.1457 -0.2385
 1019SOL     OW14689   2.413   2.426   9.941  0.5117  0.5817  0.5838
 1019SOL    HW114690   2.364   2.347   9.919  0.6752 -0.0327  2.4778
 1019SOL    HW214691   2.393   2.438  10.034  1.3901 -0.8293  0.9519
 1020SOL     OW14692   2.602   0.514  12.505 -0.0060  0.1094  0.2636
 1020SOL    HW114693   2.565   0.559  12.580 -2.0464  2.5467 -2.2171
 1020SOL    HW214694   2.694   0.528  12.529  0.1571 -0.9486  0.2703
 1021SOL     OW14695   3.307   0.613  11.210 -0.4737  0.1297  0.0188
 1021SOL    HW114696   3.371   0.572  11.152  0.5390 -1.0084  1.9330
 1021SOL    HW214697   3.331   0.705  11.199 -0.2063  0.1572  0.7953
 1022SOL     OW14698   1.182   4.499   9.274  0.4165  0.4787 -0.3015
 1022SOL    HW114699   1.100   4.534   9.240  0.4179  1.3862  0.6278
 1022SOL    HW214700   1.250   4.539   9.219  0.8135  2.4825  1.6503
 1023SOL     OW14701   0.934   1.021   8.457  0.2648 -0.0669 -0.0134
 1023SOL    HW114702   0.981   0.974   8.389  0.6400 -1.4798  1.2120
 1023SOL    HW214703   0.963   1.112   8.449 -1.3253  0.3982 -0.4381
 1024SOL     OW14704   4.256   0.196  16.787  0.8558 -0.8091 -0.1215
 1024SOL    HW114705   4.208   0.230  16.711 -0.1389 -1.6025  0.1506
 1024SOL    HW214706   4.293   0.274  16.827  0.7523 -1.6112  1.5156
 1025SOL     OW14707   0.591   0.616   1.989 -0.2013  0.2712  0.5749
 1025SOL    HW114708   0.636   0.561   1.925 -0.3201  0.8321  0.0111
 1025SOL    HW214709   0.653   0.688   1.999  0.8321 -0.2039 -2.3620
 1026SOL     OW14710   0.011   3.100   1.506 -0.6856 -0.2718  0.0415
 1026SOL    HW114711   0.026   3.110   1.600  0.8308  2.3110 -0.4640
 1026SOL    HW214712   0.061   3.020   1.489  0.7007  0.6410 -0.2045
 1027SOL     OW14713   4.559   0.064   4.128  0.1034 -0.3522 -0.3644
 1027SOL    HW114714   4.566   0.160   4.125 -1.2449 -0.2579 -0.5740
 1027SOL    HW214715   4.499   0.062   4.203  1.4334 -1.2525  0.6983
 1028SOL     OW14716   1.840   4.433   6.964 -0.4470  0.1218  0.0024
 1028SOL    HW114717   1.858   4.498   7.033 -0.2610  0.1566 -0.0804
 1028SOL    HW214718   1.879   4.352   6.998 -2.3261 -0.4192  0.9070
 1029SOL     OW14719   4.047   4.435  16.928  0.3751 -0.1608 -0.2830
 1029SOL    HW114720   4.045   4.388  16.844  1.1274 -1.9071  0.6674
 1029SOL    HW214721   4.140   4.426  16.949  1.0156  0.9871 -2.5867
 1030SOL     OW14722   2.627   3.721   0.474  0.1956 -0.1711  0.0780
 1030SOL    HW114723   2.685   3.789   0.509 -1.3144  0.9448  0.3826
 1030SOL    HW214724   2.668   3.639   0.503 -1.7357 -0.4926  1.8385
 1031SOL     OW14725   3.998   0.922   8.392  0.0476  0.4324  0.0876
 1031SOL    HW114726   4.023   0.899   8.482 -3.6838 -0.7701  0.8198
 1031SOL    HW214727   3.914   0.876   8.390  0.5906 -0.5031 -1.3760
 1032SOL     OW14728   3.777   2.389   8.640  0.2320  0.4660  0.3265
 1032SOL    HW114729   3.818   2.384   8.726 -0.1449 -0.6727  0.4404
 1032SOL    HW214730   3.706   2.326   8.653  0.9269 -0.3334  0.2410
 1033SOL     OW14731   2.582   3.612   0.895 -0.0043 -0.3883 -0.2873
 1033SOL    HW114732   2.581   3.698   0.853  0.0106 -0.2836 -0.0721
 1033SOL    HW214733   2.492   3.582   0.886 -1.0226  2.4903  0.3981
 1034SOL     OW14734   4.027   2.726   7.756 -0.2350  0.7330  0.0451
 1034SOL    HW114735   4.000   2.804   7.805  0.4267 -1.2079  3.5034
 1034SOL    HW214736   3.956   2.713   7.693  1.6925 -2.5067 -1.4410
 1035SOL     OW14737   0.157   1.387  14.419 -0.1175  0.0238 -0.0018
 1035SOL    HW114738   0.125   1.321  14.357 -0.0192 -0.3108  0.3006
 1035SOL    HW214739   0.190   1.450  14.355  2.8182 -0.3083  1.1810
 1036SOL     OW14740   4.065   4.298  10.114 -0.7108 -0.6378 -0.2544
 1036SOL    HW114741   4.055   4.375  10.059  0.7904 -0.0963  0.2281
 1036SOL    HW214742   4.078   4.341  10.198  0.4750  0.6393 -1.1002
 1037SOL     OW14743   2.579   3.298  11.537 -0.5585  0.1821 -0.7136
 1037SOL    HW114744   2.618   3.212  11.541 -2.1049 -0.4643  0.6107
 1037SOL    HW214745   2.661   3.345  11.525  0.1116 -0.9868 -0.6401
 1038SOL     OW14746   3.501   4.269   8.659  0.2785 -0.0802  0.1343
 1038SOL    HW114747   3.565   4.324   8.704 -0.9686  2.8656 -1.6701
 1038SOL    HW214748   3.525   4.189   8.704  0.2919  1.2577  2.4961
 1039SOL     OW14749   1.989   3.135   0.119 -0.0104 -0.2282  0.0705
 1039SOL    HW114750   2.027   3.052   0.090  1.0394 -0.2450  1.5088
 1039SOL    HW214751   2.061   3.197   0.107  0.3418 -0.3291  1.6811
 1040SOL     OW14752   3.066   3.537   3.087 -0.1775  0.7404  0.8707
 1040SOL    HW114753   3.039   3.448   3.111 -1.0422  0.4545 -1.1511
 1040SOL    HW214754   3.045   3.532   2.994 -1.5471  1.9384  1.1039
 1041SOL     OW14755   0.554   1.024   8.748 -0.1232  0.3100  0.1383
 1041SOL    HW114756   0.611   1.033   8.824 -1.2311  2.8385  0.6630
 1041SOL    HW214757   0.564   1.115   8.720  0.9100  0.4461  0.9595
 1042SOL     OW14758   0.725   1.825   3.495 -0.2915 -0.2896 -0.0931
 1042SOL    HW114759   0.743   1.732   3.489  0.6265 -0.1757  1.0500
 1042SOL    HW214760   0.784   1.841   3.568 -1.6822 -1.1334  1.2180
 1043SOL     OW14761   1.988   0.911   4.236 -0.2017 -0.4252 -0.8421
 1043SOL    HW114762   1.988   0.865   4.320  1.7405  1.7209  0.3499
 1043SOL    HW214763   2.054   0.979   4.249 -0.2848 -0.3257 -0.9530
 1044SOL     OW14764   1.330   4.397   7.011 -0.0416 -0.6631 -0.4638
 1044SOL    HW114765   1.408   4.381   7.064 -0.1826 -0.9362 -0.3387
 1044SOL    HW214766   1.339   4.484   6.972 -0.8378  0.2443  1.4002
 1045SOL     OW14767   0.349   0.878   8.315  0.2774 -0.4396  0.6247
 1045SOL    HW114768   0.417   0.910   8.374  0.3287  0.0791  0.2839
 1045SOL    HW214769   0.359   0.782   8.312 -0.2298 -0.4095 -1.9470
 1046SOL     OW14770   3.087   0.169   5.334  0.2272 -0.1292 -0.4869
 1046SOL    HW114771   3.159   0.107   5.349 -0.1699 -0.1197  1.3576
 1046SOL    HW214772   3.109   0.178   5.241 -0.9682  1.4012 -0.6230
 1047SOL     OW14773   2.737   4.467   3.853 -0.5375  0.5469  0.2546
 1047SOL    HW114774   2.785   4.402   3.904  1.0700  0.6023 -1.1871
 1047SOL    HW214775   2.791   4.476   3.774  1.8997 -0.5344  1.8101
 1048SOL     OW14776   2.539   0.653  12.726 -0.4814  0.6394 -0.4008
 1048SOL    HW114777   2.612   0.651  12.787  0.4924 -0.5135 -1.6018
 1048SOL    HW214778   2.477   0.700  12.783 -1.7336 -1.4673 -0.0120
 1049SOL     OW14779   0.192   1.340  17.213 -0.3847  0.0155  0.5990
 1049SOL    HW114780   0.194   1.377  17.125  0.3328  0.0125  0.6183
 1049SOL    HW214781   0.174   1.423  17.257  1.8893  0.7073  0.1987
 1050SOL     OW14782   2.913   3.269  10.588 -0.2115  0.4391 -0.1588
 1050SOL    HW114783   2.984   3.227  10.636 -0.0653  1.6340  0.6765
 1050SOL    HW214784   2.850   3.197  10.582  1.2055 -1.0616  3.2549
 1051SOL     OW14785   3.871   3.193   4.410 -0.5311 -0.1529  0.0133
 1051SOL    HW114786   3.871   3.267   4.470  1.5271  0.8981 -1.2579
 1051SOL    HW214787   3.924   3.131   4.460 -0.0453  1.0849  1.0255
 1052SOL     OW14788   3.781   0.007  13.323  0.0211 -0.7632  0.6034
 1052SOL    HW114789   3.869   0.037  13.301 -1.1936  0.7347 -2.2014
 1052SOL    HW214790   3.773   4.672  13.263  0.7910 -1.7581  1.7217
 1053SOL     OW14791   2.337   2.263   2.266 -0.3631 -0.1254  0.1204
 1053SOL    HW114792   2.408   2.305   2.315 -0.7866 -0.9556  1.4486
 1053SOL    HW214793   2.300   2.342   2.228 -1.0320 -0.8635 -0.7624
 1054SOL     OW14794   2.512   2.504   5.779  0.2743  0.4140  0.0059
 1054SOL    HW114795   2.554   2.487   5.863  1.1842  0.1239 -0.5001
 1054SOL    HW214796   2.507   2.599   5.780  0.2213  0.4141 -0.2485
 1055SOL     OW14797   2.254   3.559   5.987  0.1702 -0.0787 -0.1826
 1055SOL    HW114798   2.291   3.540   6.073  0.9049 -0.5271 -0.6016
 1055SOL    HW214799   2.255   3.474   5.944 -1.3898  0.0346 -0.4194
 1056SOL     OW14800   0.651   4.122   7.645 -0.8117 -0.0238 -0.5997
 1056SOL    HW114801   0.626   4.107   7.737  0.5316 -0.4005 -0.3029
 1056SOL    HW214802   0.732   4.072   7.649 -1.3547 -0.9873 -1.6734
 1057SOL     OW14803   4.655   1.305   3.131 -0.4243 -0.6499 -0.1263
 1057SOL    HW114804   4.737   1.354   3.140 -1.2941  1.1424 -2.3062
 1057SOL    HW214805   4.683   1.232   3.076 -1.0370  0.5407 -2.0063
 1058SOL     OW14806   2.539   1.169   5.854 -0.0962 -0.3679  0.2434
 1058SOL    HW114807   2.523   1.262   5.871  1.7278  0.0243 -0.1559
 1058SOL    HW214808   2.453   1.140   5.827  0.6038 -1.8219 -0.4021
 1059SOL     OW14809   0.943   4.486  15.745 -0.4635  0.0282 -0.0721
 1059SOL    HW114810   0.880   4.487  15.818  0.2168  2.8176  0.4664
 1059SOL    HW214811   1.015   4.449  15.796 -0.6354  0.6569  0.6314
 1060SOL     OW14812   4.724   3.778   5.298  0.5550 -0.0692  0.2595
 1060SOL    HW114813   0.022   3.832   5.369 -0.8523  2.6841 -1.0907
 1060SOL    HW214814   4.652   3.832   5.264 -2.1108 -1.9195  3.0215
 1061SOL     OW14815   0.799   1.347  17.128  1.0681 -0.2563  0.7264
 1061SOL    HW114816   0.711   1.318  17.102  1.4282 -0.0538 -0.7608
 1061SOL    HW214817   0.830   1.374  17.042  0.9102  1.4980  1.2234
 1062SOL     OW14818   1.983   0.282   9.108 -0.5043  0.3584  0.1583
 1062SOL    HW114819   2.044   0.355   9.105 -1.6218  1.3165  0.5074
 1062SOL    HW214820   1.920   0.301   9.039 -1.2772 -0.9375  0.5060
 1063SOL     OW14821   4.592   2.941   8.475  0.2056  0.2138  0.9395
 1063SOL    HW114822   4.653   2.887   8.425 -1.3380  0.0107 -0.7274
 1063SOL    HW214823   4.554   2.877   8.536 -0.8018 -1.4238 -1.4115
 1064SOL     OW14824   2.642   0.564   3.684 -0.1379 -0.2526  0.1173
 1064SOL    HW114825   2.562   0.615   3.696 -0.2051 -0.9232  2.4937
 1064SOL    HW214826   2.636   0.504   3.759 -2.3030 -1.0051 -0.6688
 1065SOL     OW14827   2.922   1.502   1.317 -0.3544  0.1664  0.1294
 1065SOL    HW114828   2.915   1.558   1.239  3.1402  0.4721  0.0602
 1065SOL    HW214829   2.832   1.469   1.322 -0.6263  0.9521  0.5199
 1066SOL     OW14830   2.377   0.559   8.260 -0.3183  0.4356  0.0559
 1066SOL    HW114831   2.286   0.530   8.266 -0.0168 -0.7953 -1.2352
 1066SOL    HW214832   2.359   0.651   8.243  0.7919  0.5737 -0.3913
 1067SOL     OW14833   2.541   2.931   2.139  0.1398 -0.4540 -0.1088
 1067SOL    HW114834   2.470   2.988   2.168 -0.3956  0.7670 -3.7319
 1067SOL    HW214835   2.537   2.952   2.045 -0.3339  5.6013  1.2541
 1068SOL     OW14836   1.107   3.430   0.410 -0.8622 -0.1402  0.3928
 1068SOL    HW114837   1.173   3.498   0.420 -0.3198 -0.8896  1.9188
 1068SOL    HW214838   1.059   3.447   0.329 -1.7369 -0.4190  0.8460
 1069SOL     OW14839   3.585   3.252  12.612  0.3519 -0.1071  0.0691
 1069SOL    HW114840   3.645   3.268  12.686 -0.3020  0.2409  0.5240
 1069SOL    HW214841   3.625   3.170  12.583  0.0952  0.2066 -1.1364
 1070SOL     OW14842   3.428   1.779   5.246 -0.2891  0.0007  0.0135
 1070SOL    HW114843   3.349   1.762   5.194 -1.4880  0.4517  1.6763
 1070SOL    HW214844   3.496   1.759   5.182 -1.5642  1.5367 -1.8184
 1071SOL     OW14845   0.263   4.271   1.090  0.1963  0.0328 -0.7163
 1071SOL    HW114846   0.320   4.195   1.098 -0.2341 -0.0388  1.5439
 1071SOL    HW214847   0.310   4.330   1.149 -1.2292  0.4654 -0.0157
 1072SOL     OW14848   0.804   0.266  14.288  0.5342 -0.5880  0.2408
 1072SOL    HW114849   0.788   0.180  14.250  3.5960 -0.7252 -0.7225
 1072SOL    HW214850   0.893   0.256  14.321  1.1054  0.3153 -1.0010
 1073SOL     OW14851   1.148   0.885   2.111 -0.1607  0.5008 -0.1016
 1073SOL    HW114852   1.174   0.886   2.203 -0.2590  0.1515 -0.0686
 1073SOL    HW214853   1.130   0.791   2.107 -0.5402  0.5047  1.2962
 1074SOL     OW14854   1.184   1.929   2.067  0.0321 -0.0043 -0.0118
 1074SOL    HW114855   1.227   1.844   2.062  1.6462  0.6742  2.0664
 1074SOL    HW214856   1.214   1.952   2.155  1.8400  0.4736 -0.7426
 1075SOL     OW14857   3.247   4.411   8.855  0.0326  0.0966 -0.3529
 1075SOL    HW114858   3.281   4.488   8.809  0.5294 -0.3433 -0.7236
 1075SOL    HW214859   3.181   4.372   8.798  0.2870  1.5737 -1.6596
 1076SOL     OW14860   0.950   3.198   3.982  0.1058 -0.0117 -0.3927
 1076SOL    HW114861   0.902   3.116   3.987  4.1675 -2.3728 -0.2003
 1076SOL    HW214862   0.932   3.217   3.889 -0.9649  0.9852  0.0148
 1077SOL     OW14863   2.655   3.590   8.772 -0.2039 -0.4013 -0.5439
 1077SOL    HW114864   2.667   3.675   8.814 -0.8810  0.8749 -2.8892
 1077SOL    HW214865   2.628   3.625   8.687  0.2932  0.1783 -0.4599
 1078SOL     OW14866   0.658   3.886  15.413 -0.1929 -0.2771  0.5212
 1078SOL    HW114867   0.634   3.930  15.332 -1.2743  0.0643  1.0263
 1078SOL    HW214868   0.613   3.805  15.391  0.3277 -0.6482  0.8277
 1079SOL     OW14869   0.379   1.097   7.158  0.1782  0.2583 -0.0184
 1079SOL    HW114870   0.321   1.092   7.234 -1.0072 -0.8519 -1.0024
 1079SOL    HW214871   0.463   1.094   7.204 -0.2952  0.2958  0.8346
 1080SOL     OW14872   3.420   0.276  15.474  0.1036  0.3575 -0.1840
 1080SOL    HW114873   3.453   0.239  15.555  0.3221  2.2133  0.5602
 1080SOL    HW214874   3.392   0.201  15.420  1.0742 -0.2069  0.1009
 1081SOL     OW14875   4.387   1.922   3.359 -0.0975  0.3679  0.3054
 1081SOL    HW114876   4.423   1.839   3.391  0.2501  0.6294  0.5864
 1081SOL    HW214877   4.440   1.949   3.284 -1.7408  0.6385 -0.7497
 1082SOL     OW14878   1.597   3.293  15.462  0.4938 -0.3799 -0.2863
 1082SOL    HW114879   1.553   3.378  15.456  0.1661 -0.2509  3.8113
 1082SOL    HW214880   1.667   3.321  15.522  0.0274 -0.2347  0.1889
 1083SOL     OW14881   1.050   1.535   5.619  0.0761 -0.2169  0.2536
 1083SOL    HW114882   1.003   1.588   5.683 -0.1845 -1.7741  1.3354
 1083SOL    HW214883   0.981   1.480   5.582  1.1007 -1.1679 -0.2496
 1084SOL     OW14884   1.196   1.141   6.144  0.1587 -0.2986 -0.2314
 1084SOL    HW114885   1.262   1.095   6.196  1.3608  3.2552  1.3798
 1084SOL    HW214886   1.135   1.173   6.211  0.0688 -1.5836  0.3033
 1085SOL     OW14887   3.588   1.126   2.796  0.7225  0.3841 -0.0595
 1085SOL    HW114888   3.526   1.122   2.722 -0.2846  0.8472  0.7671
 1085SOL    HW214889   3.560   1.052   2.849 -1.2486  1.2819  0.1384
 1086SOL     OW14890   3.817   2.687   7.566 -0.4122  0.3466  0.1346
 1086SOL    HW114891   3.780   2.600   7.549 -0.5453  0.3906  0.1946
 1086SOL    HW214892   3.739   2.731   7.601 -0.1427  1.0104 -0.1139
 1087SOL     OW14893   3.026   1.076   9.063 -0.1083  0.3574 -0.2525
 1087SOL    HW114894   2.948   1.055   9.012 -0.8131  0.3342  0.8233
 1087SOL    HW214895   3.052   1.161   9.028  0.2875 -0.2709 -1.4737
 1088SOL     OW14896   4.559   0.294  10.966 -0.2590 -0.7465  0.3164
 1088SOL    HW114897   4.633   0.284  11.026 -0.1587  3.1110  0.8821
 1088SOL    HW214898   4.489   0.321  11.026  0.6610  0.2488  0.9405
 1089SOL     OW14899   3.790   2.960   8.881  0.4382  0.0922 -0.0762
 1089SOL    HW114900   3.768   2.979   8.789 -0.7888 -2.7450 -0.3675
 1089SOL    HW214901   3.814   2.868   8.870 -0.5161 -0.1595 -0.0140
 1090SOL     OW14902   2.229   0.972   3.723 -0.2646  0.5839 -0.7293
 1090SOL    HW114903   2.143   1.012   3.731  0.5753  2.3260 -0.3530
 1090SOL    HW214904   2.236   0.949   3.630  1.5455  1.7613 -0.8939
 1091SOL     OW14905   3.761   3.122   9.941  0.0556  0.3994 -0.7412
 1091SOL    HW114906   3.716   3.119   9.856  0.2591  0.3268 -0.8466
 1091SOL    HW214907   3.776   3.214   9.961  0.1526  0.1831  0.1488
 1092SOL     OW14908   3.998   0.499   5.992  0.4226  0.1042 -0.0294
 1092SOL    HW114909   3.961   0.428   6.045  2.8572  0.0760  1.6167
 1092SOL    HW214910   4.058   0.534   6.057  0.9662 -0.5791 -0.1575
 1093SOL     OW14911   4.426   3.800  10.866 -0.1115 -0.3170  0.0996
 1093SOL    HW114912   4.504   3.748  10.882 -0.4441 -0.9715 -0.4105
 1093SOL    HW214913   4.371   3.755  10.930 -0.6824  0.0096 -0.1583
 1094SOL     OW14914   1.118   2.580  12.722 -0.4454  0.3081  0.0584
 1094SOL    HW114915   1.183   2.591  12.792 -0.1765  0.2854 -0.1871
 1094SOL    HW214916   1.100   2.487  12.735 -0.6808  0.5795  1.7404
 1095SOL     OW14917   2.791   0.707   7.293 -0.4620 -0.4688 -0.0782
 1095SOL    HW114918   2.814   0.629   7.343 -0.3505  0.1759  0.8943
 1095SOL    HW214919   2.862   0.771   7.291 -1.8979  1.1393 -0.0102
 1096SOL     OW14920   3.614   1.022   0.560  0.2652  0.1710 -0.5042
 1096SOL    HW114921   3.538   0.964   0.571  0.2705  0.2687  0.0818
 1096SOL    HW214922   3.588   1.081   0.631 -0.9999  0.1861 -0.9830
 1097SOL     OW14923   0.535   0.213   8.445  0.0614  0.1456  0.3341
 1097SOL    HW114924   0.617   0.172   8.475  0.9595  0.4343 -1.7220
 1097SOL    HW214925   0.549   0.208   8.350 -0.3391  0.3369  0.2651
 1098SOL     OW14926   1.879   4.145   6.968 -0.4920  0.0161 -0.2628
 1098SOL    HW114927   1.881   4.069   7.026  1.0526  0.3421  0.1076
 1098SOL    HW214928   1.792   4.142   6.928 -0.7861  0.8761  0.3118
 1099SOL     OW14929   4.350   1.628   7.932  0.4937 -0.1749 -0.3921
 1099SOL    HW114930   4.328   1.571   7.859 -0.6973  0.5461 -0.5959
 1099SOL    HW214931   4.335   1.716   7.897  1.3658 -0.6505 -1.9393
 1100SOL     OW14932   1.063   3.128   2.763 -0.4734 -0.0029 -0.1522
 1100SOL    HW114933   1.051   3.104   2.671 -0.4611 -1.2007  0.1562
 1100SOL    HW214934   1.038   3.041   2.796 -2.9334  0.9782  0.5925
 1101SOL     OW14935   4.106   4.555   3.159  0.1788 -0.2171  0.0717
 1101SOL    HW114936   4.132   4.516   3.242 -0.0120  0.4403  0.4457
 1101SOL    HW214937   4.143   4.493   3.097 -1.0983 -0.1584 -0.7624
 1102SOL     OW14938   2.476   4.209   6.023 -0.0958 -0.2025  0.4092
 1102SOL    HW114939   2.460   4.131   5.971  1.2779 -0.6989  0.7066
 1102SOL    HW214940   2.558   4.234   5.979 -1.9653  1.2271 -2.2347
 1103SOL     OW14941   4.567   2.318   3.623  0.4669  0.1186  0.6238
 1103SOL    HW114942   4.608   2.396   3.659 -2.1245  2.3993 -1.3158
 1103SOL    HW214943   4.482   2.317   3.668  0.3425 -2.2291  0.3860
 1104SOL     OW14944   3.516   0.080   7.065 -0.8300  0.6861 -0.0433
 1104SOL    HW114945   3.495   0.164   7.023 -1.0565 -0.1127 -1.5002
 1104SOL    HW214946   3.436   0.051   7.109  0.2227 -0.6364  0.9912
 1105SOL     OW14947   4.212   0.613   4.751  0.5114 -0.3939 -0.3459
 1105SOL    HW114948   4.229   0.592   4.843 -2.0803  0.5100  0.3065
 1105SOL    HW214949   4.255   0.698   4.741 -0.7278  0.3828  1.0298
 1106SOL     OW14950   3.885   4.313   7.988  0.5405  0.2965  0.1657
 1106SOL    HW114951   3.854   4.385   8.043  0.1013 -0.7821  1.3195
 1106SOL    HW214952   3.980   4.313   7.994  0.5974  0.9728 -0.6943
 1107SOL     OW14953   0.205   3.199   8.295  0.0541 -0.0632  0.4210
 1107SOL    HW114954   0.239   3.213   8.383 -2.0917 -0.0700  1.2272
 1107SOL    HW214955   0.115   3.185   8.322 -0.1506 -0.6055 -0.5207
 1108SOL     OW14956   3.036   2.315  16.240 -0.2402 -0.0897 -0.4337
 1108SOL    HW114957   3.098   2.307  16.312 -0.6452  0.2395 -0.0501
 1108SOL    HW214958   3.019   2.409  16.253 -0.8603 -0.2479 -0.0707
 1109SOL     OW14959   2.846   3.348   7.502 -0.7063 -0.3574  0.5260
 1109SOL    HW114960   2.935   3.333   7.470 -0.8764 -2.3318  0.9387
 1109SOL    HW214961   2.820   3.257   7.520 -0.1083 -0.6466 -0.0505
 1110SOL     OW14962   2.396   2.860   8.629  0.0792  0.6069  0.2535
 1110SOL    HW114963   2.384   2.834   8.721 -1.3549 -0.9266 -0.3676
 1110SOL    HW214964   2.324   2.923   8.628  0.2369  0.7985  1.0702
 1111SOL     OW14965   4.662   1.831   5.521 -0.5981  0.6194 -0.2982
 1111SOL    HW114966   4.635   1.876   5.600 -0.0952  0.7018 -0.1734
 1111SOL    HW214967   4.577   1.824   5.479 -1.1225  1.1012  0.7060
 1112SOL     OW14968   0.974   0.905  13.027  0.4855 -0.6061 -0.0239
 1112SOL    HW114969   1.026   0.835  12.988  0.0900  0.0335 -1.6973
 1112SOL    HW214970   1.022   0.985  13.009 -1.3092  0.9579  2.0783
 1113SOL     OW14971   1.151   3.418  11.089  0.0210  0.1261  0.2059
 1113SOL    HW114972   1.092   3.439  11.016  1.4626  0.2867 -0.9168
 1113SOL    HW214973   1.178   3.328  11.070  0.6234  0.5064 -0.7851
 1114SOL     OW14974   2.933   1.025   8.245  0.2655 -0.2810  0.3558
 1114SOL    HW114975   3.015   0.977   8.259  1.0035  0.7102 -0.5444
 1114SOL    HW214976   2.936   1.034   8.149 -0.3721  4.6551  0.7796
 1115SOL     OW14977   2.850   2.340   3.961  0.0041  0.6021  0.3879
 1115SOL    HW114978   2.858   2.432   3.937  0.9772  0.7231  1.1919
 1115SOL    HW214979   2.819   2.303   3.878  1.2567  0.1836  0.1154
 1116SOL     OW14980   0.646   2.388   4.436  0.2661 -0.0884 -0.4388
 1116SOL    HW114981   0.667   2.409   4.527 -1.8279 -1.0522  0.2732
 1116SOL    HW214982   0.643   2.479   4.405  2.8818  0.2779  0.4101
 1117SOL     OW14983   4.731   2.079   7.873  0.0898 -0.1562 -0.2981
 1117SOL    HW114984   4.662   2.131   7.914  0.2189 -0.3961  0.2230
 1117SOL    HW214985   0.064   2.143   7.877 -1.7861  1.7954  1.7584
 1118SOL     OW14986   1.500   4.304   3.934  0.5906 -0.3542 -0.2214
 1118SOL    HW114987   1.437   4.260   3.878 -0.0876  2.2316 -1.4666
 1118SOL    HW214988   1.520   4.377   3.877 -1.2084  0.9844  0.8581
 1119SOL     OW14989   2.937   1.996  12.542 -0.7242  0.1966 -0.4333
 1119SOL    HW114990   3.029   1.981  12.521 -1.2311 -2.1621 -0.9637
 1119SOL    HW214991   2.889   1.989  12.460 -0.7778  2.3149 -0.5753
 1120SOL     OW14992   0.260   3.807   6.718 -0.0337 -0.2775  0.2756
 1120SOL    HW114993   0.308   3.875   6.767  0.8631 -1.6235  1.2748
 1120SOL    HW214994   0.213   3.757   6.785 -2.3954  0.0460 -1.1549
 1121SOL     OW14995   0.337   0.678   1.961  0.5757  0.5229  0.1097
 1121SOL    HW114996   0.430   0.659   1.966  0.6353  0.9115  0.4821
 1121SOL    HW214997   0.304   0.653   2.048  0.7150  0.3228  0.1056
 1122SOL     OW14998   2.311   3.379   2.697 -0.2964 -0.5757  0.5814
 1122SOL    HW114999   2.235   3.382   2.638  2.2400  0.4045 -2.6430
 1122SOL    HW215000   2.356   3.297   2.678  0.7129  0.5501 -1.8784
 1123SOL     OW15001   2.660   0.394   3.908 -0.3715 -0.0795  0.0978
 1123SOL    HW115002   2.701   0.318   3.868  0.0815 -0.1362  0.6692
 1123SOL    HW215003   2.704   0.403   3.993 -2.3286  0.1865  1.0773
 1124SOL     OW15004   4.569   3.566   8.956 -0.1257 -0.1385  0.3533
 1124SOL    HW115005   4.531   3.483   8.985 -0.0715 -0.2498  0.1082
 1124SOL    HW215006   4.575   3.618   9.037 -0.3733  0.6089 -0.1144
 1125SOL     OW15007   3.384   2.692  15.258  0.1000  0.6505 -0.4291
 1125SOL    HW115008   3.428   2.609  15.240 -2.1965 -0.7851  0.5899
 1125SOL    HW215009   3.433   2.760  15.212 -0.6031 -0.7918 -3.2924
 1126SOL     OW15010   1.032   0.389  10.724 -0.1200 -0.0182  0.3216
 1126SOL    HW115011   1.104   0.394  10.788 -0.0869 -0.0377  0.2856
 1126SOL    HW215012   1.081   0.376  10.643 -1.0255  2.3255 -0.6142
 1127SOL     OW15013   4.326   1.567   8.214  0.0424 -0.2813  0.3029
 1127SOL    HW115014   4.342   1.473   8.223 -1.9532 -0.4286  2.2980
 1127SOL    HW215015   4.294   1.583   8.125  2.0185  2.6370  0.1259
 1128SOL     OW15016   1.882   1.174   2.545 -0.8004  0.0550  0.4693
 1128SOL    HW115017   1.961   1.222   2.521 -1.2469  1.6575  2.2423
 1128SOL    HW215018   1.902   1.132   2.629 -0.8776 -0.2170  0.3540
 1129SOL     OW15019   0.544   0.784  16.386 -0.0958 -0.5585 -0.3828
 1129SOL    HW115020   0.617   0.828  16.430 -1.1595  0.0198  0.7923
 1129SOL    HW215021   0.472   0.841  16.413  0.2601 -0.6431  0.7199
 1130SOL     OW15022   3.956   2.644  16.501 -0.1265  0.0232 -0.3531
 1130SOL    HW115023   3.895   2.641  16.575  0.9192 -0.7002  0.4757
 1130SOL    HW215024   3.966   2.738  16.489  1.0743  0.0168  0.6281
 1131SOL     OW15025   1.797   3.065   8.025 -0.1086 -0.3066  0.5442
 1131SOL    HW115026   1.881   3.022   8.010  0.8022  2.0673 -1.1191
 1131SOL    HW215027   1.820   3.094   8.113 -0.7625 -3.4477  1.7261
 1132SOL     OW15028   0.830   1.998   8.919 -0.2222 -0.1789  0.4857
 1132SOL    HW115029   0.738   2.017   8.898  0.3236  1.0379 -0.8567
 1132SOL    HW215030   0.846   1.934   8.850  0.3717 -0.9115  1.3164
 1133SOL     OW15031   1.366   1.770   1.657  0.0518 -0.3463 -0.2399
 1133SOL    HW115032   1.401   1.858   1.650  0.4433 -0.2453  2.7331
 1133SOL    HW215033   1.422   1.727   1.722  0.7957 -0.5853 -1.0462
 1134SOL     OW15034   2.563   1.851  12.436  0.2121 -0.3402  0.4348
 1134SOL    HW115035   2.636   1.823  12.380  0.3164 -1.3672  1.0777
 1134SOL    HW215036   2.586   1.942  12.454  1.9951 -0.7627  0.3283
 1135SOL     OW15037   1.048   2.041   3.836 -0.2524 -0.9085 -0.0609
 1135SOL    HW115038   1.061   1.987   3.758  1.0656 -1.2033  0.3640
 1135SOL    HW215039   1.078   1.993   3.913  1.4678  2.1842  1.1836
 1136SOL     OW15040   4.077   2.865  14.004  0.7299 -0.4281 -0.0689
 1136SOL    HW115041   4.146   2.814  13.962  0.7751  1.7639 -2.6542
 1136SOL    HW215042   4.004   2.809  13.980  1.7989 -1.5899 -0.6567
 1137SOL     OW15043   2.155   2.034  11.507 -0.1050  0.4564 -0.4381
 1137SOL    HW115044   2.194   2.007  11.424 -0.3767 -0.6481 -0.1954
 1137SOL    HW215045   2.131   1.951  11.548  0.7593  0.3288 -0.1806
 1138SOL     OW15046   1.979   4.183   0.164  0.1338 -0.3374  0.3590
 1138SOL    HW115047   1.908   4.126   0.192 -1.0195  0.0850 -1.6143
 1138SOL    HW215048   1.958   4.204   0.072  1.7480  2.2606  0.5850
 1139SOL     OW15049   1.277   2.008   2.331 -0.2866 -0.3565  0.2935
 1139SOL    HW115050   1.256   2.043   2.418 -0.5035 -0.5557  0.3214
 1139SOL    HW215051   1.370   2.032   2.327 -0.5252  0.3803 -0.8654
 1140SOL     OW15052   0.572   2.289  10.315  0.0351 -0.2735 -0.2025
 1140SOL    HW115053   0.647   2.300  10.257 -1.1765  2.4116 -1.2830
 1140SOL    HW215054   0.501   2.292  10.251 -0.2984  0.5232  0.2007
 1141SOL     OW15055   0.194   4.259   8.812  0.5776  0.3904 -0.3031
 1141SOL    HW115056   0.129   4.200   8.850 -0.1989 -1.1027 -3.9331
 1141SOL    HW215057   0.207   4.317   8.887  1.8356 -1.1792  0.6852
 1142SOL     OW15058   0.198   3.978   1.507 -0.0095 -0.3526  0.1299
 1142SOL    HW115059   0.152   3.894   1.498 -0.9580  0.0685  1.0957
 1142SOL    HW215060   0.176   4.019   1.424  1.9745  1.3159  0.4456
 1143SOL     OW15061   4.405   0.829   4.114 -0.3655  0.2291 -0.1162
 1143SOL    HW115062   4.478   0.878   4.076 -1.2979  0.5866 -1.4439
 1143SOL    HW215063   4.414   0.749   4.063 -1.8682  1.1278 -1.7975
 1144SOL     OW15064   3.535   2.461   6.648  0.2814 -0.2551 -0.1441
 1144SOL    HW115065   3.553   2.367   6.659  3.7191  0.2589 -1.4826
 1144SOL    HW215066   3.599   2.499   6.709  0.6034 -0.5986 -0.2696
 1145SOL     OW15067   1.885   4.247   5.402 -0.2985  0.5692 -0.4658
 1145SOL    HW115068   1.929   4.260   5.318  0.8385 -0.5726 -0.0583
 1145SOL    HW215069   1.799   4.229   5.365  0.1274  1.1722 -1.7413
 1146SOL     OW15070   2.541   0.745  15.947  0.1648 -0.1904 -0.3679
 1146SOL    HW115071   2.488   0.726  16.024  1.9224 -1.1908  0.6013
 1146SOL    HW215072   2.528   0.668  15.892 -2.1102 -1.1177  1.5068
 1147SOL     OW15073   4.442   2.641   2.257 -0.5934  0.4773  0.2344
 1147SOL    HW115074   4.394   2.657   2.338 -0.0709  1.0388  0.4339
 1147SOL    HW215075   4.519   2.689   2.287  0.9317 -2.9190  1.6809
 1148SOL     OW15076   2.699   3.383   9.740  0.1460  0.5469  0.5824
 1148SOL    HW115077   2.700   3.435   9.820  0.6973  2.2833 -0.5577
 1148SOL    HW215078   2.737   3.306   9.783 -0.4410 -0.9738 -1.5560
 1149SOL     OW15079   3.209   3.460   6.716  0.0304  0.5622 -0.2130
 1149SOL    HW115080   3.274   3.529   6.732  2.9509 -2.0409 -0.8884
 1149SOL    HW215081   3.261   3.380   6.715 -0.1178  0.4760 -1.3895
 1150SOL     OW15082   4.019   3.045   4.625  0.7376  0.6649  0.2436
 1150SOL    HW115083   4.106   3.041   4.585  0.8410  1.7993  0.3407
 1150SOL    HW215084   3.981   2.963   4.596  3.9330 -1.4102  1.8559
 1151SOL     OW15085   2.892   2.544   8.028  0.0384 -0.4109  0.2480
 1151SOL    HW115086   2.929   2.467   7.985  1.1979 -0.0878  0.6792
 1151SOL    HW215087   2.898   2.608   7.957 -0.4079 -2.5311 -1.6981
 1152SOL     OW15088   2.902   3.814   6.029  0.4642  0.2721 -0.2497
 1152SOL    HW115089   2.961   3.855   5.965  0.1802  0.4200 -0.4182
 1152SOL    HW215090   2.956   3.804   6.107  1.2531 -0.2088 -0.8602
 1153SOL     OW15091   4.286   0.871   6.039 -0.6188  0.2641 -0.0158
 1153SOL    HW115092   4.246   0.787   6.061  2.0975 -0.5879  1.5737
 1153SOL    HW215093   4.358   0.844   5.982 -0.4484 -0.5033  0.5797
 1154SOL     OW15094   1.860   2.186   2.631  0.4260 -0.2229 -0.2692
 1154SOL    HW115095   1.834   2.278   2.639  2.5534  0.3349 -0.0294
 1154SOL    HW215096   1.904   2.183   2.546  0.8787  0.9995 -0.0746
 1155SOL     OW15097   1.956   3.105  16.000  0.4807  0.0615 -0.1706
 1155SOL    HW115098   1.904   3.028  15.978  0.1209 -0.6504  3.1672
 1155SOL    HW215099   2.008   3.115  15.921  0.6930 -1.1577 -0.1860
 1156SOL     OW15100   2.878   1.241   4.393  0.1642  0.3355  0.8768
 1156SOL    HW115101   2.790   1.206   4.409 -0.0411 -0.9263 -3.1753
 1156SOL    HW215102   2.860   1.325   4.351  0.7128 -0.0984 -0.2103
 1157SOL     OW15103   2.992   0.191   6.033  0.3665  1.0335  0.4131
 1157SOL    HW115104   3.063   0.234   6.081  1.1729  0.9026 -0.6668
 1157SOL    HW215105   2.988   0.111   6.086 -1.9613  0.1577 -1.1136
 1158SOL     OW15106   3.347   1.701  12.220  0.3622 -0.8231  0.2347
 1158SOL    HW115107   3.388   1.787  12.230 -0.9634  0.1156 -2.4351
 1158SOL    HW215108   3.314   1.679  12.307 -1.1378  0.2899 -0.0608
 1159SOL     OW15109   0.419   2.526   8.508 -1.0201 -0.5455 -0.5232
 1159SOL    HW115110   0.484   2.596   8.497 -1.4797  0.3463  2.4637
 1159SOL    HW215111   0.344   2.586   8.500  0.7524  1.7193 -0.2687
 1160SOL     OW15112   2.642   0.258   6.080  0.3006 -0.5238  0.5427
 1160SOL    HW115113   2.554   0.280   6.050 -0.2696 -2.8741  0.5129
 1160SOL    HW215114   2.642   0.163   6.072 -1.6525 -0.4551 -0.3101
 1161SOL     OW15115   4.702   3.277   4.898  0.3701 -0.1483  0.1450
 1161SOL    HW115116   4.672   3.303   4.985 -0.7361  0.2486 -0.3613
 1161SOL    HW215117   0.033   3.341   4.879 -1.3091  1.6046 -0.1031
 1162SOL     OW15118   2.952   2.102   9.482 -0.1376 -0.3202 -0.8439
 1162SOL    HW115119   2.867   2.070   9.452 -0.8262 -0.4531  1.2507
 1162SOL    HW215120   3.005   2.082   9.404  2.1264 -0.3666  0.6923
 1163SOL     OW15121   3.422   1.762   9.869  0.8046 -0.3865  0.2751
 1163SOL    HW115122   3.432   1.698   9.939 -0.4868  0.8047  1.5358
 1163SOL    HW215123   3.327   1.758   9.874  0.7836 -0.3731 -0.0749
 1164SOL     OW15124   2.659   2.119   8.625  0.1043 -0.3259 -0.2894
 1164SOL    HW115125   2.714   2.092   8.698 -0.2136 -0.9199 -0.2695
 1164SOL    HW215126   2.582   2.064   8.620  0.4072 -0.7538 -0.1804
 1165SOL     OW15127   0.631   2.792  16.336 -0.0049  0.2603  0.1053
 1165SOL    HW115128   0.700   2.727  16.319  0.3541 -0.1413  2.9762
 1165SOL    HW215129   0.644   2.802  16.431  1.3411  1.2245 -0.1739
 1166SOL     OW15130   2.247   4.002   4.666  0.6362 -0.1193 -0.1859
 1166SOL    HW115131   2.289   3.933   4.615  1.3165  1.0910 -1.2440
 1166SOL    HW215132   2.322   4.060   4.668 -0.3050  1.1189 -0.8695
 1167SOL     OW15133   2.873   1.133   5.019 -0.0620  0.0782  0.0150
 1167SOL    HW115134   2.968   1.121   5.018  0.1008  1.3116  0.4861
 1167SOL    HW215135   2.846   1.136   4.927 -3.6303 -0.4937  1.0225
 1168SOL     OW15136   4.421   0.490   4.575 -0.2374 -0.4394 -0.1463
 1168SOL    HW115137   4.333   0.528   4.582  0.0119 -0.1261  1.4085
 1168SOL    HW215138   4.406   0.416   4.635 -1.2871 -1.5329 -1.7742
 1169SOL     OW15139   1.372   0.017  16.795 -0.0713 -0.7296 -0.0330
 1169SOL    HW115140   1.443   0.021  16.731 -0.5238 -1.6357 -0.6004
 1169SOL    HW215141   1.381   4.676  16.848 -1.6982 -1.6664 -1.1403
 1170SOL     OW15142   1.129   3.566   1.264 -0.4306  0.4679 -0.4900
 1170SOL    HW115143   1.105   3.610   1.183  1.3978 -0.7632 -1.6953
 1170SOL    HW215144   1.130   3.639   1.326  0.0118 -0.9005  1.1252
 1171SOL     OW15145   2.988   1.695  14.454  0.0417 -0.2482 -0.2918
 1171SOL    HW115146   2.992   1.735  14.367  1.6272  0.1207 -0.0564
 1171SOL    HW215147   2.907   1.645  14.454 -0.7695  1.0616 -0.2113
 1172SOL     OW15148   3.909   4.371  17.591 -0.3074 -0.8150 -0.3353
 1172SOL    HW115149   3.913   4.465  17.572 -3.3176 -0.4588  0.8170
 1172SOL    HW215150   3.847   4.346  17.523 -1.1988  3.5480 -1.1114
 1173SOL     OW15151   0.056   0.069   4.776 -0.3566  0.0777  0.3455
 1173SOL    HW115152   4.736   4.733   4.760 -0.8741  0.0437  2.4418
 1173SOL    HW215153   0.008   0.106   4.850 -1.8932 -1.3067  0.0348
 1174SOL     OW15154   4.115   1.908   5.420 -0.0427  0.6692  0.5693
 1174SOL    HW115155   4.076   1.825   5.391 -1.3418  0.3338  3.3251
 1174SOL    HW215156   4.044   1.968   5.396 -2.9566 -3.0532 -0.2233
 1175SOL     OW15157   4.013   1.185   8.328  0.3199  0.5517 -0.6892
 1175SOL    HW115158   4.023   1.095   8.359 -0.7980 -0.1167 -2.3107
 1175SOL    HW215159   4.060   1.175   8.245 -0.4799 -1.9638 -0.8548
 1176SOL     OW15160   2.786   3.952   3.040  0.0121 -0.4650  0.0500
 1176SOL    HW115161   2.875   3.948   3.075  0.1672  0.7479 -0.1838
 1176SOL    HW215162   2.753   4.035   3.076  0.0940 -0.5519  0.3253
 1177SOL     OW15163   1.790   0.990  11.071 -0.0776 -0.4466 -0.6233
 1177SOL    HW115164   1.880   0.992  11.104  0.3333 -1.1141 -1.6951
 1177SOL    HW215165   1.803   0.980  10.977  0.0449  2.0018 -0.8708
 1178SOL     OW15166   2.816   2.625   9.454  0.0995 -0.3972  0.2618
 1178SOL    HW115167   2.909   2.635   9.435 -0.1228 -1.8927 -1.5608
 1178SOL    HW215168   2.813   2.605   9.547 -0.9468  1.6477  0.6785
 1179SOL     OW15169   1.990   1.951   4.781 -0.3593 -0.7244  0.2033
 1179SOL    HW115170   1.992   1.865   4.822 -0.3155  0.8955  3.6355
 1179SOL    HW215171   1.896   1.968   4.768 -0.1857  0.7670  0.8053
 1180SOL     OW15172   2.931   4.325   6.268 -0.7501 -0.3373 -0.3816
 1180SOL    HW115173   2.909   4.260   6.202 -4.7936  1.9130 -1.2181
 1180SOL    HW215174   2.940   4.268   6.345  1.9836 -0.6195 -0.8765
 1181SOL     OW15175   1.384   2.174  10.218  0.0060 -0.2888  0.1160
 1181SOL    HW115176   1.321   2.241  10.242  1.1703  0.5165  0.9260
 1181SOL    HW215177   1.343   2.132  10.142 -1.6369  1.3708  0.0870
 1182SOL     OW15178   3.901   2.214   2.475  0.1178 -0.0375 -0.0443
 1182SOL    HW115179   3.837   2.154   2.513  0.8265  0.9376  2.6171
 1182SOL    HW215180   3.880   2.293   2.525 -2.4807 -1.1280  0.5963
 1183SOL     OW15181   2.621   1.839   7.246 -0.4136 -0.3180  0.2534
 1183SOL    HW115182   2.533   1.847   7.210 -0.6770  0.0530  0.9792
 1183SOL    HW215183   2.616   1.870   7.336  0.5602 -0.0049  0.2003
 1184SOL     OW15184   1.103   0.442   6.361 -0.3433 -0.4264  0.0465
 1184SOL    HW115185   1.178   0.426   6.302 -1.8403  2.3515 -2.6115
 1184SOL    HW215186   1.077   0.529   6.330 -2.5862 -1.5442 -1.1841
 1185SOL     OW15187   4.316   3.975   2.980 -0.0576  0.0561  0.4854
 1185SOL    HW115188   4.259   3.993   3.055  0.0025  1.0679  0.2878
 1185SOL    HW215189   4.282   3.894   2.943  0.4064 -0.2396  0.7024
 1186SOL     OW15190   3.413   1.121   2.254 -0.1096 -0.3677  0.7556
 1186SOL    HW115191   3.485   1.083   2.204 -0.3984  0.3878 -0.2435
 1186SOL    HW215192   3.349   1.099   2.185 -1.0643  0.8362  1.2483
 1187SOL     OW15193   4.446   3.015   7.580 -0.9346  0.1345  0.2227
 1187SOL    HW115194   4.408   2.928   7.588  1.0229 -0.6680  0.9067
 1187SOL    HW215195   4.503   3.005   7.504 -0.1283 -0.9785  0.9770
 1188SOL     OW15196   1.814   2.664   3.341 -0.3505 -0.1946 -0.0330
 1188SOL    HW115197   1.881   2.596   3.332 -0.8947 -1.0649  2.5422
 1188SOL    HW215198   1.863   2.743   3.366  2.6266 -1.9240 -0.3628
 1189SOL     OW15199   0.354   0.529   4.971  0.0599  0.0778  0.2553
 1189SOL    HW115200   0.267   0.497   4.995 -0.5778  0.3686 -1.6843
 1189SOL    HW215201   0.348   0.607   4.916 -0.7039 -1.7102 -2.1520
 1190SOL     OW15202   1.959   1.732   2.253 -0.0764 -0.2163  0.8857
 1190SOL    HW115203   2.032   1.729   2.315  0.2588  0.7122  0.5370
 1190SOL    HW215204   1.984   1.810   2.204  2.1030 -1.0368  0.7052
 1191SOL     OW15205   2.662   2.971  13.897  0.0410  0.4994  0.2211
 1191SOL    HW115206   2.573   3.006  13.899  0.0713  0.4426  2.6091
 1191SOL    HW215207   2.675   2.931  13.983 -1.5643 -0.7448 -0.1216
 1192SOL     OW15208   2.536   0.063  14.200  0.3130 -1.1500 -0.5018
 1192SOL    HW115209   2.483   0.096  14.273 -0.8545 -0.9164 -1.4448
 1192SOL    HW215210   2.491   0.081  14.117 -0.3937 -0.7854 -0.0438
 1193SOL     OW15211   4.534   1.064   2.034  0.4774  0.1434 -0.0591
 1193SOL    HW115212   4.613   1.009   2.038 -1.0627 -2.1466 -1.3965
 1193SOL    HW215213   4.484   1.030   2.107  1.1569  1.2858  0.9418
 1194SOL     OW15214   3.689   3.173   8.212  0.6603 -0.2170 -0.5229
 1194SOL    HW115215   3.688   3.155   8.118  1.7881 -0.3860 -0.5033
 1194SOL    HW215216   3.598   3.164   8.238  0.4203  0.7818 -0.9998
 1195SOL     OW15217   4.223   4.360   3.010  0.2332 -0.3629 -0.4494
 1195SOL    HW115218   4.308   4.316   3.020 -0.0433 -0.7974 -0.0206
 1195SOL    HW215219   4.176   4.301   2.951 -1.3141  2.5571 -2.0999
 1196SOL     OW15220   4.117   1.193  11.653  0.0727 -0.0649  0.2641
 1196SOL    HW115221   4.183   1.239  11.601  0.7218 -1.0737  0.1866
 1196SOL    HW215222   4.154   1.104  11.662 -1.7098 -1.0064 -1.9532
 1197SOL     OW15223   0.739   2.437  17.515  0.0594  0.0092  0.0810
 1197SOL    HW115224   0.761   2.364  17.458 -1.5820 -2.0740  2.1140
 1197SOL    HW215225   0.656   2.461  17.474  0.3122 -0.2209 -0.5674
 1198SOL     OW15226   4.265   1.703   2.806  0.0099  0.1415 -0.3277
 1198SOL    HW115227   4.233   1.751   2.882 -0.2733 -1.5647  0.6155
 1198SOL    HW215228   4.279   1.618   2.847 -0.7339  0.3596  0.3706
 1199SOL     OW15229   2.774   4.538   6.300  0.1117  0.5194  0.2224
 1199SOL    HW115230   2.823   4.461   6.271  0.4877  0.5083  0.8730
 1199SOL    HW215231   2.700   4.497   6.345 -1.2968  2.2971 -0.5267
 1200SOL     OW15232   2.817   3.770   7.958 -0.4849 -0.0591  0.1637
 1200SOL    HW115233   2.883   3.703   7.937  0.6248  1.3606 -0.8560
 1200SOL    HW215234   2.779   3.735   8.038 -1.7632 -2.7773 -1.6231
 1201SOL     OW15235   1.216   3.702   6.660 -0.0296 -0.5230  0.2764
 1201SOL    HW115236   1.287   3.760   6.634 -0.3795  0.5863  1.8054
 1201SOL    HW215237   1.236   3.618   6.619 -0.1741  0.2957 -1.4654
 1202SOL     OW15238   3.310   0.683   3.775  0.5139  0.0683  0.3229
 1202SOL    HW115239   3.265   0.763   3.801  0.4595  0.4767 -1.0315
 1202SOL    HW215240   3.399   0.712   3.755 -0.2463  2.0305 -0.1911
 1203SOL     OW15241   3.228   3.695   2.546 -0.2424  0.0514  0.2212
 1203SOL    HW115242   3.322   3.686   2.532 -0.0796 -0.1552  1.3958
 1203SOL    HW215243   3.194   3.647   2.470  1.1329 -0.5581 -0.0074
 1204SOL     OW15244   4.667   3.371   4.027  0.0437 -0.1614  0.5346
 1204SOL    HW115245   4.674   3.289   3.979  0.1181  1.6781 -2.5406
 1204SOL    HW215246   4.677   3.434   3.956 -1.8023  0.6698  1.0045
 1205SOL     OW15247   1.621   4.206   5.298  0.3016 -0.7349  0.3319
 1205SOL    HW115248   1.602   4.214   5.205 -3.8757  1.4428  1.3563
 1205SOL    HW215249   1.543   4.156   5.322 -0.0327 -0.0804  0.6148
 1206SOL     OW15250   2.671   3.088   6.301  0.0537 -0.0045  0.1835
 1206SOL    HW115251   2.695   3.115   6.213  0.0554 -0.4288  0.0559
 1206SOL    HW215252   2.687   3.171   6.347 -1.8389 -0.4125  1.6062
 1207SOL     OW15253   4.105   1.541   7.392  0.0238  0.0717 -0.2554
 1207SOL    HW115254   4.187   1.549   7.343 -0.5574 -1.5425 -1.4680
 1207SOL    HW215255   4.069   1.629   7.383  0.1495  0.1336 -0.1507
 1208SOL     OW15256   4.240   0.860  15.041 -0.4338 -0.2201  0.1316
 1208SOL    HW115257   4.321   0.904  15.067  0.2712 -1.2624 -0.3173
 1208SOL    HW215258   4.192   0.884  15.120 -2.6674 -1.9641 -0.7009
 1209SOL     OW15259   0.614   3.626  16.829 -0.4440  0.1132  0.4289
 1209SOL    HW115260   0.558   3.597  16.901  1.4369 -0.1957  1.7843
 1209SOL    HW215261   0.695   3.638  16.879  0.4173 -0.8380 -0.7224
 1210SOL     OW15262   2.551   2.440   6.564 -0.4052  0.2818  0.1191
 1210SOL    HW115263   2.567   2.535   6.566 -0.7348  0.2950  3.0996
 1210SOL    HW215264   2.590   2.416   6.648  1.2083  1.7395 -0.2195
 1211SOL     OW15265   4.692   1.196   8.004  0.3583 -0.1594 -0.3180
 1211SOL    HW115266   4.723   1.126   8.061 -3.3022 -0.0124  1.8666
 1211SOL    HW215267   0.031   1.244   7.976 -0.6912  1.3002 -0.7402
 1212SOL     OW15268   2.599   1.927   7.505 -0.5633 -0.1956 -0.1661
 1212SOL    HW115269   2.509   1.952   7.486 -0.9995 -1.7117 -0.1499
 1212SOL    HW215270   2.599   1.947   7.599  0.6658 -0.9304 -0.0014
 1213SOL     OW15271   0.975   0.058   9.251  0.0275 -0.0101 -0.1806
 1213SOL    HW115272   0.954   0.145   9.218  0.6815  0.2374  0.0631
 1213SOL    HW215273   1.067   0.081   9.261 -0.1162  1.1130 -1.5251
 1214SOL     OW15274   3.657   3.721   0.424 -0.3527  0.5096 -0.5323
 1214SOL    HW115275   3.598   3.650   0.449  1.2674 -1.5241 -2.4582
 1214SOL    HW215276   3.649   3.784   0.495  1.8762  0.4360 -0.1969
 1215SOL     OW15277   3.154   3.756   3.650  0.2780 -0.0272 -0.1945
 1215SOL    HW115278   3.091   3.827   3.638 -0.4499 -0.6550 -0.1303
 1215SOL    HW215279   3.216   3.781   3.718 -1.5264  0.5040  1.2622
 1216SOL     OW15280   4.311   3.991   9.437 -0.2830 -0.2312 -0.0963
 1216SOL    HW115281   4.260   4.067   9.465  1.8452  1.0992  0.1646
 1216SOL    HW215282   4.357   3.966   9.517 -1.5209  0.4907  0.8509
 1217SOL     OW15283   3.840   3.658   7.629 -0.1080 -0.1917  0.6440
 1217SOL    HW115284   3.928   3.622   7.642  1.3222  2.2737 -2.1324
 1217SOL    HW215285   3.854   3.752   7.640  0.0468 -0.1856  0.3922
 1218SOL     OW15286   0.521   1.574  13.295  0.1883  0.0615  0.5669
 1218SOL    HW115287   0.441   1.523  13.310  0.0382  0.3533  0.7678
 1218SOL    HW215288   0.555   1.546  13.210 -0.9465 -0.4922  0.2955
 1219SOL     OW15289   1.848   2.256   9.465  0.7187 -0.1770 -0.1798
 1219SOL    HW115290   1.921   2.203   9.496 -1.9491 -3.3374  0.7576
 1219SOL    HW215291   1.839   2.307   9.545 -1.1781 -0.6619 -0.0842
 1220SOL     OW15292   1.259   2.758   4.586 -0.0165 -0.3688 -0.1524
 1220SOL    HW115293   1.328   2.790   4.528  1.2455  0.2042  1.6560
 1220SOL    HW215294   1.208   2.700   4.529 -1.6957  1.0383 -0.0716
 1221SOL     OW15295   3.220   4.058   4.980 -0.1073 -0.5686  0.1470
 1221SOL    HW115296   3.138   4.108   4.988 -0.2160 -0.1567 -3.6265
 1221SOL    HW215297   3.220   4.033   5.073  0.3495 -1.5902 -0.1366
 1222SOL     OW15298   3.337   0.938  12.105  0.4292  0.1814 -0.9982
 1222SOL    HW115299   3.281   0.916  12.030  2.5758 -3.4486 -1.5303
 1222SOL    HW215300   3.301   1.021  12.137  0.5229 -0.2155  0.1091
 1223SOL     OW15301   2.175   1.143   2.099  0.1782  0.2293 -0.3463
 1223SOL    HW115302   2.211   1.211   2.042  0.2739 -1.4112 -2.2697
 1223SOL    HW215303   2.230   1.067   2.078  0.6131  0.1699  1.0377
 1224SOL     OW15304   2.638   0.385   6.402 -0.4943 -0.4077  0.2359
 1224SOL    HW115305   2.649   0.293   6.425  0.0504  0.0890  1.9485
 1224SOL    HW215306   2.697   0.388   6.326  0.4206  1.2823  1.0036
 1225SOL     OW15307   0.472   3.065  15.310  0.4732 -0.2332  0.0122
 1225SOL    HW115308   0.552   3.030  15.348  2.1369  2.4001 -1.1070
 1225SOL    HW215309   0.488   3.039  15.219  1.9912  2.2421 -0.4128
 1226SOL     OW15310   2.520   0.610   2.836 -0.2151 -0.2515 -0.3894
 1226SOL    HW115311   2.604   0.572   2.861 -1.0975 -2.6567 -1.1265
 1226SOL    HW215312   2.557   0.691   2.800  0.2772  0.0273  0.7454
 1227SOL     OW15313   1.321   0.721   9.252  0.0636  0.2847  0.1127
 1227SOL    HW115314   1.252   0.745   9.314  0.3854 -2.3459  1.4477
 1227SOL    HW215315   1.281   0.753   9.171  0.8324  0.6455 -0.1246
 1228SOL     OW15316   0.677   4.197  17.420  0.3802 -0.5805  0.3625
 1228SOL    HW115317   0.633   4.111  17.422 -0.4552 -0.1573  0.2986
 1228SOL    HW215318   0.734   4.185  17.345 -1.0563 -1.8824 -0.5362
 1229SOL     OW15319   3.291   1.650   3.579 -0.0633  0.1707 -0.1295
 1229SOL    HW115320   3.384   1.671   3.567  0.2079 -1.1859 -0.4316
 1229SOL    HW215321   3.300   1.621   3.670  2.9902  3.7476  0.7015
 1230SOL     OW15322   2.686   4.152   6.389 -0.1659  0.1815  0.3483
 1230SOL    HW115323   2.624   4.224   6.377 -0.5308 -0.0226  1.0293
 1230SOL    HW215324   2.708   4.146   6.296 -2.6786  1.9804 -0.3692
 1231SOL     OW15325   3.880   4.079   1.985 -0.1691 -0.5391  0.3185
 1231SOL    HW115326   3.831   4.157   2.012  2.7645  1.1058  0.9397
 1231SOL    HW215327   3.928   4.107   1.907  0.0053 -1.4633  0.0945
 1232SOL     OW15328   0.178   0.761   1.756 -0.4905  0.0807  0.1588
 1232SOL    HW115329   0.219   0.708   1.688 -0.0503  2.7354 -1.6291
 1232SOL    HW215330   0.223   0.727   1.834  2.3036 -0.7068 -1.7831
 1233SOL     OW15331   2.318   1.432   8.001  0.4274  0.3562 -0.2045
 1233SOL    HW115332   2.317   1.360   8.065  0.1797 -0.3911 -1.0399
 1233SOL    HW215333   2.385   1.396   7.942 -0.0351 -1.3037  0.2802
 1234SOL     OW15334   3.886   3.576   4.799  0.4545  1.3195  0.2845
 1234SOL    HW115335   3.940   3.636   4.748 -0.7304  2.0348 -0.1291
 1234SOL    HW215336   3.928   3.551   4.881 -0.6839  1.2946  0.8653
 1235SOL     OW15337   2.888   4.555   1.609  0.1773  0.4456  0.2145
 1235SOL    HW115338   2.884   4.635   1.558  0.6796  1.7276  2.1751
 1235SOL    HW215339   2.873   4.496   1.535  0.1430  0.4603  0.2097
 1236SOL     OW15340   3.087   2.824   2.967  0.2448 -0.0964 -0.2929
 1236SOL    HW115341   3.086   2.906   2.916  0.8066 -0.3889 -0.7740
 1236SOL    HW215342   3.144   2.772   2.910 -0.6713  1.0278 -2.2485
 1237SOL     OW15343   4.717   4.677  11.645  0.2084  0.0679 -0.0480
 1237SOL    HW115344   0.053   4.625  11.677 -1.4386 -0.7289  2.5173
 1237SOL    HW215345   4.638   4.636  11.681 -0.4327  0.5842 -0.8987
 1238SOL     OW15346   3.597   1.048  13.241 -0.0193  0.2901 -0.2671
 1238SOL    HW115347   3.518   1.036  13.189 -0.3506  1.6111 -0.0764
 1238SOL    HW215348   3.608   0.963  13.282 -0.5266 -0.3327 -1.4111
 1239SOL     OW15349   2.177   4.023  13.243 -0.3539  0.5369 -0.2624
 1239SOL    HW115350   2.255   4.070  13.214 -0.6286  0.1222 -1.6414
 1239SOL    HW215351   2.201   3.942  13.198  1.2353  0.1479  1.2817
 1240SOL     OW15352   3.418   1.918   6.702 -0.1185 -0.1198 -0.1570
 1240SOL    HW115353   3.491   1.869   6.740 -1.9391 -1.7414  1.2557
 1240SOL    HW215354   3.400   1.867   6.623 -0.0741 -0.1653 -0.1378
 1241SOL     OW15355   1.196   0.500   9.903  0.1278  0.2614  0.1716
 1241SOL    HW115356   1.231   0.476   9.989  0.8711 -2.6582 -0.9076
 1241SOL    HW215357   1.273   0.474   9.852 -0.7758  1.2270 -1.6944
 1242SOL     OW15358   0.809   4.725   4.959 -0.1907  0.5359 -0.1875
 1242SOL    HW115359   0.820   4.717   5.054  1.7987  2.1993 -0.2823
 1242SOL    HW215360   0.717   0.014   4.954 -0.4012 -0.0794  0.3478
 1243SOL     OW15361   2.324   0.321  16.447 -0.3548  0.7096  0.1178
 1243SOL    HW115362   2.239   0.363  16.438 -0.7789 -0.6404 -2.3574
 1243SOL    HW215363   2.320   0.269  16.527  1.1337 -0.6275 -0.6751
 1244SOL     OW15364   3.419   1.631   2.695  0.3359  0.6508  0.8103
 1244SOL    HW115365   3.337   1.582   2.708  1.2458 -0.9772  0.4068
 1244SOL    HW215366   3.389   1.674   2.615  0.7767  2.8173  1.8157
 1245SOL     OW15367   4.227   2.141   9.070  0.2118  0.6098 -0.1711
 1245SOL    HW115368   4.175   2.219   9.090  0.5558 -0.0322  3.2421
 1245SOL    HW215369   4.244   2.115   9.160  0.3630 -1.9010 -0.9406
 1246SOL     OW15370   0.704   3.463   4.968 -0.8737 -0.6706  0.2241
 1246SOL    HW115371   0.651   3.386   4.989 -0.5581 -1.2872 -1.2311
 1246SOL    HW215372   0.783   3.424   4.930 -0.4303  2.3558 -2.0030
 1247SOL     OW15373   1.041   2.564   7.359 -0.2571  0.1969  0.0101
 1247SOL    HW115374   0.978   2.507   7.404 -0.8417  0.1452 -0.8790
 1247SOL    HW215375   1.021   2.546   7.268 -0.8992  0.0619  0.1809
 1248SOL     OW15376   1.941   0.704   8.190  0.0735  0.3319 -0.5923
 1248SOL    HW115377   1.903   0.791   8.199 -0.2969  0.1281 -0.1860
 1248SOL    HW215378   1.862   0.652   8.204 -1.0565  1.9015 -1.1321
 1249SOL     OW15379   2.614   1.547  17.255 -0.2723 -0.8118  0.2603
 1249SOL    HW115380   2.597   1.629  17.303 -0.9879 -0.4033 -0.6929
 1249SOL    HW215381   2.545   1.551  17.189  0.7641  2.2276 -0.6826
 1250SOL     OW15382   2.401   3.825   2.115  0.1546  0.3449 -0.0837
 1250SOL    HW115383   2.483   3.785   2.145 -0.2077 -0.6705 -0.4406
 1250SOL    HW215384   2.400   3.904   2.168  1.4731 -0.8700  1.7521
 1251SOL     OW15385   0.596   4.333   9.826 -0.5040 -0.3626 -0.2392
 1251SOL    HW115386   0.624   4.382   9.748  0.6998 -3.3303 -1.6721
 1251SOL    HW215387   0.627   4.380   9.903 -2.5252  2.8396 -1.3761
 1252SOL     OW15388   3.328   3.638   5.798 -0.3018  0.6740 -0.3743
 1252SOL    HW115389   3.320   3.733   5.786 -0.9887  0.8747  1.5816
 1252SOL    HW215390   3.423   3.631   5.787  0.1236  3.9302  1.0724
 1253SOL     OW15391   2.986   0.865   7.299 -0.1818  0.0293  0.0919
 1253SOL    HW115392   3.068   0.865   7.250 -0.2901  1.2153 -0.0836
 1253SOL    HW215393   3.018   0.874   7.389 -0.4862  0.3534  0.1706
 1254SOL     OW15394   2.747   1.460   9.370 -0.3735  0.6478  0.4736
 1254SOL    HW115395   2.675   1.490   9.425 -1.0833  0.4834 -0.3597
 1254SOL    HW215396   2.811   1.530   9.376  1.3270 -0.8197 -0.4220
 1255SOL     OW15397   3.845   0.283  11.344 -0.3789 -0.6481  0.4607
 1255SOL    HW115398   3.838   0.374  11.372 -2.6733 -0.8142  0.4310
 1255SOL    HW215399   3.928   0.286  11.297 -0.8019  1.1535 -0.1895
 1256SOL     OW15400   2.632   2.781  12.106  0.3522  0.1760 -0.7683
 1256SOL    HW115401   2.624   2.877  12.105 -0.3371  0.1128 -1.1864
 1256SOL    HW215402   2.555   2.754  12.057  0.5374  1.8216 -1.9685
 1257SOL     OW15403   2.015   0.700   7.910 -0.1213  0.4086  0.0015
 1257SOL    HW115404   2.004   0.791   7.885  1.6438  0.5729 -0.1736
 1257SOL    HW215405   2.008   0.715   8.004 -0.4303 -2.5648  0.4525
 1258SOL     OW15406   0.066   0.242  11.157  0.8538  0.2144  0.0097
 1258SOL    HW115407   0.081   0.166  11.214 -0.4784 -1.4052 -1.8138
 1258SOL    HW215408   0.156   0.276  11.155  0.6747  0.6764  0.0241
 1259SOL     OW15409   2.517   4.515   5.890  0.4736 -0.4178  0.0717
 1259SOL    HW115410   2.563   4.468   5.960  0.3509 -1.6004 -0.6321
 1259SOL    HW215411   2.592   4.548   5.842  0.7345  0.3781  1.0444
 1260SOL     OW15412   3.143   1.309  12.966  0.2042  0.3916  0.3419
 1260SOL    HW115413   3.086   1.350  13.031 -1.2436 -0.2385 -0.5386
 1260SOL    HW215414   3.231   1.332  12.997  0.6904 -0.8223 -0.1209
 1261SOL     OW15415   4.400   3.900   4.511  0.1701 -0.0596  0.2788
 1261SOL    HW115416   4.491   3.881   4.534  0.7638  2.1330 -0.2335
 1261SOL    HW215417   4.383   3.979   4.562 -0.7779 -0.6297  0.8564
 1262SOL     OW15418   2.920   3.879   2.518 -0.0943  0.1069 -0.4541
 1262SOL    HW115419   2.857   3.818   2.557  1.4344 -1.4190 -0.3668
 1262SOL    HW215420   2.921   3.941   2.591  0.2585  0.7733 -1.0289
 1263SOL     OW15421   3.627   1.966   7.559 -0.5258 -0.1020  0.2122
 1263SOL    HW115422   3.671   2.003   7.483  0.8430 -0.3848  0.8692
 1263SOL    HW215423   3.561   2.035   7.567 -0.2653  0.2261 -0.5047
 1264SOL     OW15424   0.666   4.039   5.385 -0.2456 -0.8389  0.2266
 1264SOL    HW115425   0.744   4.094   5.392 -1.0179  0.2541  0.1107
 1264SOL    HW215426   0.651   4.037   5.479 -0.5538 -1.3663  0.1643
 1265SOL     OW15427   4.519   3.616  14.602 -0.0422  0.1112  0.2303
 1265SOL    HW115428   4.563   3.591  14.521 -1.9997  1.0390 -1.1032
 1265SOL    HW215429   4.458   3.684  14.578 -1.6086 -0.4576  2.6200
 1266SOL     OW15430   1.771   3.652  11.362 -0.1189  0.5289 -0.3161
 1266SOL    HW115431   1.777   3.747  11.375  1.6370  0.3102  0.4956
 1266SOL    HW215432   1.837   3.640  11.295  0.3592  0.1996  0.2122
 1267SOL     OW15433   0.281   0.914   2.171  0.3965  0.2393 -0.1289
 1267SOL    HW115434   0.374   0.895   2.164  0.3250 -0.7419  1.6502
 1267SOL    HW215435   0.288   0.993   2.116  0.4316 -1.0013 -1.9221
 1268SOL     OW15436   1.344   3.422   5.777  0.3390 -0.3210 -0.4877
 1268SOL    HW115437   1.320   3.334   5.806  1.0538  0.1748  1.5269
 1268SOL    HW215438   1.276   3.475   5.820 -0.0565 -1.6298  0.4727
 1269SOL     OW15439   0.649   4.408   8.617 -0.2740 -0.7157 -0.3373
 1269SOL    HW115440   0.554   4.408   8.621 -0.3102 -0.6137 -1.2747
 1269SOL    HW215441   0.671   4.316   8.602  0.1161 -0.6676 -0.0690
 1270SOL     OW15442   0.780   1.753  14.766  0.2788 -0.2746  0.1971
 1270SOL    HW115443   0.859   1.723  14.721  0.1115  2.0279 -1.6459
 1270SOL    HW215444   0.734   1.815  14.709 -3.5803 -2.1163  1.2863
 1271SOL     OW15445   0.919   3.505   6.532 -0.5359  0.0676  0.3478
 1271SOL    HW115446   0.936   3.559   6.454  2.0432 -1.1982  0.0369
 1271SOL    HW215447   0.872   3.572   6.582 -1.4499 -0.7532  0.5735
 1272SOL     OW15448   1.963   1.239   5.258  0.3652  0.2116 -0.2011
 1272SOL    HW115449   2.042   1.282   5.291 -0.3657  1.7107 -0.4235
 1272SOL    HW215450   1.889   1.278   5.304  0.9127  0.5692  0.3809
 1273SOL     OW15451   0.173   0.868   6.859 -0.2131  0.3712  0.0120
 1273SOL    HW115452   0.165   0.905   6.947  1.7439  0.2507  0.2555
 1273SOL    HW215453   0.082   0.853   6.835  0.3682 -0.8430 -1.4656
 1274SOL     OW15454   3.916   2.150   5.492 -0.2163 -0.0121 -0.2196
 1274SOL    HW115455   3.854   2.140   5.419  1.8629 -1.7084 -1.7497
 1274SOL    HW215456   3.848   2.162   5.559 -0.5132  1.0670 -0.7243
 1275SOL     OW15457   3.900   1.373  16.632 -0.0595  0.1363 -0.0806
 1275SOL    HW115458   3.900   1.460  16.671  0.1648 -1.5846  3.7832
 1275SOL    HW215459   3.883   1.326  16.714 -0.9331 -1.9693 -1.4598
 1276SOL     OW15460   1.263   4.613   7.308  1.2498  0.3466  0.0101
 1276SOL    HW115461   1.329   4.565   7.358  0.9272  0.3210  0.4155
 1276SOL    HW215462   1.226   4.536   7.263  0.9134 -1.1452  2.8012
 1277SOL     OW15463   0.388   0.092  16.918  0.6327 -0.0959  0.1469
 1277SOL    HW115464   0.354   0.180  16.902  1.3350 -0.2787 -2.2954
 1277SOL    HW215465   0.395   0.093  17.014 -3.4359  2.0150  0.4036
 1278SOL     OW15466   2.069   0.630   3.112  0.6194  0.5628 -0.5950
 1278SOL    HW115467   2.026   0.715   3.127  1.2111  0.6212  0.7783
 1278SOL    HW215468   2.164   0.641   3.114  0.7973 -1.1714  0.6302
 1279SOL     OW15469   2.102   3.312  14.689  0.4583  0.1771  0.1750
 1279SOL    HW115470   2.081   3.290  14.780 -1.1309  1.7390  0.1870
 1279SOL    HW215471   2.011   3.310  14.658  0.0921 -0.8978  1.2767
 1280SOL     OW15472   2.582   0.194   2.921  0.1814  0.1120 -0.1459
 1280SOL    HW115473   2.546   0.274   2.883  1.6075  1.1954  0.7619
 1280SOL    HW215474   2.503   0.151   2.955 -0.4730  2.7055  1.6112
 1281SOL     OW15475   1.585   2.946   6.629 -0.2501 -0.0857  0.1007
 1281SOL    HW115476   1.544   2.943   6.543  0.4374  2.3056 -0.2841
 1281SOL    HW215477   1.636   2.864   6.622 -0.6977 -0.2918 -0.7542
 1282SOL     OW15478   3.394   1.095   4.778  0.2020 -0.0830 -0.3268
 1282SOL    HW115479   3.437   1.141   4.706  2.2406 -1.4966 -0.0316
 1282SOL    HW215480   3.332   1.158   4.813  1.6274  0.7322  0.7786
 1283SOL     OW15481   0.320   3.886   9.038 -0.5232 -0.5864  0.5408
 1283SOL    HW115482   0.240   3.849   9.001 -0.2678 -0.3310 -0.2464
 1283SOL    HW215483   0.354   3.921   8.956  1.3925 -0.4799  1.3666
 1284SOL     OW15484   2.825   1.027   3.394 -0.3097 -0.0945  0.3125
 1284SOL    HW115485   2.919   1.035   3.374 -0.5388  0.6665 -0.4728
 1284SOL    HW215486   2.813   0.932   3.393  2.3294 -0.4330  0.6204
 1285SOL     OW15487   2.945   1.733   2.313  0.0973 -0.0805  0.0641
 1285SOL    HW115488   2.952   1.752   2.406 -0.5599 -1.7840  0.4658
 1285SOL    HW215489   2.927   1.819   2.277  1.2562  0.5744  1.0421
 1286SOL     OW15490   3.151   0.546   3.199  0.2114  0.1669 -0.1997
 1286SOL    HW115491   3.199   0.597   3.264  0.8521  0.2387 -0.7335
 1286SOL    HW215492   3.086   0.498   3.250  2.0952 -0.7975  1.2688
 1287SOL     OW15493   0.674   1.087   7.316 -0.0824  0.4544 -0.0205
 1287SOL    HW115494   0.724   1.016   7.354  0.0556  0.5936  0.0585
 1287SOL    HW215495   0.655   1.151   7.385  0.1390  0.6119 -0.1065
 1288SOL     OW15496   1.115   3.656   4.176 -0.6433  0.6729 -0.2959
 1288SOL    HW115497   1.151   3.731   4.225 -1.0745  0.7000 -0.0199
 1288SOL    HW215498   1.028   3.687   4.151 -1.4326 -1.8941 -0.7219
 1289SOL     OW15499   2.483   2.969   6.604 -0.4077  0.4254  0.0423
 1289SOL    HW115500   2.427   2.927   6.539 -0.4121  0.2108  0.1872
 1289SOL    HW215501   2.412   2.977   6.668  0.3136  2.0444  0.6418
 1290SOL     OW15502   4.190   0.408   2.399  0.6511  0.3780 -1.1287
 1290SOL    HW115503   4.159   0.317   2.400  0.3902  0.4674 -1.1210
 1290SOL    HW215504   4.248   0.405   2.475  1.0308  2.2384 -1.3430
 1291SOL     OW15505   1.480   2.488   8.885 -0.4306 -0.2351 -0.2650
 1291SOL    HW115506   1.445   2.500   8.973 -0.2454 -1.5512 -0.0179
 1291SOL    HW215507   1.410   2.523   8.830 -1.3293 -0.7031  0.5801
 1292SOL     OW15508   3.898   0.180   7.814  0.5280 -0.3858 -0.4113
 1292SOL    HW115509   3.875   0.239   7.742 -0.2232 -0.7357 -0.4520
 1292SOL    HW215510   3.959   0.124   7.765  1.0099  1.2143 -1.6495
 1293SOL     OW15511   2.089   2.375   0.809  0.1039  0.2041 -0.4085
 1293SOL    HW115512   2.170   2.420   0.830  0.0593  1.0231 -1.9687
 1293SOL    HW215513   2.063   2.346   0.897 -0.1196 -0.3735 -0.6618
 1294SOL     OW15514   3.921   4.080  12.722  0.4334  0.3071 -0.6740
 1294SOL    HW115515   3.965   4.076  12.807  1.0256 -2.6130 -1.1408
 1294SOL    HW215516   3.864   4.156  12.736 -0.7646 -0.3919 -1.7501
 1295SOL     OW15517   4.549   0.689   7.608 -0.1935  0.1474 -0.1625
 1295SOL    HW115518   4.626   0.633   7.615 -0.1888  0.0632 -0.8821
 1295SOL    HW215519   4.582   0.778   7.608 -1.5008  0.6285  1.3953
 1296SOL     OW15520   2.155   0.586   6.489 -0.0327 -0.2720 -0.1028
 1296SOL    HW115521   2.201   0.645   6.549 -1.7196  2.2238 -1.2448
 1296SOL    HW215522   2.205   0.505   6.492  1.7442  0.8309  0.3513
 1297SOL     OW15523   4.641   4.171   8.358  0.0942 -0.1671 -0.7328
 1297SOL    HW115524   4.677   4.191   8.445 -1.3377  1.4592 -0.5240
 1297SOL    HW215525   4.693   4.235   8.309  0.7677 -0.7146 -0.7446
 1298SOL     OW15526   3.613   1.146   3.718  0.1391 -0.3178  0.6571
 1298SOL    HW115527   3.699   1.109   3.739  0.3160 -0.5166 -0.4557
 1298SOL    HW215528   3.581   1.100   3.641 -1.5815  0.5588  0.8591
 1299SOL     OW15529   2.715   4.620   4.419  0.1480  0.0360 -0.1578
 1299SOL    HW115530   2.808   4.622   4.398  0.3493  0.3039  0.7425
 1299SOL    HW215531   2.684   4.558   4.353  1.2629  1.9521 -2.5048
 1300SOL     OW15532   0.494   0.767   5.603  0.0360  0.2027  0.1129
 1300SOL    HW115533   0.573   0.754   5.551 -0.6455 -1.6156 -0.4906
 1300SOL    HW215534   0.509   0.851   5.646  1.5567  0.1291 -0.2896
 1301SOL     OW15535   3.639   3.943   1.895 -0.1609  0.2879 -0.1068
 1301SOL    HW115536   3.704   3.991   1.945  0.2270 -0.6067  0.2605
 1301SOL    HW215537   3.619   4.005   1.825  0.6696 -1.1117 -1.5771
 1302SOL     OW15538   1.721   2.009   1.437  0.2129 -0.2553  0.0387
 1302SOL    HW115539   1.732   2.077   1.370 -0.2884 -0.1203  0.0927
 1302SOL    HW215540   1.653   1.959   1.392 -0.9241  1.0306  0.3260
 1303SOL     OW15541   0.983   3.774   3.606  0.4714  0.1589 -0.0895
 1303SOL    HW115542   0.925   3.847   3.627 -0.0582  0.2497 -1.7970
 1303SOL    HW215543   0.953   3.755   3.517  0.5394 -0.5783  0.0495
 1304SOL     OW15544   1.199   2.842   5.175  0.1554 -0.1257  0.1678
 1304SOL    HW115545   1.216   2.865   5.267  3.5701 -0.1282 -0.4849
 1304SOL    HW215546   1.156   2.915   5.132  0.6728  0.4745  0.6742
 1305SOL     OW15547   1.234   0.546   8.444 -0.4734  0.7357 -0.0025
 1305SOL    HW115548   1.209   0.486   8.514 -1.9150  1.7451  0.3572
 1305SOL    HW215549   1.252   0.624   8.497  1.3118 -1.5627  2.7590
 1306SOL     OW15550   2.523   0.901   7.630  0.0260  0.3701 -0.0093
 1306SOL    HW115551   2.437   0.938   7.652  0.1588  0.1170  0.9604
 1306SOL    HW215552   2.527   0.902   7.535 -3.8407 -1.3720 -0.2146
 1307SOL     OW15553   3.716   4.164  14.139  0.5053 -0.1259 -0.2536
 1307SOL    HW115554   3.685   4.082  14.100  0.1765  0.2958 -0.8972
 1307SOL    HW215555   3.663   4.224  14.086  0.6476  0.0817 -0.1608
 1308SOL     OW15556   2.006   2.765   4.139  0.3213  0.8103  0.3842
 1308SOL    HW115557   2.093   2.746   4.174  1.0159  1.6206 -0.9250
 1308SOL    HW215558   1.965   2.799   4.219  0.2643  0.2595  0.5924
 1309SOL     OW15559   3.668   2.859  10.762  0.3962 -0.3074  0.8593
 1309SOL    HW115560   3.705   2.855  10.850  0.8591  0.2626  0.6895
 1309SOL    HW215561   3.712   2.936  10.725  0.4481 -1.1086 -0.7288
 1310SOL     OW15562   2.171   1.235   8.545 -0.7549 -0.3173  0.6423
 1310SOL    HW115563   2.242   1.173   8.528 -0.5108  0.4797 -1.2031
 1310SOL    HW215564   2.219   1.315   8.564 -0.6761 -0.0638 -0.5772
 1311SOL     OW15565   3.469   2.033   9.744  0.4755 -0.0664 -0.6289
 1311SOL    HW115566   3.481   1.944   9.778 -0.4248  0.8860  2.1668
 1311SOL    HW215567   3.555   2.074   9.738 -0.8216  3.0356  1.8900
 1312SOL     OW15568   0.555   4.433   7.639  0.0220  0.0655 -0.2671
 1312SOL    HW115569   0.630   4.408   7.585  0.9963  0.5288  0.8779
 1312SOL    HW215570   0.586   4.413   7.727  0.8118 -0.7233 -0.7267
 1313SOL     OW15571   2.495   3.157   2.593 -0.1891 -0.1207 -0.1871
 1313SOL    HW115572   2.509   3.198   2.508  0.2648  2.0249  0.9362
 1313SOL    HW215573   2.474   3.069   2.561 -0.1616 -0.1923 -0.0056
 1314SOL     OW15574   0.576   4.443  14.819 -0.0609  0.3082 -0.5835
 1314SOL    HW115575   0.564   4.413  14.909  1.0062  0.2646 -0.4587
 1314SOL    HW215576   0.569   4.537  14.832  0.7566  0.0622  1.6890
 1315SOL     OW15577   1.162   4.545   2.605 -0.8290 -0.0782  0.5021
 1315SOL    HW115578   1.191   4.455   2.591 -1.9003 -0.1699 -1.0852
 1315SOL    HW215579   1.241   4.586   2.568 -1.0354 -0.3374 -0.2296
 1316SOL     OW15580   1.295   2.379   5.537 -0.1478  0.6879 -0.2415
 1316SOL    HW115581   1.204   2.362   5.514  0.4198 -0.4418 -1.6167
 1316SOL    HW215582   1.286   2.380   5.633 -3.3160  1.8800 -0.5415
 1317SOL     OW15583   0.716   4.228   9.009 -0.0027 -0.6261  0.0041
 1317SOL    HW115584   0.649   4.216   8.941 -0.5518  0.4527  0.3547
 1317SOL    HW215585   0.785   4.171   8.975  0.5794  0.4390 -0.6126
 1318SOL     OW15586   0.892   4.688   1.730  0.1949  0.5785  0.9685
 1318SOL    HW115587   0.853   4.610   1.770 -2.7283  1.8911  0.7115
 1318SOL    HW215588   0.824   0.017   1.721 -0.0884 -0.2273 -3.1241
 1319SOL     OW15589   4.696   0.463  14.409 -0.1648  0.4499 -0.7920
 1319SOL    HW115590   4.716   0.416  14.328  1.1803  1.6458 -1.1517
 1319SOL    HW215591   4.725   0.553  14.394 -1.9242  1.2837  0.7732
 1320SOL     OW15592   2.433   1.761   9.588  0.2039  0.1975  0.0201
 1320SOL    HW115593   2.445   1.687   9.529  1.6423  1.1835 -0.8986
 1320SOL    HW215594   2.500   1.821   9.555  0.6669 -0.0239  0.5655
 1321SOL     OW15595   4.282   0.556   0.020  0.2550 -0.0733 -0.2414
 1321SOL    HW115596   4.293   0.489  17.704  0.1504  0.5777 -0.9061
 1321SOL    HW215597   4.304   0.514   0.103 -1.2392  1.8226  1.1203
 1322SOL     OW15598   0.768   3.570   3.258  0.1092 -0.0776 -0.0062
 1322SOL    HW115599   0.770   3.496   3.197  0.5020 -0.2770  0.2483
 1322SOL    HW215600   0.838   3.549   3.320 -0.9372 -4.2486 -0.2039
 1323SOL     OW15601   4.100   0.106   8.208 -0.1725 -0.0404  0.0223
 1323SOL    HW115602   4.065   0.051   8.137 -0.9307  1.2362 -0.6059
 1323SOL    HW215603   4.029   0.166   8.231  1.0133  1.4389 -0.1704
 1324SOL     OW15604   2.957   3.664   3.305 -0.1954 -0.2027  0.0985
 1324SOL    HW115605   2.963   3.674   3.210 -1.0557 -1.1756 -0.0659
 1324SOL    HW215606   3.034   3.610   3.323 -0.2771 -0.0372  0.9539
 1325SOL     OW15607   0.462   3.047   6.607  0.1088  0.0785  0.1633
 1325SOL    HW115608   0.409   2.968   6.621 -1.8461  1.5009  0.8631
 1325SOL    HW215609   0.551   3.012   6.612  0.9175  2.1472  0.2335
 1326SOL     OW15610   0.363   3.108  12.398 -0.0151 -0.0405  0.2569
 1326SOL    HW115611   0.287   3.153  12.433 -0.5087 -0.9944  0.4022
 1326SOL    HW215612   0.407   3.081  12.479  1.0233  0.2675 -0.2016
 1327SOL     OW15613   1.251   3.502   9.147  0.5660  1.4003  0.6059
 1327SOL    HW115614   1.314   3.573   9.134  2.7970 -0.6641  0.2789
 1327SOL    HW215615   1.168   3.548   9.164 -0.8295 -0.9466  0.1249
 1328SOL     OW15616   2.982   0.802  10.156 -0.6832  0.0448  0.0633
 1328SOL    HW115617   3.042   0.728  10.171  0.5984  0.6913 -1.8907
 1328SOL    HW215618   2.904   0.749  10.139 -0.3467  0.0094 -1.3488
 1329SOL     OW15619   1.982   4.577   2.762 -0.3769 -0.4583  0.4935
 1329SOL    HW115620   2.077   4.581   2.770 -0.3652 -1.4403  0.8469
 1329SOL    HW215621   1.954   4.649   2.820 -1.1973  1.3862 -2.1677
 1330SOL     OW15622   3.704   2.061  12.061 -0.1545 -0.0692 -0.3136
 1330SOL    HW115623   3.780   2.005  12.042 -0.0936 -0.0653 -0.0831
 1330SOL    HW215624   3.738   2.136  12.110 -0.5410  0.7093 -1.2447
 1331SOL     OW15625   2.103   0.464   5.713 -0.0247 -0.3714  0.3839
 1331SOL    HW115626   2.115   0.529   5.781 -2.6944  1.2768 -0.7161
 1331SOL    HW215627   2.187   0.459   5.667 -0.6364 -0.1732 -0.7608
 1332SOL     OW15628   3.008   1.513   3.816 -0.7519  0.1874 -0.0868
 1332SOL    HW115629   2.999   1.442   3.753  0.3874 -0.0848  0.0594
 1332SOL    HW215630   2.925   1.559   3.802 -0.9539 -0.6826 -1.7718
 1333SOL     OW15631   1.646   3.842   0.065  0.1397  0.0608  0.0468
 1333SOL    HW115632   1.563   3.848   0.112 -0.6751  0.6261 -1.4791
 1333SOL    HW215633   1.634   3.767   0.006 -0.1201 -0.1198  0.3313
 1334SOL     OW15634   1.509   2.722   5.733 -0.2714 -0.3651 -0.3808
 1334SOL    HW115635   1.567   2.798   5.724  0.8777 -1.3595 -1.3983
 1334SOL    HW215636   1.508   2.698   5.640  1.9116 -0.5656 -0.3457
 1335SOL     OW15637   3.174   0.785  17.266 -0.8690  0.3757  0.4200
 1335SOL    HW115638   3.267   0.806  17.255 -0.8326 -0.2935 -0.5637
 1335SOL    HW215639   3.198   0.735  17.344  0.0341 -1.0737 -0.7820
 1336SOL     OW15640   0.311   1.408  17.742 -0.2825  0.4531 -0.0978
 1336SOL    HW115641   0.328   1.376  17.654 -3.0220  1.1441 -0.9029
 1336SOL    HW215642   0.400   1.412   0.025 -0.3450 -1.4061  0.2854
 1337SOL     OW15643   3.531   0.806   1.736  0.4853  0.2807 -0.0070
 1337SOL    HW115644   3.566   0.721   1.708 -1.6213 -0.6752  0.2701
 1337SOL    HW215645   3.604   0.822   1.797  1.1872 -5.1368  0.6617
 1338SOL     OW15646   3.310   3.309   9.041  0.3193  0.0183  0.1842
 1338SOL    HW115647   3.310   3.284   8.949 -0.4978 -0.8929  0.4329
 1338SOL    HW215648   3.301   3.220   9.076 -0.6146  0.8008  1.9018
 1339SOL     OW15649   3.687   2.696   8.217  0.2815  0.5239  0.2347
 1339SOL    HW115650   3.619   2.672   8.155  1.2278  0.4544 -0.7846
 1339SOL    HW215651   3.630   2.728   8.286 -0.3909  0.2768 -0.2047
 1340SOL     OW15652   1.012   3.567   6.278 -0.0805  0.3783 -1.1755
 1340SOL    HW115653   1.048   3.633   6.219 -0.0733 -0.0542 -1.6489
 1340SOL    HW215654   0.987   3.502   6.213  1.4388 -0.6079 -0.7734
 1341SOL     OW15655   0.141   4.373   1.689 -0.3561  0.0642  0.5323
 1341SOL    HW115656   0.210   4.439   1.684  0.4393 -0.7346  0.8671
 1341SOL    HW215657   0.192   4.292   1.694 -0.2060  0.1255 -0.0138
 1342SOL     OW15658   4.486   1.782   7.212  0.5601  0.1330 -0.3743
 1342SOL    HW115659   4.402   1.796   7.169  0.0641  0.3394  0.6829
 1342SOL    HW215660   4.495   1.845   7.283  0.7686  0.0079 -0.2903
 1343SOL     OW15661   2.899   2.335   4.392 -0.3158  0.5909 -0.7321
 1343SOL    HW115662   2.820   2.289   4.421 -0.6875  0.9297 -1.1979
 1343SOL    HW215663   2.926   2.289   4.313  1.3227  1.9975 -0.9799
 1344SOL     OW15664   1.342   1.214   9.235  0.0073 -0.0297  0.2879
 1344SOL    HW115665   1.314   1.209   9.326  0.3502  0.5618  0.4223
 1344SOL    HW215666   1.413   1.277   9.245 -0.8216  0.5172  2.5754
 1345SOL     OW15667   3.164   2.100   3.729  0.5276  0.0156  0.7201
 1345SOL    HW115668   3.075   2.069   3.713  0.4810 -0.3115  1.6176
 1345SOL    HW215669   3.209   2.088   3.645 -1.2642  0.9315 -0.3874
 1346SOL     OW15670   1.333   2.030   5.958  0.0348  0.2604 -0.2306
 1346SOL    HW115671   1.380   2.030   5.875 -0.1644  0.2036 -0.3420
 1346SOL    HW215672   1.345   2.123   5.980  1.4739  0.1796 -0.6804
 1347SOL     OW15673   1.436   1.763   4.333  0.1703  0.2962 -0.0509
 1347SOL    HW115674   1.459   1.771   4.425  0.0032  1.7829 -0.1508
 1347SOL    HW215675   1.459   1.673   4.309  0.8674  0.9726 -1.9365
 1348SOL     OW15676   4.641   2.868   5.001  0.2610 -0.5774 -0.4652
 1348SOL    HW115677   4.644   2.931   4.928 -1.4358  0.7807  0.6403
 1348SOL    HW215678   4.555   2.895   5.033  0.6724  1.6655 -1.2275
 1349SOL     OW15679   2.155   1.175   4.664  0.6161 -0.3132 -0.3639
 1349SOL    HW115680   2.137   1.253   4.612 -2.8920 -0.2691  0.9269
 1349SOL    HW215681   2.132   1.188   4.756  1.3030  1.6448 -0.4798
 1350SOL     OW15682   0.524   3.913   4.988 -0.1967 -0.1112 -0.0990
 1350SOL    HW115683   0.434   3.881   4.984 -0.4176  0.8701 -2.7932
 1350SOL    HW215684   0.532   3.981   5.055 -0.1415 -0.0504 -0.1666
 1351SOL     OW15685   3.707   2.824   1.947 -0.4820  0.1511  0.0845
 1351SOL    HW115686   3.775   2.890   1.955  0.6433 -0.9112 -0.7825
 1351SOL    HW215687   3.643   2.869   1.891  2.2223  3.7216 -0.0754
 1352SOL     OW15688   3.318   3.299  12.662 -0.0288 -0.3761 -0.1004
 1352SOL    HW115689   3.411   3.295  12.642  0.4842  0.4571  2.1193
 1352SOL    HW215690   3.315   3.352  12.742 -2.0080 -1.7586  0.7405
 1353SOL     OW15691   1.085   4.627   4.670  0.7992  0.2894  0.0832
 1353SOL    HW115692   1.156   4.571   4.638  0.3687 -1.3686  1.9904
 1353SOL    HW215693   1.084   4.694   4.601 -2.4934 -1.2172 -1.3242
 1354SOL     OW15694   4.001   1.106  17.352  0.7196  1.0316  0.0367
 1354SOL    HW115695   4.051   1.111  17.433 -0.0881  1.5922  0.5007
 1354SOL    HW215696   3.981   1.199  17.344  2.9359  1.4423 -0.8219
 1355SOL     OW15697   1.502   3.572   8.012  0.2187 -0.5855 -0.1826
 1355SOL    HW115698   1.562   3.499   8.005  0.2106 -0.5348 -0.7295
 1355SOL    HW215699   1.438   3.532   8.071 -1.0699  2.3173  0.4016
 1356SOL     OW15700   4.056   0.936   3.092 -0.3660 -0.2122 -0.1652
 1356SOL    HW115701   4.071   0.860   3.147  0.1068  0.9431  1.3047
 1356SOL    HW215702   3.965   0.918   3.072 -0.1358  1.1170 -2.5232
 1357SOL     OW15703   1.285   4.709  14.444 -0.3706 -0.4330 -0.0445
 1357SOL    HW115704   1.251   0.060  14.431 -1.1682 -0.6365  0.6452
 1357SOL    HW215705   1.200   4.667  14.435  0.8515 -2.7428 -0.6664
 1358SOL     OW15706   1.183   3.077  12.200 -0.2990 -0.3136 -0.1292
 1358SOL    HW115707   1.128   3.042  12.270  1.9388 -0.8755  1.3639
 1358SOL    HW215708   1.111   3.077  12.137 -0.0296  0.7022 -0.4422
 1359SOL     OW15709   2.909   1.083   1.934 -0.1441 -0.1349 -0.4870
 1359SOL    HW115710   2.875   1.173   1.945  0.0352 -0.1459  0.1954
 1359SOL    HW215711   2.917   1.070   1.840 -0.1061 -1.3935 -0.2999
 1360SOL     OW15712   0.004   0.428   2.732 -0.1202 -0.0343  0.1268
 1360SOL    HW115713   0.078   0.370   2.710  1.0860  0.6861  2.3161
 1360SOL    HW215714   4.685   0.425   2.655 -0.2967 -1.8838  0.3352
 1361SOL     OW15715   3.595   1.971  10.872 -0.2924  0.4986 -0.3254
 1361SOL    HW115716   3.644   1.975  10.790 -1.1577 -0.9811 -0.9185
 1361SOL    HW215717   3.547   2.054  10.866 -0.9976  0.2589  1.7816
 1362SOL     OW15718   0.036   2.068   1.876 -0.4657 -0.0215  0.4344
 1362SOL    HW115719   4.712   2.034   1.810 -0.2517  2.7581 -1.1934
 1362SOL    HW215720   4.729   2.141   1.917 -1.2985 -1.9058  2.8631
 1363SOL     OW15721   1.508   1.809   8.322  0.0004 -0.6283 -0.1906
 1363SOL    HW115722   1.538   1.865   8.250 -0.1680 -0.1668  0.0994
 1363SOL    HW215723   1.591   1.766   8.344 -0.0292 -1.2487 -1.2875
 1364SOL     OW15724   2.038   2.230   7.155 -0.2418 -0.2865 -0.0874
 1364SOL    HW115725   1.952   2.269   7.171  0.5987  2.4993 -2.2194
 1364SOL    HW215726   2.017   2.158   7.095 -1.8504  1.1018 -1.2165
 1365SOL     OW15727   1.994   0.918   7.114 -0.4173 -0.4305  0.2236
 1365SOL    HW115728   1.964   1.005   7.140  0.7290  0.3468 -1.0595
 1365SOL    HW215729   1.950   0.865   7.180 -0.8680  0.3609  0.5552
 1366SOL     OW15730   3.027   0.639   6.237 -0.6273  0.3381  0.3550
 1366SOL    HW115731   3.110   0.677   6.268 -0.2784  1.9696 -2.6183
 1366SOL    HW215732   2.974   0.716   6.218 -1.4553  0.1402  1.8387
 1367SOL     OW15733   2.885   3.271   2.464 -0.0317  0.0190  0.1272
 1367SOL    HW115734   2.790   3.273   2.455 -0.0212  0.5087  0.0860
 1367SOL    HW215735   2.913   3.217   2.391 -1.0483  2.0895 -1.8118
 1368SOL     OW15736   0.522   2.344   9.632  0.2495 -0.0228 -0.0874
 1368SOL    HW115737   0.482   2.372   9.550 -0.6840 -1.8787 -0.2717
 1368SOL    HW215738   0.446   2.325   9.687  0.0490  0.6259 -0.1426
 1369SOL     OW15739   1.211   2.813  17.081 -0.0890 -0.0228  0.1567
 1369SOL    HW115740   1.191   2.777  16.994  0.5257  1.3818 -0.5719
 1369SOL    HW215741   1.123   2.797  17.115 -0.0263  0.1088  0.3792
 1370SOL     OW15742   0.451   0.797   5.908  0.0006 -0.0633 -0.1771
 1370SOL    HW115743   0.540   0.828   5.926 -0.2050 -1.4047  3.0442
 1370SOL    HW215744   0.467   0.726   5.846  1.0782  0.8105 -0.9016
 1371SOL     OW15745   4.708   4.027   9.649  0.3707 -0.5769  0.1268
 1371SOL    HW115746   0.046   3.979   9.683  0.6744  0.3361  0.7404
 1371SOL    HW215747   4.703   4.098   9.714 -2.2656  0.7023 -1.4871
 1372SOL     OW15748   4.041   1.295   7.450 -0.3100 -0.0346  0.4544
 1372SOL    HW115749   4.088   1.231   7.396  0.8345 -0.2673  1.7310
 1372SOL    HW215750   4.078   1.381   7.429  2.1349 -0.4265  3.2509
 1373SOL     OW15751   3.335   4.544  17.388  0.1634 -0.1678  0.1204
 1373SOL    HW115752   3.398   4.507  17.451  0.6886  2.9205  1.4110
 1373SOL    HW215753   3.257   4.533  17.442  0.9932  0.4245  1.4629
 1374SOL     OW15754   2.615   2.283   8.313 -0.1047 -0.3274  0.1502
 1374SOL    HW115755   2.622   2.295   8.218  1.8918 -0.9099  0.2311
 1374SOL    HW215756   2.666   2.202   8.319 -0.2644 -0.2973  1.9429
 1375SOL     OW15757   3.593   3.864   2.229  0.8109 -0.1220 -0.5890
 1375SOL    HW115758   3.644   3.902   2.301 -0.0704 -0.5854  0.2721
 1375SOL    HW215759   3.613   3.771   2.232  0.8014 -0.0908  0.2991
 1376SOL     OW15760   0.568   4.671   0.052  0.6131  0.2052  0.2440
 1376SOL    HW115761   0.622   0.005   0.018  3.2006 -2.2120 -0.7375
 1376SOL    HW215762   0.633   4.620   0.101 -0.0363 -0.2267  0.6545
 1377SOL     OW15763   3.272   2.032   3.115  0.3356  0.2896 -0.5810
 1377SOL    HW115764   3.358   1.991   3.125  1.4928  2.4438 -1.6034
 1377SOL    HW215765   3.210   1.963   3.135  0.0810  0.3138 -1.2694
 1378SOL     OW15766   1.819   3.865   0.979 -0.2983 -0.0796  0.0348
 1378SOL    HW115767   1.829   3.952   0.941 -0.8411 -1.0335 -2.3194
 1378SOL    HW215768   1.811   3.877   1.074 -0.6670 -0.8506  0.0998
 1379SOL     OW15769   3.703   0.028   8.883  0.6396 -0.0187  0.2282
 1379SOL    HW115770   3.653   4.719   8.950 -0.6371  2.4904  1.0689
 1379SOL    HW215771   3.719   0.109   8.931  1.3039  1.1118 -1.9073
 1380SOL     OW15772   2.549   4.056  16.750  0.0905 -0.1918 -0.2029
 1380SOL    HW115773   2.599   3.975  16.756  0.1479  0.0237  2.1648
 1380SOL    HW215774   2.542   4.081  16.842  0.7672 -2.1634  0.3767
 1381SOL     OW15775   3.014   3.491   4.535  0.1307  0.0543  0.0046
 1381SOL    HW115776   2.941   3.498   4.473 -0.6118  0.1696  0.9031
 1381SOL    HW215777   3.031   3.397   4.539  0.1677  0.0682  0.1735
 1382SOL     OW15778   3.590   2.189   8.684  0.1473 -0.1396 -1.1156
 1382SOL    HW115779   3.502   2.180   8.645 -0.1353 -1.3841 -0.1761
 1382SOL    HW215780   3.582   2.130   8.759  1.0541 -1.0052 -1.7019
 1383SOL     OW15781   2.356   1.400   1.879  0.2080 -0.3673  0.4103
 1383SOL    HW115782   2.336   1.327   1.821  0.9590  0.4416 -0.8671
 1383SOL    HW215783   2.412   1.356   1.943  0.8932 -0.3675 -0.1758
 1384SOL     OW15784   2.719   2.012   6.144 -0.3178 -0.5371 -0.5081
 1384SOL    HW115785   2.740   2.017   6.051 -0.6858 -0.8890 -0.6104
 1384SOL    HW215786   2.628   1.982   6.140 -1.4720  3.1496 -1.4157
 1385SOL     OW15787   3.122   3.585  16.476 -0.0175  0.0924 -0.3732
 1385SOL    HW115788   3.109   3.677  16.497  1.9509  0.3549 -0.3068
 1385SOL    HW215789   3.082   3.577  16.390  0.9673 -1.9585 -0.6338
 1386SOL     OW15790   4.048   1.268   3.989  0.6366 -0.2026 -0.3768
 1386SOL    HW115791   4.101   1.289   3.912  0.6125 -1.5195 -0.7598
 1386SOL    HW215792   4.034   1.177   3.961 -2.1693  0.3481 -0.7856
 1387SOL     OW15793   3.030   2.607   5.554 -0.2773  0.4999 -0.0760
 1387SOL    HW115794   3.033   2.692   5.510 -1.3573 -0.5418 -2.1264
 1387SOL    HW215795   2.962   2.628   5.618 -1.3052 -1.9336 -0.3726
 1388SOL     OW15796   2.432   0.727   4.241 -0.0361  0.1266 -0.9019
 1388SOL    HW115797   2.515   0.764   4.213  0.3623  0.1021  0.2696
 1388SOL    HW215798   2.430   0.654   4.178  1.3076 -0.5267 -0.1850
 1389SOL     OW15799   3.353   2.171  14.587 -0.1962 -0.1759  0.4995
 1389SOL    HW115800   3.311   2.257  14.587 -1.9150 -1.0326 -1.4911
 1389SOL    HW215801   3.402   2.175  14.505 -1.1685  1.9609  0.0387
 1390SOL     OW15802   4.645   0.559   3.346 -0.0355 -0.5594 -0.0043
 1390SOL    HW115803   4.601   0.561   3.431 -0.0013 -2.7710  0.0580
 1390SOL    HW215804   4.670   0.650   3.331 -1.6914 -0.2859 -1.1114
 1391SOL     OW15805   4.678   0.805   6.721  0.6806 -0.4236 -0.8177
 1391SOL    HW115806   4.727   0.747   6.662  1.0047 -1.0152  0.0425
 1391SOL    HW215807   4.591   0.770   6.701 -0.0048  1.1338 -0.6043
 1392SOL     OW15808   2.104   1.885   5.844  0.3447 -0.1173  0.1065
 1392SOL    HW115809   2.131   1.915   5.757 -0.4099  1.6213  0.4775
 1392SOL    HW215810   2.010   1.900   5.834  0.7095  1.1223 -1.4589
 1393SOL     OW15811   4.252   0.218   9.606 -0.5014 -0.0983  0.1837
 1393SOL    HW115812   4.286   0.301   9.573  1.9760 -0.1153  2.6639
 1393SOL    HW215813   4.299   0.161   9.546  1.4308 -0.7293  2.2919
 1394SOL     OW15814   3.449   2.059   2.398 -0.3192 -0.1521  0.7315
 1394SOL    HW115815   3.368   2.031   2.441 -1.6125  1.6540 -0.5189
 1394SOL    HW215816   3.510   1.990   2.426  0.0184 -0.7688 -1.5741
 1395SOL     OW15817   4.338   1.800   5.843 -0.0880 -0.0305  0.4510
 1395SOL    HW115818   4.327   1.710   5.876  0.3454  0.3095  1.5159
 1395SOL    HW215819   4.250   1.830   5.820  0.4099 -0.0397 -1.4389
 1396SOL     OW15820   0.267   0.336  14.112 -0.4324  0.0453 -0.0429
 1396SOL    HW115821   0.253   0.421  14.154  0.7735 -1.3778  3.2645
 1396SOL    HW215822   0.176   0.305  14.114  0.0750 -1.4989 -0.5254
 1397SOL     OW15823   2.325   2.423  16.017  0.8973 -0.0057 -0.2327
 1397SOL    HW115824   2.289   2.334  16.024 -1.6447  0.8764 -2.2447
 1397SOL    HW215825   2.366   2.434  16.103 -0.5985 -0.1692  0.5160
 1398SOL     OW15826   1.683   1.692  14.301  0.0258 -0.2783  0.4696
 1398SOL    HW115827   1.773   1.661  14.288  0.5570  1.1335  0.8177
 1398SOL    HW215828   1.704   1.776  14.341 -2.5327 -0.6286  2.5285
 1399SOL     OW15829   2.679   3.280   1.457  0.2394  0.4981 -0.1744
 1399SOL    HW115830   2.662   3.238   1.542 -0.0761 -1.6362 -1.2953
 1399SOL    HW215831   2.614   3.230   1.408 -0.7681  0.2068  1.4364
 1400SOL     OW15832   1.588   2.772   3.214 -0.1245  0.4081 -0.0468
 1400SOL    HW115833   1.557   2.836   3.279  0.1338  0.2045  0.2733
 1400SOL    HW215834   1.671   2.748   3.255  1.0814  0.4911 -2.4089
 1401SOL     OW15835   1.098   0.189   5.707  0.9033 -0.2363 -0.0283
 1401SOL    HW115836   1.012   0.224   5.682  1.2564  0.4328 -0.2984
 1401SOL    HW215837   1.083   0.098   5.680 -0.4769 -0.1095  0.3188
 1402SOL     OW15838   0.586   0.872   3.291 -0.7538 -0.5379 -0.5078
 1402SOL    HW115839   0.543   0.898   3.209 -0.7158 -0.0639 -0.3716
 1402SOL    HW215840   0.658   0.816   3.261  1.3916  2.2838 -0.5328
 1403SOL     OW15841   0.306   1.367  15.171 -0.0723 -0.1213  0.1836
 1403SOL    HW115842   0.381   1.308  15.178  0.3633  0.3572 -0.4342
 1403SOL    HW215843   0.308   1.393  15.079 -1.2260  0.6251  0.3682
 1404SOL     OW15844   3.776   0.413   6.626 -0.3191  0.6268 -0.5659
 1404SOL    HW115845   3.871   0.410   6.641 -0.3921  1.0955 -0.0000
 1404SOL    HW215846   3.765   0.405   6.531 -1.6943  1.2232 -0.4530
 1405SOL     OW15847   4.205   0.926  11.607 -0.0494  0.2551  0.7223
 1405SOL    HW115848   4.168   0.869  11.675 -0.2376  0.5497  0.8637
 1405SOL    HW215849   4.276   0.867  11.580  0.7235  1.2677  0.5555
 1406SOL     OW15850   1.261   2.297  17.188 -0.3703  0.0952 -0.4831
 1406SOL    HW115851   1.227   2.382  17.159  2.7824  1.4681 -0.2504
 1406SOL    HW215852   1.302   2.328  17.269 -0.4351  2.5899 -1.3928
 1407SOL     OW15853   0.463   2.031   6.403 -0.6970  0.2741  0.7042
 1407SOL    HW115854   0.479   2.103   6.465 -0.7388  0.2657  0.7254
 1407SOL    HW215855   0.376   2.054   6.371 -0.6896 -1.0227 -0.2318
 1408SOL     OW15856   3.532   2.641   2.933  0.6775 -0.0183  0.0025
 1408SOL    HW115857   3.509   2.725   2.893 -0.8715 -1.1739 -1.5509
 1408SOL    HW215858   3.449   2.610   2.968  0.7465  1.7853  1.8193
 1409SOL     OW15859   3.547   0.984   9.291  0.0739  0.2637  0.4018
 1409SOL    HW115860   3.470   1.010   9.241  1.1126 -0.0733 -1.3874
 1409SOL    HW215861   3.542   0.889   9.284  0.6451  0.2355  0.3536
 1410SOL     OW15862   4.072   1.961   6.299 -0.4462  0.1361 -0.4205
 1410SOL    HW115863   4.066   2.005   6.215 -0.3084  2.5551  0.8305
 1410SOL    HW215864   4.053   1.871   6.272  1.8724 -0.9075  1.4741
 1411SOL     OW15865   3.180   4.355   4.763  0.0661  0.2275 -0.0258
 1411SOL    HW115866   3.134   4.405   4.829  1.2765 -0.9903  1.7492
 1411SOL    HW215867   3.159   4.404   4.683  0.1623 -1.8528 -1.3472
 1412SOL     OW15868   1.045   4.136   4.983  0.2578 -0.3903  0.8006
 1412SOL    HW115869   0.960   4.097   5.002 -0.4470  1.0035  0.4671
 1412SOL    HW215870   1.094   4.062   4.948  1.0568  0.9248 -0.8837
 1413SOL     OW15871   0.077   0.063  16.863  0.3635  0.0287 -0.2054
 1413SOL    HW115872   0.166   0.031  16.878  0.6254 -0.6547 -3.0729
 1413SOL    HW215873   0.076   0.067  16.767 -0.0776  1.0863 -0.1541
 1414SOL     OW15874   2.217   2.598   5.671  0.3287 -0.3994  0.3481
 1414SOL    HW115875   2.290   2.546   5.636  0.6380 -1.7048  2.9808
 1414SOL    HW215876   2.219   2.566   5.761  1.2319 -0.5935  0.2567
 1415SOL     OW15877   3.463   0.397  13.186 -0.1557 -0.1629 -0.2706
 1415SOL    HW115878   3.498   0.309  13.173  0.9711  0.3891 -0.9742
 1415SOL    HW215879   3.389   0.380  13.244 -0.7517 -1.3431 -1.3933
 1416SOL     OW15880   3.052   3.687   9.113 -0.3563 -0.1820 -0.0490
 1416SOL    HW115881   2.969   3.713   9.154 -0.8234  0.4813 -1.4257
 1416SOL    HW215882   3.020   3.648   9.032 -1.1228  2.5075 -1.0406
 1417SOL     OW15883   3.879   0.679   1.636  0.0630 -0.4021  0.0628
 1417SOL    HW115884   3.796   0.632   1.646 -0.4748  1.1101  2.6512
 1417SOL    HW215885   3.927   0.647   1.712  0.0053 -1.4119 -0.3330
 1418SOL     OW15886   0.231   1.071   3.775  0.5400  0.5744 -0.0826
 1418SOL    HW115887   0.140   1.058   3.750  0.9384  0.9089 -1.7037
 1418SOL    HW215888   0.275   0.989   3.750 -1.7061 -0.3811 -0.8756
 1419SOL     OW15889   2.499   4.267  12.755 -0.1402  0.3931  0.3372
 1419SOL    HW115890   2.457   4.294  12.673 -0.4545 -1.0875  0.0126
 1419SOL    HW215891   2.491   4.172  12.747 -1.1082  0.4545  0.6442
 1420SOL     OW15892   2.711   2.238   5.400 -0.2357 -0.6341 -0.3563
 1420SOL    HW115893   2.647   2.276   5.340  1.6092  1.3470 -1.0732
 1420SOL    HW215894   2.730   2.315   5.453  2.1899 -0.9631 -0.7425
 1421SOL     OW15895   3.250   4.434   5.447  0.5018  0.2156 -0.1719
 1421SOL    HW115896   3.258   4.340   5.464 -0.4908  0.4089  1.3492
 1421SOL    HW215897   3.201   4.434   5.364  1.6310 -0.4355 -0.8360
 1422SOL     OW15898   0.049   4.266   3.259 -0.0685  0.6545 -0.2207
 1422SOL    HW115899   0.007   4.297   3.339 -0.9561 -1.7670  0.2611
 1422SOL    HW215900   0.056   4.171   3.272  2.6919  0.9523  0.4185
 1423SOL     OW15901   0.429   2.212   7.997  0.2806  0.7495 -0.2926
 1423SOL    HW115902   0.497   2.190   8.061  0.4262 -0.0542 -0.7203
 1423SOL    HW215903   0.405   2.126   7.963  1.3718  0.4613 -0.3460
 1424SOL     OW15904   0.315   2.553  13.675  0.4357  0.0511  0.3581
 1424SOL    HW115905   0.251   2.487  13.702 -0.8363  1.7194  1.4493
 1424SOL    HW215906   0.302   2.524  13.585  0.6625 -0.2608  0.4252
 1425SOL     OW15907   2.297   0.327   4.741  0.2243 -0.2159  0.1294
 1425SOL    HW115908   2.347   0.329   4.659  0.6999  1.2965  0.4637
 1425SOL    HW215909   2.221   0.380   4.716  0.8963  0.1830 -1.1033
 1426SOL     OW15910   3.060   4.555   8.112 -0.5347  0.2787  0.1078
 1426SOL    HW115911   3.085   4.593   8.028 -1.3177 -1.2633 -0.8282
 1426SOL    HW215912   3.145   4.552   8.156 -0.3507 -1.9299 -0.4321
 1427SOL     OW15913   2.203   0.357   4.036  0.3577 -0.0078  0.0045
 1427SOL    HW115914   2.224   0.346   4.129 -0.6462  0.8134  0.3314
 1427SOL    HW215915   2.120   0.402   4.051  0.5720 -0.1875  1.7277
 1428SOL     OW15916   1.509   0.805   6.341 -0.2536  0.1531  0.1816
 1428SOL    HW115917   1.461   0.754   6.275 -1.7272  1.4358  0.2856
 1428SOL    HW215918   1.563   0.734   6.376 -1.0534 -0.1784  0.7290
 1429SOL     OW15919   1.212   1.013  12.576 -0.4360  0.1129 -0.1745
 1429SOL    HW115920   1.128   0.973  12.551  0.1480 -1.1255 -0.1871
 1429SOL    HW215921   1.249   0.929  12.602  0.1033  0.3524 -0.1751
 1430SOL     OW15922   1.166   3.515  12.102 -0.0439  0.2125 -0.2430
 1430SOL    HW115923   1.232   3.450  12.125  1.1692  1.8955  1.0024
 1430SOL    HW215924   1.220   3.590  12.129  1.9079 -0.9964 -0.7797
 1431SOL     OW15925   1.483   0.921   3.618 -0.5027  0.0906  0.0051
 1431SOL    HW115926   1.517   1.011   3.623  1.5795 -0.6950  0.2029
 1431SOL    HW215927   1.540   0.886   3.687 -3.1401 -1.3415  1.4609
 1432SOL     OW15928   1.015   3.040  10.274  0.4515  0.4503  0.4463
 1432SOL    HW115929   0.947   3.009  10.214  0.3648  2.5872 -0.5911
 1432SOL    HW215930   0.974   3.023  10.358  0.7956 -0.5891  0.3995
 1433SOL     OW15931   4.553   0.016   7.224  0.0276  0.0615 -0.0940
 1433SOL    HW115932   4.537   4.700   7.146  0.6517  0.3933 -0.4509
 1433SOL    HW215933   4.647   0.001   7.215  0.7376  2.7249  2.9800
 1434SOL     OW15934   1.226   4.372  11.896  0.2115  0.8881 -0.8315
 1434SOL    HW115935   1.194   4.288  11.929  1.2450  0.1262 -1.7622
 1434SOL    HW215936   1.188   4.414  11.973 -0.5609  0.6702 -1.0963
 1435SOL     OW15937   4.293   0.052   9.889 -0.8981 -0.2748 -0.2854
 1435SOL    HW115938   4.205   0.090   9.881 -1.4801 -1.8606 -1.4528
 1435SOL    HW215939   4.351   0.128   9.887 -2.0174  0.6039  0.8556
 1436SOL     OW15940   0.446   4.048  14.520 -0.8533  0.0300  0.0462
 1436SOL    HW115941   0.381   4.069  14.588 -2.2570 -1.5616 -0.8011
 1436SOL    HW215942   0.484   4.136  14.521  1.4587 -0.9926  2.4699
 1437SOL     OW15943   1.431   3.809   6.883 -0.0928  0.3162  0.6711
 1437SOL    HW115944   1.446   3.900   6.856 -1.3447 -0.2414 -1.8838
 1437SOL    HW215945   1.517   3.795   6.923 -0.0496  0.7437  0.7308
 1438SOL     OW15946   2.353   4.436   9.222 -0.2297 -0.1373 -0.1497
 1438SOL    HW115947   2.297   4.485   9.161 -1.0971 -1.2196 -0.2117
 1438SOL    HW215948   2.423   4.497   9.246 -0.6522 -0.1464  1.1525
 1439SOL     OW15949   1.092   0.668  10.687  0.5108  0.6057  0.0026
 1439SOL    HW115950   1.120   0.585  10.648  1.6035  1.1508 -0.3813
 1439SOL    HW215951   1.166   0.725  10.665 -0.7650  2.2492  0.0413
 1440SOL     OW15952   1.881   2.003  17.100 -0.5436  0.8860 -0.0147
 1440SOL    HW115953   1.836   2.052  17.168  0.0223 -0.3941  1.2869
 1440SOL    HW215954   1.958   2.052  17.071 -2.2636  3.1349 -0.7421
 1441SOL     OW15955   2.431   1.901   5.814 -0.2642  0.4379  0.3434
 1441SOL    HW115956   2.385   1.820   5.792  0.3856  0.2926 -0.5048
 1441SOL    HW215957   2.476   1.879   5.896  1.0750 -1.5912 -0.9424
 1442SOL     OW15958   1.303   2.991   8.277 -0.3012 -0.3299 -0.2227
 1442SOL    HW115959   1.238   3.005   8.345  0.3088  1.0600  0.0758
 1442SOL    HW215960   1.382   3.002   8.330 -1.3160 -0.8844  1.3802
 1443SOL     OW15961   1.792   2.059   7.047 -0.1771 -0.4289 -0.0362
 1443SOL    HW115962   1.751   2.017   7.122 -0.2714  0.4117  0.3783
 1443SOL    HW215963   1.720   2.057   6.983  0.3516  0.2403 -0.6529
 1444SOL     OW15964   3.407   4.055   0.585  0.4971 -0.7651 -0.0981
 1444SOL    HW115965   3.401   4.138   0.633 -0.4236 -1.3905  0.8800
 1444SOL    HW215966   3.328   4.003   0.601  0.9539 -1.8536 -1.3328
 1445SOL     OW15967   4.210   1.893   6.706 -0.4229 -0.1117 -0.2288
 1445SOL    HW115968   4.208   1.933   6.619  1.3682 -0.9274 -0.6412
 1445SOL    HW215969   4.266   1.819   6.683  0.0291 -0.0868  0.7937
 1446SOL     OW15970   1.006   3.683   3.862  0.1327  0.1517 -0.1510
 1446SOL    HW115971   1.012   3.777   3.878 -1.3827  0.0269  1.1451
 1446SOL    HW215972   0.982   3.687   3.770  0.8535  0.0259 -0.3441
 1447SOL     OW15973   1.348   1.380   8.108 -0.0965 -0.0024 -0.0687
 1447SOL    HW115974   1.335   1.384   8.013 -0.6315  1.6574  0.0726
 1447SOL    HW215975   1.401   1.301   8.116  2.6579  1.7870 -0.5607
 1448SOL     OW15976   4.001   3.698  17.634  0.2424  0.0525 -0.0994
 1448SOL    HW115977   3.936   3.767  17.647 -1.6664 -2.1097  2.0897
 1448SOL    HW215978   4.052   3.723  17.711 -0.3652 -0.6439  0.5324
 1449SOL     OW15979   0.738   3.147   2.507  0.1181 -0.1546  0.9580
 1449SOL    HW115980   0.794   3.110   2.439 -0.3943 -0.6972  0.8356
 1449SOL    HW215981   0.782   3.232   2.520 -0.0974  0.3545 -1.5475
 1450SOL     OW15982   3.915   2.638  12.618 -0.4573 -0.1648 -0.4449
 1450SOL    HW115983   4.005   2.641  12.651 -1.1242 -0.8976  1.4632
 1450SOL    HW215984   3.886   2.722  12.653  0.2364 -0.2707  0.3999
 1451SOL     OW15985   1.388   4.506   3.213  0.4457 -0.4713 -0.1959
 1451SOL    HW115986   1.483   4.495   3.217  0.6576  1.1321 -0.7606
 1451SOL    HW215987   1.358   4.461   3.134  2.0807 -1.1638 -0.4129
 1452SOL     OW15988   3.336   2.329   8.900  0.2232  0.1779 -0.0422
 1452SOL    HW115989   3.291   2.332   8.984  1.1494  3.4215  0.3490
 1452SOL    HW215990   3.362   2.238   8.884  1.1030  0.5865 -0.9634
 1453SOL     OW15991   2.984   2.156   2.072 -0.0487 -0.4348 -0.4313
 1453SOL    HW115992   3.032   2.239   2.063 -0.1288 -0.1220  2.1015
 1453SOL    HW215993   3.017   2.110   1.995  1.2457  1.9527 -1.2937
 1454SOL     OW15994   0.041   2.142  13.670  0.1250  0.5988  0.2722
 1454SOL    HW115995   0.023   2.232  13.643 -0.9017  0.5470  0.7771
 1454SOL    HW215996   0.112   2.160  13.732  0.7956  0.1154 -0.3696
 1455SOL     OW15997   2.260   4.175   2.475  0.1813 -0.1417 -0.2270
 1455SOL    HW115998   2.189   4.138   2.528  0.4722  0.3750  0.5141
 1455SOL    HW215999   2.197   4.240   2.444  3.5913  1.6284 -3.3877
 1456SOL     OW16000   2.894   1.084   9.303 -0.1007 -0.3582  0.6830
 1456SOL    HW116001   2.815   1.134   9.279 -2.0239 -3.5992  0.3094
 1456SOL    HW216002   2.957   1.105   9.234 -1.4043  0.1516 -0.3603
 1457SOL     OW16003   4.338   2.989   8.326 -0.8112  0.3082  0.1588
 1457SOL    HW116004   4.403   2.924   8.352  1.2761  1.8613 -1.1111
 1457SOL    HW216005   4.256   2.942   8.341 -1.5200  1.4362 -0.2220
 1458SOL     OW16006   2.445   4.577   8.981 -0.0467 -0.0457  0.0591
 1458SOL    HW116007   2.389   4.632   8.926  0.2638 -0.9690 -1.1988
 1458SOL    HW216008   2.461   4.501   8.925  0.8791  2.8614 -3.6667
 1459SOL     OW16009   0.584   3.898   1.542  0.5952  0.0240 -0.2142
 1459SOL    HW116010   0.583   3.814   1.497  0.7435 -0.5333  0.8264
 1459SOL    HW216011   0.507   3.888   1.598  0.7133  0.8102  0.0854
 1460SOL     OW16012   0.391   3.863   0.468  0.1259 -0.3424  0.5901
 1460SOL    HW116013   0.358   3.774   0.476 -0.7523 -0.1006 -0.2838
 1460SOL    HW216014   0.484   3.850   0.451  0.6799  1.6894  1.9942
 1461SOL     OW16015   2.392   2.102   8.155  0.5488  0.4464 -0.3066
 1461SOL    HW116016   2.365   2.056   8.235 -1.1341  3.0803  0.6250
 1461SOL    HW216017   2.364   2.191   8.176 -3.0016 -0.7210 -0.0783
 1462SOL     OW16018   1.763   0.224   4.946  0.1926  0.4035 -0.2021
 1462SOL    HW116019   1.725   0.141   4.971  3.0018 -0.5278  0.9701
 1462SOL    HW216020   1.839   0.230   5.004 -0.7580  0.0537  1.0726
 1463SOL     OW16021   1.547   3.942   9.467  0.2478 -0.3490  0.0850
 1463SOL    HW116022   1.482   4.011   9.478  1.2989  0.3621  1.8148
 1463SOL    HW216023   1.605   3.999   9.416 -1.5164  2.6967  1.5157
 1464SOL     OW16024   2.787   1.745   9.365 -0.4174  0.3720 -0.6477
 1464SOL    HW116025   2.765   1.794   9.444 -2.5746  0.4338 -1.2955
 1464SOL    HW216026   2.882   1.752   9.373 -0.4744  0.5888 -0.1390
 1465SOL     OW16027   4.459   3.091   3.647  0.2901  0.5663  0.0397
 1465SOL    HW116028   4.515   3.166   3.630  0.9239  0.1470  0.2744
 1465SOL    HW216029   4.393   3.110   3.580 -0.4913  0.0722  0.6585
 1466SOL     OW16030   3.782   0.008   6.923  0.0829  0.4882  0.2783
 1466SOL    HW116031   3.701   0.055   6.940 -1.0301 -2.3248  2.7396
 1466SOL    HW216032   3.852   0.069   6.943 -0.4118  1.6657 -1.5893
 1467SOL     OW16033   2.753   1.722   7.950 -0.0086 -0.6009 -0.2454
 1467SOL    HW116034   2.777   1.813   7.968 -0.1622 -1.0394  2.1752
 1467SOL    HW216035   2.663   1.710   7.979  0.6093 -0.9975  1.5165
 1468SOL     OW16036   4.668   1.801  12.995 -0.7495 -0.1789 -0.3537
 1468SOL    HW116037   4.713   1.753  12.925 -0.6786 -1.7147  0.7427
 1468SOL    HW216038   4.665   1.740  13.068  2.3055  0.3016  0.1863
 1469SOL     OW16039   3.570   2.088  13.163 -0.6186 -0.4576 -0.3622
 1469SOL    HW116040   3.489   2.037  13.163 -0.8010 -0.1652 -0.4069
 1469SOL    HW216041   3.635   2.023  13.191  0.2791  0.8388  0.5328
 1470SOL     OW16042   3.099   0.607  17.048 -0.2378  0.0627  0.0147
 1470SOL    HW116043   3.108   0.685  17.103 -2.0869 -0.5240  1.1557
 1470SOL    HW216044   3.027   0.637  16.992 -0.4163 -1.0147 -0.3253
 1471SOL     OW16045   2.991   4.555  17.096 -0.1003 -0.4802  0.0053
 1471SOL    HW116046   3.069   4.609  17.115 -2.4828  2.0238  2.6102
 1471SOL    HW216047   2.918   4.609  17.126  0.6579  0.7433 -0.3434
 1472SOL     OW16048   1.497   0.295  11.048  0.5415 -0.5942 -0.0300
 1472SOL    HW116049   1.483   0.337  11.132  1.0022 -1.5078  0.5049
 1472SOL    HW216050   1.502   0.372  10.991 -0.3238 -0.2504  0.3513
 1473SOL     OW16051   1.114   1.329   4.941  0.3542  0.0889 -0.1033
 1473SOL    HW116052   1.196   1.332   4.892  1.2852  1.1387  1.5203
 1473SOL    HW216053   1.062   1.257   4.904 -2.2170  0.9810  1.8210
 1474SOL     OW16054   1.776   3.422  14.378 -0.0459  0.9080 -0.4329
 1474SOL    HW116055   1.812   3.474  14.450 -1.6592  0.9468  0.3700
 1474SOL    HW216056   1.790   3.487  14.309 -1.3623  1.4209 -0.2213
 1475SOL     OW16057   3.220   1.906  11.912 -0.3345  0.3768 -0.5122
 1475SOL    HW116058   3.196   1.908  12.004 -2.2403 -1.5421 -0.9594
 1475SOL    HW216059   3.266   1.990  11.903 -0.6771  0.6601  0.3896
 1476SOL     OW16060   1.318   3.611   4.594 -0.4070  0.1418  0.1672
 1476SOL    HW116061   1.223   3.622   4.592 -0.4846 -0.1419  1.8129
 1476SOL    HW216062   1.340   3.575   4.509  0.0816 -0.5810  0.5964
 1477SOL     OW16063   3.479   4.058   8.340  0.2594  0.2315  0.3242
 1477SOL    HW116064   3.483   4.031   8.249  1.1352 -0.2457  0.4985
 1477SOL    HW216065   3.538   4.004   8.393 -1.0361 -1.9066 -0.4351
 1478SOL     OW16066   4.377   4.496   4.306 -0.0587  0.1929 -0.0929
 1478SOL    HW116067   4.398   4.581   4.345 -1.4937  0.2319  0.5994
 1478SOL    HW216068   4.383   4.513   4.212  0.3941 -1.2338 -0.3192
 1479SOL     OW16069   1.715   2.776  13.674  0.1171  0.6404 -0.1607
 1479SOL    HW116070   1.655   2.724  13.619  0.1823 -1.5422  1.8602
 1479SOL    HW216071   1.789   2.777  13.613  0.5269 -0.8616  0.3162
 1480SOL     OW16072   2.719   0.130   0.524  0.1410  0.1165 -0.1021
 1480SOL    HW116073   2.674   0.143   0.607  1.6756 -2.4079  1.1227
 1480SOL    HW216074   2.805   0.164   0.548  0.2040  0.3424 -0.6468
 1481SOL     OW16075   0.901   2.926   7.679 -0.7538 -0.0494 -0.5961
 1481SOL    HW116076   0.862   2.869   7.746  0.4487  0.9620  0.9785
 1481SOL    HW216077   0.942   2.862   7.621 -0.7123 -0.4348 -0.1447
 1482SOL     OW16078   1.220   2.377  10.225  0.2840  0.9156 -0.5774
 1482SOL    HW116079   1.216   2.446  10.159 -3.6112  1.5545  0.3342
 1482SOL    HW216080   1.159   2.413  10.290 -0.1079  1.1232 -1.0612
 1483SOL     OW16081   1.557   3.930  16.006 -0.1291 -0.0019  0.2856
 1483SOL    HW116082   1.637   3.971  15.974  1.2266 -2.4111  0.6058
 1483SOL    HW216083   1.585   3.873  16.078  2.4088  0.4107 -0.3814
 1484SOL     OW16084   0.397   0.599   4.608 -0.5571  0.5851  0.3501
 1484SOL    HW116085   0.432   0.534   4.669 -1.0701  0.6696  0.7403
 1484SOL    HW216086   0.335   0.640   4.669 -2.4086 -2.0872  0.2356
 1485SOL     OW16087   2.009   1.444  15.705  0.4334  0.0133  0.3012
 1485SOL    HW116088   1.959   1.525  15.693 -0.4445 -0.3632  1.4713
 1485SOL    HW216089   1.990   1.399  15.623 -3.1865 -0.7611  1.5985
 1486SOL     OW16090   1.691   1.834   5.298  0.1860 -0.2584  0.7601
 1486SOL    HW116091   1.605   1.797   5.281  0.6771 -0.3504 -1.5662
 1486SOL    HW216092   1.673   1.891   5.373  0.4720  3.0547 -1.6628
 1487SOL     OW16093   1.619   2.852   2.393 -0.1826  0.2307  0.5149
 1487SOL    HW116094   1.664   2.768   2.399  1.1177  1.1467  3.5395
 1487SOL    HW216095   1.527   2.827   2.382 -0.2068  0.3258  0.4989
 1488SOL     OW16096   4.490   3.275  11.635 -0.0615 -0.6912 -0.1837
 1488SOL    HW116097   4.480   3.237  11.722 -0.6272 -0.8668 -0.3301
 1488SOL    HW216098   4.536   3.357  11.653  0.7722 -1.6053  1.7931
 1489SOL     OW16099   3.695   3.026   8.613  0.1109 -0.3092  0.1232
 1489SOL    HW116100   3.624   2.971   8.648  0.6751 -1.9926 -1.3861
 1489SOL    HW216101   3.669   3.115   8.637 -0.3139  0.2660 -2.4731
 1490SOL     OW16102   1.395   3.704  11.370  0.0376 -0.2661  0.0915
 1490SOL    HW116103   1.426   3.674  11.455  0.3572 -0.5375 -0.1232
 1490SOL    HW216104   1.456   3.778  11.367 -0.7151  0.3904  0.7130
 1491SOL     OW16105   2.854   3.268   5.511  0.5574 -0.5889  0.0561
 1491SOL    HW116106   2.949   3.276   5.502  0.6647 -0.2000  1.4810
 1491SOL    HW216107   2.848   3.329   5.585 -1.1942  0.7661 -1.2043
 1492SOL     OW16108   2.883   3.886   6.853 -0.1550 -0.2249 -0.1874
 1492SOL    HW116109   2.974   3.914   6.840 -0.3458  1.1457  1.4010
 1492SOL    HW216110   2.849   3.926   6.773  0.6897 -0.4802 -0.6793
 1493SOL     OW16111   1.741   3.007  14.522 -0.2426 -0.2665 -0.1684
 1493SOL    HW116112   1.742   2.930  14.467 -1.8621 -0.0947 -0.4544
 1493SOL    HW216113   1.799   3.064  14.471 -1.2835 -0.4098 -1.5037
 1494SOL     OW16114   3.568   3.839   1.078  0.0477 -0.2667  0.0166
 1494SOL    HW116115   3.486   3.866   1.119  0.2573  1.6638 -0.8049
 1494SOL    HW216116   3.624   3.911   1.107 -2.1531  1.5692 -0.2477
 1495SOL     OW16117   0.083   1.351   6.220  0.1565 -0.4073  0.4518
 1495SOL    HW116118   0.088   1.383   6.310  1.5390  0.7772 -0.0307
 1495SOL    HW216119   0.012   1.402   6.181  0.8529 -0.0957 -0.4070
 1496SOL     OW16120   1.346   0.304   3.273  0.2797  0.2739  0.5808
 1496SOL    HW116121   1.369   0.334   3.361 -0.4501  0.7146  0.6141
 1496SOL    HW216122   1.296   0.379   3.242  1.6506  1.5176  1.3853
 1497SOL     OW16123   3.416   3.122   7.159  0.4204 -0.0643  0.5579
 1497SOL    HW116124   3.477   3.097   7.089  2.7858  1.2709  2.1771
 1497SOL    HW216125   3.477   3.130   7.232 -1.0402 -0.7591  1.8632
 1498SOL     OW16126   1.065   2.476   6.022  0.4752  0.2115 -0.1842
 1498SOL    HW116127   1.115   2.542   6.069  0.6961  0.9893 -1.5002
 1498SOL    HW216128   1.000   2.538   5.990  0.6461  0.7641  0.5495
 1499SOL     OW16129   0.759   1.417  13.631  0.0741  0.7056 -0.2983
 1499SOL    HW116130   0.835   1.453  13.585  1.0241  0.2205  0.8901
 1499SOL    HW216131   0.691   1.474  13.597 -0.4899  0.2851  0.1350
 1500SOL     OW16132   3.977   1.555   0.812  0.4135 -0.2772 -0.2457
 1500SOL    HW116133   3.926   1.583   0.735  2.0489  3.3182 -0.0378
 1500SOL    HW216134   4.053   1.610   0.793  0.4199 -0.0037  0.6044
 1501SOL     OW16135   2.138   1.404   6.374  0.0168  0.0131 -0.4266
 1501SOL    HW116136   2.149   1.351   6.295  2.5401 -0.4146  0.2147
 1501SOL    HW216137   2.152   1.491   6.335 -1.9536  0.4137 -0.2628
 1502SOL     OW16138   2.049   0.203   3.359  0.1380  0.2749 -0.8280
 1502SOL    HW116139   1.963   0.246   3.355 -0.2539 -0.5123 -0.8163
 1502SOL    HW216140   2.098   0.271   3.405 -2.2874  1.9963 -0.7957
 1503SOL     OW16141   2.882   3.581  16.225 -0.3274 -0.0501 -0.6740
 1503SOL    HW116142   2.951   3.516  16.233 -0.3335  0.0093 -0.1027
 1503SOL    HW216143   2.816   3.519  16.193 -1.1676  0.8741 -0.7312
 1504SOL     OW16144   4.593   3.755   1.621 -0.6156 -0.3434 -0.1387
 1504SOL    HW116145   4.636   3.696   1.683 -1.3694 -0.9853 -0.2379
 1504SOL    HW216146   4.653   3.755   1.546  0.8652 -2.1143  1.0511
 1505SOL     OW16147   1.252   1.806   8.204 -0.7783  0.2526  0.2829
 1505SOL    HW116148   1.322   1.829   8.265  0.4053 -0.8662 -0.6605
 1505SOL    HW216149   1.299   1.798   8.121 -0.6573  3.0872  0.0694
 1506SOL     OW16150   1.991   3.482   8.623 -0.3664  0.2749  0.4595
 1506SOL    HW116151   1.971   3.464   8.715 -0.2016  2.3061  0.8950
 1506SOL    HW216152   2.037   3.400   8.610  1.9407  1.4276  1.4323
 1507SOL     OW16153   0.161   3.911   0.841 -0.0105  0.1044 -0.4771
 1507SOL    HW116154   0.168   3.815   0.845  3.3800  0.2534 -3.0151
 1507SOL    HW216155   0.253   3.927   0.858  0.1590  0.3570 -1.5953
 1508SOL     OW16156   2.341   1.655   2.191  0.2593  0.5872 -0.2679
 1508SOL    HW116157   2.366   1.603   2.267 -1.6967 -0.4291 -0.3080
 1508SOL    HW216158   2.265   1.708   2.216  0.4935  0.9636 -0.3407
 1509SOL     OW16159   1.821   3.844   1.986  0.4955 -0.1241 -0.0069
 1509SOL    HW116160   1.735   3.883   1.970  0.0948  0.2180  3.0722
 1509SOL    HW216161   1.792   3.770   2.039  1.0004 -0.3671 -0.0701
 1510SOL     OW16162   3.956   0.041   5.313 -0.0738  0.3532  0.4103
 1510SOL    HW116163   3.883   4.719   5.329  0.7880 -0.9370 -0.5293
 1510SOL    HW216164   4.035   4.735   5.344 -0.8782 -1.9848 -0.9031
 1511SOL     OW16165   4.427   1.452   1.109 -0.0676  0.8319 -0.0986
 1511SOL    HW116166   4.369   1.460   1.033 -0.2930 -0.2607 -0.0417
 1511SOL    HW216167   4.488   1.523   1.091 -1.1622  2.2757  1.8853
 1512SOL     OW16168   2.543   3.937  15.888 -0.7472  0.4015 -0.1115
 1512SOL    HW116169   2.551   3.952  15.793 -0.7313 -1.4309 -0.3864
 1512SOL    HW216170   2.625   3.898  15.917 -1.6301  0.1814  2.0443
 1513SOL     OW16171   3.172   2.164   6.596 -0.1394  0.2580 -0.3148
 1513SOL    HW116172   3.201   2.145   6.506 -1.7577  2.9878 -1.4111
 1513SOL    HW216173   3.137   2.251   6.578  0.3023  0.9477  2.1298
 1514SOL     OW16174   3.341   1.306   9.568  0.7907  0.1065 -0.1830
 1514SOL    HW116175   3.297   1.292   9.484  1.5907 -0.6366 -0.4859
 1514SOL    HW216176   3.410   1.368   9.544 -1.8111  2.9108 -0.3343
 1515SOL     OW16177   3.326   0.096   8.967  0.0080 -0.0967 -0.1469
 1515SOL    HW116178   3.322   0.040   8.890 -1.2550 -0.3358  0.0985
 1515SOL    HW216179   3.399   0.059   9.018 -0.1993  0.1069  0.3041
 1516SOL     OW16180   0.158   2.830   4.032  0.6430 -0.3223 -0.4313
 1516SOL    HW116181   0.073   2.836   3.988  0.8559 -0.0589 -0.8133
 1516SOL    HW216182   0.162   2.737   4.054 -0.9459 -0.2921 -0.0429
 1517SOL     OW16183   4.054   3.902   5.282 -0.0836 -0.1922  0.3993
 1517SOL    HW116184   4.034   3.819   5.239  2.2627  1.9180 -4.8744
 1517SOL    HW216185   4.115   3.931   5.213 -0.8417  0.8587  0.1614
 1518SOL     OW16186   2.633   0.475  16.811  0.3984  0.4593  0.7237
 1518SOL    HW116187   2.620   0.487  16.717 -0.7594  0.6729  0.9116
 1518SOL    HW216188   2.570   0.411  16.844 -0.1831  0.5113 -0.2648
 1519SOL     OW16189   2.422   4.376   8.790  0.3557  0.2847  0.3868
 1519SOL    HW116190   2.378   4.294   8.809 -0.8634  0.2920 -2.3295
 1519SOL    HW216191   2.401   4.389   8.697  0.1588  2.3448  0.7141
 1520SOL     OW16192   4.071   4.346   7.509 -0.3131  0.5076 -0.1509
 1520SOL    HW116193   4.115   4.409   7.567 -0.3600 -0.9715  1.4987
 1520SOL    HW216194   4.133   4.274   7.504 -1.2719 -0.2416 -1.0909
 1521SOL     OW16195   0.212   2.084   4.363 -0.4219 -0.2201 -0.1369
 1521SOL    HW116196   0.289   2.139   4.348 -1.6481  1.0560 -1.7761
 1521SOL    HW216197   0.203   2.068   4.457  2.6566 -2.2501 -0.1937
 1522SOL     OW16198   1.506   2.959   0.567 -0.1233 -0.2477  0.2455
 1522SOL    HW116199   1.514   3.020   0.641  0.8495  0.6649 -0.6159
 1522SOL    HW216200   1.497   3.012   0.488  2.0399 -0.0656  0.1036
 1523SOL     OW16201   0.570   4.169   1.542  0.2666 -0.0346  0.0975
 1523SOL    HW116202   0.587   4.075   1.553 -2.9767 -0.4954  1.2299
 1523SOL    HW216203   0.479   4.176   1.569  0.4039 -1.7830  1.0251
 1524SOL     OW16204   1.065   4.575   3.317 -0.6508  0.6957  0.0782
 1524SOL    HW116205   1.005   4.638   3.356 -1.4372  0.2799 -0.4753
 1524SOL    HW216206   1.025   4.488   3.322  0.2411  0.3909  2.3009
 1525SOL     OW16207   1.900   0.082   0.770  0.6102 -0.3955  0.5203
 1525SOL    HW116208   1.956   0.159   0.774 -1.4166  1.0811  0.4436
 1525SOL    HW216209   1.861   0.073   0.857  1.8390 -2.4373  0.8560
 1526SOL     OW16210   1.644   3.500   9.165 -0.0383  1.0286 -0.2333
 1526SOL    HW116211   1.640   3.575   9.107  0.7529  2.7387  1.9265
 1526SOL    HW216212   1.563   3.506   9.216  0.9719  0.8327  1.3973
 1527SOL     OW16213   0.135   2.180   3.268  0.1101  0.4901 -0.3071
 1527SOL    HW116214   0.060   2.231   3.298  0.0832  1.1102 -1.4293
 1527SOL    HW216215   0.163   2.244   3.203  0.3380 -0.3302 -1.0284
 1528SOL     OW16216   0.703   4.037   0.329  0.3694 -0.3097 -0.0077
 1528SOL    HW116217   0.748   4.115   0.296 -0.1013 -0.0820 -0.1287
 1528SOL    HW216218   0.774   3.991   0.373  2.1627  0.3178 -2.3001
 1529SOL     OW16219   1.363   1.552  16.367 -0.0101  0.4021 -0.0238
 1529SOL    HW116220   1.329   1.557  16.277  0.0463  0.4235 -0.0441
 1529SOL    HW216221   1.285   1.535  16.419  0.6817  0.0638  0.9044
 1530SOL     OW16222   4.159   1.252   1.410 -0.3436  0.4041  0.0130
 1530SOL    HW116223   4.202   1.233   1.494 -1.9678 -2.0825  0.3018
 1530SOL    HW216224   4.232   1.254   1.348 -1.9807 -2.3916 -2.0142
 1531SOL     OW16225   4.297   2.352   6.234 -0.1967  0.2787 -0.5059
 1531SOL    HW116226   4.239   2.345   6.158  2.1126  1.6730 -2.4366
 1531SOL    HW216227   4.250   2.423   6.277 -2.1931 -0.7881 -0.9230
 1532SOL     OW16228   3.840   1.137   1.691 -0.1642  0.0817  0.2841
 1532SOL    HW116229   3.783   1.190   1.635  0.1191 -1.5904 -1.5586
 1532SOL    HW216230   3.879   1.089   1.618 -0.0468 -0.5703  0.7747
 1533SOL     OW16231   1.215   2.512   8.847  0.6657 -0.7584  0.0927
 1533SOL    HW116232   1.146   2.459   8.805  1.6438 -1.8636 -0.1195
 1533SOL    HW216233   1.196   2.501   8.940 -0.3479  2.1207  0.2253
 1534SOL     OW16234   0.349   4.144  15.422  0.5719 -0.0323  0.0828
 1534SOL    HW116235   0.418   4.195  15.464 -0.9277  2.3475 -0.3129
 1534SOL    HW216236   0.409   4.088  15.372  0.5915 -0.6870  0.8363
 1535SOL     OW16237   4.224   0.525   8.597 -0.1285 -0.4941 -0.1352
 1535SOL    HW116238   4.251   0.601   8.545  0.1102  0.1833  0.9890
 1535SOL    HW216239   4.306   0.480   8.614 -1.0496 -1.4910  1.6888
 1536SOL     OW16240   4.628   0.207  17.524 -0.8633  0.0759  0.3207
 1536SOL    HW116241   4.624   0.126  17.575  0.9944 -1.6121 -2.2039
 1536SOL    HW216242   4.561   0.179  17.461  0.1748  0.4960 -0.9529
 1537SOL     OW16243   1.788   3.166   5.729  0.3107  0.2930  0.2354
 1537SOL    HW116244   1.709   3.220   5.726  1.4576  2.0177  2.2136
 1537SOL    HW216245   1.829   3.174   5.643 -0.0338 -3.6775 -0.3158
 1538SOL     OW16246   4.526   4.624   9.846  0.0565  0.0052 -0.0935
 1538SOL    HW116247   4.491   4.543   9.808 -0.5184  0.0544  0.3432
 1538SOL    HW216248   4.468   4.648   9.918  0.0944 -0.4962  0.1075
 1539SOL     OW16249   2.349   4.531  12.800 -0.1125 -0.1167 -0.5183
 1539SOL    HW116250   2.278   4.569  12.747  2.0020  3.4003 -0.7935
 1539SOL    HW216251   2.373   4.452  12.752  1.0407 -1.3009  2.0481
 1540SOL     OW16252   1.382   3.158   9.895  0.0980 -0.0697 -0.0701
 1540SOL    HW116253   1.445   3.225   9.923 -1.2452  1.3036 -0.3697
 1540SOL    HW216254   1.446   3.092   9.869 -0.7477 -0.4039 -1.2854
 1541SOL     OW16255   0.141   4.014   3.204 -0.7259  0.0628  0.6412
 1541SOL    HW116256   0.064   3.984   3.155  0.2821  0.8469 -1.4116
 1541SOL    HW216257   0.159   3.938   3.260  0.0569 -0.1275  0.1247
 1542SOL     OW16258   0.778   1.553   3.523  0.2330  0.3919  0.2429
 1542SOL    HW116259   0.695   1.577   3.565 -0.1134 -0.6759  0.1669
 1542SOL    HW216260   0.828   1.508   3.590 -0.4218 -2.1012 -0.9241
 1543SOL     OW16261   0.907   1.357   9.209 -0.1173 -0.3277 -0.0925
 1543SOL    HW116262   0.845   1.367   9.138  1.4958  0.8971 -1.3303
 1543SOL    HW216263   0.992   1.360   9.164 -0.9274 -0.9075 -1.6317
 1544SOL     OW16264   3.414   4.102  12.540  0.1764 -0.3910 -0.0130
 1544SOL    HW116265   3.347   4.076  12.603  0.6046  2.2512  1.5390
 1544SOL    HW216266   3.355   4.148  12.481  0.2916 -1.8221 -1.2466
 1545SOL     OW16267   1.224   2.075   2.585  0.7449 -0.3519 -0.5755
 1545SOL    HW116268   1.185   2.160   2.604  1.3883  0.4093 -2.7197
 1545SOL    HW216269   1.142   2.027   2.594  1.8630 -2.1912 -0.1285
 1546SOL     OW16270   4.109   4.399   6.919  0.7082 -0.2438 -0.3376
 1546SOL    HW116271   4.018   4.428   6.924  0.3118 -1.5662  0.0621
 1546SOL    HW216272   4.149   4.456   6.853  0.7484  0.5712  0.3940
 1547SOL     OW16273   0.275   1.798   4.750  0.2071 -0.3083 -0.1595
 1547SOL    HW116274   0.300   1.762   4.665  0.0201  1.0809 -0.7925
 1547SOL    HW216275   0.355   1.782   4.800 -0.6464 -0.2577  1.2468
 1548SOL     OW16276   0.827   1.624   3.257  0.7085  0.0520  0.1261
 1548SOL    HW116277   0.816   1.562   3.186  0.0590 -1.5953  1.6692
 1548SOL    HW216278   0.807   1.568   3.332 -2.2619  1.3907  0.3701
 1549SOL     OW16279   3.914   1.463   2.624 -0.3982  0.0131 -0.7515
 1549SOL    HW116280   3.977   1.402   2.662  0.8855  1.8683  0.1300
 1549SOL    HW216281   3.856   1.442   2.697 -0.0168 -1.0465 -0.7532
 1550SOL     OW16282   3.785   4.155  14.960  0.2610  0.3053 -0.0871
 1550SOL    HW116283   3.730   4.227  14.930 -0.5201 -0.6896 -1.0535
 1550SOL    HW216284   3.742   4.140  15.045 -0.3477  3.1390  0.1172
 1551SOL     OW16285   3.447   2.901   5.188  0.7892 -0.1037 -0.3045
 1551SOL    HW116286   3.480   2.832   5.246  2.1402 -0.1722 -1.1471
 1551SOL    HW216287   3.508   2.888   5.115  1.0467  4.3790 -0.8742
 1552SOL     OW16288   3.132   2.691   6.164 -0.2146  0.3380 -0.2419
 1552SOL    HW116289   3.130   2.599   6.189  1.4035 -0.2880 -2.4477
 1552SOL    HW216290   3.213   2.688   6.113  0.7682  0.9728  1.2954
 1553SOL     OW16291   3.829   0.134  10.147  0.2873  0.6832 -0.1926
 1553SOL    HW116292   3.886   0.210  10.157 -0.3753  1.0902  0.5647
 1553SOL    HW216293   3.757   0.161  10.204  0.8379  0.7676  0.4577
 1554SOL     OW16294   2.759   0.584  12.874 -0.2821 -0.0997 -0.4537
 1554SOL    HW116295   2.833   0.644  12.866 -0.5175  0.2946  0.2924
 1554SOL    HW216296   2.756   0.579  12.970  4.5188 -2.2289 -0.4243
 1555SOL     OW16297   2.866   0.138   2.011 -0.3224  0.0061  0.1998
 1555SOL    HW116298   2.855   0.218   1.960 -1.5629 -1.2166 -1.4594
 1555SOL    HW216299   2.924   0.090   1.951 -0.0091  1.2170 -0.4752
 1556SOL     OW16300   1.295   0.284   4.386  0.1933  0.4404 -0.2298
 1556SOL    HW116301   1.267   0.278   4.294 -0.3241 -0.3712 -0.0198
 1556SOL    HW216302   1.247   0.364   4.407 -0.1200 -0.1018  1.0760
 1557SOL     OW16303   2.510   1.958   5.271 -0.0036 -0.4157  0.3656
 1557SOL    HW116304   2.445   2.028   5.261 -0.3548 -0.7004  0.6530
 1557SOL    HW216305   2.554   1.978   5.353  0.8005  4.3917 -1.2177
 1558SOL     OW16306   0.469   3.146  17.258  0.2109  0.5581 -0.6037
 1558SOL    HW116307   0.489   3.070  17.204  0.6771  0.4474 -0.2790
 1558SOL    HW216308   0.547   3.146  17.315  2.2904  1.0684 -3.4672
 1559SOL     OW16309   0.343   1.554   1.883  0.2603 -0.0004  0.6095
 1559SOL    HW116310   0.273   1.597   1.833 -1.0524 -1.5328  1.1288
 1559SOL    HW216311   0.342   1.604   1.964  0.9933  0.7261  0.1755
 1560SOL     OW16312   4.493   4.699   6.904  0.2053 -0.3350 -0.6739
 1560SOL    HW116313   4.536   4.626   6.949  0.7223  0.7958  0.6597
 1560SOL    HW216314   4.538   4.692   6.819  0.8925 -1.9629 -0.1744
 1561SOL     OW16315   1.034   1.467  13.142 -0.1050 -0.5667  0.4634
 1561SOL    HW116316   1.082   1.390  13.171 -1.7339 -1.8146 -0.1607
 1561SOL    HW216317   1.068   1.474  13.053  2.2388  0.8504  1.4461
 1562SOL     OW16318   2.005   2.865   9.340 -0.0182  0.2108 -0.1876
 1562SOL    HW116319   1.924   2.845   9.294 -1.1016  1.5356  1.1130
 1562SOL    HW216320   2.019   2.789   9.398 -1.3631  1.3903  1.7215
 1563SOL     OW16321   0.622   1.261  16.057  0.5430  0.0193  0.3725
 1563SOL    HW116322   0.665   1.255  16.142 -1.0926 -1.0752  1.1138
 1563SOL    HW216323   0.664   1.336  16.015 -0.9808  0.9509  0.4785
 1564SOL     OW16324   4.482   0.059   1.928 -0.2984  0.2495  0.0925
 1564SOL    HW116325   4.393   0.094   1.931 -0.6655 -0.8680  2.3298
 1564SOL    HW216326   4.536   0.135   1.910  0.0152 -0.3953 -1.6468
 1565SOL     OW16327   3.125   0.125  15.739  0.9804 -0.1146  0.7452
 1565SOL    HW116328   3.074   0.186  15.685  0.9613 -0.6228  0.1766
 1565SOL    HW216329   3.101   0.153  15.827 -1.0242  0.6411 -0.0442
 1566SOL     OW16330   4.170   4.532   8.163  0.6922  0.2032  0.0590
 1566SOL    HW116331   4.119   4.572   8.093 -0.7692 -1.4694  0.1554
 1566SOL    HW216332   4.099   4.525   8.226  1.0772 -1.2358  0.3359
 1567SOL     OW16333   2.888   3.885   1.975  0.0872 -0.7753  0.2114
 1567SOL    HW116334   2.948   3.932   2.034 -1.0898 -1.0189  1.5918
 1567SOL    HW216335   2.854   3.824   2.040 -0.8407 -3.6457 -3.0162
 1568SOL     OW16336   3.755   1.425  15.844 -0.3886 -0.5380  0.4443
 1568SOL    HW116337   3.749   1.412  15.939  0.8292 -1.4961  0.3814
 1568SOL    HW216338   3.669   1.466  15.833  0.3418  0.2003 -2.4604
 1569SOL     OW16339   3.815   1.689   4.286 -0.2828  0.3046 -0.0125
 1569SOL    HW116340   3.818   1.783   4.265 -1.0109  0.6242  1.2685
 1569SOL    HW216341   3.761   1.654   4.215 -0.8910  1.4289 -0.1063
 1570SOL     OW16342   4.283   1.889   0.074 -0.5013  0.7436  0.0471
 1570SOL    HW116343   4.285   1.974   0.120 -0.9586  0.9356 -0.2853
 1570SOL    HW216344   4.228   1.847   0.140  2.7013  0.8305  2.7652
 1571SOL     OW16345   1.744   1.875  14.476  0.4847 -0.5990 -0.1065
 1571SOL    HW116346   1.794   1.953  14.497 -2.4536  0.9303  1.2338
 1571SOL    HW216347   1.672   1.894  14.537  0.8314  0.9680 -0.1865
 1572SOL     OW16348   3.727   2.134   9.814  0.3311  0.1550  0.1068
 1572SOL    HW116349   3.763   2.054   9.853 -0.0542 -1.2041 -2.3502
 1572SOL    HW216350   3.748   2.198   9.883 -1.5849  1.3488 -0.3955
 1573SOL     OW16351   0.527   0.388   1.141 -0.0807  0.5523 -0.2547
 1573SOL    HW116352   0.608   0.437   1.152  0.6800 -0.8298  0.4246
 1573SOL    HW216353   0.559   0.346   1.061  0.1066  4.0927 -2.0391
 1574SOL     OW16354   0.308   0.995   5.282 -0.0320  0.7336 -0.0244
 1574SOL    HW116355   0.402   1.006   5.295 -0.2625  0.0851  2.2039
 1574SOL    HW216356   0.303   0.909   5.323  1.2154  1.6923  2.0936
 1575SOL     OW16357   2.284   2.333   1.652  0.4686  0.1033  0.1658
 1575SOL    HW116358   2.247   2.402   1.707 -1.9373 -0.9789 -0.1119
 1575SOL    HW216359   2.219   2.263   1.661 -0.8523  1.6886  2.9780
 1576SOL     OW16360   2.581   4.601   7.893  0.3569  1.0423 -0.2434
 1576SOL    HW116361   2.648   4.597   7.961  0.2326 -0.4036 -0.2057
 1576SOL    HW216362   2.508   4.631   7.948  0.8635 -0.5485  1.2795
 1577SOL     OW16363   0.157   4.587   3.394 -0.7411  0.7758  0.0157
 1577SOL    HW116364   0.148   4.672   3.437 -1.8134  0.4567  0.4066
 1577SOL    HW216365   0.083   4.541   3.434  0.8152  0.4864  2.5536
 1578SOL     OW16366   3.024   0.450   2.399  0.3319  0.1214  0.2654
 1578SOL    HW116367   2.945   0.504   2.392 -0.9967 -2.0234 -1.2868
 1578SOL    HW216368   3.077   0.518   2.440 -1.3873  1.9614 -0.5770
 1579SOL     OW16369   0.585   1.471   7.213  1.1017 -0.1906 -0.1564
 1579SOL    HW116370   0.595   1.399   7.150 -0.4638 -0.6942  0.1700
 1579SOL    HW216371   0.583   1.543   7.151  1.8473  1.2371  1.4838
 1580SOL     OW16372   0.223   2.970   5.417  0.0087 -0.4858  0.7177
 1580SOL    HW116373   0.238   3.019   5.336  2.5925  0.5296  1.8108
 1580SOL    HW216374   0.161   3.022   5.468  0.3857  0.8056 -0.1239
 1581SOL     OW16375   1.283   1.115   8.426 -0.4170  0.1338  0.5484
 1581SOL    HW116376   1.365   1.137   8.382  0.5044 -2.6762  0.8886
 1581SOL    HW216377   1.259   1.036   8.378  0.3942  1.1562 -1.5787
 1582SOL     OW16378   4.281   3.901   0.828  0.1142  0.3255  0.5554
 1582SOL    HW116379   4.205   3.881   0.772  0.5362 -0.1213  0.1405
 1582SOL    HW216380   4.331   3.956   0.768 -2.5455  1.5260 -0.5356
 1583SOL     OW16381   4.711   1.213   7.120  0.1794 -0.1525 -0.1701
 1583SOL    HW116382   4.697   1.121   7.139  0.3910  0.0934  1.2479
 1583SOL    HW216383   4.664   1.252   7.194 -1.6318 -0.9568 -0.8944
 1584SOL     OW16384   1.042   4.203  16.806 -0.1226  0.9789  0.1216
 1584SOL    HW116385   0.998   4.133  16.854 -0.8834  0.1221 -1.8715
 1584SOL    HW216386   1.126   4.160  16.789  0.2582  2.5244 -1.8782
 1585SOL     OW16387   2.836   4.120  13.130 -0.4892  0.3888 -0.5526
 1585SOL    HW116388   2.770   4.102  13.063 -1.6215 -1.0672  0.9776
 1585SOL    HW216389   2.830   4.046  13.189  2.2023 -0.4505 -1.2933
 1586SOL     OW16390   1.644   0.070   8.518  0.3176  0.2333  0.2907
 1586SOL    HW116391   1.671   4.718   8.500  1.7807  0.6638  0.3042
 1586SOL    HW216392   1.731   0.109   8.506  0.8321 -0.6993  0.9387
 1587SOL     OW16393   4.239   3.807   2.642 -0.2193 -0.8167  0.4112
 1587SOL    HW116394   4.181   3.879   2.667  2.6337  1.5979  0.0514
 1587SOL    HW216395   4.188   3.782   2.566 -0.1520  1.6107 -0.4102
 1588SOL     OW16396   2.095   2.109  12.320 -0.3873  0.1531  0.0666
 1588SOL    HW116397   2.031   2.170  12.283 -2.5413 -1.7972  0.5981
 1588SOL    HW216398   2.099   2.044  12.250  1.0629 -0.1841  0.4638
 1589SOL     OW16399   4.173   3.829  15.878  0.3195  0.3416 -0.2063
 1589SOL    HW116400   4.222   3.901  15.916  0.0330 -0.1546  1.1076
 1589SOL    HW216401   4.125   3.811  15.959  2.1222 -0.9952  0.5571
 1590SOL     OW16402   2.784   4.386  14.906 -0.2084 -0.6814 -0.2067
 1590SOL    HW116403   2.722   4.352  14.970 -1.0539  1.3921  0.0783
 1590SOL    HW216404   2.867   4.346  14.928 -0.2563 -0.6123  0.0938
 1591SOL     OW16405   1.244   4.196   4.663  0.1752 -0.0515  0.1140
 1591SOL    HW116406   1.242   4.287   4.635  1.6371 -0.4538 -1.2903
 1591SOL    HW216407   1.230   4.197   4.757  0.3985  0.1244  0.1454
 1592SOL     OW16408   4.597   1.429   4.213 -0.0691 -0.0172 -0.2366
 1592SOL    HW116409   4.589   1.381   4.295  1.2976  0.8326  0.3862
 1592SOL    HW216410   4.684   1.467   4.225 -0.3674  0.9277 -1.0664
 1593SOL     OW16411   4.596   3.892   4.850 -0.0667 -0.3810  0.0445
 1593SOL    HW116412   4.521   3.925   4.900  0.5911  2.1153 -0.6384
 1593SOL    HW216413   4.595   3.799   4.872  0.2264  0.0749  2.0243
 1594SOL     OW16414   1.764   3.136   3.508  0.3337  0.1200  0.4849
 1594SOL    HW116415   1.816   3.213   3.486  0.3428  0.0430  0.2361
 1594SOL    HW216416   1.732   3.163   3.594  1.3462  3.1472 -0.1041
 1595SOL     OW16417   3.213   0.967   6.006 -0.1516 -0.2538 -0.7098
 1595SOL    HW116418   3.193   1.051   5.966 -0.0806  0.7361  1.3162
 1595SOL    HW216419   3.172   0.906   5.944 -0.5806 -2.4663  1.7304
 1596SOL     OW16420   2.655   0.099   6.888  0.0279 -0.1115  0.2962
 1596SOL    HW116421   2.577   0.109   6.833  0.7345 -0.5216 -0.7736
 1596SOL    HW216422   2.625   0.163   6.953  0.9288  0.7492 -0.1336
 1597SOL     OW16423   1.253   1.559   5.968 -0.1342  0.3495 -0.1750
 1597SOL    HW116424   1.207   1.631   6.010 -1.1780 -1.4740  1.8322
 1597SOL    HW216425   1.285   1.520   6.050 -1.5849  0.0356  0.2443
 1598SOL     OW16426   0.827   2.175   2.826  0.6798  0.6853  0.4204
 1598SOL    HW116427   0.813   2.172   2.732  2.8093  1.3664  0.0909
 1598SOL    HW216428   0.805   2.084   2.848  1.3314  0.3370 -0.4052
 1599SOL     OW16429   2.789   2.234   5.777 -0.2695  0.5824  0.3811
 1599SOL    HW116430   2.707   2.259   5.819  0.2162  0.9175  1.1340
 1599SOL    HW216431   2.795   2.303   5.711 -0.9498 -0.6635 -0.9945
 1600SOL     OW16432   0.111   4.488   6.819  0.4170  0.1059 -0.3633
 1600SOL    HW116433   0.204   4.480   6.796  0.5154  1.9174 -0.5522
 1600SOL    HW216434   0.079   4.400   6.799  0.4533 -0.8181  3.7701
 1601SOL     OW16435   4.004   4.236   6.207 -0.3019 -0.3765  0.4605
 1601SOL    HW116436   3.989   4.144   6.184  0.3579 -1.0105  2.5419
 1601SOL    HW216437   3.979   4.242   6.300  1.9087 -0.7731  1.0809
 1602SOL     OW16438   1.948   2.665   5.671 -0.0731 -0.4534  0.3060
 1602SOL    HW116439   1.954   2.712   5.754 -2.5342  0.1993  0.0936
 1602SOL    HW216440   2.037   2.629   5.667 -0.7675 -2.0783 -0.6807
 1603SOL     OW16441   3.348   1.981   0.482  0.6744  0.8963 -0.4313
 1603SOL    HW116442   3.432   2.021   0.505 -0.4130  3.0097 -0.0917
 1603SOL    HW216443   3.356   1.896   0.526 -0.3862  1.0460  0.0458
 1604SOL     OW16444   4.072   3.874   7.880  0.1777 -0.3736  0.1453
 1604SOL    HW116445   4.114   3.910   7.957  1.3985  4.7248 -2.9254
 1604SOL    HW216446   4.014   3.813   7.927 -0.4594  0.9442  1.0700
 1605SOL     OW16447   0.301   1.240  16.288  0.3628 -0.1364 -0.1503
 1605SOL    HW116448   0.221   1.261  16.239 -0.0503  1.0627  1.0250
 1605SOL    HW216449   0.338   1.190  16.215  0.6221  1.6688 -1.2610
 1606SOL     OW16450   3.192   3.406   7.447  0.0672  0.1838 -0.5223
 1606SOL    HW116451   3.244   3.379   7.371 -0.3187 -0.4198 -0.5691
 1606SOL    HW216452   3.154   3.487   7.414 -0.4298  0.0617 -0.2522
 1607SOL     OW16453   4.150   4.373  12.131  0.2200 -0.2439  0.0182
 1607SOL    HW116454   4.057   4.354  12.133  0.1633 -0.0664 -1.6430
 1607SOL    HW216455   4.183   4.286  12.109 -1.1834 -0.9423  0.6724
 1608SOL     OW16456   2.232   4.176   8.888  0.1921  0.3860 -0.1696
 1608SOL    HW116457   2.160   4.163   8.949 -1.1987 -0.2239 -1.9525
 1608SOL    HW216458   2.209   4.110   8.822  0.3000 -2.9070  3.0765
 1609SOL     OW16459   1.858   2.251  10.937  0.1042  0.1154  0.2043
 1609SOL    HW116460   1.775   2.203  10.931 -0.1816  0.6785 -0.4763
 1609SOL    HW216461   1.834   2.325  10.993 -2.0686 -1.2780  1.1139
 1610SOL     OW16462   2.427   0.780   1.725 -0.3175  0.1228 -0.3929
 1610SOL    HW116463   2.355   0.748   1.672 -0.1918  0.8517 -1.0017
 1610SOL    HW216464   2.495   0.800   1.660 -1.2829  1.3886 -1.0156
 1611SOL     OW16465   1.903   2.783   5.138  0.1912  0.2083  0.5828
 1611SOL    HW116466   1.854   2.851   5.092 -1.1233 -2.3671 -1.8377
 1611SOL    HW216467   1.890   2.812   5.228 -0.5557 -0.5814  0.7307
 1612SOL     OW16468   4.320   0.069  17.025  0.2701 -0.2362 -0.1821
 1612SOL    HW116469   4.290   0.118  16.948  2.1082  1.3873  0.1472
 1612SOL    HW216470   4.403   0.031  16.997  0.8269  0.0590  1.0917
 1613SOL     OW16471   0.227   4.680   4.594 -0.0162 -0.8312 -0.2485
 1613SOL    HW116472   0.187   0.022   4.627 -1.1636 -1.4794 -0.0843
 1613SOL    HW216473   0.156   4.640   4.545 -0.1333 -0.6405 -0.2341
 1614SOL     OW16474   3.685   3.170   5.927 -0.2993 -0.2866  0.4837
 1614SOL    HW116475   3.635   3.089   5.918  0.3563 -0.5765 -0.4909
 1614SOL    HW216476   3.707   3.159   6.020  0.1589 -0.3031  0.3755
 1615SOL     OW16477   4.323   2.060   2.350 -0.0241  0.0244  0.0218
 1615SOL    HW116478   4.365   1.984   2.392 -2.4660 -0.4255  1.6054
 1615SOL    HW216479   4.378   2.138   2.351  1.1562 -0.8070  0.8825
 1616SOL     OW16480   2.929   3.949   5.341 -0.8055 -0.2358  0.0055
 1616SOL    HW116481   2.912   3.967   5.433  0.5427  0.8804  0.0355
 1616SOL    HW216482   2.927   4.043   5.324  0.4451 -0.7135 -2.8943
 1617SOL     OW16483   0.289   1.548   3.996  0.5094  0.6631  0.1330
 1617SOL    HW116484   0.289   1.477   3.932 -0.1748  2.0253 -1.3843
 1617SOL    HW216485   0.312   1.625   3.943  2.1432  0.0162 -0.0979
 1618SOL     OW16486   2.314   1.957   7.524  0.2067  0.2625  0.0787
 1618SOL    HW116487   2.297   1.881   7.468 -0.8304  2.0711 -2.0407
 1618SOL    HW216488   2.235   1.949   7.577  0.3381 -2.3195 -0.1059
 1619SOL     OW16489   2.353   3.996  17.162  0.2613 -0.0580  0.0942
 1619SOL    HW116490   2.439   4.016  17.124  0.5753 -0.2178  0.7319
 1619SOL    HW216491   2.296   4.029  17.092  0.9967  0.3681 -0.3032
 1620SOL     OW16492   1.497   3.575   9.724 -0.1680  0.0800  0.0510
 1620SOL    HW116493   1.417   3.522   9.727 -0.9954  1.3004 -0.1020
 1620SOL    HW216494   1.476   3.654   9.774  0.9268  0.0499  0.5410
 1621SOL     OW16495   1.993   1.118   5.764 -0.6553 -0.7348 -0.6502
 1621SOL    HW116496   1.986   1.067   5.845  2.2967  1.0595  0.7274
 1621SOL    HW216497   1.914   1.106   5.711 -1.8910 -0.5864  1.1618
 1622SOL     OW16498   0.055   3.979   2.275  0.5152  0.1956 -0.4616
 1622SOL    HW116499   0.073   4.073   2.267 -0.7452  0.6852  2.5887
 1622SOL    HW216500   0.017   3.978   2.363  0.6922 -0.5068 -0.3949
 1623SOL     OW16501   3.450   3.164   1.734 -0.1544 -0.2977  0.3528
 1623SOL    HW116502   3.529   3.215   1.753  0.4462 -1.0326 -0.1648
 1623SOL    HW216503   3.500   3.083   1.721 -1.1356 -0.3345 -3.0316
 1624SOL     OW16504   2.385   2.767   4.553 -0.3186 -0.0608  0.3940
 1624SOL    HW116505   2.419   2.682   4.581 -2.1771 -0.3681  1.7028
 1624SOL    HW216506   2.403   2.818   4.632 -0.5480  0.4313  0.1284
 1625SOL     OW16507   2.704   4.064  11.564  0.4808  0.2019 -0.3226
 1625SOL    HW116508   2.789   4.096  11.532  1.5959 -2.4631  0.0080
 1625SOL    HW216509   2.655   4.140  11.531  2.1752  0.8133 -1.4461
 1626SOL     OW16510   3.047   1.888  16.820 -0.2352 -0.0063 -0.3171
 1626SOL    HW116511   2.969   1.833  16.834  0.1184 -0.4435 -0.0628
 1626SOL    HW216512   3.075   1.866  16.731 -0.4926  0.4065 -0.4959
 1627SOL     OW16513   0.222   4.074  14.344 -0.1787 -0.3211  0.2144
 1627SOL    HW116514   0.275   4.103  14.418 -2.0637 -1.2910  1.9337
 1627SOL    HW216515   0.185   3.992  14.378  1.4373 -1.7591 -1.5559
 1628SOL     OW16516   4.063   3.338   8.410  0.2208 -0.5212  0.0128
 1628SOL    HW116517   4.035   3.299   8.327 -0.4668  1.3802 -0.6548
 1628SOL    HW216518   3.984   3.332   8.463 -0.1829  1.3991 -0.3805
 1629SOL     OW16519   4.725   0.699  13.128  0.5024 -0.5537  0.2019
 1629SOL    HW116520   4.678   0.629  13.173  1.2158 -1.9456 -1.2128
 1629SOL    HW216521   4.656   0.714  13.062 -0.7156 -0.5398  1.4771
 1630SOL     OW16522   3.221   0.391   7.796  0.0880 -0.3867 -0.4234
 1630SOL    HW116523   3.192   0.396   7.705  1.3326  1.6514 -0.7233
 1630SOL    HW216524   3.232   0.483   7.820 -0.9790 -0.3780  0.0472
 1631SOL     OW16525   1.937   2.933   3.381 -0.6167 -0.7193 -0.5622
 1631SOL    HW116526   1.975   2.997   3.321  1.4551 -1.2643  0.1957
 1631SOL    HW216527   1.871   2.984   3.429  0.5063  0.0288  0.1642
 1632SOL     OW16528   1.443   3.168  10.949 -0.2361  0.5782 -0.4586
 1632SOL    HW116529   1.488   3.221  10.883 -0.4596  0.8337 -0.4023
 1632SOL    HW216530   1.355   3.155  10.913  1.3645 -1.9733 -3.4892
 1633SOL     OW16531   2.251   2.712   6.241 -0.5619 -0.1589  0.1286
 1633SOL    HW116532   2.308   2.637   6.224 -0.9106 -0.6718  1.2389
 1633SOL    HW216533   2.182   2.683   6.301  0.3083  0.6170  1.4858
 1634SOL     OW16534   4.124   1.192   6.295 -0.2298 -0.3513  0.5470
 1634SOL    HW116535   4.203   1.139   6.280 -0.6264 -0.5814 -0.7637
 1634SOL    HW216536   4.058   1.139   6.339  2.1551 -1.4427  2.8126
 1635SOL     OW16537   2.921   1.197  12.116 -0.3237 -0.3150 -0.2083
 1635SOL    HW116538   2.980   1.253  12.065  1.0099 -0.7674  0.8562
 1635SOL    HW216539   2.926   1.117  12.064 -2.0448  0.9414 -2.3369
 1636SOL     OW16540   0.794   3.960   9.185 -0.1832  0.3303 -0.3732
 1636SOL    HW116541   0.798   4.002   9.099 -0.7195 -0.2216 -0.6658
 1636SOL    HW216542   0.874   3.908   9.182  0.3775  1.1134  0.8688
 1637SOL     OW16543   3.963   4.295  16.702  0.0163 -0.1891 -0.7160
 1637SOL    HW116544   3.979   4.207  16.668  0.6522 -0.1441 -0.5266
 1637SOL    HW216545   3.939   4.340  16.620 -1.0575  1.7785  0.6894
 1638SOL     OW16546   3.111   2.915   1.040 -0.2137  0.5632  0.2148
 1638SOL    HW116547   3.127   2.822   1.022 -0.2091  1.3462 -3.8877
 1638SOL    HW216548   3.198   2.949   1.058  0.8135 -0.7045 -2.3400
 1639SOL     OW16549   0.916   3.696  12.199  0.3684  0.2542  0.5493
 1639SOL    HW116550   0.876   3.782  12.184 -0.3836  0.1199  1.7886
 1639SOL    HW216551   0.974   3.685  12.124  1.0450  0.2745  1.0674
 1640SOL     OW16552   2.544   2.944   1.847 -0.5002  0.4363  0.7664
 1640SOL    HW116553   2.617   2.983   1.800 -0.8293  0.7823  0.5460
 1640SOL    HW216554   2.506   2.899   1.771  0.1567  0.1944  0.5835
 1641SOL     OW16555   3.905   2.136  12.292  0.2423 -0.2944 -0.0436
 1641SOL    HW116556   3.965   2.210  12.287  0.7300 -0.7207 -0.4975
 1641SOL    HW216557   3.929   2.095  12.376  0.8324 -2.4830 -1.2932
 1642SOL     OW16558   4.512   0.590   3.583 -0.3097 -0.0943  0.5581
 1642SOL    HW116559   4.448   0.538   3.633 -0.0881  0.5620  1.5329
 1642SOL    HW216560   4.474   0.678   3.586 -2.3452 -0.9942  1.6792
 1643SOL     OW16561   2.699   0.007   8.266  0.0101  0.1182  0.9679
 1643SOL    HW116562   2.705   0.103   8.261  0.5088 -0.0294 -1.0180
 1643SOL    HW216563   2.716   4.711   8.179  2.5941  0.8752  1.1537
 1644SOL     OW16564   3.610   0.665   5.397  0.4531  0.3915 -0.3780
 1644SOL    HW116565   3.668   0.589   5.394  0.8893  0.6750  0.8443
 1644SOL    HW216566   3.553   0.648   5.472 -0.2561  1.8495 -0.5793
 1645SOL     OW16567   2.030   4.345   1.108  0.0053 -0.5109  0.1436
 1645SOL    HW116568   1.947   4.304   1.082 -0.3858 -0.1043  0.7318
 1645SOL    HW216569   2.037   4.407   1.035 -0.7058 -1.5882 -0.8395
 1646SOL     OW16570   1.794   2.423   4.201 -0.5188 -0.6824  0.1768
 1646SOL    HW116571   1.766   2.439   4.291  0.9064  1.3623  0.2784
 1646SOL    HW216572   1.840   2.342   4.222 -1.1416 -1.3186 -0.9570
 1647SOL     OW16573   4.663   0.043   4.433 -0.1945 -0.2207 -0.4158
 1647SOL    HW116574   4.703   0.108   4.374  1.9269 -1.3710 -0.2317
 1647SOL    HW216575   4.575   0.031   4.397  0.0909 -1.4229 -0.7143
 1648SOL     OW16576   0.727   2.009   6.729 -0.1044 -0.1932  0.2022
 1648SOL    HW116577   0.806   2.040   6.684 -0.7210 -0.8879 -1.3556
 1648SOL    HW216578   0.744   2.040   6.818 -1.4483  0.8453  0.0841
 1649SOL     OW16579   0.922   1.790  14.304  0.2284  0.0974 -0.0291
 1649SOL    HW116580   0.877   1.791  14.219  1.2392  0.2184 -0.5711
 1649SOL    HW216581   1.009   1.819  14.277  0.5548 -0.6098  0.2619
 1650SOL     OW16582   3.697   0.689   5.044  0.1414  0.1748  0.0403
 1650SOL    HW116583   3.767   0.627   5.064 -0.1919 -0.1108  0.3244
 1650SOL    HW216584   3.726   0.778   5.067  0.5778  0.2733 -0.8814
 1651SOL     OW16585   1.306   1.898   9.056  0.1224 -0.1013  0.0674
 1651SOL    HW116586   1.306   1.986   9.019 -1.2968 -0.0182  0.2427
 1651SOL    HW216587   1.239   1.899   9.125 -0.1120 -1.2006 -0.1372
 1652SOL     OW16588   2.479   4.421   3.354  0.2621 -0.7694 -0.4253
 1652SOL    HW116589   2.416   4.356   3.383 -1.2717  0.6657 -0.5306
 1652SOL    HW216590   2.434   4.505   3.358 -0.0235 -0.9970  1.1373
 1653SOL     OW16591   4.709   2.043  13.395  0.1421 -0.6602 -0.3074
 1653SOL    HW116592   4.713   2.049  13.491  1.5254 -2.1613 -0.2650
 1653SOL    HW216593   0.043   2.104  13.383 -1.4593  1.6985  1.9913
 1654SOL     OW16594   3.764   4.384   6.689 -0.2090 -0.2641  0.0420
 1654SOL    HW116595   3.693   4.432   6.731  1.2161 -0.6171  2.8133
 1654SOL    HW216596   3.727   4.296   6.688  1.3411 -0.9031 -0.6867
 1655SOL     OW16597   3.454   2.591   2.645  0.5296  0.5233 -0.6290
 1655SOL    HW116598   3.451   2.500   2.615  0.3002 -0.5235  2.5661
 1655SOL    HW216599   3.549   2.605   2.650  0.5061 -0.2495  1.9629
 1656SOL     OW16600   3.663   3.450   9.537  0.3146 -0.2298  0.5746
 1656SOL    HW116601   3.701   3.459   9.450  1.5464  1.4419  1.2730
 1656SOL    HW216602   3.666   3.539   9.573  1.9978 -0.5609  1.2658
 1657SOL     OW16603   4.613   0.235   3.421 -0.5240 -0.7020 -0.0668
 1657SOL    HW116604   4.653   0.233   3.334  2.3561 -0.1244  1.2417
 1657SOL    HW216605   4.535   0.283   3.393  0.6200  0.5113 -1.1734
 1658SOL     OW16606   1.554   4.548   3.814  0.1252  0.1464  0.6491
 1658SOL    HW116607   1.586   4.505   3.735 -1.1993  1.3472 -0.5529
 1658SOL    HW216608   1.633   4.566   3.864  1.8251 -2.5126 -1.0811
 1659SOL     OW16609   3.029   1.249   9.516 -0.4009 -0.4845 -0.0523
 1659SOL    HW116610   2.975   1.304   9.459  1.2209  0.9804 -0.1785
 1659SOL    HW216611   3.019   1.159   9.485  1.8623 -1.6147  2.5137
 1660SOL     OW16612   2.982   2.509   4.613  0.2067 -0.5091  0.4853
 1660SOL    HW116613   2.921   2.463   4.554 -1.5714 -0.7080  2.4820
 1660SOL    HW216614   3.041   2.437   4.635 -2.1699 -1.7482  2.8156
 1661SOL     OW16615   4.008   4.680  16.324 -0.0601  0.6420 -0.3973
 1661SOL    HW116616   4.085   4.725  16.290  0.3509 -1.5183 -2.3613
 1661SOL    HW216617   3.952   0.012  16.357  0.0880  1.3785 -1.7231
 1662SOL     OW16618   2.807   4.670   9.142  0.6689 -0.1800 -0.1793
 1662SOL    HW116619   2.878   4.730   9.120 -0.1674  1.3404  1.3197
 1662SOL    HW216620   2.849   4.584   9.131  2.0053  0.2599  1.4201
 1663SOL     OW16621   2.304   1.826   4.322  0.1514  0.3157  0.4559
 1663SOL    HW116622   2.226   1.868   4.286 -0.2895 -0.8550  0.0334
 1663SOL    HW216623   2.280   1.822   4.415  0.4731 -2.2073  0.4255
 1664SOL     OW16624   1.107   4.228   4.057 -0.9764  0.2352  0.8351
 1664SOL    HW116625   1.095   4.319   4.031  0.3566  0.0984 -0.2699
 1664SOL    HW216626   1.188   4.205   4.010 -0.6269  0.0941  1.5143
 1665SOL     OW16627   3.551   3.880  14.406  0.3620 -0.3043 -0.0063
 1665SOL    HW116628   3.570   3.797  14.451  0.6161 -0.3165 -0.1383
 1665SOL    HW216629   3.560   3.944  14.477 -0.0095 -0.0671 -0.1710
 1666SOL     OW16630   0.045   3.984   1.254  0.0500  0.4271 -0.4482
 1666SOL    HW116631   4.696   3.943   1.257  0.5029 -0.5371 -0.6655
 1666SOL    HW216632   0.030   4.027   1.170 -0.5372  1.9482  0.4222
 1667SOL     OW16633   3.870   1.044  11.463  0.2582  0.2618  0.1905
 1667SOL    HW116634   3.960   1.040  11.430  1.0175 -0.0984  2.3313
 1667SOL    HW216635   3.886   1.066  11.555  0.6972  1.0619 -0.0787
 1668SOL     OW16636   1.215   4.224   8.031  0.3608  0.3557 -0.1657
 1668SOL    HW116637   1.203   4.235   8.126  0.0941  0.8734 -0.2606
 1668SOL    HW216638   1.154   4.151   8.017  1.3453 -0.5243  0.1616
 1669SOL     OW16639   0.865   3.811   0.430  0.7510  0.1124  0.1088
 1669SOL    HW116640   0.917   3.759   0.369  2.6462  0.9173  1.0150
 1669SOL    HW216641   0.933   3.850   0.486  1.3835 -0.0073 -0.5830
 1670SOL     OW16642   2.152   4.451  12.291 -0.8165 -0.3485  0.6196
 1670SOL    HW116643   2.224   4.418  12.237 -0.1119  0.3353  1.1410
 1670SOL    HW216644   2.082   4.472  12.229  0.5291  0.7985 -0.5172
 1671SOL     OW16645   2.884   2.758   7.876 -0.2501  0.4930 -0.1179
 1671SOL    HW116646   2.966   2.802   7.854 -1.1201  0.6093 -3.1426
 1671SOL    HW216647   2.844   2.739   7.791  0.2339  1.1135 -0.4836
 1672SOL     OW16648   0.938   0.165  15.789  0.0975 -0.4725 -0.2969
 1672SOL    HW116649   0.902   0.097  15.846 -0.2090  0.6039  0.7979
 1672SOL    HW216650   0.924   0.118  15.707  1.0280 -2.6878  0.8012
 1673SOL     OW16651   2.524   4.410   8.165  0.6763  0.1928  0.5407
 1673SOL    HW116652   2.597   4.449   8.212 -0.4803 -0.6767  3.0390
 1673SOL    HW216653   2.477   4.492   8.149 -0.4438 -0.6095 -0.3677
 1674SOL     OW16654   1.476   1.485  15.893  0.2738 -0.4319 -0.1086
 1674SOL    HW116655   1.545   1.539  15.933 -0.6758 -1.1518  2.4600
 1674SOL    HW216656   1.507   1.471  15.803 -0.3558 -1.0743 -0.2273
 1675SOL     OW16657   4.358   3.817   4.254  0.5990 -0.2045  0.6239
 1675SOL    HW116658   4.383   3.841   4.343 -0.3811 -0.9909  1.1235
 1675SOL    HW216659   4.264   3.837   4.255  0.6154 -0.1222 -0.0276
 1676SOL     OW16660   2.846   0.660   5.685  0.8230 -0.2982  0.7878
 1676SOL    HW116661   2.939   0.672   5.662  0.2494  1.6499 -0.5658
 1676SOL    HW216662   2.844   0.689   5.776 -2.2223  0.8878  0.3269
 1677SOL     OW16663   3.008   3.024   7.736 -0.3110  0.6208 -0.3039
 1677SOL    HW116664   3.019   3.001   7.829 -0.7697 -2.4829 -1.0372
 1677SOL    HW216665   3.090   3.070   7.715 -1.5035  1.5188 -2.9261
 1678SOL     OW16666   0.482   2.760   5.867 -0.9217 -0.1453 -0.5541
 1678SOL    HW116667   0.507   2.839   5.914 -0.7944 -0.3300 -0.3046
 1678SOL    HW216668   0.396   2.740   5.903 -1.8830  4.4095 -0.4196
 1679SOL     OW16669   3.108   2.887   8.137 -0.3702 -0.2450  0.6588
 1679SOL    HW116670   3.043   2.820   8.117  0.7036 -0.9279 -0.5402
 1679SOL    HW216671   3.180   2.872   8.076 -0.7645 -1.6328  0.5389
 1680SOL     OW16672   2.075   1.411   5.496 -0.1375 -0.3402 -0.4188
 1680SOL    HW116673   1.988   1.375   5.478 -0.9612  0.8961  1.0947
 1680SOL    HW216674   2.047   1.498   5.522  1.6255 -0.2749  1.2372
 1681SOL     OW16675   1.639   0.449   3.207 -0.1398 -0.4556 -0.1827
 1681SOL    HW116676   1.580   0.524   3.216  1.4041  1.0760 -2.8678
 1681SOL    HW216677   1.723   0.484   3.236  0.5643 -3.3796  1.3484
 1682SOL     OW16678   3.111   0.602  11.420 -0.0716 -0.3953  0.5613
 1682SOL    HW116679   3.173   0.596  11.346 -2.6507 -0.7972 -1.5543
 1682SOL    HW216680   3.030   0.620  11.373  0.7209 -0.4203 -0.8395
 1683SOL     OW16681   0.475   1.238   2.177  0.1511 -0.0901  0.5510
 1683SOL    HW116682   0.519   1.295   2.114  0.2510 -0.1684  0.5500
 1683SOL    HW216683   0.396   1.216   2.127  0.7069 -1.0102  0.0736
 1684SOL     OW16684   4.456   3.067   1.716  0.7540  0.9193  0.6015
 1684SOL    HW116685   4.494   3.143   1.759  4.6783 -0.5494 -0.3204
 1684SOL    HW216686   4.456   3.111   1.631 -1.5055 -0.8146 -0.3022
 1685SOL     OW16687   1.175   0.295   1.339 -0.0101 -0.4322  0.0266
 1685SOL    HW116688   1.233   0.276   1.412  0.5179  2.1344  0.2916
 1685SOL    HW216689   1.123   0.216   1.325  0.7014 -0.2942 -3.4709
 1686SOL     OW16690   2.105   0.952   6.857  0.5901 -0.4799  0.4890
 1686SOL    HW116691   2.080   0.959   6.949  2.4790  0.7408  0.9128
 1686SOL    HW216692   2.158   1.032   6.856 -1.4518  0.8553  0.0788
 1687SOL     OW16693   3.102   0.004   7.657 -0.0396  0.7715 -0.0936
 1687SOL    HW116694   3.089   0.079   7.599  3.5008  0.8976 -0.7026
 1687SOL    HW216695   3.110   0.042   7.744 -2.6717 -0.5058  0.7064
 1688SOL     OW16696   3.666   4.608   4.738 -0.1436 -0.2367 -0.2174
 1688SOL    HW116697   3.687   4.617   4.831 -0.1176  3.0386 -0.5632
 1688SOL    HW216698   3.732   4.541   4.717  0.5844 -0.1978  1.8907
 1689SOL     OW16699   0.577   2.583   7.033 -0.4104  0.3310 -0.3444
 1689SOL    HW116700   0.555   2.533   7.111  0.3924 -2.2541 -1.7919
 1689SOL    HW216701   0.593   2.517   6.966 -1.0210 -0.9702  0.7788
 1690SOL     OW16702   0.950   3.351   8.760  0.3409  1.2710  0.0445
 1690SOL    HW116703   1.017   3.306   8.811 -3.0208 -0.4447  2.9523
 1690SOL    HW216704   0.924   3.408   8.832 -0.8226  1.8769 -0.8500
 1691SOL     OW16705   4.441   0.194  17.335 -0.0588  0.5047 -0.4062
 1691SOL    HW116706   4.417   0.140  17.260 -0.5102 -1.6264  1.2682
 1691SOL    HW216707   4.377   0.265  17.335 -0.1238  0.4449 -0.7531
 1692SOL     OW16708   0.620   3.729   4.782 -0.0538  0.1323  0.1320
 1692SOL    HW116709   0.636   3.823   4.790  0.5727  0.0499 -0.1988
 1692SOL    HW216710   0.528   3.723   4.810 -0.4383 -0.0658 -1.1626
 1693SOL     OW16711   0.448   3.322   3.255 -0.2200 -0.2781 -0.3322
 1693SOL    HW116712   0.444   3.395   3.317  1.6180 -1.6949  1.4148
 1693SOL    HW216713   0.532   3.284   3.282 -1.0151 -0.2975  2.0406
 1694SOL     OW16714   4.620   0.955   6.981  0.1563 -0.6210  0.2039
 1694SOL    HW116715   4.659   0.952   6.894 -0.8966 -0.1784 -0.2781
 1694SOL    HW216716   4.627   0.870   7.024  0.2135 -1.2320 -1.0330
 1695SOL     OW16717   2.702   0.619   9.458  0.1703 -0.6426 -0.2642
 1695SOL    HW116718   2.781   0.664   9.429 -0.3612  1.1027  1.0230
 1695SOL    HW216719   2.690   0.656   9.546 -0.4222 -1.2882 -0.0738
 1696SOL     OW16720   1.563   4.058   7.308  0.3698  0.3312  0.4927
 1696SOL    HW116721   1.580   4.138   7.258 -0.4108 -1.0277 -1.9506
 1696SOL    HW216722   1.495   4.020   7.253 -0.8548 -1.1857  3.0293
 1697SOL     OW16723   1.451   4.682   6.365  0.1839  0.0140 -0.2455
 1697SOL    HW116724   1.384   4.719   6.422  1.6440  1.8758  0.2364
 1697SOL    HW216725   1.399   4.667   6.285  1.2948 -0.4275 -0.8827
 1698SOL     OW16726   0.047   3.852   3.853  0.1074 -0.2748  0.6018
 1698SOL    HW116727   0.064   3.904   3.932 -3.1625 -0.1551  1.2220
 1698SOL    HW216728   4.706   3.807   3.882 -0.8877  0.6045 -0.7990
 1699SOL     OW16729   1.437   0.770   8.903 -0.1677 -0.0156  0.1409
 1699SOL    HW116730   1.474   0.792   8.818  0.3681 -0.0527  0.3677
 1699SOL    HW216731   1.409   0.858   8.931  0.9907  0.9056 -1.6202
 1700SOL     OW16732   2.404   4.577   2.106 -0.6242  0.0616 -0.0666
 1700SOL    HW116733   2.401   4.625   2.189 -0.4795  0.5897 -0.3725
 1700SOL    HW216734   2.469   4.627   2.057 -1.0621 -0.7990 -1.5229
 1701SOL     OW16735   4.414   3.616   1.142  0.4777 -0.3374  0.0918
 1701SOL    HW116736   4.398   3.618   1.048  3.1114 -0.4438 -0.3764
 1701SOL    HW216737   4.468   3.693   1.157  0.2367  0.2016 -1.7874
 1702SOL     OW16738   1.588   3.238   7.511 -0.8027 -0.0457  0.0583
 1702SOL    HW116739   1.664   3.217   7.565  0.3856  0.6016 -1.3516
 1702SOL    HW216740   1.591   3.334   7.508 -0.6111 -0.1198 -2.1432
 1703SOL     OW16741   2.244   3.798   5.823 -0.0464  0.0637  0.6548
 1703SOL    HW116742   2.158   3.841   5.816  0.9129  1.6752 -1.0886
 1703SOL    HW216743   2.228   3.739   5.897 -0.1255 -1.1282 -0.3211
 1704SOL     OW16744   3.109   1.071   3.382  0.2956 -0.3327  0.2411
 1704SOL    HW116745   3.090   1.093   3.473 -0.0046  0.5089 -0.0207
 1704SOL    HW216746   3.200   1.042   3.384  0.0625 -0.8943  2.0323
 1705SOL     OW16747   2.747   2.442   1.850 -0.2659  0.1052 -0.0080
 1705SOL    HW116748   2.685   2.384   1.806  0.5496  0.3627 -1.4945
 1705SOL    HW216749   2.689   2.508   1.887  0.5380  0.2633  0.9661
 1706SOL     OW16750   3.612   0.973   2.119  0.3453  0.3472  0.2874
 1706SOL    HW116751   3.653   1.051   2.083 -1.1533  0.2861 -1.5871
 1706SOL    HW216752   3.641   0.912   2.051  1.5422 -2.1145  3.0043
 1707SOL     OW16753   0.043   0.272   8.067 -0.4693 -0.5647  0.4526
 1707SOL    HW116754   4.695   0.310   8.047 -0.2028 -0.4372 -0.4419
 1707SOL    HW216755   0.061   0.229   7.984 -0.9874  0.1619 -0.0432
 1708SOL     OW16756   4.698   3.235   5.942 -0.1374 -0.2248 -0.0028
 1708SOL    HW116757   4.617   3.286   5.935  1.3306  1.5698 -3.6064
 1708SOL    HW216758   4.672   3.169   6.006 -2.8674 -0.8720 -1.7563
 1709SOL     OW16759   0.020   1.441   3.564  0.2236 -0.0315 -0.3023
 1709SOL    HW116760   4.680   1.405   3.521  1.1943 -1.7355 -0.6373
 1709SOL    HW216761   0.071   1.366   3.592 -0.8386 -1.0917 -1.2135
 1710SOL     OW16762   1.982   4.204   6.242 -0.3137  0.1814 -0.5236
 1710SOL    HW116763   1.992   4.116   6.204  1.0389 -0.9824  2.5766
 1710SOL    HW216764   2.058   4.245   6.201 -0.0696 -1.4623 -1.7496
 1711SOL     OW16765   3.772   2.179   4.126 -0.2334  0.0168  0.0160
 1711SOL    HW116766   3.708   2.237   4.169 -0.0526  0.9772 -1.0317
 1711SOL    HW216767   3.848   2.235   4.112 -1.1725  1.2285 -0.2709
 1712SOL     OW16768   0.686   1.426   9.059  0.4665  0.2969  0.2557
 1712SOL    HW116769   0.654   1.507   9.098  2.2627  0.4606  1.4129
 1712SOL    HW216770   0.628   1.416   8.984 -0.2071 -0.4388  0.8688
 1713SOL     OW16771   0.021   1.713   2.926 -0.1490  0.0818 -0.3299
 1713SOL    HW116772   4.698   1.684   2.993  0.4252 -2.1053 -0.7385
 1713SOL    HW216773   0.102   1.711   2.977 -0.3102 -0.3565 -0.0845
 1714SOL     OW16774   2.963   4.554   4.678 -0.4079  0.1711 -0.0544
 1714SOL    HW116775   2.884   4.522   4.634 -0.4322  1.9875 -1.3009
 1714SOL    HW216776   2.952   4.527   4.770 -0.6535  2.7109  0.6726
 1715SOL     OW16777   2.114   0.717   1.721 -0.1940 -0.2186  0.5146
 1715SOL    HW116778   2.085   0.637   1.677  0.5502  0.4041 -1.1249
 1715SOL    HW216779   2.090   0.706   1.813  1.6742 -0.5613  0.9723
 1716SOL     OW16780   3.260   1.195  10.719  0.3066  0.0856 -0.0994
 1716SOL    HW116781   3.167   1.190  10.696  0.3868 -0.6105 -0.2547
 1716SOL    HW216782   3.263   1.289  10.736 -1.2562  0.3132 -1.0759
 1717SOL     OW16783   2.488   1.536  16.254  0.1445 -0.0366 -0.5409
 1717SOL    HW116784   2.417   1.499  16.202 -0.8571 -0.2586  0.9634
 1717SOL    HW216785   2.456   1.516  16.342 -0.5319  1.9695 -0.3216
 1718SOL     OW16786   1.788   3.978   6.736  0.1189 -0.9533 -0.2258
 1718SOL    HW116787   1.745   3.895   6.713  1.9972 -1.7856 -0.7236
 1718SOL    HW216788   1.858   3.939   6.789 -0.4130 -2.5975 -0.7136
 1719SOL     OW16789   4.244   3.725   2.906  0.1010  0.2985  0.4878
 1719SOL    HW116790   4.237   3.629   2.906  2.8366  0.1168  1.7757
 1719SOL    HW216791   4.258   3.745   2.814  3.5382  0.8926  1.1368
 1720SOL     OW16792   1.154   0.926   7.936 -0.2886 -0.0504 -0.1428
 1720SOL    HW116793   1.188   1.001   7.887 -0.9701  1.9036  2.3577
 1720SOL    HW216794   1.123   0.882   7.857 -0.7963 -1.7198  0.9914
 1721SOL     OW16795   1.099   1.856   9.236 -0.0658 -0.1530 -0.3297
 1721SOL    HW116796   1.018   1.907   9.240  0.7245  1.2181 -2.2608
 1721SOL    HW216797   1.066   1.773   9.271 -3.4596  0.6722 -1.6165
 1722SOL     OW16798   0.336   4.121  17.389 -0.0605  0.0246 -0.6631
 1722SOL    HW116799   0.268   4.053  17.390 -1.8240  1.8283  1.1833
 1722SOL    HW216800   0.306   4.149  17.303 -1.4854  1.6758  0.3812
 1723SOL     OW16801   2.322   4.527  15.448  0.0617 -0.2237 -0.6066
 1723SOL    HW116802   2.227   4.517  15.451  0.2416 -1.8728 -0.5203
 1723SOL    HW216803   2.344   4.534  15.541  1.2077 -1.8501 -0.7511
 1724SOL     OW16804   2.146   3.131   4.173 -0.2748  0.0380 -0.8488
 1724SOL    HW116805   2.087   3.183   4.119  0.1189  0.3761 -0.9546
 1724SOL    HW216806   2.114   3.117   4.262  3.3367  0.5440  0.5261
 1725SOL     OW16807   1.259   3.607  12.801  0.1962  0.3693  0.5279
 1725SOL    HW116808   1.173   3.593  12.841  0.9637 -0.8625  1.7592
 1725SOL    HW216809   1.274   3.524  12.755 -2.0473  1.5861 -2.4102
 1726SOL     OW16810   1.382   3.983  11.848 -0.2282 -0.3418  0.2069
 1726SOL    HW116811   1.427   4.005  11.766  2.0280  2.4496  2.2104
 1726SOL    HW216812   1.410   3.892  11.856 -0.2052 -0.2938  0.6468
 1727SOL     OW16813   3.128   0.740   9.004  0.4714  0.0223  0.5834
 1727SOL    HW116814   3.076   0.753   8.925  0.3980  1.1029  0.8189
 1727SOL    HW216815   3.211   0.781   8.980 -0.4183  1.6863  0.3647
 1728SOL     OW16816   1.818   0.258  10.758  0.3407  0.0000 -0.6505
 1728SOL    HW116817   1.913   0.265  10.771  0.0362 -0.4998  1.8290
 1728SOL    HW216818   1.817   0.237  10.664 -0.7364 -2.6202 -0.0469
 1729SOL     OW16819   1.265   3.910   9.176  0.8093 -0.0205  0.3093
 1729SOL    HW116820   1.223   3.991   9.147 -0.0504 -0.6567 -0.1935
 1729SOL    HW216821   1.254   3.906   9.271 -1.4826 -0.7400  0.0092
 1730SOL     OW16822   3.749   0.160   1.771  0.0541 -0.1459  0.1820
 1730SOL    HW116823   3.830   0.137   1.816  0.3954  4.4955  1.9971
 1730SOL    HW216824   3.792   0.193   1.692  0.4183 -5.9460 -2.0324
 1731SOL     OW16825   4.631   0.766   8.584  0.3323 -0.3810 -0.3300
 1731SOL    HW116826   4.627   0.776   8.489 -2.0112  2.5032  0.0518
 1731SOL    HW216827   4.545   0.737   8.616 -0.0930  3.2220  1.8069
 1732SOL     OW16828   2.758   1.539  14.686 -0.1563  0.6226 -0.0433
 1732SOL    HW116829   2.734   1.545  14.594  2.3849 -2.3232 -0.8853
 1732SOL    HW216830   2.765   1.631  14.713 -0.2056 -0.3367  3.1960
 1733SOL     OW16831   1.901   2.177   4.296 -0.7019  0.3343 -0.2017
 1733SOL    HW116832   1.904   2.081   4.293  0.4191  0.3997 -1.3803
 1733SOL    HW216833   1.941   2.196   4.380  0.9160 -1.8378 -0.4893
 1734SOL     OW16834   0.744   3.331   4.289 -0.4155 -0.1572 -0.2582
 1734SOL    HW116835   0.819   3.372   4.245 -0.3934  0.2277  0.1399
 1734SOL    HW216836   0.676   3.306   4.227  0.5289 -2.6312 -0.3110
 1735SOL     OW16837   3.766   2.079   8.020  0.0223 -0.5890 -0.1583
 1735SOL    HW116838   3.761   2.019   8.095 -3.2891 -0.8608 -0.6046
 1735SOL    HW216839   3.760   2.012   7.952  0.2457 -0.7507 -0.0190
 1736SOL     OW16840   1.194   4.719   3.106  0.3594  0.2356 -0.8565
 1736SOL    HW116841   1.150   4.668   3.175  2.2352  0.0086  0.1753
 1736SOL    HW216842   1.271   4.664   3.095  0.3362 -0.1484  0.8305
 1737SOL     OW16843   2.652   1.036   7.007 -0.3105  0.6312 -0.3304
 1737SOL    HW116844   2.662   0.964   7.069  0.3339 -0.2016 -1.4036
 1737SOL    HW216845   2.741   1.041   6.974  0.2448 -1.8025  0.7396
 1738SOL     OW16846   3.971   2.118   3.883  1.3034  0.4008 -0.1122
 1738SOL    HW116847   4.004   2.130   3.972  0.4743 -0.9504  0.3780
 1738SOL    HW216848   3.934   2.031   3.901 -0.1118  1.4057  1.7531
 1739SOL     OW16849   0.452   1.535  17.157 -0.7120 -0.0767 -0.4527
 1739SOL    HW116850   0.408   1.618  17.175 -1.5738 -0.0540 -2.5652
 1739SOL    HW216851   0.516   1.540  17.227  0.8070  1.3369 -1.9448
 1740SOL     OW16852   4.415   2.516   0.589 -0.0230 -0.5500  0.7048
 1740SOL    HW116853   4.321   2.505   0.601 -0.1057 -0.6611 -0.0514
 1740SOL    HW216854   4.455   2.430   0.604 -3.0442 -2.0266  0.0901
 1741SOL     OW16855   4.564   1.799   7.769 -0.1915 -0.0432 -0.0637
 1741SOL    HW116856   4.479   1.843   7.768 -0.7238 -1.0695  0.9661
 1741SOL    HW216857   4.605   1.818   7.853  1.1242  1.3166 -0.9998
 1742SOL     OW16858   0.315   0.063   8.162 -0.1634 -0.4327  0.1866
 1742SOL    HW116859   0.263   0.108   8.228 -0.1820  0.9451 -0.7510
 1742SOL    HW216860   0.406   0.090   8.174 -0.1925 -0.3011  0.1174
 1743SOL     OW16861   1.725   3.755   9.411  0.0549  0.6072 -0.9591
 1743SOL    HW116862   1.658   3.818   9.436 -0.5717 -1.1026  1.6035
 1743SOL    HW216863   1.752   3.790   9.326 -1.8486  2.8222 -0.6469
 1744SOL     OW16864   1.724   2.502  14.424 -0.4890 -0.1064 -0.1274
 1744SOL    HW116865   1.669   2.447  14.368  1.3974  1.5443 -3.6344
 1744SOL    HW216866   1.798   2.441  14.436 -0.9614 -1.0318 -1.9606
 1745SOL     OW16867   4.618   4.336   0.740 -0.2618 -0.4436  0.1434
 1745SOL    HW116868   4.560   4.309   0.669 -2.1831 -0.9258  1.8748
 1745SOL    HW216869   4.686   4.274   0.714 -0.0209  0.1967 -0.7407
 1746SOL     OW16870   3.127   4.097   3.322 -0.0585  0.0093 -0.0516
 1746SOL    HW116871   3.205   4.075   3.374  0.8148  4.7851  0.6009
 1746SOL    HW216872   3.049   4.078   3.375 -1.1452  1.4245 -1.1719
 1747SOL     OW16873   1.442   3.285   0.761 -0.0946 -0.4253 -0.1925
 1747SOL    HW116874   1.368   3.266   0.819  0.1325  0.9882  0.5716
 1747SOL    HW216875   1.507   3.228   0.801  0.9793 -0.4159 -1.9669
 1748SOL     OW16876   1.330   2.170   3.672  0.1201  0.1024 -0.1598
 1748SOL    HW116877   1.356   2.239   3.611 -2.3971  0.4544 -0.8104
 1748SOL    HW216878   1.271   2.127   3.610 -1.0103  1.0409  0.2780
 1749SOL     OW16879   4.672   3.177   8.354  0.0111  0.4185  0.9912
 1749SOL    HW116880   4.629   3.103   8.396 -1.6881  0.6171 -0.4016
 1749SOL    HW216881   4.630   3.183   8.268  0.8227  0.6474  0.6023
 1750SOL     OW16882   4.141   4.189   5.622  0.1308 -1.0082 -0.3123
 1750SOL    HW116883   4.051   4.215   5.641  0.6447 -1.2250  2.4579
 1750SOL    HW216884   4.138   4.202   5.527 -0.4062  0.2256 -0.1184
 1751SOL     OW16885   2.407   1.458   2.409  0.3424  0.1493 -0.2707
 1751SOL    HW116886   2.327   1.416   2.440  0.2571  1.9744  2.0400
 1751SOL    HW216887   2.462   1.380   2.413 -0.8243 -0.5279  2.4061
 1752SOL     OW16888   1.812   4.214  13.469 -0.0463  0.4060  0.0249
 1752SOL    HW116889   1.827   4.307  13.485  1.4224  0.0855  0.5042
 1752SOL    HW216890   1.896   4.189  13.430 -0.1550  0.1269 -0.0318
 1753SOL     OW16891   0.755   2.823   5.741 -0.1185  0.4950 -0.3744
 1753SOL    HW116892   0.676   2.810   5.794  0.8328  0.9469  1.1423
 1753SOL    HW216893   0.814   2.844   5.814  1.3069 -2.2906 -0.7264
 1754SOL     OW16894   2.151   4.464   3.199  0.2667 -0.0021  0.1724
 1754SOL    HW116895   2.217   4.533   3.200 -0.6428  0.8643  0.6778
 1754SOL    HW216896   2.115   4.477   3.287 -0.4551  2.5813 -0.4976
 1755SOL     OW16897   0.117   3.553   2.637  0.3227 -0.2908 -0.5747
 1755SOL    HW116898   0.063   3.505   2.575  1.6009 -0.5705 -1.4813
 1755SOL    HW216899   0.151   3.616   2.574  1.1511  0.4823  0.6257
 1756SOL     OW16900   0.121   3.061   5.821 -0.2233  0.0741 -0.4695
 1756SOL    HW116901   0.148   3.010   5.897  0.3638  3.0785  1.3263
 1756SOL    HW216902   0.052   3.113   5.861  0.7800  0.4036  0.8323
 1757SOL     OW16903   2.477   4.280   2.626  0.7455 -0.1726  0.6718
 1757SOL    HW116904   2.418   4.250   2.557  0.9522 -1.4885  1.0591
 1757SOL    HW216905   2.411   4.286   2.695 -0.7321 -3.0259 -0.5058
 1758SOL     OW16906   1.226   0.782   5.997 -0.2053  0.0458 -0.3685
 1758SOL    HW116907   1.279   0.764   5.919 -2.8504 -1.2599 -1.8683
 1758SOL    HW216908   1.294   0.795   6.063 -1.8190  1.6327  0.9580
 1759SOL     OW16909   1.671   2.066   9.378 -0.4151 -0.4728 -0.1223
 1759SOL    HW116910   1.719   2.140   9.415 -3.0503  0.6471  1.0693
 1759SOL    HW216911   1.740   2.018   9.332 -2.2510 -2.6513 -0.6223
 1760SOL     OW16912   0.887   0.529  12.213 -0.1220 -0.6138  0.3160
 1760SOL    HW116913   0.974   0.494  12.234 -1.4259 -2.2576  2.8434
 1760SOL    HW216914   0.841   0.446  12.204  0.7991 -1.1091  0.0996
 1761SOL     OW16915   3.262   4.245   3.897 -0.6364  0.2726  0.4324
 1761SOL    HW116916   3.200   4.315   3.876 -0.6724 -0.4834 -1.9823
 1761SOL    HW216917   3.229   4.214   3.982 -0.4523 -0.6858  0.1481
 1762SOL     OW16918   0.112   1.531  16.308  0.1134 -0.4950 -0.4102
 1762SOL    HW116919   0.118   1.453  16.253 -2.4680  1.0448 -2.8706
 1762SOL    HW216920   0.057   1.591  16.258  1.1842 -0.2024 -1.2341
 1763SOL     OW16921   0.099   4.025   8.129  0.0605  0.1797 -0.0436
 1763SOL    HW116922   0.144   3.962   8.186 -1.7453 -0.1573  1.0148
 1763SOL    HW216923   0.149   4.106   8.132  0.2040  0.2154 -2.8352
 1764SOL     OW16924   3.310   1.896   4.581 -0.1022 -0.2481 -0.3806
 1764SOL    HW116925   3.312   1.972   4.523  2.1307  0.4918  0.6534
 1764SOL    HW216926   3.390   1.850   4.557  0.4552  0.2881  0.4330
 1765SOL     OW16927   1.433   1.135   2.369 -0.3320  0.1077 -0.6543
 1765SOL    HW116928   1.406   1.105   2.283  2.4546  2.6835 -2.4492
 1765SOL    HW216929   1.454   1.227   2.356 -2.3753  0.6626 -0.0163
 1766SOL     OW16930   2.186   4.256  17.694  0.0712  0.6401  0.4456
 1766SOL    HW116931   2.262   4.199  17.679  0.5518  1.3674  0.1256
 1766SOL    HW216932   2.192   4.309  17.615  2.1661  1.5786  1.2305
 1767SOL     OW16933   0.257   2.729   2.619  0.0605 -0.5550  0.4987
 1767SOL    HW116934   0.214   2.645   2.635  1.3673 -1.8641 -3.0206
 1767SOL    HW216935   0.216   2.762   2.539  0.2661 -1.8826 -0.1418
 1768SOL     OW16936   4.196   3.246   4.294 -0.3255  0.5474  0.3862
 1768SOL    HW116937   4.156   3.219   4.211 -0.2321 -0.0401  0.5365
 1768SOL    HW216938   4.285   3.213   4.284 -0.5226  0.2289 -0.3096
 1769SOL     OW16939   0.548   2.045   1.746 -0.0436 -0.3893 -0.0048
 1769SOL    HW116940   0.642   2.036   1.762 -0.0004 -0.4074 -0.2664
 1769SOL    HW216941   0.547   2.089   1.661 -0.0702  1.9438  1.2331
 1770SOL     OW16942   0.146   0.885   5.023  0.6752  0.1689 -0.5228
 1770SOL    HW116943   0.064   0.933   5.016  0.5063  0.0117  0.3823
 1770SOL    HW216944   0.181   0.948   5.086  1.1485 -0.6214  0.0059
 1771SOL     OW16945   0.560   2.941   9.823  0.4329  0.1145 -0.1030
 1771SOL    HW116946   0.590   2.850   9.830 -1.1551 -0.2511  1.7687
 1771SOL    HW216947   0.637   2.994   9.841 -0.3879  0.4259  2.5124
 1772SOL     OW16948   3.923   3.424   3.768  0.2843  0.0329 -0.3611
 1772SOL    HW116949   3.854   3.394   3.709 -0.8927  0.8896  0.5782
 1772SOL    HW216950   3.880   3.482   3.831 -0.4004  1.9000 -2.5335
 1773SOL     OW16951   0.913   0.309   2.431  0.0525  0.2106 -0.2509
 1773SOL    HW116952   1.006   0.323   2.412  0.4466 -0.8982  0.8671
 1773SOL    HW216953   0.902   0.344   2.520  1.3720 -2.7200  1.0441
 1774SOL     OW16954   3.652   2.844   5.013  0.1257  0.0666  0.4140
 1774SOL    HW116955   3.715   2.916   5.013 -0.6550  0.7551  0.2300
 1774SOL    HW216956   3.688   2.778   4.953 -2.8518 -1.8623  0.7378
 1775SOL     OW16957   0.781   2.456   2.403 -0.0504  0.1320 -0.0213
 1775SOL    HW116958   0.815   2.497   2.323  1.0025 -1.8065 -0.5531
 1775SOL    HW216959   0.767   2.530   2.463 -0.8546 -0.0396 -0.0112
 1776SOL     OW16960   4.276   1.756   2.550  0.0508 -0.7097  0.1814
 1776SOL    HW116961   4.261   1.849   2.536 -0.4526 -0.7002  0.7860
 1776SOL    HW216962   4.286   1.743   2.644  1.4970 -0.9649 -0.0169
 1777SOL     OW16963   2.465   0.290  16.893 -0.2149  0.5032 -0.1387
 1777SOL    HW116964   2.520   0.243  16.956 -2.4480 -1.2218  0.5066
 1777SOL    HW216965   2.380   0.295  16.937 -1.6470  1.1849 -2.9846
 1778SOL     OW16966   1.405   3.392  11.311  0.5051  0.1057  0.2557
 1778SOL    HW116967   1.475   3.364  11.252  1.5341  1.9910  0.5858
 1778SOL    HW216968   1.453   3.390  11.394 -0.9125  1.1118  1.1084
 1779SOL     OW16969   2.025   0.130   4.563  0.0631 -0.3994  0.0977
 1779SOL    HW116970   1.950   0.153   4.617  0.1787  1.0683 -0.3591
 1779SOL    HW216971   2.018   0.172   4.477  0.5773 -0.5801 -0.0346
 1780SOL     OW16972   0.998   3.015   1.961 -0.7372  0.0277 -0.0653
 1780SOL    HW116973   1.029   3.099   1.928  1.4903 -1.6891 -2.3472
 1780SOL    HW216974   0.971   2.966   1.884  0.9664 -2.8326  1.1465
 1781SOL     OW16975   4.055   2.193  16.699 -0.3260  0.0101 -0.2857
 1781SOL    HW116976   4.129   2.253  16.697  0.6993 -1.2247  0.8959
 1781SOL    HW216977   3.985   2.247  16.661  0.6293  2.1224  0.9503
 1782SOL     OW16978   1.754   3.619   4.354  0.3554  0.6060  0.6681
 1782SOL    HW116979   1.829   3.560   4.364 -1.0990 -1.4807 -1.0494
 1782SOL    HW216980   1.691   3.565   4.400  2.3538 -0.6427  1.9260
 1783SOL     OW16981   3.702   2.982  11.404  1.0951 -0.4835 -0.3209
 1783SOL    HW116982   3.788   3.018  11.381  1.3778 -1.6490 -1.0619
 1783SOL    HW216983   3.645   3.034  11.346  0.3802 -0.6910  0.2025
 1784SOL     OW16984   1.472   1.715   2.295  0.1053  0.3659  0.1604
 1784SOL    HW116985   1.425   1.724   2.211  2.1385  0.1733 -0.9874
 1784SOL    HW216986   1.536   1.786   2.301  1.6310 -0.8475 -1.5596
 1785SOL     OW16987   3.454   0.414   3.552 -0.0055  0.2925 -0.0304
 1785SOL    HW116988   3.541   0.416   3.513 -1.0252  1.8579 -2.1724
 1785SOL    HW216989   3.400   0.480   3.509  0.6578 -0.2853 -1.7607
 1786SOL     OW16990   0.064   4.110   6.657 -0.3091 -0.3824 -0.2111
 1786SOL    HW116991   0.153   4.128   6.627 -0.5123  0.3824 -0.3638
 1786SOL    HW216992   0.091   4.077   6.743 -0.7336 -0.2475 -0.0228
 1787SOL     OW16993   2.467   3.893   6.981  0.3186  0.4631  0.0559
 1787SOL    HW116994   2.434   3.926   6.897 -1.7377 -0.0093  0.6715
 1787SOL    HW216995   2.407   3.822   7.003 -0.1885  1.3989  1.7858
 1788SOL     OW16996   3.049   3.806   1.739 -0.2666 -0.1525  0.2845
 1788SOL    HW116997   2.957   3.816   1.765 -0.0171  1.8720  0.3730
 1788SOL    HW216998   3.076   3.897   1.730 -0.5066 -0.3679 -2.6531
 1789SOL     OW16999   1.116   0.953  13.283  0.4809  0.0442  0.1893
 1789SOL    HW117000   1.060   0.879  13.260 -2.7101  1.7732  2.3045
 1789SOL    HW217001   1.199   0.907  13.293  2.0687  3.0472  0.5092
 1790SOL     OW17002   2.887   4.607   3.487 -0.0902 -0.0069 -0.5671
 1790SOL    HW117003   2.826   4.676   3.513 -0.0881 -0.8379  1.7088
 1790SOL    HW217004   2.963   4.663   3.472 -1.2075  2.3948  2.6656
 1791SOL     OW17005   2.557   0.698  12.282 -0.3307 -0.1650 -0.4442
 1791SOL    HW117006   2.601   0.777  12.313 -1.0056  1.4562 -3.6193
 1791SOL    HW217007   2.576   0.643  12.358 -1.1903 -0.2176 -0.2598
 1792SOL     OW17008   3.652   4.416   4.370  0.0245 -0.3959  0.6273
 1792SOL    HW117009   3.578   4.459   4.413 -0.0912  1.6144 -1.6177
 1792SOL    HW217010   3.696   4.485   4.320 -1.4666  1.0854  1.4036
 1793SOL     OW17011   0.526   3.324   6.533 -0.7294 -0.3192 -0.1050
 1793SOL    HW117012   0.436   3.356   6.535  0.3266  2.6007  0.6459
 1793SOL    HW217013   0.507   3.232   6.551  0.1505 -0.9236 -2.4000
 1794SOL     OW17014   3.507   4.442   7.697 -1.1277 -0.0862 -0.1312
 1794SOL    HW117015   3.543   4.387   7.767  0.6153  2.3882  0.9183
 1794SOL    HW217016   3.557   4.411   7.622 -0.4502 -0.3150  0.4104
 1795SOL     OW17017   0.927   1.343  16.579  0.4222 -0.7053 -0.1504
 1795SOL    HW117018   0.974   1.272  16.536 -1.8105 -2.5012  0.3917
 1795SOL    HW217019   0.840   1.334  16.540 -0.0748  2.3834  0.2643
 1796SOL     OW17020   4.495   0.260  15.265  0.3261  0.8560  0.3258
 1796SOL    HW117021   4.409   0.300  15.250  0.0328  0.0951 -0.0199
 1796SOL    HW217022   4.537   0.285  15.182  0.4250  0.3548  0.2262
 1797SOL     OW17023   1.243   0.694  12.259 -0.4620 -0.5972  0.3340
 1797SOL    HW117024   1.195   0.758  12.313 -1.5661 -0.1810 -1.1487
 1797SOL    HW217025   1.331   0.732  12.255  0.8132 -3.6879 -1.4640
 1798SOL     OW17026   2.603   4.269   1.093 -0.5299 -0.6228 -0.0590
 1798SOL    HW117027   2.517   4.311   1.097  0.3024  1.3485 -2.8221
 1798SOL    HW217028   2.621   4.250   1.185  0.7634  0.4049 -0.1065
 1799SOL     OW17029   3.690   1.504   0.400 -0.2817  0.0527  0.7948
 1799SOL    HW117030   3.674   1.423   0.351  1.4376 -0.0288  0.3532
 1799SOL    HW217031   3.631   1.554   0.344  0.2159 -1.2478 -0.8898
 1800SOL     OW17032   2.340   2.718  10.577 -0.6454 -0.2433 -0.1493
 1800SOL    HW117033   2.270   2.756  10.631  0.9968 -1.9660  3.2094
 1800SOL    HW217034   2.288   2.712  10.497  0.2478 -0.2082 -0.7299
 1801SOL     OW17035   0.529   3.181  15.958  0.4040 -0.3139  0.5119
 1801SOL    HW117036   0.529   3.120  16.031 -0.3522 -1.7276 -0.6671
 1801SOL    HW217037   0.466   3.143  15.897  1.3855 -2.0568  0.6010
 1802SOL     OW17038   2.249   0.632   5.021  0.3332  0.0699 -0.7980
 1802SOL    HW117039   2.307   0.708   5.025 -1.1810  1.3019 -2.3970
 1802SOL    HW217040   2.248   0.612   4.928 -0.1944  0.2541 -0.8300
 1803SOL     OW17041   1.356   3.216  15.573 -0.1170  0.0917 -0.0584
 1803SOL    HW117042   1.338   3.307  15.595  0.2497  1.1278 -3.9144
 1803SOL    HW217043   1.439   3.222  15.525 -2.2473  2.2401 -3.5223
 1804SOL     OW17044   1.303   3.987   4.914  0.8921  0.2867 -0.3777
 1804SOL    HW117045   1.365   3.946   4.854 -1.2313 -1.1813 -1.5395
 1804SOL    HW217046   1.218   3.955   4.885  0.6184  0.4350  0.2611
 1805SOL     OW17047   2.550   3.253   2.346 -0.0924 -0.2463  0.3933
 1805SOL    HW117048   2.465   3.215   2.321 -0.2731 -0.0611  0.7308
 1805SOL    HW217049   2.556   3.334   2.296 -1.3696 -0.5856 -0.3269
 1806SOL     OW17050   0.344   1.277   1.428 -0.4803  0.1709 -0.3519
 1806SOL    HW117051   0.355   1.371   1.443 -2.3976  0.2952  0.1855
 1806SOL    HW217052   0.254   1.252   1.445 -0.3105  0.6942  1.3594
 1807SOL     OW17053   3.733   1.868  12.287  0.1573 -0.2697  0.0387
 1807SOL    HW117054   3.796   1.940  12.288  1.3236 -1.2961 -1.4248
 1807SOL    HW217055   3.717   1.855  12.381 -0.8660  0.8001  0.0159
 1808SOL     OW17056   3.337   0.647   1.553 -0.0897 -0.3165  0.2031
 1808SOL    HW117057   3.374   0.590   1.621 -0.0416 -1.2477 -0.5993
 1808SOL    HW217058   3.378   0.729   1.581 -2.5312  1.4606 -1.4896
 1809SOL     OW17059   2.509   1.275   6.729  0.0660 -0.1840  0.6961
 1809SOL    HW117060   2.435   1.245   6.782 -2.5511  1.7210 -1.8909
 1809SOL    HW217061   2.541   1.190   6.698 -1.8202 -1.6879  2.8390
 1810SOL     OW17062   4.437   3.626  17.663  0.4631  0.3887 -0.0629
 1810SOL    HW117063   4.379   3.561  17.702 -0.3538 -0.6009 -2.8829
 1810SOL    HW217064   4.467   3.566  17.594 -1.0438  0.1708 -0.5185
 1811SOL     OW17065   1.597   2.599  13.440  0.4901  0.5591  0.0993
 1811SOL    HW117066   1.596   2.558  13.354  0.5760  1.2808 -0.2491
 1811SOL    HW217067   1.504   2.621  13.454  0.2572  0.3814 -1.1659
 1812SOL     OW17068   1.051   2.111   9.069 -0.2176  0.4355 -0.2990
 1812SOL    HW117069   0.962   2.076   9.059 -0.4843  0.4287  2.1709
 1812SOL    HW217070   1.064   2.132   8.976  0.7265 -0.9438 -0.4815
 1813SOL     OW17071   1.690   2.251  16.962 -0.4312 -0.7233 -0.0204
 1813SOL    HW117072   1.691   2.339  16.999 -2.0685 -0.2002 -1.2396
 1813SOL    HW217073   1.616   2.264  16.903  0.2856  0.7698 -0.5794
 1814SOL     OW17074   2.992   4.472  15.127  0.3502 -0.4300 -0.1469
 1814SOL    HW117075   2.994   4.415  15.051 -2.2506 -0.5824 -0.1224
 1814SOL    HW217076   3.075   4.452  15.170  0.3212  2.5142  1.3060
 1815SOL     OW17077   1.149   0.478   7.928  0.4208  0.2082 -0.1972
 1815SOL    HW117078   1.238   0.441   7.927  0.6697  0.7700  0.4403
 1815SOL    HW217079   1.134   0.477   8.023  0.6602 -2.3822 -0.1940
 1816SOL     OW17080   2.040   1.685   9.551  0.2421 -0.0871  0.1918
 1816SOL    HW117081   2.058   1.742   9.476 -1.0174 -1.2608 -1.0199
 1816SOL    HW217082   1.990   1.613   9.511 -0.2721 -0.0316  0.7315
 1817SOL     OW17083   3.648   0.922   6.525  0.3424 -0.5262  0.0900
 1817SOL    HW117084   3.669   0.910   6.617  2.9373  0.2462 -0.4212
 1817SOL    HW217085   3.633   1.017   6.520 -2.4980 -0.9129  1.0253
 1818SOL     OW17086   3.303   4.063   0.902  0.4567 -0.1572 -0.4904
 1818SOL    HW117087   3.221   4.043   0.858  0.1869 -1.3835  0.5582
 1818SOL    HW217088   3.340   4.129   0.843 -0.0782 -0.3819 -1.0817
 1819SOL     OW17089   4.545   1.085  16.966  0.5371  0.2736 -0.2476
 1819SOL    HW117090   4.550   1.140  17.045  1.2442  0.4385 -0.4114
 1819SOL    HW217091   4.467   1.044  17.003  0.0862  1.3169 -0.0235
 1820SOL     OW17092   3.261   3.636   2.817  0.0439  0.3504 -0.2936
 1820SOL    HW117093   3.258   3.545   2.846 -0.6484  1.2655  2.4914
 1820SOL    HW217094   3.241   3.625   2.724 -0.9938  0.2249 -0.0520
 1821SOL     OW17095   1.159   2.875   3.061  0.1142 -0.1349 -0.6837
 1821SOL    HW117096   1.229   2.933   3.032  1.0831 -1.8211 -1.6668
 1821SOL    HW217097   1.198   2.791   3.084  0.9438  0.6080  0.6513
 1822SOL     OW17098   2.559   3.182   9.294  0.6844 -0.3197  0.6369
 1822SOL    HW117099   2.597   3.269   9.287  0.0838  0.0838  2.2374
 1822SOL    HW217100   2.577   3.172   9.388  1.4292 -0.1423  0.5067
 1823SOL     OW17101   3.544   1.276   4.624 -0.2060 -0.2947 -0.1597
 1823SOL    HW117102   3.585   1.207   4.572  1.4264  0.6295 -0.0970
 1823SOL    HW217103   3.459   1.292   4.582  2.1845  1.6069 -4.2298
 1824SOL     OW17104   4.442   1.432   3.770 -0.1006 -0.4521 -0.4518
 1824SOL    HW117105   4.362   1.426   3.822 -0.2425  2.6641 -0.2975
 1824SOL    HW217106   4.397   1.471   3.695 -0.8570  0.4721  0.4943
 1825SOL     OW17107   1.867   2.912  14.129 -0.2339  0.0607  0.2088
 1825SOL    HW117108   1.839   2.999  14.159  0.1419 -0.2903  1.5815
 1825SOL    HW217109   1.815   2.864  14.193 -1.8985 -1.5902 -2.3807
 1826SOL     OW17110   4.372   0.473   2.657  0.1978  0.1302 -0.1928
 1826SOL    HW117111   4.341   0.562   2.669 -0.7290 -0.1983 -0.1320
 1826SOL    HW217112   4.353   0.440   2.745 -2.3092  0.5770 -0.5523
 1827SOL     OW17113   2.329   3.696   4.856  0.4156  0.4440 -0.0129
 1827SOL    HW117114   2.281   3.704   4.773  1.1109  1.0451 -0.3672
 1827SOL    HW217115   2.362   3.608   4.839  0.0711  0.1985  0.6345
 1828SOL     OW17116   1.810   4.171   2.515  0.5358  0.2572 -0.6914
 1828SOL    HW117117   1.818   4.152   2.421  0.0329 -0.4183 -0.5969
 1828SOL    HW217118   1.777   4.094   2.561  0.0110  0.4400 -0.7649
 1829SOL     OW17119   0.758   4.057   7.293 -0.4626  0.0078  0.5467
 1829SOL    HW117120   0.806   4.115   7.353 -3.0530  1.1250  1.5289
 1829SOL    HW217121   0.832   4.010   7.255 -2.0967 -0.5201 -1.9507
 1830SOL     OW17122   4.087   2.786   7.231 -0.0785 -0.7280 -0.0679
 1830SOL    HW117123   4.148   2.860   7.229 -1.2322  0.2396  1.2834
 1830SOL    HW217124   4.130   2.715   7.279  1.4390 -0.1036 -0.4967
 1831SOL     OW17125   1.686   4.381   5.516 -0.2571  0.1637 -0.4263
 1831SOL    HW117126   1.780   4.366   5.504  0.3714  1.2816  2.8739
 1831SOL    HW217127   1.656   4.308   5.462  0.5127 -0.3290 -0.1958
 1832SOL     OW17128   2.402   2.118   3.009 -0.3991 -0.1717 -0.1856
 1832SOL    HW117129   2.434   2.028   3.011  2.4270  0.8205 -0.7634
 1832SOL    HW217130   2.480   2.174   3.011 -0.3404 -0.2201 -1.1144
 1833SOL     OW17131   2.773   3.659  15.285 -0.0324  0.0836 -0.0912
 1833SOL    HW117132   2.791   3.750  15.306  0.7259 -0.2793  0.7977
 1833SOL    HW217133   2.852   3.629  15.240 -0.9889 -0.2453 -1.5435
 1834SOL     OW17134   4.306   1.375   3.351 -0.5699 -0.1746 -0.0322
 1834SOL    HW117135   4.308   1.427   3.270  0.4722 -2.4593 -1.4490
 1834SOL    HW217136   4.258   1.439   3.404  0.0703  4.5005 -5.0770
 1835SOL     OW17137   0.337   1.169   3.255  0.6461 -0.1730 -0.0169
 1835SOL    HW117138   0.344   1.118   3.175  0.7893 -0.4900  0.1994
 1835SOL    HW217139   0.390   1.249   3.245 -0.5209  0.6451  0.3359
 1836SOL     OW17140   0.558   3.217   1.881 -0.2464 -0.0495  0.1167
 1836SOL    HW117141   0.640   3.185   1.844 -1.2120  0.2974 -2.3184
 1836SOL    HW217142   0.599   3.281   1.938 -2.0421 -0.3491  1.7544
 1837SOL     OW17143   1.491   4.077   6.904 -0.2422  0.7129 -0.1232
 1837SOL    HW117144   1.535   4.150   6.948 -1.7566  2.5765 -1.6458
 1837SOL    HW217145   1.440   4.129   6.842  1.6922  3.0147  0.2277
 1838SOL     OW17146   1.926   1.728  17.086 -0.8095  0.0188 -0.5343
 1838SOL    HW117147   1.922   1.731  17.182 -0.0099  2.4821 -0.5582
 1838SOL    HW217148   1.918   1.823  17.072  1.2567  0.2865  0.1103
 1839SOL     OW17149   3.659   1.416   8.342  0.0753 -0.7060 -0.0299
 1839SOL    HW117150   3.694   1.501   8.370 -0.0137 -0.7112  0.0983
 1839SOL    HW217151   3.701   1.399   8.258  1.7064  0.3265  0.5839
 1840SOL     OW17152   4.444   1.495   3.148  0.6195  0.5613 -0.0549
 1840SOL    HW117153   4.470   1.587   3.162  0.8967  0.6734 -1.3679
 1840SOL    HW217154   4.521   1.440   3.135 -1.5034 -2.7075  1.1859
 1841SOL     OW17155   0.795   1.124   8.869  0.2782 -0.0476 -0.1719
 1841SOL    HW117156   0.875   1.163   8.832  0.3261  1.3958  1.4712
 1841SOL    HW217157   0.732   1.185   8.830 -0.0002  1.2512  2.3409
 1842SOL     OW17158   0.925   3.354   6.142  0.3608  0.2358  0.0710
 1842SOL    HW117159   0.874   3.339   6.222  1.5417 -3.1913  0.1947
 1842SOL    HW217160   0.858   3.383   6.082 -1.6403 -1.8182  1.3012
 1843SOL     OW17161   0.637   1.192   2.614  0.1682 -0.1744  0.3472
 1843SOL    HW117162   0.681   1.271   2.582 -1.0639  0.3481 -0.0603
 1843SOL    HW217163   0.561   1.181   2.558  0.8541 -1.5904 -0.3006
 1844SOL     OW17164   1.373   1.650   5.146  0.1067  0.5767  0.0098
 1844SOL    HW117165   1.432   1.716   5.108  0.0482  0.1361 -0.8309
 1844SOL    HW217166   1.382   1.569   5.097 -3.7337  0.8186 -1.0594
 1845SOL     OW17167   1.560   4.011   0.656  0.1451  0.1576  0.3621
 1845SOL    HW117168   1.634   4.060   0.692 -0.7250  2.0702 -0.4626
 1845SOL    HW217169   1.607   3.930   0.635 -0.2711  0.2032 -0.7427
 1846SOL     OW17170   2.583   3.114   8.470  0.0742  0.6841 -0.0177
 1846SOL    HW117171   2.650   3.092   8.406 -1.9217 -0.5402 -1.6681
 1846SOL    HW217172   2.550   3.028   8.495 -0.0757  0.7798  0.1200
 1847SOL     OW17173   0.158   2.487   8.136 -0.0104 -0.5385 -0.5156
 1847SOL    HW117174   0.163   2.462   8.228 -1.0389 -3.1108 -1.1842
 1847SOL    HW217175   0.130   2.578   8.146  1.4950 -0.3072  1.5135
 1848SOL     OW17176   0.059   4.056  14.117  0.3900  0.1142 -0.0983
 1848SOL    HW117177   0.134   4.066  14.176  1.1625 -1.4325 -0.8356
 1848SOL    HW217178   0.101   4.089  14.038  0.5445  0.0470 -0.0459
 1849SOL     OW17179   3.551   1.744   3.178 -0.4558  0.2558  0.0889
 1849SOL    HW117180   3.553   1.725   3.085 -2.2873 -2.7389  0.6496
 1849SOL    HW217181   3.627   1.689   3.197  0.8130  1.9818 -0.0240
 1850SOL     OW17182   2.782   3.630  11.785 -0.2671  1.0723  0.2727
 1850SOL    HW117183   2.792   3.647  11.878 -0.5094 -3.1325  1.0623
 1850SOL    HW217184   2.854   3.680  11.747  1.0684 -1.3481 -0.3734
 1851SOL     OW17185   3.341   3.685   6.743  0.0480 -0.4929 -0.3050
 1851SOL    HW117186   3.411   3.633   6.783  0.0781 -2.2750 -2.6667
 1851SOL    HW217187   3.362   3.772   6.778  0.4395 -0.7274  0.0505
 1852SOL     OW17188   2.227   2.332  14.417 -0.7244 -0.0290  0.4166
 1852SOL    HW117189   2.311   2.308  14.456 -0.3233 -1.9683 -1.6974
 1852SOL    HW217190   2.171   2.343  14.494 -0.4735  2.2245  0.2827
 1853SOL     OW17191   2.679   2.499  10.483  0.1488  0.2880  0.2952
 1853SOL    HW117192   2.680   2.594  10.491 -1.1443  0.3189  0.0932
 1853SOL    HW217193   2.741   2.468  10.549 -0.3035 -1.5096 -0.1201
 1854SOL     OW17194   2.553   0.012  15.291  0.6170  0.0230  0.1014
 1854SOL    HW117195   2.620   0.069  15.252 -0.8022  0.8692 -1.0871
 1854SOL    HW217196   2.509   4.717  15.213  2.5032 -1.5466 -0.3238
 1855SOL     OW17197   0.618   4.572   6.620 -0.5131  0.1696  0.4169
 1855SOL    HW117198   0.626   4.663   6.594 -0.9009  0.1512  0.2329
 1855SOL    HW217199   0.687   4.555   6.684  0.2602  2.8568  0.2560
 1856SOL     OW17200   1.550   2.826   2.805 -0.1294 -0.0199  0.0304
 1856SOL    HW117201   1.483   2.882   2.844  0.3281  1.4853 -1.3460
 1856SOL    HW217202   1.485   2.759   2.783 -1.2234  0.5649  1.4777
 1857SOL     OW17203   2.366   0.566   7.262 -0.4110 -0.4690  0.0868
 1857SOL    HW117204   2.301   0.636   7.250  1.1481  0.8048 -0.9281
 1857SOL    HW217205   2.407   0.550   7.177  1.2000  0.6274  0.6641
 1858SOL     OW17206   4.573   0.136   4.993  0.1343 -0.6524  0.6428
 1858SOL    HW117207   4.540   0.199   5.057 -0.2988  0.1757 -0.4067
 1858SOL    HW217208   4.590   0.063   5.054  1.3033 -2.1741 -1.5100
 1859SOL     OW17209   2.016   0.201   7.512  0.5445 -0.3987  0.3001
 1859SOL    HW117210   1.921   0.213   7.512  0.6033  0.0777 -0.1628
 1859SOL    HW217211   2.019   0.113   7.474 -2.0100  0.3555 -1.6856
 1860SOL     OW17212   0.065   0.936  13.241  0.2335 -0.0354  0.0597
 1860SOL    HW117213   0.053   0.845  13.214  0.9567 -0.2388  0.4311
 1860SOL    HW217214   0.034   0.974  13.159  2.5367 -2.3864 -1.8727
 1861SOL     OW17215   1.029   0.777  16.184  0.1801  0.5051  0.1596
 1861SOL    HW117216   0.985   0.700  16.148  1.3100 -0.2519  0.4070
 1861SOL    HW217217   1.036   0.835  16.108 -0.6862 -1.5242 -1.4806
 1862SOL     OW17218   1.173   0.607   5.104  0.5880 -0.4406  0.2044
 1862SOL    HW117219   1.232   0.585   5.033  2.0550 -1.5067  1.7551
 1862SOL    HW217220   1.160   0.700   5.082  0.4172 -0.5101  0.0073
 1863SOL     OW17221   2.119   2.677   8.522 -0.5279  0.2395  0.2625
 1863SOL    HW117222   2.037   2.724   8.537 -1.3593 -0.8788 -0.8321
 1863SOL    HW217223   2.136   2.655   8.614  0.3418 -0.3001 -0.0242
 1864SOL     OW17224   3.128   1.683   7.289  0.0631 -0.3844  0.0605
 1864SOL    HW117225   3.035   1.704   7.277  0.1809  0.4474  0.5551
 1864SOL    HW217226   3.137   1.596   7.250 -1.2993 -0.2385 -0.5626
 1865SOL     OW17227   3.892   3.345   7.436  0.2528  0.1685  0.1182
 1865SOL    HW117228   3.845   3.396   7.502 -0.2130  0.1738 -0.2155
 1865SOL    HW217229   3.951   3.295   7.493  1.1365  0.3108 -0.6781
 1866SOL     OW17230   1.502   0.086  13.537  0.3014 -0.1486  0.2545
 1866SOL    HW117231   1.489   0.176  13.568 -2.5301 -0.9147  1.2989
 1866SOL    HW217232   1.476   0.038  13.616 -0.7836  1.5465  0.9282
 1867SOL     OW17233   3.278   2.395   6.947 -0.3868  0.2837 -0.0696
 1867SOL    HW117234   3.282   2.304   6.918 -0.6839  0.7364 -1.5224
 1867SOL    HW217235   3.186   2.398   6.975 -0.7213 -0.0441 -1.1469
 1868SOL     OW17236   4.300   2.879   5.757 -0.0944 -0.3448  0.2054
 1868SOL    HW117237   4.208   2.904   5.769 -0.2946 -0.9654 -0.0075
 1868SOL    HW217238   4.353   2.956   5.738 -0.0435 -0.5930 -0.6362
 1869SOL     OW17239   0.208   2.969   8.554  0.0135  0.2995  0.2173
 1869SOL    HW117240   0.244   3.055   8.530 -0.1654  0.4403  0.4456
 1869SOL    HW217241   0.177   2.994   8.642 -1.9735 -1.1207 -0.0953
 1870SOL     OW17242   1.247   0.577  13.035  0.3024 -0.7572  0.2879
 1870SOL    HW117243   1.215   0.667  13.029  0.0575 -0.7936  1.1073
 1870SOL    HW217244   1.275   0.577  13.126  0.8504  0.0044  0.1163
 1871SOL     OW17245   0.194   2.051   4.648  0.1442  0.1799  0.3410
 1871SOL    HW117246   0.100   2.061   4.659 -0.2529 -1.6764 -1.4727
 1871SOL    HW217247   0.208   1.961   4.678 -2.4857 -0.3099  0.0233
 1872SOL     OW17248   3.657   2.097   7.335 -0.0004  0.2198 -0.0017
 1872SOL    HW117249   3.672   2.064   7.246  0.1434 -0.3461  0.2349
 1872SOL    HW217250   3.565   2.120   7.325  0.7934  1.9074 -3.5951
 1873SOL     OW17251   4.287   3.230   8.570  0.1032 -0.0896  0.2247
 1873SOL    HW117252   4.256   3.264   8.654 -0.0959 -0.9891  0.5186
 1873SOL    HW217253   4.220   3.267   8.512  1.2221  2.5609  0.6684
 1874SOL     OW17254   2.950   3.859   4.862 -0.2163 -0.0249  0.5343
 1874SOL    HW117255   2.994   3.944   4.857 -0.7096  0.3500  2.9636
 1874SOL    HW217256   2.913   3.857   4.950  2.3818 -2.6010  1.5792
 1875SOL     OW17257   3.035   3.547   1.600 -0.4723  0.3255 -0.0856
 1875SOL    HW117258   3.046   3.627   1.652 -1.8138  0.9859 -0.8119
 1875SOL    HW217259   2.985   3.583   1.527 -0.1073 -0.2303 -0.5977
 1876SOL     OW17260   1.883   3.979   3.661 -0.0732 -0.2099  0.5063
 1876SOL    HW117261   1.801   4.011   3.698  0.5672  0.8081  1.0505
 1876SOL    HW217262   1.880   4.016   3.573 -0.0790 -1.6908 -0.1247
 1877SOL     OW17263   1.226   0.287   7.245 -0.5184 -0.1851  0.3949
 1877SOL    HW117264   1.303   0.284   7.302  1.9498  0.6449 -2.8566
 1877SOL    HW217265   1.205   0.380   7.249 -1.2445 -0.3562  0.5571
 1878SOL     OW17266   0.360   0.581   3.429  0.4647 -0.3254 -0.0908
 1878SOL    HW117267   0.381   0.497   3.470  0.7103 -0.0659  0.3165
 1878SOL    HW217268   0.369   0.637   3.506  0.6952  1.7919 -1.6539
 1879SOL     OW17269   4.352   0.512   1.875 -0.1917 -0.4124  0.3855
 1879SOL    HW117270   4.388   0.557   1.799 -0.6822  2.7925  2.0650
 1879SOL    HW217271   4.359   0.586   1.935 -1.6181  1.7172 -2.0763
 1880SOL     OW17272   0.966   3.755   1.114  0.1335 -0.1730 -0.2986
 1880SOL    HW117273   0.895   3.707   1.157  0.9153 -1.0959 -0.0440
 1880SOL    HW217274   0.936   3.759   1.023  0.5733 -0.4920 -0.4563
 1881SOL     OW17275   4.695   2.867   6.465  0.2777  0.4483  0.6263
 1881SOL    HW117276   4.688   2.846   6.558 -1.3923  1.2468  0.6677
 1881SOL    HW217277   0.043   2.908   6.461  0.3773  0.2300  0.5277
 1882SOL     OW17278   4.162   2.991   2.265  0.3128  0.1935 -0.2068
 1882SOL    HW117279   4.191   3.040   2.188 -2.1222 -0.8540 -1.7925
 1882SOL    HW217280   4.124   2.915   2.221  0.1511 -0.3087  0.8054
 1883SOL     OW17281   2.787   4.568   7.375  0.4483  0.2485  0.0170
 1883SOL    HW117282   2.840   4.645   7.395 -0.2384  0.4179  1.2062
 1883SOL    HW217283   2.784   4.535   7.465  0.1491  0.4622  0.0853
 1884SOL     OW17284   4.040   2.625   8.516 -0.9599 -0.0684  0.1622
 1884SOL    HW117285   4.028   2.571   8.595  0.0734 -0.6090 -0.0578
 1884SOL    HW217286   4.000   2.562   8.456  0.1017 -0.8332  0.2533
 1885SOL     OW17287   4.663   2.390   6.066  0.3731 -0.1566  0.0393
 1885SOL    HW117288   0.010   2.401   6.026  0.5840  0.7898  0.7432
 1885SOL    HW217289   4.612   2.362   5.990  1.6458 -1.8420 -0.1912
 1886SOL     OW17290   1.780   1.760   8.370 -0.0278 -0.2387  0.1355
 1886SOL    HW117291   1.778   1.834   8.432 -1.5141 -1.9208  2.1085
 1886SOL    HW217292   1.864   1.773   8.327  0.1181  0.3627  0.5865
 1887SOL     OW17293   0.800   1.206   5.370  0.2617 -0.0161  0.1724
 1887SOL    HW117294   0.876   1.210   5.428  1.2882  0.9291 -1.2052
 1887SOL    HW217295   0.821   1.268   5.300 -0.7537 -0.8800 -0.9004
 1888SOL     OW17296   3.827   0.493   9.247 -0.5713  0.0302 -0.5119
 1888SOL    HW117297   3.783   0.573   9.221 -1.5738 -0.6425 -0.8857
 1888SOL    HW217298   3.859   0.513   9.335 -0.7376 -0.4819 -0.3372
 1889SOL     OW17299   4.105   2.467   3.278 -0.7719  0.3324 -0.1801
 1889SOL    HW117300   4.043   2.540   3.289 -1.1431  0.1688 -1.1298
 1889SOL    HW217301   4.173   2.517   3.233  1.2284 -0.7683  1.6901
 1890SOL     OW17302   3.369   1.028   0.111  0.8536 -0.3292  0.3603
 1890SOL    HW117303   3.464   1.044   0.111  0.8407 -0.3339  4.4579
 1890SOL    HW217304   3.377   0.947   0.061  0.8377  1.5831 -2.7432
 1891SOL     OW17305   4.273   2.915   9.114 -0.4858 -0.4433  0.3743
 1891SOL    HW117306   4.368   2.916   9.109 -0.5373 -1.4499 -0.7374
 1891SOL    HW217307   4.257   2.855   9.041  1.5405 -0.3395 -0.1408
 1892SOL     OW17308   1.838   0.869   2.443 -0.1169  0.3598 -0.3269
 1892SOL    HW117309   1.804   0.840   2.528 -1.9991 -1.2111 -1.6090
 1892SOL    HW217310   1.829   0.964   2.448 -0.7011  0.2369  1.1896
 1893SOL     OW17311   2.485   3.926   4.049 -0.2530 -0.7998 -0.3794
 1893SOL    HW117312   2.579   3.923   4.028 -0.4116 -1.0146 -1.0628
 1893SOL    HW217313   2.469   3.838   4.084 -0.1958  0.4063  2.6589
 1894SOL     OW17314   4.199   4.019  10.250  0.0685  0.3331  1.1421
 1894SOL    HW117315   4.106   4.009  10.227 -0.0791  0.3140  1.7467
 1894SOL    HW217316   4.185   4.049  10.340 -2.5565 -0.4840  1.0084
 1895SOL     OW17317   0.857   3.922   1.618  0.4625 -0.0160 -0.3124
 1895SOL    HW117318   0.765   3.893   1.624  0.7814 -0.7841  0.9701
 1895SOL    HW217319   0.883   3.906   1.709 -0.9292  0.1629  0.1289
 1896SOL     OW17320   1.527   1.117   4.154 -0.2970 -0.0211 -0.5627
 1896SOL    HW117321   1.500   1.041   4.205  1.0628 -1.0736 -1.4183
 1896SOL    HW217322   1.622   1.117   4.164 -0.0937  2.2380 -2.4102
 1897SOL     OW17323   2.380   1.345   3.319 -0.4869 -0.6201 -0.1150
 1897SOL    HW117324   2.359   1.339   3.225  0.0407  0.5032 -0.3033
 1897SOL    HW217325   2.470   1.318   3.334 -0.7966 -0.8769  1.2772
 1898SOL     OW17326   0.128   3.346   1.657  0.1370 -0.0123 -0.1526
 1898SOL    HW117327   0.223   3.335   1.645  0.5557  2.4274  0.9634
 1898SOL    HW217328   0.116   3.266   1.708 -3.0052  1.8591  2.0573
 1899SOL     OW17329   0.012   4.269   3.988 -0.3527  0.1772  0.1079
 1899SOL    HW117330   4.720   4.181   4.008 -1.6603  0.6097  0.0089
 1899SOL    HW217331   0.071   4.290   4.061 -0.5513  1.5340 -0.1281
 1900SOL     OW17332   3.707   4.034   3.635  0.0745  0.1380  0.1249
 1900SOL    HW117333   3.652   4.112   3.628 -0.0709 -0.0546 -0.8309
 1900SOL    HW217334   3.735   4.023   3.544  0.3051  2.9824 -0.1378
 1901SOL     OW17335   1.668   1.142   3.209  0.1950  0.0746 -0.4019
 1901SOL    HW117336   1.621   1.225   3.217  2.2987  1.1245  1.2771
 1901SOL    HW217337   1.750   1.152   3.258  0.9526  0.3411 -1.7233
 1902SOL     OW17338   0.734   2.953   6.614 -0.6005  0.5922  0.7545
 1902SOL    HW117339   0.760   2.876   6.564  0.8055  0.3274  1.8777
 1902SOL    HW217340   0.820   2.994   6.625  0.1172 -0.9472  0.8410
 1903SOL     OW17341   2.401   2.183   1.945  0.0724 -0.6342  0.4810
 1903SOL    HW117342   2.424   2.091   1.928 -1.1319 -1.0365  1.0271
 1903SOL    HW217343   2.474   2.219   1.994 -1.2997  0.5003  1.6983
 1904SOL     OW17344   3.076   3.885   1.148 -0.0047  0.1011 -0.1309
 1904SOL    HW117345   3.088   3.794   1.124 -1.0101 -0.0650  0.0019
 1904SOL    HW217346   3.071   3.930   1.064 -2.9145 -0.1494 -0.0857
 1905SOL     OW17347   3.728   2.308  10.037 -0.3801  0.0756  0.5187
 1905SOL    HW117348   3.710   2.312  10.131  1.0022  0.7256  0.7624
 1905SOL    HW217349   3.642   2.323   9.999 -0.7170 -1.6630  0.5584
 1906SOL     OW17350   1.014   2.107  12.766 -0.5112  0.1927 -0.1968
 1906SOL    HW117351   0.935   2.063  12.733  1.3458 -3.4551  0.2283
 1906SOL    HW217352   1.066   2.120  12.686 -0.8715 -0.2000 -0.4971
 1907SOL     OW17353   0.905   3.224  12.281  0.1470  0.2527 -0.0533
 1907SOL    HW117354   0.947   3.142  12.311 -0.3944 -0.4053 -1.1020
 1907SOL    HW217355   0.955   3.295  12.321 -1.2006  1.3093 -0.2890
 1908SOL     OW17356   2.168   0.493   4.485 -0.1104 -0.8093 -0.2761
 1908SOL    HW117357   2.235   0.562   4.483 -0.5754 -0.3779 -1.0881
 1908SOL    HW217358   2.089   0.545   4.501  1.8777  1.8783  0.8735
 1909SOL     OW17359   4.073   3.872   4.233 -0.8739  0.1300  0.4978
 1909SOL    HW117360   4.010   3.824   4.178  1.4622 -3.0726  0.6308
 1909SOL    HW217361   4.026   3.872   4.317 -3.1874  1.1618 -0.7726
 1910SOL     OW17362   0.188   3.389   5.889 -0.1197 -0.1632 -0.0829
 1910SOL    HW117363   0.184   3.443   5.968 -2.0660 -0.2373 -0.1345
 1910SOL    HW217364   0.114   3.330   5.902 -0.9499  1.2069  1.3358
 1911SOL     OW17365   1.017   0.796   3.533  0.6167 -0.0737  0.3946
 1911SOL    HW117366   1.053   0.774   3.447  1.3975  1.8004  0.2354
 1911SOL    HW217367   1.085   0.859   3.558 -0.1697  0.0205  2.3173
 1912SOL     OW17368   0.248   1.720   3.116 -0.1002 -0.7114 -0.3161
 1912SOL    HW117369   0.262   1.730   3.210  0.8821 -0.4303 -0.4913
 1912SOL    HW217370   0.308   1.783   3.077  0.3472 -0.4300  0.8310
 1913SOL     OW17371   2.562   1.215   2.711  0.3236  0.2598  0.3797
 1913SOL    HW117372   2.525   1.225   2.623 -0.5867  1.0503  0.8614
 1913SOL    HW217373   2.523   1.128   2.716 -0.6246  0.4793 -3.1673
 1914SOL     OW17374   0.913   3.264   0.051 -0.1617 -0.0881 -0.2197
 1914SOL    HW117375   0.878   3.353   0.047  1.9335  0.7883  1.2410
 1914SOL    HW217376   0.879   3.244   0.139  2.2882  2.5408  1.3321
 1915SOL     OW17377   2.693   2.523   0.999  0.4408 -0.5599 -0.5083
 1915SOL    HW117378   2.672   2.587   1.066 -3.2485 -1.3111 -0.9590
 1915SOL    HW217379   2.634   2.556   0.931 -0.0537  0.6363  0.5196
 1916SOL     OW17380   1.808   4.139  11.518  0.2439 -0.2889 -0.4116
 1916SOL    HW117381   1.766   4.114  11.601  0.9209 -0.9210 -0.2593
 1916SOL    HW217382   1.743   4.207  11.502  0.6606  0.7126  2.1544
 1917SOL     OW17383   2.311   0.760   4.479 -0.6258 -0.5516  0.3592
 1917SOL    HW117384   2.316   0.735   4.387  0.9767 -0.7285  0.5022
 1917SOL    HW217385   2.262   0.842   4.473  0.7613  0.3927  2.0617
 1918SOL     OW17386   1.838   2.338   6.914 -0.9030  0.2340 -0.5024
 1918SOL    HW117387   1.752   2.296   6.918  0.1574 -1.9699 -1.2516
 1918SOL    HW217388   1.883   2.280   6.853  0.1370  0.3705  0.1494
 1919SOL     OW17389   3.288   2.478  12.336  0.2316 -0.1290 -0.4459
 1919SOL    HW117390   3.357   2.466  12.271  1.5701 -0.8969  1.1377
 1919SOL    HW217391   3.242   2.557  12.307  2.1159  0.6447 -1.3475
 1920SOL     OW17392   1.246   0.046   3.669 -0.0202 -0.1909  0.6136
 1920SOL    HW117393   1.272   4.714   3.610 -0.3749 -0.8014  1.1813
 1920SOL    HW217394   1.205   0.001   3.743 -1.2931  0.1715  0.1209
 1921SOL     OW17395   3.034   0.295  16.269  0.0110  0.2899 -0.6693
 1921SOL    HW117396   3.002   0.207  16.289  0.7550  0.5263  1.5583
 1921SOL    HW217397   3.044   0.317  16.362  1.3377  1.4546 -1.0839
 1922SOL     OW17398   1.284   1.939  12.428 -0.5043 -0.0286 -0.3260
 1922SOL    HW117399   1.352   1.970  12.369 -2.1202  1.9437 -1.1879
 1922SOL    HW217400   1.247   2.023  12.456  2.0013  1.1529 -0.5460
 1923SOL     OW17401   2.089   3.807   4.408 -0.1766  0.4618  0.0747
 1923SOL    HW117402   1.996   3.831   4.399  0.9754  3.4483 -3.8168
 1923SOL    HW217403   2.138   3.888   4.395  1.0625 -0.5102 -1.3795
 1924SOL     OW17404   0.825   2.401   4.958  0.2172  0.5128 -0.1963
 1924SOL    HW117405   0.883   2.429   4.887  1.1449 -0.7469  0.0447
 1924SOL    HW217406   0.736   2.418   4.929 -1.1126 -2.0189  2.3578
 1925SOL     OW17407   4.524   2.677   2.699  0.4023 -0.1614 -0.3803
 1925SOL    HW117408   4.485   2.680   2.786 -0.1826  1.6731 -0.7060
 1925SOL    HW217409   4.609   2.639   2.722 -0.0680 -0.1606  1.3847
 1926SOL     OW17410   2.974   3.275   3.454 -0.5442 -0.2864  0.1538
 1926SOL    HW117411   3.031   3.198   3.460 -2.3673 -1.8028 -1.9900
 1926SOL    HW217412   2.935   3.267   3.367 -0.1414 -1.9585  0.1390
 1927SOL     OW17413   3.010   4.559   3.219  0.1906  0.1263  0.4188
 1927SOL    HW117414   2.990   4.596   3.133  1.1986  1.0588  0.5768
 1927SOL    HW217415   2.944   4.490   3.221  3.0816 -2.5920  2.0997
 1928SOL     OW17416   3.191   1.109   8.752  0.3500  0.2141  0.4974
 1928SOL    HW117417   3.151   1.047   8.691  0.0366  0.5006  0.4129
 1928SOL    HW217418   3.263   1.059   8.792  1.2650  2.0324  1.1311
 1929SOL     OW17419   0.739   1.696   2.311 -0.0782 -0.0086 -0.1494
 1929SOL    HW117420   0.661   1.729   2.266  0.2000  0.8975  0.0371
 1929SOL    HW217421   0.771   1.786   2.320 -1.5179  0.5054 -0.2170
 1930SOL     OW17422   0.208   2.455   9.035  0.0555  0.4896  0.1021
 1930SOL    HW117423   0.237   2.405   9.112  2.1131  0.0566 -0.9621
 1930SOL    HW217424   0.276   2.522   9.034  1.1754 -0.6576 -1.1467
 1931SOL     OW17425   3.451   3.254   3.499  0.3292  0.4739 -0.0011
 1931SOL    HW117426   3.408   3.257   3.413  0.4918  1.3994 -0.0481
 1931SOL    HW217427   3.432   3.345   3.519  0.1650  0.8458 -1.8036
 1932SOL     OW17428   3.380   3.917   3.949  0.3212  0.5291  0.1626
 1932SOL    HW117429   3.359   3.948   4.036 -0.1069  1.5326 -0.3026
 1932SOL    HW217430   3.327   3.981   3.902 -0.3004  0.8012  1.2407
 1933SOL     OW17431   2.698   1.480  14.397 -0.1838 -0.1644 -0.4875
 1933SOL    HW117432   2.625   1.418  14.386 -0.5506  0.3977 -1.2710
 1933SOL    HW217433   2.654   1.564  14.409 -0.6001 -0.4603  0.0464
 1934SOL     OW17434   2.263   2.079   1.488  0.3332 -0.1067 -0.0275
 1934SOL    HW117435   2.295   2.161   1.450  0.1413  0.7698  1.7525
 1934SOL    HW217436   2.254   2.030   1.406  0.0535 -0.2293  0.0759
 1935SOL     OW17437   0.888   0.320  16.609  0.1616  0.3740 -0.2786
 1935SOL    HW117438   0.894   0.375  16.686  1.7719 -0.1742 -0.0028
 1935SOL    HW217439   0.966   0.345  16.559 -0.3852 -2.4438 -2.5594
 1936SOL     OW17440   2.332   2.599   3.781  0.5361 -0.0990  0.4182
 1936SOL    HW117441   2.388   2.579   3.856  1.9496  1.3527 -0.2466
 1936SOL    HW217442   2.394   2.643   3.724 -2.7832  2.2617 -1.3932
 1937SOL     OW17443   1.997   4.624   1.940  0.6754 -0.2309 -0.8955
 1937SOL    HW117444   1.980   4.715   1.916 -1.8292  0.0667  1.9055
 1937SOL    HW217445   2.071   4.591   1.890  0.3821 -1.2191 -0.6829
 1938SOL     OW17446   2.309   1.666   3.158  0.6409 -0.2902  0.2991
 1938SOL    HW117447   2.213   1.665   3.151  0.5957 -2.2397  1.0001
 1938SOL    HW217448   2.330   1.576   3.130  1.1061  0.1653 -0.8259
 1939SOL     OW17449   2.272   2.987   0.951  0.3153 -0.0806 -0.2770
 1939SOL    HW117450   2.309   3.041   0.881 -1.0923 -0.1128 -1.0470
 1939SOL    HW217451   2.239   3.052   1.012  1.7297 -0.2190  0.6403
 1940SOL     OW17452   2.193   3.290  16.093 -0.4466  0.7430  0.0818
 1940SOL    HW117453   2.198   3.208  16.044  2.3123 -0.5114  2.4499
 1940SOL    HW217454   2.219   3.345  16.019 -2.1333  1.3521 -0.0473
 1941SOL     OW17455   3.931   4.222   3.695  0.5218 -0.1563 -0.3629
 1941SOL    HW117456   3.992   4.208   3.767 -1.7005  0.7758  1.6894
 1941SOL    HW217457   3.942   4.145   3.639 -2.7947 -0.8249 -0.1081
 1942SOL     OW17458   2.307   1.397  16.116 -0.0711 -0.0307  0.3555
 1942SOL    HW117459   2.232   1.425  16.064 -1.3159 -1.7166  1.2490
 1942SOL    HW217460   2.349   1.340  16.050 -0.7945 -0.2243  0.0651
 1943SOL     OW17461   0.627   0.440  17.689 -0.1819 -0.3201  0.6486
 1943SOL    HW117462   0.589   0.377  17.628 -0.6137  0.0568  0.5278
 1943SOL    HW217463   0.549   0.480  17.726 -0.0072 -0.5851  1.3029
 1944SOL     OW17464   0.265   1.259  10.592  0.1916  0.7150  0.1460
 1944SOL    HW117465   0.338   1.320  10.581  0.2149  0.8630  1.1039
 1944SOL    HW217466   0.197   1.323  10.611  0.4869  1.5333 -1.5291
 1945SOL     OW17467   2.806   1.326   2.010  0.0357  0.3683 -0.2369
 1945SOL    HW117468   2.848   1.409   2.033  2.7971 -0.7383 -1.3336
 1945SOL    HW217469   2.722   1.352   1.970 -1.6265 -0.9782  2.3804
 1946SOL     OW17470   1.603   4.444   9.061  0.0786  0.1853  0.2368
 1946SOL    HW117471   1.643   4.523   9.027  0.6876 -0.3408 -0.2770
 1946SOL    HW217472   1.668   4.384   9.024  0.3092 -0.6808  1.9843
 1947SOL     OW17473   0.683   0.976  16.018 -0.5376 -0.3156 -0.1027
 1947SOL    HW117474   0.660   1.069  16.019  1.3570  0.1527  0.7274
 1947SOL    HW217475   0.767   0.972  15.973 -0.7467 -1.5246 -0.3863
 1948SOL     OW17476   0.939   2.768  15.446 -0.4174 -0.3805  0.4593
 1948SOL    HW117477   0.942   2.754  15.351 -1.5301 -2.5589  0.7206
 1948SOL    HW217478   0.845   2.754  15.460 -0.9526  2.5467 -0.3473
 1949SOL     OW17479   1.166   2.838   7.526  0.5807 -0.3609 -0.4385
 1949SOL    HW117480   1.145   2.895   7.452 -0.5869 -1.4863 -0.9568
 1949SOL    HW217481   1.213   2.890   7.592 -2.0385  0.7664  0.5467
 1950SOL     OW17482   2.866   3.259   4.888 -0.5903 -0.2947 -0.2220
 1950SOL    HW117483   2.942   3.280   4.834  0.4456 -2.8169  0.2481
 1950SOL    HW217484   2.813   3.331   4.854 -0.3788  0.7989  1.7452
 1951SOL     OW17485   2.766   3.835  12.538 -0.5361  0.6912  0.9323
 1951SOL    HW117486   2.841   3.875  12.494  0.8224  1.3734  3.8595
 1951SOL    HW217487   2.734   3.786  12.462  1.0900 -0.0964  0.7610
 1952SOL     OW17488   3.521   4.651   4.222 -0.0053 -0.0227  0.2135
 1952SOL    HW117489   3.493   4.683   4.137  2.1173 -1.2797 -0.9731
 1952SOL    HW217490   3.610   4.683   4.231 -0.4015  0.9668  0.5389
 1953SOL     OW17491   0.314   0.069   1.144 -0.7089  0.4871 -0.0577
 1953SOL    HW117492   0.336   0.079   1.237  0.5456 -1.4219 -0.1627
 1953SOL    HW217493   0.220   0.052   1.150 -0.2056 -2.4747 -0.6701
 1954SOL     OW17494   0.263   1.161   2.024 -0.2593  0.0858 -0.3616
 1954SOL    HW117495   0.278   1.114   1.942 -3.0545 -0.0962 -0.7519
 1954SOL    HW217496   0.190   1.222   2.013  1.4576  2.5248  1.7828
 1955SOL     OW17497   0.940   0.156   6.445  0.3016 -0.6180  0.9579
 1955SOL    HW117498   1.011   0.193   6.497  3.0671 -2.4655 -1.5053
 1955SOL    HW217499   0.875   0.140   6.513 -1.5946  0.0397 -0.7047
 1956SOL     OW17500   1.484   0.945   6.029  0.1702 -0.3724 -0.1607
 1956SOL    HW117501   1.477   0.996   6.109 -1.1261 -1.2205  0.2666
 1956SOL    HW217502   1.467   1.015   5.965  3.0076 -0.1979 -0.7125
 1957SOL     OW17503   1.538   0.886  14.815 -0.0657 -0.3351  0.0621
 1957SOL    HW117504   1.467   0.822  14.822 -0.4408  0.3792  2.8516
 1957SOL    HW217505   1.619   0.839  14.833  0.5912  1.4626  1.7510
 1958SOL     OW17506   4.474   2.728   7.366 -0.0592  1.1137  0.1844
 1958SOL    HW117507   4.433   2.714   7.281  0.2193  1.2320  0.0271
 1958SOL    HW217508   4.558   2.772   7.350  0.0275  0.4015 -1.3628
 1959SOL     OW17509   1.285   3.934   2.247 -0.7358  0.1695 -0.3008
 1959SOL    HW117510   1.198   3.893   2.251 -0.9411  0.9400  3.0927
 1959SOL    HW217511   1.260   4.019   2.209 -1.0682  0.2479  0.0935
 1960SOL     OW17512   0.622   4.631   1.541 -0.0357  0.3495 -0.0669
 1960SOL    HW117513   0.650   4.550   1.498 -0.5221 -0.0670  0.4031
 1960SOL    HW217514   0.687   4.695   1.512  0.5795  0.0714  0.6936
 1961SOL     OW17515   3.549   4.224   7.882  0.2090  0.0966  0.2828
 1961SOL    HW117516   3.458   4.198   7.896 -0.4342  1.1401 -2.0220
 1961SOL    HW217517   3.555   4.274   7.963  3.3520 -0.4941  0.4046
 1962SOL     OW17518   4.313   0.079  10.761  0.4774  0.0516 -0.3329
 1962SOL    HW117519   4.409   0.075  10.760  0.3098 -4.0351  1.4639
 1962SOL    HW217520   4.305   0.162  10.808  2.4606  0.7367 -1.2083
 1963SOL     OW17521   4.545   1.643  10.116  0.0940 -0.5233 -0.1377
 1963SOL    HW117522   4.580   1.557  10.094  1.9233  0.1939 -0.0347
 1963SOL    HW217523   4.467   1.625  10.168 -0.7260 -0.5485 -1.3940
 1964SOL     OW17524   3.695   1.907   6.735  0.3939  0.3758 -0.3243
 1964SOL    HW117525   3.680   2.001   6.726 -0.6511  0.2487  0.1755
 1964SOL    HW217526   3.768   1.908   6.797  1.5008 -2.0404 -1.5811
 1965SOL     OW17527   4.158   0.017   1.635 -0.5604  0.4547  1.3101
 1965SOL    HW117528   4.235   4.701   1.617 -2.1948 -1.6547  0.8088
 1965SOL    HW217529   4.203   0.088   1.681  1.2023 -1.1558  2.0580
 1966SOL     OW17530   1.129   3.673   2.056  0.0372 -0.2757 -0.4007
 1966SOL    HW117531   1.163   3.656   2.144 -1.2605  1.6895  0.4774
 1966SOL    HW217532   1.035   3.681   2.072  0.0282 -1.6901  0.2836
 1967SOL     OW17533   3.304   2.048   1.581  0.7045  0.2161  0.4757
 1967SOL    HW117534   3.318   2.056   1.676  2.0757  1.9758  0.1387
 1967SOL    HW217535   3.213   2.022   1.580  1.1103 -1.1244 -0.9349
 1968SOL     OW17536   0.319   3.211  12.159  0.1071 -0.1916 -0.3923
 1968SOL    HW117537   0.350   3.161  12.234  2.7703  1.9397 -0.0913
 1968SOL    HW217538   0.402   3.249  12.130 -0.1901  1.5459  1.0940
 1969SOL     OW17539   1.040   4.336   9.508 -0.1785 -0.3991  0.2625
 1969SOL    HW117540   1.093   4.390   9.450 -0.3184 -1.7809 -1.1475
 1969SOL    HW217541   0.996   4.273   9.451 -1.2499 -0.3151  0.9902
 1970SOL     OW17542   0.580   0.234  12.685  0.2629 -0.1917 -0.3116
 1970SOL    HW117543   0.605   0.286  12.762  0.7344  1.6390 -1.7305
 1970SOL    HW217544   0.648   0.168  12.700 -1.2747 -1.6577  0.1779
 1971SOL     OW17545   4.687   2.765   2.297  0.0523 -0.2953 -0.2318
 1971SOL    HW117546   4.715   2.814   2.220 -0.9257 -2.8132 -2.1844
 1971SOL    HW217547   0.009   2.801   2.362  0.0300  0.5456 -0.6813
 1972SOL     OW17548   2.106   0.870   6.163  0.5247 -0.2079  0.3329
 1972SOL    HW117549   2.097   0.905   6.252 -0.2053  1.6341 -0.4717
 1972SOL    HW217550   2.100   0.778   6.187  0.2721  0.0465  1.2505
 1973SOL     OW17551   0.151   3.485  13.836 -0.3417 -0.5880 -0.3031
 1973SOL    HW117552   0.062   3.475  13.869  0.0551  0.7085  1.1985
 1973SOL    HW217553   0.170   3.566  13.885 -1.0086  0.4623 -1.7663
 1974SOL     OW17554   2.573   0.502  16.537  0.1321  0.2162  0.2067
 1974SOL    HW117555   2.507   0.493  16.469 -0.9281  0.6832  1.1926
 1974SOL    HW217556   2.611   0.415  16.524 -0.4560 -0.2763  1.8280
 1975SOL     OW17557   4.165   3.321   3.809  0.1384 -0.0419 -0.5806
 1975SOL    HW117558   4.158   3.234   3.770 -2.4994 -0.0710 -0.0512
 1975SOL    HW217559   4.076   3.356   3.812  0.3615  0.3442  1.1749
 1976SOL     OW17560   4.089   4.110   0.426 -0.3496  0.2421 -0.0817
 1976SOL    HW117561   4.040   4.125   0.345 -1.9894 -1.9521  0.4899
 1976SOL    HW217562   4.020   4.078   0.484 -0.5794 -0.9417 -1.0062
 1977SOL     OW17563   1.566   3.295  10.733 -0.5736 -0.2171 -0.8582
 1977SOL    HW117564   1.526   3.326  10.651 -1.0478  0.8536 -0.2285
 1977SOL    HW217565   1.656   3.328  10.728 -1.0143  1.1879  0.3519
 1978SOL     OW17566   3.919   2.833   9.103  0.2488 -0.2260  0.0036
 1978SOL    HW117567   3.991   2.858   9.046  0.7931  0.9526  1.1906
 1978SOL    HW217568   3.913   2.898   9.174 -0.5756 -0.6397  0.3067
 1979SOL     OW17569   0.726   1.015   4.066  0.8975  0.4978  0.1944
 1979SOL    HW117570   0.637   1.045   4.047  1.0138  0.0241 -1.0344
 1979SOL    HW217571   0.704   0.923   4.062  0.3496  0.6222  0.4133
 1980SOL     OW17572   3.572   2.658   9.977  0.5083 -0.3799  0.4132
 1980SOL    HW117573   3.647   2.718   9.973  1.3541 -1.4031  0.9270
 1980SOL    HW217574   3.556   2.651  10.071 -1.1626 -0.9886  0.0864
 1981SOL     OW17575   4.660   1.614  13.766  0.0249  0.5152 -0.0613
 1981SOL    HW117576   4.584   1.647  13.814 -1.3316 -0.5368 -1.4717
 1981SOL    HW217577   4.658   1.518  13.772  1.3873  0.5259  0.5439
 1982SOL     OW17578   1.268   0.116   0.424  0.7000  0.2190 -0.9665
 1982SOL    HW117579   1.317   0.156   0.496 -1.5030 -0.2764  0.8056
 1982SOL    HW217580   1.301   0.155   0.343  0.6247 -2.5715 -2.3442
 1983SOL     OW17581   0.930   3.309   4.996 -0.0479 -0.6064 -0.0523
 1983SOL    HW117582   0.886   3.232   4.960 -0.8132 -0.1642 -0.0518
 1983SOL    HW217583   0.922   3.303   5.091 -0.1326  0.5132  0.0104
 1984SOL     OW17584   0.503   2.157   6.674 -0.2824  0.0624  0.5471
 1984SOL    HW117585   0.427   2.109   6.707 -1.1337  1.6333  0.8950
 1984SOL    HW217586   0.571   2.093   6.696  2.4677  2.3765 -1.1730
 1985SOL     OW17587   0.761   2.268   9.399  0.2013  0.1796  0.4314
 1985SOL    HW117588   0.750   2.220   9.481 -0.3764 -0.0679  0.2107
 1985SOL    HW217589   0.667   2.266   9.380  0.6423  1.0432 -1.8737
 1986SOL     OW17590   2.719   0.239   2.522 -0.2922 -0.3675  0.6377
 1986SOL    HW117591   2.723   0.329   2.491  3.1523 -0.4916  0.7788
 1986SOL    HW217592   2.785   0.188   2.474  0.5504  0.7268  0.6485
 1987SOL     OW17593   1.180   4.182   2.193  0.4922  0.4451  0.1160
 1987SOL    HW117594   1.092   4.209   2.218 -0.1828 -0.8174 -0.8755
 1987SOL    HW217595   1.175   4.233   2.112  2.2026  1.4721  0.6609
 1988SOL     OW17596   1.579   2.329   7.001  0.7365 -0.2122 -0.8049
 1988SOL    HW117597   1.528   2.279   7.064  1.5354  0.3915  0.3262
 1988SOL    HW217598   1.599   2.407   7.053 -2.5234  0.5018 -0.6644
 1989SOL     OW17599   1.249   0.141   9.221  0.3118  0.3179  0.2448
 1989SOL    HW117600   1.244   0.226   9.176  0.0333 -0.0805 -0.4886
 1989SOL    HW217601   1.320   0.097   9.174  1.1928  0.7401  1.2037
 1990SOL     OW17602   0.916   1.488   8.699  0.1878 -0.1184 -0.2226
 1990SOL    HW117603   0.897   1.404   8.741  1.5071 -0.9477 -1.3251
 1990SOL    HW217604   0.960   1.540   8.767 -0.6966  1.0062 -0.4992
 1991SOL     OW17605   2.112   3.976   3.243  0.2572  0.4725 -0.0959
 1991SOL    HW117606   2.082   4.054   3.290  1.5738  1.3903 -0.7793
 1991SOL    HW217607   2.045   3.968   3.174 -0.2405  0.3311  0.4069
 1992SOL     OW17608   1.815   1.749  13.168  0.0754  0.0282 -0.0105
 1992SOL    HW117609   1.852   1.678  13.116  0.4302 -0.6653  1.1881
 1992SOL    HW217610   1.779   1.796  13.093 -2.8368 -2.2161 -0.0104
 1993SOL     OW17611   3.973   4.504  13.960  0.3489 -0.1127  0.0958
 1993SOL    HW117612   3.987   4.424  13.908  0.2499  0.0783 -0.2216
 1993SOL    HW217613   3.967   4.462  14.046 -2.0204  0.1925  0.0720
 1994SOL     OW17614   0.205   4.590   3.832 -0.2109  0.5831  0.3440
 1994SOL    HW117615   0.251   4.666   3.796 -1.7236  0.5954 -1.5851
 1994SOL    HW217616   0.116   4.604   3.799  0.7470  2.1173 -1.5788
 1995SOL     OW17617   1.530   3.927  11.311  0.0091 -0.4767 -0.4984
 1995SOL    HW117618   1.615   3.959  11.280  1.3134 -1.5537  2.0187
 1995SOL    HW217619   1.469   3.955  11.242  0.0923  1.3290  0.1507
 1996SOL     OW17620   2.177   2.053   7.994  0.4660  0.2110 -0.0203
 1996SOL    HW117621   2.152   2.133   7.947 -4.9407  0.4148  3.1685
 1996SOL    HW217622   2.241   2.093   8.052 -0.2916  1.3110  0.0680
 1997SOL     OW17623   2.158   2.552   7.482 -0.1305 -0.0253 -0.0039
 1997SOL    HW117624   2.069   2.562   7.447  0.4105  1.5600 -0.9220
 1997SOL    HW217625   2.207   2.549   7.400  0.8507  0.3605  0.5654
 1998SOL     OW17626   0.522   1.876   1.955  0.5208 -0.3003  0.5166
 1998SOL    HW117627   0.514   1.930   1.876  0.1597 -0.0767  0.7054
 1998SOL    HW217628   0.432   1.887   1.986 -0.2524  1.4181 -2.3224
 1999SOL     OW17629   2.594   3.476   8.310  0.1979 -0.0250 -0.2081
 1999SOL    HW117630   2.602   3.401   8.369 -2.3550  0.1168  0.3257
 1999SOL    HW217631   2.554   3.445   8.229  1.9547 -0.3579 -0.9494
 2000SOL     OW17632   0.359   3.040   7.049 -0.5623 -0.2139  0.6415
 2000SOL    HW117633   0.430   3.074   6.995 -0.4966 -0.9153  0.2765
 2000SOL    HW217634   0.347   2.957   7.002 -1.0589 -1.1059  2.3154
 2001SOL     OW17635   1.477   4.232  11.297 -0.1077 -0.0131  0.1470
 2001SOL    HW117636   1.518   4.283  11.367 -2.4066  0.4365  1.1955
 2001SOL    HW217637   1.545   4.227  11.231 -0.8298  0.9248 -0.6793
 2002SOL     OW17638   2.402   3.223   1.992  0.4006  0.1432 -0.2128
 2002SOL    HW117639   2.403   3.179   1.907 -0.4811  2.4111 -1.3847
 2002SOL    HW217640   2.484   3.272   1.996  1.1700 -1.1026 -0.6075
 2003SOL     OW17641   0.177   0.009   6.497  0.2591 -0.5358 -0.3429
 2003SOL    HW117642   0.222   0.086   6.462 -0.1961 -0.9342 -1.8364
 2003SOL    HW217643   0.172   4.692   6.419 -0.4716 -1.7181  0.5436
 2004SOL     OW17644   4.130   1.642   5.064 -0.2226  0.4113 -0.1958
 2004SOL    HW117645   4.160   1.553   5.046 -0.4790 -0.0608  1.6972
 2004SOL    HW217646   4.138   1.689   4.981  0.9397 -0.8820 -0.7985
 2005SOL     OW17647   2.461   0.647  17.366  0.2880  0.1072 -0.1457
 2005SOL    HW117648   2.368   0.639  17.386  0.5915  0.8527  1.5943
 2005SOL    HW217649   2.469   0.601  17.283 -0.5793 -0.2731 -0.0149
 2006SOL     OW17650   3.482   0.156  10.747 -0.5353 -0.3542 -0.4174
 2006SOL    HW117651   3.513   0.140  10.836 -0.9892  1.2270  0.0141
 2006SOL    HW217652   3.485   0.251  10.747 -0.7839 -0.3429 -1.3577
 2007SOL     OW17653   2.842   0.362   9.027  0.1151 -0.1893  0.0115
 2007SOL    HW117654   2.847   0.293   8.961 -0.3795 -1.6741  1.4936
 2007SOL    HW217655   2.923   0.411   9.011 -0.2048 -0.1540 -1.4500
 2008SOL     OW17656   3.159   3.166   2.365  0.0458 -0.3298 -0.5956
 2008SOL    HW117657   3.105   3.177   2.286 -0.9543 -0.3182  0.0833
 2008SOL    HW217658   3.242   3.190   2.323  0.0095  1.4805  0.3519
 2009SOL     OW17659   1.753   2.732   3.715 -0.0640 -0.4636  0.4861
 2009SOL    HW117660   1.842   2.751   3.744  0.5980  0.7543 -2.3484
 2009SOL    HW217661   1.735   2.685   3.796 -1.8904 -1.6533 -0.5955
 2010SOL     OW17662   0.178   3.292  14.631 -0.3352 -0.4450 -0.1739
 2010SOL    HW117663   0.260   3.309  14.679 -0.5289  0.5461 -0.2004
 2010SOL    HW217664   0.210   3.216  14.583 -0.0162 -1.5337  1.7473
 2011SOL     OW17665   0.106   4.244   2.281  0.1677 -0.0232  0.6876
 2011SOL    HW117666   0.081   4.306   2.350 -0.6950  0.0748  0.2952
 2011SOL    HW217667   0.082   4.294   2.203  0.8552  0.1644  0.6011
 2012SOL     OW17668   3.960   0.647   2.771  0.2854 -0.0922 -0.5719
 2012SOL    HW117669   3.939   0.571   2.824  2.7520  0.5403  1.3345
 2012SOL    HW217670   3.908   0.722   2.800  2.4819  0.8632  0.9219
 2013SOL     OW17671   3.081   0.044   9.085 -0.5708  0.1307 -0.1999
 2013SOL    HW117672   3.149   0.054   9.017  1.0414 -1.1358  1.2365
 2013SOL    HW217673   3.112   4.708   9.137  0.7815  0.2824 -0.7897
 2014SOL     OW17674   0.390   2.817   1.728 -0.0401  0.3615  0.0572
 2014SOL    HW117675   0.411   2.907   1.702 -1.1379  0.7250  0.4263
 2014SOL    HW217676   0.457   2.764   1.685  0.4448  1.9770 -1.1812
 2015SOL     OW17677   1.715   0.165   0.587  0.2340 -0.5621 -0.0201
 2015SOL    HW117678   1.784   0.116   0.631  0.7812 -1.5272 -1.9508
 2015SOL    HW217679   1.710   0.237   0.650  1.7585 -1.3649  1.0176
 2016SOL     OW17680   0.751   1.495   0.314  0.1433  0.6286 -0.3836
 2016SOL    HW117681   0.825   1.540   0.355  0.4556 -2.3280  2.2833
 2016SOL    HW217682   0.689   1.538   0.373 -0.3935 -3.4069  2.0542
 2017SOL     OW17683   2.713   1.504   2.341 -0.4136 -0.2329 -0.0496
 2017SOL    HW117684   2.751   1.591   2.326  3.9081 -2.0554  0.3628
 2017SOL    HW217685   2.619   1.513   2.357 -0.4414  0.2584 -0.4833
 2018SOL     OW17686   0.170   2.446   5.591  0.5647 -1.0328  0.2117
 2018SOL    HW117687   0.250   2.494   5.616  1.0296 -1.0005 -1.3123
 2018SOL    HW217688   0.140   2.417   5.677  0.6124 -0.9053  0.2720
 2019SOL     OW17689   0.011   2.915   6.772  0.0865  0.3116  0.1709
 2019SOL    HW117690   4.688   2.930   6.844 -2.3782 -1.7738 -1.4765
 2019SOL    HW217691   0.057   2.996   6.752 -0.9614  0.4810 -1.5221
 2020SOL     OW17692   1.550   3.474   3.306  0.0849  0.0548  0.3899
 2020SOL    HW117693   1.487   3.455   3.236 -0.3784  0.1026  0.7935
 2020SOL    HW217694   1.594   3.388   3.310 -1.9158 -1.0044 -0.2525
 2021SOL     OW17695   4.242   4.449   3.372 -0.5322  0.1855 -0.2988
 2021SOL    HW117696   4.180   4.417   3.438  0.0232 -0.0707  0.1032
 2021SOL    HW217697   4.320   4.396   3.390  0.0168  0.6289 -1.3860
 2022SOL     OW17698   0.105   0.169   6.129 -0.3100  0.3057  0.2070
 2022SOL    HW117699   0.137   0.086   6.162  0.9345  1.7187  2.5360
 2022SOL    HW217700   0.051   0.131   6.059  0.0863  0.2252 -0.0541
 2023SOL     OW17701   0.737   1.445   4.881  0.5110  0.2824 -0.0404
 2023SOL    HW117702   0.741   1.381   4.953 -1.9805 -0.0709 -0.2204
 2023SOL    HW217703   0.732   1.388   4.804 -2.0579 -2.0114  1.8124
 2024SOL     OW17704   3.782   2.565   4.184  0.0322  0.0034  1.1430
 2024SOL    HW117705   3.732   2.488   4.211 -2.3450  0.8265 -0.8797
 2024SOL    HW217706   3.718   2.617   4.135  1.1220  0.5052  0.2457
 2025SOL     OW17707   4.660   0.130  14.331  0.4251 -0.6313 -0.0839
 2025SOL    HW117708   4.699   0.110  14.416  0.8456  0.9343  0.0760
 2025SOL    HW217709   4.595   0.060  14.321 -0.5121  0.3572 -0.9845
 2026SOL     OW17710   4.597   2.132  16.780  0.6199 -0.4163 -0.0800
 2026SOL    HW117711   4.626   2.047  16.749 -2.5683 -1.2198 -0.8238
 2026SOL    HW217712   4.675   2.186  16.772 -0.2834  0.7209 -1.2434
 2027SOL     OW17713   2.852   1.317   4.059 -0.0849 -0.1297 -0.3767
 2027SOL    HW117714   2.828   1.374   3.986  2.5372  1.0262 -0.3217
 2027SOL    HW217715   2.802   1.353   4.133  0.2764  0.0824 -0.2337
 2028SOL     OW17716   2.082   1.160   4.979 -0.1827 -0.4964 -0.1898
 2028SOL    HW117717   2.122   1.075   4.962  0.1667 -0.0685 -1.4998
 2028SOL    HW217718   2.093   1.169   5.074  2.3079  0.2062 -0.5405
 2029SOL     OW17719   4.210   0.095  16.249  0.5154  0.4316  0.2323
 2029SOL    HW117720   4.278   0.071  16.186 -0.3370  1.3070 -1.0302
 2029SOL    HW217721   4.244   0.174  16.291  0.0164 -0.3433  2.0742
 2030SOL     OW17722   4.725   3.453   4.342  0.1113 -0.6006  0.4239
 2030SOL    HW117723   4.711   3.509   4.418 -0.0797 -0.1802  0.0770
 2030SOL    HW217724   0.017   3.510   4.272 -1.9577  1.8922  1.5275
 2031SOL     OW17725   0.601   4.063   2.307  0.6824  0.3992  0.8441
 2031SOL    HW117726   0.635   4.152   2.300  1.5924 -0.1661 -1.8558
 2031SOL    HW217727   0.510   4.081   2.284  0.7699  0.4780  0.5637
 2032SOL     OW17728   1.914   3.892   8.671  0.1393  0.3827 -0.3191
 2032SOL    HW117729   1.852   3.936   8.611  1.1985 -0.2040 -1.8491
 2032SOL    HW217730   1.962   3.828   8.619 -0.4871 -0.2892 -0.0618
 2033SOL     OW17731   4.700   0.432  15.327 -0.0742  0.1033  0.5104
 2033SOL    HW117732   4.628   0.371  15.341 -1.2327  1.1088 -1.1414
 2033SOL    HW217733   0.045   0.386  15.337 -0.7829 -0.7524  2.3610
 2034SOL     OW17734   0.895   1.077  13.486 -0.4634  0.1376  0.5344
 2034SOL    HW117735   0.863   1.142  13.423  0.5630  0.7198  0.6074
 2034SOL    HW217736   0.936   1.020  13.422  0.7490  3.2403 -1.4502
 2035SOL     OW17737   3.518   3.051   8.390 -0.0653  0.1700  0.1048
 2035SOL    HW117738   3.457   3.119   8.419 -0.4427  0.6034 -1.7215
 2035SOL    HW217739   3.604   3.073   8.427  1.2308 -1.6543 -1.8749
 2036SOL     OW17740   4.328   3.591   2.070  0.0158 -0.4288 -0.0379
 2036SOL    HW117741   4.377   3.672   2.059 -0.9561  0.1883  0.2887
 2036SOL    HW217742   4.243   3.623   2.040  0.5239  1.2097  0.2814
 2037SOL     OW17743   1.057   2.282   1.917  0.4911  0.0878  0.0762
 2037SOL    HW117744   1.039   2.251   2.005  2.2769 -1.4010 -0.0758
 2037SOL    HW217745   1.055   2.378   1.920  2.2943  0.1058  0.4918
 2038SOL     OW17746   0.884   2.698  15.151 -0.1368  0.1916  0.1437
 2038SOL    HW117747   0.911   2.614  15.188  0.2696  0.8573  1.3745
 2038SOL    HW217748   0.972   2.734  15.138 -0.9311  1.4220 -1.7840
 2039SOL     OW17749   4.648   2.611   9.078  0.3289 -0.2496 -0.1328
 2039SOL    HW117750   4.630   2.581   8.989  3.0862 -0.7969 -0.5060
 2039SOL    HW217751   0.004   2.613   9.063  0.2969  0.7112 -0.2180
 2040SOL     OW17752   0.277   4.007  10.029 -0.9196 -0.0963 -0.0199
 2040SOL    HW117753   0.278   3.971  10.117  1.5859  0.6158  0.2537
 2040SOL    HW217754   0.194   3.976   9.995 -0.5676  0.2404 -1.1995
 2041SOL     OW17755   3.686   2.092  15.530 -0.2018 -0.8047 -0.3986
 2041SOL    HW117756   3.717   2.045  15.607 -1.4085 -0.4451  0.2977
 2041SOL    HW217757   3.674   2.015  15.474  2.2011 -0.6023 -1.1945
 2042SOL     OW17758   0.995   1.594   9.358 -0.2633 -0.0234  0.7008
 2042SOL    HW117759   0.991   1.546   9.441 -2.1687 -1.4125 -0.1737
 2042SOL    HW217760   0.941   1.541   9.299  1.4720 -0.5721 -0.3794
 2043SOL     OW17761   1.823   1.650   1.889 -0.1969  0.4452 -0.4533
 2043SOL    HW117762   1.895   1.607   1.935 -1.6116 -2.3310 -0.8206
 2043SOL    HW217763   1.836   1.743   1.909 -1.6585  0.8805 -1.4778
 2044SOL     OW17764   1.496   3.942   4.249 -0.0331 -0.7874 -0.5861
 2044SOL    HW117765   1.561   3.878   4.222  2.2885  0.2467  2.5124
 2044SOL    HW217766   1.516   4.015   4.190 -0.8756 -0.7619 -0.8485
 2045SOL     OW17767   4.688   2.079   3.866 -0.3574 -0.7053  0.0300
 2045SOL    HW117768   4.668   2.060   3.774 -0.2152 -2.8305  0.4244
 2045SOL    HW217769   4.601   2.072   3.906 -0.3681  1.9608  0.4225
 2046SOL     OW17770   1.092   3.736   9.003  0.0826  0.3253  0.0414
 2046SOL    HW117771   1.083   3.807   8.939 -0.6554 -1.1645 -1.4960
 2046SOL    HW217772   1.071   3.779   9.086  0.6993 -0.3328  0.5376
 2047SOL     OW17773   0.615   4.645   2.898  0.2122 -0.2633 -0.2247
 2047SOL    HW117774   0.556   4.710   2.938  0.7073  0.4189 -0.6045
 2047SOL    HW217775   0.654   4.599   2.973 -0.3786  1.2843  1.0216
 2048SOL     OW17776   2.069   1.390   1.636 -0.2930 -0.1480 -0.0707
 2048SOL    HW117777   2.154   1.388   1.681 -0.8124 -0.4683  0.9118
 2048SOL    HW217778   2.097   1.345   1.557  1.6669  1.4889 -0.3138
 2049SOL     OW17779   0.635   0.348   7.496  0.5988 -0.1913  0.1449
 2049SOL    HW117780   0.622   0.255   7.482  0.4491 -0.1727  0.1647
 2049SOL    HW217781   0.561   0.364   7.554  1.1543 -1.6299  1.2303
 2050SOL     OW17782   2.070   0.572   6.230  0.2627  0.3566 -0.4560
 2050SOL    HW117783   2.082   0.577   6.325 -1.8738 -2.7517 -0.0013
 2050SOL    HW217784   2.091   0.480   6.217  0.8878  0.2190  1.5124
 2051SOL     OW17785   1.310   2.190   9.201 -0.1518  0.0752 -0.1572
 2051SOL    HW117786   1.218   2.199   9.179  0.6803  5.2152 -1.7549
 2051SOL    HW217787   1.304   2.156   9.290  0.5672  2.4854  0.8425
 2052SOL     OW17788   1.842   2.759  10.301 -0.1051  0.1169 -0.2114
 2052SOL    HW117789   1.882   2.841  10.329 -0.1066 -0.3718  1.1964
 2052SOL    HW217790   1.819   2.714  10.382 -0.5085  0.6499 -0.0361
 2053SOL     OW17791   2.933   3.238   1.342  0.2148 -0.0502  0.7509
 2053SOL    HW117792   2.952   3.145   1.360 -0.1670  0.0342  1.5860
 2053SOL    HW217793   2.847   3.241   1.383 -0.2703 -1.2009 -0.1629
 2054SOL     OW17794   1.996   0.371  16.202  0.2105  0.3048 -0.2300
 2054SOL    HW117795   2.046   0.420  16.136  0.6975  2.3264  1.6693
 2054SOL    HW217796   1.929   0.435  16.226 -0.5160 -1.0554  1.2808
 2055SOL     OW17797   2.280   4.205   5.021  0.8028 -0.4861 -0.5447
 2055SOL    HW117798   2.252   4.146   4.951  0.9117 -1.2674  0.0658
 2055SOL    HW217799   2.372   4.224   5.002  0.2800  0.1853 -2.3795
 2056SOL     OW17800   1.343   4.699   5.239 -0.3276 -0.3392  0.3067
 2056SOL    HW117801   1.435   4.678   5.253  0.2765  1.6314 -0.6829
 2056SOL    HW217802   1.343   0.045   5.194  0.4876  0.6099  2.1174
 2057SOL     OW17803   1.858   4.459   4.760 -0.1829  0.4295 -0.1193
 2057SOL    HW117804   1.824   4.375   4.730  1.1276  0.2309 -1.0313
 2057SOL    HW217805   1.948   4.431   4.743 -0.1841  0.3764 -0.0395
 2058SOL     OW17806   2.398   0.112  13.355  0.2967  0.2677 -0.3717
 2058SOL    HW117807   2.347   0.111  13.274  0.7207 -0.9281 -0.6295
 2058SOL    HW217808   2.471   0.164  13.321  0.0768  1.4608  1.0164
 2059SOL     OW17809   3.440   1.082  14.262  0.0800 -0.2542 -0.2719
 2059SOL    HW117810   3.403   1.163  14.229  0.3769  0.8112  1.9966
 2059SOL    HW217811   3.522   1.114  14.300 -0.3826  1.0636 -0.4131
 2060SOL     OW17812   4.199   1.621   4.366  0.2311 -0.5296 -0.2327
 2060SOL    HW117813   4.167   1.696   4.417  0.7938  0.8801 -1.9455
 2060SOL    HW217814   4.193   1.545   4.424 -1.0012  0.7514  1.3378
 2061SOL     OW17815   1.809   1.976   8.547 -0.3531  0.3908  0.3551
 2061SOL    HW117816   1.871   1.994   8.618 -0.5647 -0.4794  0.7663
 2061SOL    HW217817   1.727   1.989   8.595  1.1136 -0.0830  2.9696
 2062SOL     OW17818   1.420   1.476   3.875 -0.0027  0.4067 -0.0908
 2062SOL    HW117819   1.436   1.570   3.881 -1.8719  0.7648 -0.5731
 2062SOL    HW217820   1.347   1.464   3.814 -0.2688  1.7301 -0.0158
 2063SOL     OW17821   2.846   1.052  12.735  0.4781  0.6404  0.4340
 2063SOL    HW117822   2.828   0.987  12.804 -3.5489  1.2623 -0.0189
 2063SOL    HW217823   2.757   1.082  12.715  0.6511 -0.7096 -2.3051
 2064SOL     OW17824   4.011   0.084   9.916 -0.2865  0.3944 -0.4485
 2064SOL    HW117825   3.947   0.033   9.866  0.0048 -0.3483 -0.0488
 2064SOL    HW217826   3.957   0.096   9.994 -0.0917 -2.5737  0.1136
 2065SOL     OW17827   2.339   4.019   3.091  0.3792 -0.2460  0.6753
 2065SOL    HW117828   2.269   3.981   3.143  1.7740 -1.6447  1.5640
 2065SOL    HW217829   2.295   4.040   3.009  1.5895  0.1900  0.1307
 2066SOL     OW17830   3.701   2.117   9.520 -0.3686 -0.2106  0.5360
 2066SOL    HW117831   3.709   2.169   9.600 -1.1144  2.0419 -0.8194
 2066SOL    HW217832   3.789   2.082   9.528 -0.0201  0.3107 -0.9340
 2067SOL     OW17833   2.734   4.579   7.653  0.2850  0.9327 -0.3241
 2067SOL    HW117834   2.766   4.652   7.707  1.9490  1.1692 -1.6228
 2067SOL    HW217835   2.684   4.536   7.723  0.6694 -0.0020 -0.6245
 2068SOL     OW17836   3.950   4.313  15.188  0.2681  0.7705  0.3751
 2068SOL    HW117837   3.975   4.232  15.234 -2.4476 -0.3138 -0.0696
 2068SOL    HW217838   3.992   4.304  15.102 -0.1559  1.4475  0.0987
 2069SOL     OW17839   0.502   1.155  17.380  0.3212 -0.3607  0.6099
 2069SOL    HW117840   0.499   1.063  17.354 -2.3900  0.2890 -1.3597
 2069SOL    HW217841   0.510   1.190  17.292  1.4295 -1.3051  0.3354
 2070SOL     OW17842   3.114   0.537   7.118 -0.1679  0.6333  0.4464
 2070SOL    HW117843   3.056   0.593   7.066  0.5754  1.8762  0.9649
 2070SOL    HW217844   3.092   0.462   7.063 -0.4285  2.9271 -2.5883
 2071SOL     OW17845   3.495   4.650   2.014 -0.8531  0.6196  0.1998
 2071SOL    HW117846   3.454   4.597   1.945 -1.5298 -1.3810  2.1573
 2071SOL    HW217847   3.423   4.656   2.076 -0.6748  0.9078  0.3781
 2072SOL     OW17848   3.303   2.032   6.077 -0.1364 -0.4816 -0.1272
 2072SOL    HW117849   3.235   2.021   6.009  0.0177 -1.3068 -0.1497
 2072SOL    HW217850   3.374   1.994   6.026  0.9468  0.9574  0.3237
 2073SOL     OW17851   3.319   4.705   5.031  0.2743 -0.4941  0.1580
 2073SOL    HW117852   3.345   0.059   5.033  1.3409 -0.7477 -2.9482
 2073SOL    HW217853   3.359   4.687   4.946  1.7133 -0.8063  0.8997
 2074SOL     OW17854   0.407   1.509   4.227 -0.3077  0.3798 -0.2521
 2074SOL    HW117855   0.376   1.548   4.145  1.3898 -2.6663 -2.3403
 2074SOL    HW217856   0.500   1.495   4.209 -0.1879  0.9235 -0.0725
 2075SOL     OW17857   1.856   3.663  14.884 -0.1206 -0.3093  0.2253
 2075SOL    HW117858   1.951   3.653  14.885  0.0524  1.3849  0.3739
 2075SOL    HW217859   1.837   3.728  14.952 -0.3695  0.9104 -1.0200
 2076SOL     OW17860   2.446   2.487   7.206 -0.8227  0.4711 -0.3001
 2076SOL    HW117861   2.445   2.458   7.115  1.4211  1.4809 -0.6364
 2076SOL    HW217862   2.357   2.521   7.221 -2.0648 -3.4124  1.3323
 2077SOL     OW17863   2.473   3.454  15.862 -0.1959 -0.6691 -0.2130
 2077SOL    HW117864   2.377   3.462  15.857 -0.0921  0.7400  0.3359
 2077SOL    HW217865   2.486   3.369  15.819 -3.3180 -1.8479  1.1463
 2078SOL     OW17866   1.022   4.573   8.345  0.0087 -0.5782  0.3390
 2078SOL    HW117867   1.013   4.563   8.250 -3.7532  1.9599  0.4349
 2078SOL    HW217868   0.937   4.607   8.372 -0.4174 -0.5149 -1.0938
 2079SOL     OW17869   3.644   0.626   3.070 -0.2411  0.7329  0.0870
 2079SOL    HW117870   3.646   0.585   2.984 -0.6669  2.3516 -0.6881
 2079SOL    HW217871   3.558   0.667   3.061  0.7520  2.3338 -2.0100
 2080SOL     OW17872   3.899   2.922   7.446 -0.5879  0.4961  0.3554
 2080SOL    HW117873   3.874   2.844   7.497 -0.7532  1.0374  1.1107
 2080SOL    HW217874   3.850   2.992   7.491 -0.3854  1.0804 -0.3440
 2081SOL     OW17875   0.989   0.913   8.168 -0.2041  0.0162  0.0050
 2081SOL    HW117876   1.026   0.922   8.080 -1.6626 -2.9347 -0.8930
 2081SOL    HW217877   0.897   0.921   8.145 -0.1949  0.3045  0.0642
 2082SOL     OW17878   2.917   0.681   5.964 -0.1947 -0.3436 -0.1935
 2082SOL    HW117879   2.916   0.592   5.999  1.3196  0.2997  1.4838
 2082SOL    HW217880   3.011   0.700   5.970 -1.0718  3.9415  0.4702
 2083SOL     OW17881   0.280   4.329   3.882 -0.4879 -0.2923  0.4449
 2083SOL    HW117882   0.194   4.289   3.880  0.1121 -1.4905 -1.3799
 2083SOL    HW217883   0.259   4.421   3.864  2.6687  0.0738 -1.3927
 2084SOL     OW17884   2.403   2.873   4.317  0.2774  0.6915  0.4054
 2084SOL    HW117885   2.380   2.846   4.406 -3.0612  2.9116  0.2348
 2084SOL    HW217886   2.491   2.907   4.327  0.1948  0.8544  0.5767
 2085SOL     OW17887   3.926   4.269   2.598 -0.6011  0.5756  0.0064
 2085SOL    HW117888   3.834   4.246   2.580  0.3335 -1.7656 -1.7963
 2085SOL    HW217889   3.936   4.354   2.557  0.4746  1.2016  1.5816
 2086SOL     OW17890   1.209   2.665   4.835  0.3206 -0.3196  0.2744
 2086SOL    HW117891   1.284   2.699   4.884 -0.0566  0.4701  0.3112
 2086SOL    HW217892   1.242   2.692   4.749  0.7504 -1.2640  0.1472
 2087SOL     OW17893   0.241   1.894   8.162 -0.0970 -0.0139 -0.2818
 2087SOL    HW117894   0.177   1.955   8.198 -0.0126  0.4899 -0.9798
 2087SOL    HW217895   0.223   1.809   8.203 -2.1808  0.7840  0.4317
 2088SOL     OW17896   0.667   2.124   9.647  0.1793  0.7251 -0.0968
 2088SOL    HW117897   0.722   2.152   9.720  0.2312  0.9621 -0.2269
 2088SOL    HW217898   0.609   2.201   9.645 -2.1746 -1.0462 -0.3872
 2089SOL     OW17899   3.650   0.181   5.221  0.2551 -0.0390  0.0934
 2089SOL    HW117900   3.603   0.144   5.297 -0.0898  0.8002  0.2878
 2089SOL    HW217901   3.571   0.191   5.167 -1.6734 -1.1092  2.7085
 2090SOL     OW17902   1.916   0.443   4.115  0.1078 -0.0561  1.1336
 2090SOL    HW117903   1.866   0.518   4.081  0.9172  0.4076  0.9590
 2090SOL    HW217904   1.858   0.373   4.085  0.1023  1.2092 -1.9127
 2091SOL     OW17905   2.564   1.557  12.815 -0.1721  0.6655 -0.3574
 2091SOL    HW117906   2.541   1.649  12.823 -2.6930  0.1050 -1.2632
 2091SOL    HW217907   2.659   1.568  12.808 -0.1197  1.1880  1.2373
 2092SOL     OW17908   4.316   0.994   1.229 -0.3237 -0.3044  0.2488
 2092SOL    HW117909   4.256   1.012   1.156 -0.4940  0.8758  0.6735
 2092SOL    HW217910   4.336   1.085   1.250  0.5819  0.0586 -2.1800
 2093SOL     OW17911   2.419   0.238   7.339 -0.1810  0.1867 -0.2134
 2093SOL    HW117912   2.380   0.152   7.327  0.5823 -0.3609  1.1884
 2093SOL    HW217913   2.346   0.290   7.372  1.1135  1.0005  1.3761
 2094SOL     OW17914   0.291   2.456   4.336  0.0730 -0.0593  0.0066
 2094SOL    HW117915   0.196   2.456   4.349  0.0225 -0.0781 -0.3528
 2094SOL    HW217916   0.321   2.461   4.427  0.6579  1.3576 -0.2642
 2095SOL     OW17917   3.659   2.121   5.259 -0.3330  0.0438  0.6581
 2095SOL    HW117918   3.609   2.124   5.341 -0.3627 -0.5169  0.6553
 2095SOL    HW217919   3.674   2.027   5.263  1.0623  0.2127 -0.8906
 2096SOL     OW17920   0.208   3.537   8.006 -0.3043 -0.1821 -0.4577
 2096SOL    HW117921   0.234   3.538   7.914 -0.4852 -1.4364 -0.5250
 2096SOL    HW217922   0.202   3.445   8.033 -0.0618 -0.0402  0.0742
 2097SOL     OW17923   3.901   2.518  16.913  0.2190  0.2425 -0.5453
 2097SOL    HW117924   3.990   2.550  16.929  0.0282  1.0855 -1.1897
 2097SOL    HW217925   3.911   2.431  16.951  0.2343  1.0805  1.4238
 2098SOL     OW17926   4.276   2.215   4.456 -0.2971  0.1495 -0.5367
 2098SOL    HW117927   4.336   2.289   4.459 -1.9332  1.4335  0.6932
 2098SOL    HW217928   4.327   2.137   4.476  0.8487  1.0704  0.1196
 2099SOL     OW17929   1.250   1.912   4.210 -0.0294 -0.0813 -0.3243
 2099SOL    HW117930   1.303   1.980   4.253 -2.8632 -0.0727  3.2028
 2099SOL    HW217931   1.304   1.839   4.240 -0.4331  0.1839  1.0678
 2100SOL     OW17932   3.351   1.951   1.336 -0.2546 -0.0925  0.3168
 2100SOL    HW117933   3.341   2.009   1.411  1.1731  0.8941 -0.2592
 2100SOL    HW217934   3.271   1.975   1.289  0.3313  0.6333 -0.3060
 2101SOL     OW17935   4.630   3.431   6.443  0.4189 -0.1070 -0.1150
 2101SOL    HW117936   4.718   3.421   6.477  0.5829 -3.4825 -1.5096
 2101SOL    HW217937   4.584   3.353   6.476 -1.6577  0.3145 -1.9529
 2102SOL     OW17938   0.495   1.079   0.120 -0.3431 -0.0832 -0.1595
 2102SOL    HW117939   0.563   1.144   0.103 -2.1755  1.7317 -0.5442
 2102SOL    HW217940   0.516   1.071   0.213  0.9510  1.8806 -0.2774
 2103SOL     OW17941   1.068   4.097   7.114  0.4899  0.5074 -0.0168
 2103SOL    HW117942   1.057   4.123   7.206  0.5382  2.4913 -0.5952
 2103SOL    HW217943   1.078   4.002   7.124  3.5129  0.8711  0.4454
 2104SOL     OW17944   3.898   2.796   6.855  0.4640  0.5035  0.1827
 2104SOL    HW117945   3.887   2.846   6.936 -0.8231  2.0375 -0.9583
 2104SOL    HW217946   3.910   2.868   6.794 -0.9133  0.2131 -0.4217
 2105SOL     OW17947   2.987   4.673   1.364 -0.0893 -0.0115  0.5717
 2105SOL    HW117948   3.059   4.664   1.426  0.0113 -0.6386  0.3661
 2105SOL    HW217949   2.944   4.588   1.352 -1.9284  0.8460  1.0051
 2106SOL     OW17950   0.142   0.477   8.453  0.0528 -0.7525  0.7453
 2106SOL    HW117951   0.049   0.455   8.444 -0.0595 -0.6243  1.5646
 2106SOL    HW217952   0.153   0.463   8.547  1.4110 -2.9785  0.2667
 2107SOL     OW17953   0.877   3.992   7.662  0.1822 -0.1793  0.3991
 2107SOL    HW117954   0.871   3.959   7.751  0.5055 -1.1035  0.0759
 2107SOL    HW217955   0.917   3.909   7.634  2.0557  1.4268 -1.7529
 2108SOL     OW17956   0.384   2.588   3.928 -0.2067  0.0941  0.0949
 2108SOL    HW117957   0.435   2.583   4.008 -0.2056  0.4865  0.1182
 2108SOL    HW217958   0.297   2.563   3.958 -0.8014  2.7342  0.5986
 2109SOL     OW17959   3.337   2.500   5.091 -0.1307 -0.2007 -0.3631
 2109SOL    HW117960   3.264   2.465   5.141  1.6294 -1.1669  1.5258
 2109SOL    HW217961   3.388   2.420   5.078  0.6206  0.1615  0.3984
 2110SOL     OW17962   0.614   3.777  12.266  0.1650  0.5237 -0.0393
 2110SOL    HW117963   0.540   3.718  12.250  0.8534 -0.4428  0.3566
 2110SOL    HW217964   0.631   3.749  12.356 -1.1957 -0.2751 -0.0345
 2111SOL     OW17965   1.062   0.939  14.935  0.0155 -0.4960  0.3431
 2111SOL    HW117966   1.011   1.011  14.899  0.6447 -0.9342 -1.3990
 2111SOL    HW217967   1.116   0.914  14.860 -0.9865 -0.0841 -0.5083
 2112SOL     OW17968   0.116   2.733   8.886 -0.5167 -0.1184  0.8624
 2112SOL    HW117969   0.194   2.789   8.879 -1.1039  0.8042  1.6458
 2112SOL    HW217970   0.157   2.667   8.941  0.0322 -0.4952 -0.0104
 2113SOL     OW17971   4.537   1.261   4.417 -0.3598 -0.0414  0.1321
 2113SOL    HW117972   4.484   1.208   4.475 -0.5609 -1.0533 -0.9641
 2113SOL    HW217973   4.602   1.200   4.382 -1.1738  0.0588 -1.5277
 2114SOL     OW17974   4.195   3.515   7.114  0.1333  0.3371 -0.3938
 2114SOL    HW117975   4.207   3.427   7.152  3.0636  1.8143  2.0820
 2114SOL    HW217976   4.124   3.551   7.169  2.0010  1.9261  0.9573
 2115SOL     OW17977   4.008   1.065   2.035  0.1166  0.5552 -0.4167
 2115SOL    HW117978   3.995   0.989   1.977  0.5460 -0.6528  1.0855
 2115SOL    HW217979   3.923   1.106   2.023 -0.5313 -0.8443 -0.5819
 2116SOL     OW17980   1.125   4.414   7.178 -0.1731 -0.5850  0.7119
 2116SOL    HW117981   1.185   4.380   7.112 -1.5685  0.2543 -0.9934
 2116SOL    HW217982   1.039   4.378   7.156 -0.3335 -1.4599  2.7550
 2117SOL     OW17983   2.270   0.655  15.375 -0.0986 -0.3333 -0.3409
 2117SOL    HW117984   2.196   0.595  15.365  0.0677  0.0029 -3.5958
 2117SOL    HW217985   2.244   0.724  15.314 -2.3378  0.0767  1.1106
 2118SOL     OW17986   2.890   2.775   3.165  0.1585 -0.6099 -0.0149
 2118SOL    HW117987   2.831   2.788   3.091  0.4719 -1.1904 -0.3674
 2118SOL    HW217988   2.975   2.781   3.121  0.7576 -2.0014  0.9461
 2119SOL     OW17989   0.318   4.189   6.640 -0.4907 -0.3257 -0.8204
 2119SOL    HW117990   0.339   4.208   6.548 -0.2861  0.0508 -0.6969
 2119SOL    HW217991   0.361   4.261   6.686  0.4929 -1.2135 -0.3232
 2120SOL     OW17992   1.239   2.660  13.007  0.0187  0.5498  0.7727
 2120SOL    HW117993   1.214   2.568  13.018 -2.0716  0.8750 -1.2882
 2120SOL    HW217994   1.266   2.678  13.097 -4.5220  0.3391  2.2115
 2121SOL     OW17995   3.270   1.738   8.243  0.3378 -0.1090 -0.4409
 2121SOL    HW117996   3.357   1.700   8.233  1.1520  1.1730  1.7975
 2121SOL    HW217997   3.210   1.665   8.258  0.9472 -0.3749  0.6554
 2122SOL     OW17998   1.172   1.748  12.740  0.5831  0.6913  0.7142
 2122SOL    HW117999   1.124   1.707  12.811  0.2344 -1.3779 -0.7175
 2122SOL    HW218000   1.162   1.836  12.777 -1.3304  0.8698 -0.2124
 2123SOL     OW18001   0.780   4.478   1.205 -0.2448 -0.1769 -0.0871
 2123SOL    HW118002   0.705   4.466   1.263 -0.4422  0.0258 -0.2990
 2123SOL    HW218003   0.758   4.411   1.140 -1.0230 -1.3683  1.4175
 2124SOL     OW18004   1.301   2.422   5.264 -0.1122 -0.0217 -0.2174
 2124SOL    HW118005   1.225   2.479   5.255 -0.0960 -0.1352 -1.0745
 2124SOL    HW218006   1.317   2.421   5.359 -0.3691 -0.3815 -0.1800
 2125SOL     OW18007   4.717   0.011   2.276  0.5557 -0.5224 -0.2079
 2125SOL    HW118008   0.000   0.049   2.361  0.8385 -0.1323 -0.4521
 2125SOL    HW218009   4.699   0.090   2.225 -0.5356 -1.5924 -1.4783
 2126SOL     OW18010   2.900   0.081   7.419 -0.0726  0.3846 -0.2281
 2126SOL    HW118011   2.899   0.107   7.327  1.4093 -1.1819 -0.6966
 2126SOL    HW218012   2.961   0.145   7.457 -1.0340  1.7298 -0.9698
 2127SOL     OW18013   0.146   1.453   6.491  0.2864  0.3327  0.1737
 2127SOL    HW118014   0.237   1.460   6.462  0.0112 -1.3675 -1.0894
 2127SOL    HW218015   0.154   1.418   6.579 -1.7054 -2.0500 -0.5932
 2128SOL     OW18016   1.450   4.669   8.805 -0.1098 -0.4042  0.5793
 2128SOL    HW118017   1.491   4.708   8.882  2.7049 -2.3260  0.0321
 2128SOL    HW218018   1.492   4.721   8.737 -0.0840  0.2282  1.0818
 2129SOL     OW18019   0.520   4.497   6.368  0.5441  0.4984 -0.2471
 2129SOL    HW118020   0.545   4.489   6.460 -2.1057  1.0785  0.5085
 2129SOL    HW218021   0.527   4.591   6.351 -0.2453  0.5773 -0.1127
 2130SOL     OW18022   3.081   0.779   3.074 -0.0865 -0.0958 -0.1013
 2130SOL    HW118023   3.005   0.793   3.132 -1.0616 -1.4300 -1.0664
 2130SOL    HW218024   3.112   0.692   3.098 -0.4655  0.3236  1.9143
 2131SOL     OW18025   3.243   3.041  15.523 -0.0297  0.0748  0.0777
 2131SOL    HW118026   3.242   2.946  15.533  0.0311  0.1280  0.6162
 2131SOL    HW218027   3.186   3.042  15.446 -0.4662 -0.9128  0.3819
 2132SOL     OW18028   1.631   4.380   2.264  0.1184  0.5724  0.3909
 2132SOL    HW118029   1.711   4.433   2.261 -0.1230  1.0623  2.4937
 2132SOL    HW218030   1.668   4.293   2.268  1.2293  1.0319  0.0509
 2133SOL     OW18031   0.499   0.122   2.042  0.6235 -0.5599  0.6525
 2133SOL    HW118032   0.509   0.073   2.123  1.8740  1.1210  1.5066
 2133SOL    HW218033   0.504   0.212   2.074  1.5958 -0.4044  0.0713
 2134SOL     OW18034   1.955   4.545   2.488 -0.2275 -0.2565 -0.3548
 2134SOL    HW118035   2.009   4.622   2.468  0.0294 -0.4414 -0.3674
 2134SOL    HW218036   2.004   4.503   2.558  0.1602 -0.1942 -0.5866
 2135SOL     OW18037   3.928   0.884   4.985 -0.5479 -0.1063 -0.2791
 2135SOL    HW118038   4.020   0.906   4.973 -1.6417  2.1777 -4.6016
 2135SOL    HW218039   3.910   0.824   4.912 -0.9143 -1.5076  0.9530
 2136SOL     OW18040   3.799   3.557   3.111  0.9940  0.0236 -0.4590
 2136SOL    HW118041   3.848   3.483   3.147  0.7841 -0.6878 -1.6403
 2136SOL    HW218042   3.714   3.514   3.103  0.5604  0.8490 -0.3465
 2137SOL     OW18043   0.506   1.834   7.092  0.0339 -0.6652  0.6570
 2137SOL    HW118044   0.517   1.744   7.060  0.1815 -0.1876 -0.6621
 2137SOL    HW218045   0.418   1.844   7.055  0.7174 -1.6397 -1.2809
 2138SOL     OW18046   3.058   3.011  13.531  0.3794  0.1577 -0.0193
 2138SOL    HW118047   3.109   2.974  13.460 -1.2325  0.2938 -1.2533
 2138SOL    HW218048   2.978   2.962  13.511  0.5619 -0.0151 -0.3231
 2139SOL     OW18049   2.301   2.696  11.005 -0.3625 -0.3448  0.5097
 2139SOL    HW118050   2.287   2.640  10.929 -1.6671  1.3222 -0.4763
 2139SOL    HW218051   2.388   2.668  11.036 -0.1950 -0.0945  0.2682
 2140SOL     OW18052   4.088   2.202   8.846 -0.3097  0.1325 -0.4146
 2140SOL    HW118053   4.011   2.234   8.892 -0.4695 -0.5703 -0.1971
 2140SOL    HW218054   4.141   2.180   8.922 -2.2702 -0.4702  0.7662
 2141SOL     OW18055   0.924   3.402   3.061 -0.4120 -0.0931  0.5729
 2141SOL    HW118056   0.872   3.349   3.001 -2.2421  1.1440  1.0779
 2141SOL    HW218057   1.003   3.348   3.071 -0.9416 -0.7917  0.9453
 2142SOL     OW18058   4.469   2.177   7.345 -0.0843 -0.1061 -0.0723
 2142SOL    HW118059   4.483   2.168   7.251  1.8476 -2.8856  0.4911
 2142SOL    HW218060   4.545   2.229   7.369  0.3309 -0.3640 -0.8484
 2143SOL     OW18061   3.481   4.056   5.267  0.2386  0.5235 -0.4294
 2143SOL    HW118062   3.431   4.104   5.201 -0.0077  2.8949  1.4640
 2143SOL    HW218063   3.462   3.964   5.249  0.1738  0.6826 -1.1398
 2144SOL     OW18064   2.124   0.078  16.877  0.6955  0.0222 -0.0262
 2144SOL    HW118065   2.137   0.016  16.948 -1.7021  0.0041  0.3956
 2144SOL    HW218066   2.099   0.015  16.809 -1.5636 -0.1413  0.9474
 2145SOL     OW18067   2.355   2.891  13.348 -0.4585 -1.1620 -0.0613
 2145SOL    HW118068   2.427   2.828  13.357  0.0440 -0.2875  2.0144
 2145SOL    HW218069   2.373   2.940  13.428 -1.4906 -1.0484  0.1025
 2146SOL     OW18070   4.503   1.984   2.547 -0.1486 -0.3837  0.3165
 2146SOL    HW118071   4.547   1.941   2.620 -0.9127 -1.6675  0.0096
 2146SOL    HW218072   4.573   1.984   2.481 -0.4030  1.0730  0.0391
 2147SOL     OW18073   1.996   1.150   7.264 -0.0478  0.0388  0.1028
 2147SOL    HW118074   1.932   1.219   7.277 -2.5310 -2.4690  1.2440
 2147SOL    HW218075   2.042   1.172   7.345 -1.3517  0.5111  0.7139
 2148SOL     OW18076   2.593   4.600   9.365 -0.4073 -0.3664  0.5137
 2148SOL    HW118077   2.665   4.618   9.303 -0.6536  0.3446  0.4365
 2148SOL    HW218078   2.597   4.670   9.430 -1.1987  0.5108 -0.3973
 2149SOL     OW18079   2.782   4.086   6.128 -0.9122 -0.0425  0.2716
 2149SOL    HW118080   2.811   4.129   6.048  0.0705 -1.0174  0.0992
 2149SOL    HW218081   2.824   4.001   6.114  4.6563  2.8509 -0.4295
 2150SOL     OW18082   0.787   1.017   3.462 -0.0265  0.1717 -1.0351
 2150SOL    HW118083   0.855   0.955   3.488 -1.3510 -0.2027  1.4932
 2150SOL    HW218084   0.716   0.958   3.435 -0.6961  0.5672 -0.1424
 2151SOL     OW18085   4.427   0.732   7.845  0.1923  0.0422  0.4868
 2151SOL    HW118086   4.430   0.676   7.767 -1.6755  1.9780 -0.9555
 2151SOL    HW218087   4.385   0.674   7.909 -2.3738 -1.1865 -2.2988
 2152SOL     OW18088   3.238   2.330   5.890  0.0260  0.5544 -0.1205
 2152SOL    HW118089   3.306   2.294   5.947  0.9890 -1.3699 -2.4903
 2152SOL    HW218090   3.169   2.264   5.896  0.3221  0.2058 -0.5229
 2153SOL     OW18091   0.678   4.698  17.168  0.6227 -0.2275 -0.1893
 2153SOL    HW118092   0.609   4.641  17.134  1.5298  0.2120 -2.7854
 2153SOL    HW218093   0.699   4.681  17.259 -0.1181 -1.7582 -0.3130
 2154SOL     OW18094   1.240   0.166  13.021 -0.3381 -0.0459 -0.2854
 2154SOL    HW118095   1.210   0.226  13.090  0.9855  2.6241 -2.0183
 2154SOL    HW218096   1.300   0.220  12.969  0.5301 -2.1726 -1.4778
 2155SOL     OW18097   2.577   1.343   3.706  0.1034  0.3903 -0.9023
 2155SOL    HW118098   2.489   1.320   3.735  1.1399 -0.8409  1.2402
 2155SOL    HW218099   2.622   1.259   3.706 -0.1221  0.2699 -0.6699
 2156SOL     OW18100   0.824   0.910   5.382 -0.6203 -0.1290 -0.4357
 2156SOL    HW118101   0.888   0.949   5.322  0.3621  1.5223  1.7008
 2156SOL    HW218102   0.761   0.983   5.387 -0.9790 -0.4696 -0.0474
 2157SOL     OW18103   2.695   1.293   8.812  0.0316 -0.3828  0.1606
 2157SOL    HW118104   2.601   1.311   8.822  0.4465 -0.3852  4.4434
 2157SOL    HW218105   2.690   1.285   8.717 -0.5858  4.9538 -0.2331
 2158SOL     OW18106   3.354   3.917   5.783  0.3135  0.0559  0.0995
 2158SOL    HW118107   3.406   3.987   5.822  1.3009 -0.6953  0.1504
 2158SOL    HW218108   3.387   3.921   5.693 -0.2530 -2.4393 -0.2246
 2159SOL     OW18109   3.697   3.927  12.255 -0.7907 -0.0344  0.4676
 2159SOL    HW118110   3.692   3.984  12.178  2.4292 -2.7916 -1.8311
 2159SOL    HW218111   3.734   3.849  12.214 -1.4704 -0.6968  1.1129
 2160SOL     OW18112   0.989   0.187   8.283 -0.2948 -0.0569 -0.0756
 2160SOL    HW118113   0.926   0.259   8.291  0.4603  0.5458  0.4699
 2160SOL    HW218114   0.931   0.120   8.247 -1.4047 -0.0318  1.6525
 2161SOL     OW18115   0.524   3.623   5.413 -0.0384 -0.5607  0.1003
 2161SOL    HW118116   0.618   3.604   5.416  0.2886  1.0162 -0.1084
 2161SOL    HW218117   0.510   3.650   5.504  1.4442 -1.8442  0.7054
 2162SOL     OW18118   4.129   1.194   8.090  0.1587  0.3613  0.1753
 2162SOL    HW118119   4.079   1.253   8.035 -0.1299  0.6605  0.7549
 2162SOL    HW218120   4.221   1.214   8.073  0.1643  0.3489  0.1905
 2163SOL     OW18121   3.932   2.326   6.833  0.4042  0.1545  0.1584
 2163SOL    HW118122   3.902   2.385   6.902  1.3410  0.2877  0.4434
 2163SOL    HW218123   3.949   2.382   6.757 -0.9492 -0.6426 -0.7395
 2164SOL     OW18124   1.018   1.038   4.208 -0.0374 -0.3389 -0.7004
 2164SOL    HW118125   0.959   1.095   4.158  1.0713  0.5166 -1.0424
 2164SOL    HW218126   1.082   1.098   4.245  0.7243 -2.0075  0.6308
 2165SOL     OW18127   0.140   2.696   4.585  0.0078 -0.3080  0.1838
 2165SOL    HW118128   0.087   2.651   4.652  0.7840  0.3586  1.2474
 2165SOL    HW218129   0.214   2.636   4.577 -0.5024 -0.9446  0.1985
 2166SOL     OW18130   1.859   1.649   6.132  0.2130 -0.3637 -0.2055
 2166SOL    HW118131   1.910   1.689   6.203 -0.6749  0.4512 -0.0150
 2166SOL    HW218132   1.928   1.623   6.072  0.1976 -0.3937 -0.2104
 2167SOL     OW18133   1.050   0.307   6.872 -0.0689 -0.1944 -0.1296
 2167SOL    HW118134   1.025   0.393   6.837  1.6596  0.1264 -0.6014
 2167SOL    HW218135   1.036   0.327   6.964 -3.0651 -1.3647 -0.3599
 2168SOL     OW18136   2.766   4.015   6.630  0.7263 -0.3193 -0.5105
 2168SOL    HW118137   2.749   4.075   6.557 -0.0159  1.5529  1.2026
 2168SOL    HW218138   2.704   4.053   6.693  0.4640 -1.7087  0.0630
 2169SOL     OW18139   4.690   2.082   4.585 -0.2543 -0.2977  0.3933
 2169SOL    HW118140   4.655   1.999   4.552  1.2314 -1.3552  1.4937
 2169SOL    HW218141   4.683   2.144   4.512  1.8490  1.3297  1.5799
 2170SOL     OW18142   2.666   3.012   0.646 -0.5593 -0.0692  0.8207
 2170SOL    HW118143   2.646   3.064   0.724 -2.5593 -0.0570  0.3038
 2170SOL    HW218144   2.596   2.947   0.636  0.9578 -1.8875  1.9455
 2171SOL     OW18145   2.807   1.030   3.986 -0.0870 -0.5419  0.4140
 2171SOL    HW118146   2.897   1.038   4.018 -0.0200  1.7600 -0.4191
 2171SOL    HW218147   2.765   1.112   4.013 -0.5851 -1.8500  3.6002
 2172SOL     OW18148   0.223   1.244  15.392  0.7080  0.2236  0.0196
 2172SOL    HW118149   0.236   1.257  15.298 -0.0335  0.1010 -0.0982
 2172SOL    HW218150   0.266   1.158  15.396  0.1192  0.0537  2.8487
 2173SOL     OW18151   0.897   0.362   7.504  0.0270  0.0974  0.8527
 2173SOL    HW118152   0.802   0.357   7.491  0.2084 -1.5836  0.2353
 2173SOL    HW218153   0.915   0.303   7.576 -0.5357 -0.6879  0.3426
 2174SOL     OW18154   0.602   3.654   4.229 -0.2763  0.4347 -0.5083
 2174SOL    HW118155   0.645   3.602   4.297 -2.2735 -1.0536 -0.3803
 2174SOL    HW218156   0.669   3.717   4.201 -0.9755  0.9530 -1.0039
 2175SOL     OW18157   1.050   4.105  13.823 -0.1060  0.1424  0.1703
 2175SOL    HW118158   1.083   4.059  13.746 -0.9382 -0.0113 -0.0941
 2175SOL    HW218159   0.967   4.059  13.835  0.5371 -0.7818  1.0227
 2176SOL     OW18160   4.020   2.381   7.516 -0.0503 -0.0645 -0.1271
 2176SOL    HW118161   3.929   2.352   7.510 -0.1826  0.2454  0.3848
 2176SOL    HW218162   4.071   2.302   7.497  1.1386  0.2321  1.8792
 2177SOL     OW18163   2.445   0.478  17.154  0.3703  0.2361  0.0406
 2177SOL    HW118164   2.464   0.533  17.077 -0.6670  1.3953  0.6143
 2177SOL    HW218165   2.384   0.418  17.111 -0.1062  0.4972  0.3605
 2178SOL     OW18166   4.156   1.975   8.669 -0.0170  0.5256  0.4281
 2178SOL    HW118167   4.068   1.943   8.688  0.9704 -0.2501  3.8286
 2178SOL    HW218168   4.154   2.064   8.704 -0.1562 -0.0238  1.8150
 2179SOL     OW18169   4.374   1.307   8.259 -0.1483 -0.3934 -0.2456
 2179SOL    HW118170   4.440   1.245   8.227 -2.4219 -2.6813 -0.4633
 2179SOL    HW218171   4.350   1.270   8.344 -0.9131 -0.6136 -0.5596
 2180SOL     OW18172   2.038   3.773   0.001 -1.1200 -0.0968 -0.2384
 2180SOL    HW118173   2.013   3.857  17.715 -0.7997 -0.6319 -1.6785
 2180SOL    HW218174   2.099   3.793   0.071 -0.6496  0.3160 -0.7607
 2181SOL     OW18175   1.091   1.652   8.864  0.4330  0.4954 -0.1801
 2181SOL    HW118176   1.101   1.730   8.918 -1.5157  1.3930 -1.1174
 2181SOL    HW218177   1.157   1.669   8.797 -0.1576  1.9597 -0.3804
 2182SOL     OW18178   3.273   3.380  12.194  0.3837  0.3173  0.3118
 2182SOL    HW118179   3.216   3.332  12.133  1.1256 -0.2227  0.0435
 2182SOL    HW218180   3.230   3.357  12.277 -1.6189  0.6706 -0.6080
 2183SOL     OW18181   2.033   0.453   5.056 -0.2915 -0.1306  0.3984
 2183SOL    HW118182   2.100   0.521   5.046  0.9235 -1.5020 -0.9368
 2183SOL    HW218183   2.024   0.433   5.149  1.2533 -0.6222  0.4471
 2184SOL     OW18184   3.596   0.517  16.664 -0.0016  0.0212 -0.0953
 2184SOL    HW118185   3.668   0.571  16.695  1.6154 -2.5955  0.7132
 2184SOL    HW218186   3.517   0.566  16.686  1.2081  1.5503  0.8476
 2185SOL     OW18187   1.685   0.903   8.768  0.0038  0.5979 -0.4060
 2185SOL    HW118188   1.630   0.924   8.693  0.8167 -1.9183 -1.6754
 2185SOL    HW218189   1.679   0.992   8.805  1.0544  1.5108 -2.4347
 2186SOL     OW18190   0.781   3.204  11.671 -0.1953 -0.8553  0.3216
 2186SOL    HW118191   0.739   3.236  11.751 -1.4072 -0.0761 -0.6283
 2186SOL    HW218192   0.727   3.128  11.652  0.2237 -0.8766 -0.7702
 2187SOL     OW18193   0.577   0.015   4.339 -0.3626  0.3499 -0.2063
 2187SOL    HW118194   0.486   0.035   4.318 -1.1802 -1.7201  1.3669
 2187SOL    HW218195   0.561   4.701   4.417 -1.8285  0.4275 -0.4601
 2188SOL     OW18196   2.078   0.108  15.304  0.5691  0.3139  0.5582
 2188SOL    HW118197   2.148   0.161  15.341  1.6103  0.6148 -1.8585
 2188SOL    HW218198   2.047   0.055  15.377  1.4158 -2.6019 -1.2187
 2189SOL     OW18199   3.590   4.564   6.772 -0.1542  0.4072 -0.7578
 2189SOL    HW118200   3.501   4.589   6.749 -1.2055 -1.6394  0.9914
 2189SOL    HW218201   3.624   4.652   6.784  0.6206  0.0019  0.0460
 2190SOL     OW18202   1.436   2.651  15.911 -0.1701 -0.3095 -0.5613
 2190SOL    HW118203   1.496   2.634  15.838  0.9543 -1.4391  0.6168
 2190SOL    HW218204   1.367   2.696  15.862 -0.2565  1.3868  1.1443
 2191SOL     OW18205   1.497   2.523   6.511  0.5431 -0.8146  0.2105
 2191SOL    HW118206   1.467   2.481   6.592 -0.6751 -1.0524 -0.3623
 2191SOL    HW218207   1.592   2.517   6.519  0.8967 -2.1499 -4.7336
 2192SOL     OW18208   2.343   3.952  14.942 -0.1333 -0.0392  0.0012
 2192SOL    HW118209   2.349   3.972  15.036  1.4487  0.3969 -0.1992
 2192SOL    HW218210   2.249   3.965  14.927  0.4437  0.7182 -2.9813
 2193SOL     OW18211   1.750   0.916   6.893  0.3600  0.1301  0.2487
 2193SOL    HW118212   1.783   0.989   6.840  0.3607  0.8488  1.2350
 2193SOL    HW218213   1.830   0.864   6.897 -0.9094 -1.8791 -0.4954
 2194SOL     OW18214   1.814   3.752   7.591  0.5281 -0.6473  0.0790
 2194SOL    HW118215   1.869   3.762   7.669 -2.7923  0.3953  2.2960
 2194SOL    HW218216   1.774   3.838   7.576  3.8295  1.1529  1.7901
 2195SOL     OW18217   0.661   3.704   3.692  0.3085  0.2200 -0.2656
 2195SOL    HW118218   0.649   3.759   3.769  3.2298  0.8639 -0.2760
 2195SOL    HW218219   0.630   3.760   3.621  0.4668  0.1874 -0.3612
 2196SOL     OW18220   1.250   0.579   4.540 -0.8994  0.0588  0.1562
 2196SOL    HW118221   1.185   0.630   4.492 -2.2803  0.4785  2.4799
 2196SOL    HW218222   1.332   0.589   4.491 -1.2781  0.7606 -0.3233
 2197SOL     OW18223   1.000   2.956  12.362 -0.5522  0.0559  0.6310
 2197SOL    HW118224   1.024   2.934  12.452  1.3013 -1.5898 -0.2526
 2197SOL    HW218225   0.946   2.878  12.346  0.6153 -0.7220  0.4801
 2198SOL     OW18226   2.861   2.296   2.603  0.0996  0.0145 -0.2461
 2198SOL    HW118227   2.925   2.344   2.552 -0.3790 -1.3568 -2.1449
 2198SOL    HW218228   2.874   2.346   2.684 -3.1418  0.2477  0.1645
 2199SOL     OW18229   1.036   2.083   6.698  0.4065 -0.3657  0.7477
 2199SOL    HW118230   1.033   2.176   6.676 -0.7736  0.0122  2.5039
 2199SOL    HW218231   1.032   2.048   6.609 -0.4216 -1.4515  1.2110
 2200SOL     OW18232   2.769   2.029   4.228 -0.1479  0.2329 -0.1001
 2200SOL    HW118233   2.846   2.077   4.258 -0.4820  0.9366 -0.3637
 2200SOL    HW218234   2.711   2.103   4.212 -0.3729 -0.0543 -0.6319
 2201SOL     OW18235   3.309   0.245   7.292 -0.2771 -0.3080  0.1671
 2201SOL    HW118236   3.314   0.288   7.207 -0.1836 -3.7014 -1.5325
 2201SOL    HW218237   3.337   0.154   7.278  0.5079 -0.2288  1.1881
 2202SOL     OW18238   3.024   0.114   4.285 -0.3813  0.2471 -0.2308
 2202SOL    HW118239   2.934   0.143   4.301 -0.0026  2.1332 -1.6244
 2202SOL    HW218240   3.012   0.019   4.274  0.4979 -0.1292  2.0534
 2203SOL     OW18241   3.083   2.929   2.477  0.5445 -0.9293  0.3254
 2203SOL    HW118242   3.146   2.868   2.438  0.4682 -0.3980 -0.6271
 2203SOL    HW218243   3.102   3.015   2.439 -1.1318 -1.1879 -1.0898
 2204SOL     OW18244   1.117   1.758   7.692 -0.1804 -0.6101  0.2842
 2204SOL    HW118245   1.066   1.817   7.748  0.4375  0.7035 -0.5417
 2204SOL    HW218246   1.089   1.678   7.736  3.1005 -0.3426  2.9064
 2205SOL     OW18247   2.133   1.546   7.440  0.2379 -0.0264  0.0802
 2205SOL    HW118248   2.183   1.628   7.433  0.7422 -0.3883 -0.5749
 2205SOL    HW218249   2.117   1.519   7.349 -1.2247 -2.2307  0.9928
 2206SOL     OW18250   4.400   4.183   3.273  0.2772 -0.0819  0.1009
 2206SOL    HW118251   4.477   4.138   3.307 -0.5762 -0.1287  1.9440
 2206SOL    HW218252   4.442   4.234   3.203 -0.5198  0.1254 -0.2244
 2207SOL     OW18253   0.884   4.219   1.525  0.5172 -0.0205  0.5401
 2207SOL    HW118254   0.827   4.219   1.449 -1.7877  1.5927  2.2961
 2207SOL    HW218255   0.875   4.126   1.544 -1.4139  0.0222 -0.2106
 2208SOL     OW18256   2.704   4.537   4.157  0.1729  0.4846 -0.4226
 2208SOL    HW118257   2.633   4.508   4.099 -1.9654  2.2188  1.3565
 2208SOL    HW218258   2.766   4.465   4.154 -0.2333  0.1077  0.2588
 2209SOL     OW18259   1.086   3.528  10.359  0.3123  0.3412 -0.3317
 2209SOL    HW118260   1.060   3.488  10.276 -1.6761  1.2107 -0.1315
 2209SOL    HW218261   1.004   3.537  10.408 -0.6557 -0.0300 -1.8762
 2210SOL     OW18262   4.000   1.954  16.820 -0.3935 -0.6562 -0.6776
 2210SOL    HW118263   4.073   1.928  16.877 -0.8195  1.0925  0.6503
 2210SOL    HW218264   4.043   2.034  16.789  0.7850 -1.1047 -0.1954
 2211SOL     OW18265   2.766   0.264   8.210 -0.0249 -0.2088  0.1070
 2211SOL    HW118266   2.692   0.324   8.220  0.4102  0.0873  1.6570
 2211SOL    HW218267   2.810   0.270   8.295 -1.9230 -1.1919  1.1869
 2212SOL     OW18268   3.168   0.873  16.958  0.0666 -0.2590 -0.4816
 2212SOL    HW118269   3.194   0.965  16.970  1.6695 -0.4246 -2.7260
 2212SOL    HW218270   3.180   0.854  17.051 -1.6771  0.8754 -0.0255
 2213SOL     OW18271   3.964   4.176   1.492  0.6080  0.0878  0.2416
 2213SOL    HW118272   3.999   4.207   1.408  1.6493 -0.9052  0.3259
 2213SOL    HW218273   3.921   4.258   1.519  1.9306  1.1463 -0.8563
 2214SOL     OW18274   4.148   1.304   3.740 -0.2544 -0.1718 -0.1813
 2214SOL    HW118275   4.211   1.253   3.690  0.8089  2.8598 -1.9057
 2214SOL    HW218276   4.092   1.338   3.670 -0.3237  2.3093  1.0708
 2215SOL     OW18277   3.086   1.327  11.029  0.0704 -0.0948  0.0461
 2215SOL    HW118278   3.012   1.320  10.969 -2.5567 -1.5766  3.5527
 2215SOL    HW218279   3.063   1.301  11.117  0.7849 -0.6181  0.0772
 2216SOL     OW18280   2.753   0.504   2.409 -0.2710 -0.5383  0.5742
 2216SOL    HW118281   2.726   0.526   2.320  0.3033 -2.3082 -0.0459
 2216SOL    HW218282   2.664   0.497   2.445  0.5732  0.1881  2.7821
 2217SOL     OW18283   0.146   0.428   4.759  0.4217 -0.0107 -0.2860
 2217SOL    HW118284   0.177   0.518   4.746 -1.4321  0.9359  2.0176
 2217SOL    HW218285   0.072   0.424   4.698  1.0827 -1.0561 -1.0155
 2218SOL     OW18286   2.103   1.583   8.271 -0.3681  0.1195 -0.1696
 2218SOL    HW118287   2.045   1.507   8.265 -0.9126  0.4800  0.5796
 2218SOL    HW218288   2.181   1.530   8.253  0.0957  1.2609 -1.5140
 2219SOL     OW18289   0.612   4.208   2.737 -0.5341  0.3841  0.8773
 2219SOL    HW118290   0.554   4.265   2.786 -2.2036 -1.3222  0.9079
 2219SOL    HW218291   0.551   4.134   2.741 -0.2017 -0.0470 -1.5176
 2220SOL     OW18292   1.488   0.644   3.294 -0.1322  0.2212 -0.4904
 2220SOL    HW118293   1.480   0.734   3.262 -2.0109  0.3565  0.3375
 2220SOL    HW218294   1.398   0.627   3.322  0.2387 -0.7123  0.1558
 2221SOL     OW18295   3.786   0.468   8.645  0.1414 -0.0219  0.0641
 2221SOL    HW118296   3.769   0.467   8.739 -0.5404 -1.7222 -0.0865
 2221SOL    HW218297   3.751   0.381   8.629  2.0051 -1.2725  2.8086
 2222SOL     OW18298   2.073   0.028   3.718 -0.5380 -0.3165  0.5426
 2222SOL    HW118299   1.977   0.034   3.714 -0.5866 -2.8691 -2.0409
 2222SOL    HW218300   2.079   0.117   3.753  2.6095 -0.2366 -0.1798
 2223SOL     OW18301   2.348   4.395   5.651 -0.3564 -0.3595  0.0284
 2223SOL    HW118302   2.419   4.331   5.644  0.6268  0.9697 -2.1316
 2223SOL    HW218303   2.340   4.392   5.746 -0.0340  1.3315  0.1134
 2224SOL     OW18304   2.710   4.186   2.713  0.1344 -0.2226 -0.2246
 2224SOL    HW118305   2.626   4.217   2.678 -0.6426 -0.4223  1.4563
 2224SOL    HW218306   2.738   4.259   2.768  2.5679  0.4506 -2.3744
 2225SOL     OW18307   2.286   0.755   6.926 -0.2692  0.2094 -0.9540
 2225SOL    HW118308   2.246   0.825   6.875 -1.0890  0.2402 -0.2617
 2225SOL    HW218309   2.376   0.764   6.893  0.6895  1.1186  1.9070
 2226SOL     OW18310   3.684   0.981   7.751 -0.0453  0.2087 -0.2549
 2226SOL    HW118311   3.756   0.930   7.713 -0.3460  0.2712 -0.9219
 2226SOL    HW218312   3.701   0.974   7.845  2.8596  1.4031 -0.6917
 2227SOL     OW18313   4.351   1.941   4.972  0.3705  0.8575  0.1936
 2227SOL    HW118314   4.410   1.930   4.897  0.5666  2.8566  0.0532
 2227SOL    HW218315   4.407   2.001   5.021 -1.3199  2.6555 -0.0589
 2228SOL     OW18316   2.772   4.234   7.757 -0.2380 -0.4390  0.5101
 2228SOL    HW118317   2.853   4.284   7.749 -0.4343  0.0849  1.8196
 2228SOL    HW218318   2.755   4.263   7.847  0.0622 -0.9848  0.7416
 2229SOL     OW18319   4.675   2.131   6.565 -0.2915 -0.1539 -0.8655
 2229SOL    HW118320   4.584   2.135   6.592 -0.4849 -2.3003 -1.2238
 2229SOL    HW218321   4.674   2.167   6.477  1.1331 -0.4232 -1.0036
 2230SOL     OW18322   3.217   1.899   2.244 -0.2358  0.1604 -0.3573
 2230SOL    HW118323   3.219   1.895   2.148 -1.0287  1.1899 -0.4171
 2230SOL    HW218324   3.124   1.913   2.259 -0.7304 -2.3754 -1.0584
 2231SOL     OW18325   2.436   0.709   8.945 -0.2172 -0.3536  0.6337
 2231SOL    HW118326   2.525   0.690   8.975  0.4450 -1.7306 -2.2659
 2231SOL    HW218327   2.444   0.675   8.856 -0.1380 -0.5763  0.7262
 2232SOL     OW18328   3.539   4.513  14.473 -0.4967 -0.2477  0.1797
 2232SOL    HW118329   3.508   4.603  14.478 -0.8060 -0.3851  0.7061
 2232SOL    HW218330   3.519   4.499  14.566 -2.2703 -0.4282 -0.2281
 2233SOL     OW18331   2.408   0.345   2.753  0.4627  0.1859 -0.4486
 2233SOL    HW118332   2.318   0.343   2.719 -0.2923  1.3056  1.4440
 2233SOL    HW218333   2.420   0.435   2.783 -1.4966  1.2449 -2.8463
 2234SOL     OW18334   0.774   2.985   8.450 -0.3320 -0.3715  0.5653
 2234SOL    HW118335   0.711   3.052   8.420 -0.9882 -0.6463  1.3461
 2234SOL    HW218336   0.853   3.017   8.405 -1.1433 -0.6725 -1.0931
 2235SOL     OW18337   1.469   0.371   5.252  0.8669  0.6419 -0.1313
 2235SOL    HW118338   1.516   0.303   5.300  0.0600 -1.5821 -2.4685
 2235SOL    HW218339   1.382   0.366   5.292  0.2456  2.9389 -1.1963
 2236SOL     OW18340   3.319   4.707   7.213  0.0237 -0.2960  0.2754
 2236SOL    HW118341   3.300   4.635   7.153 -0.7174 -0.1215  0.2994
 2236SOL    HW218342   3.340   4.669   7.298  2.2042  2.6773  1.0620
 2237SOL     OW18343   3.614   3.146   7.318  0.2592  0.4012  0.2245
 2237SOL    HW118344   3.612   3.054   7.347  0.4909  0.2166 -0.3448
 2237SOL    HW218345   3.654   3.193   7.391  0.2266  1.7989 -0.6536
 2238SOL     OW18346   0.403   3.575   7.775 -0.0985 -0.8540  0.8074
 2238SOL    HW118347   0.369   3.570   7.686 -0.4675  0.0812  0.8992
 2238SOL    HW218348   0.444   3.661   7.777 -2.7393  0.3747  0.9488
 2239SOL     OW18349   3.354   1.498   4.110  0.2204 -0.1593  0.4764
 2239SOL    HW118350   3.275   1.453   4.081 -0.7271  1.6747  0.2437
 2239SOL    HW218351   3.334   1.590   4.092 -1.5121 -0.3817  1.2656
 2240SOL     OW18352   4.650   3.508   7.337 -0.3443  0.1282  0.2850
 2240SOL    HW118353   4.685   3.596   7.349 -1.4049  0.4433  1.0546
 2240SOL    HW218354   4.602   3.519   7.254 -0.8879 -2.0031  0.3223
 2241SOL     OW18355   0.992   4.488  14.909 -0.2624  0.4876  0.3959
 2241SOL    HW118356   1.040   4.551  14.856  2.1413 -1.0764  0.6998
 2241SOL    HW218357   1.064   4.431  14.935 -1.5328 -1.9065 -1.2623
 2242SOL     OW18358   3.777   2.051   8.557 -0.8665  0.0509  0.1528
 2242SOL    HW118359   3.726   2.115   8.607 -0.0209 -0.0010  1.0624
 2242SOL    HW218360   3.809   2.007   8.635  0.3244  2.5886  1.1014
 2243SOL     OW18361   4.572   0.205  11.474  0.0933 -0.1824 -0.1679
 2243SOL    HW118362   4.542   0.156  11.398  1.7315  0.2337 -1.0743
 2243SOL    HW218363   4.485   0.222  11.512 -0.1339  1.3237 -1.3785
 2244SOL     OW18364   1.253   1.008   2.852 -0.1853 -0.8421 -0.5890
 2244SOL    HW118365   1.165   1.003   2.890  0.5419  2.4208  1.4892
 2244SOL    HW218366   1.254   1.102   2.837  1.5172 -0.5317  1.4686
 2245SOL     OW18367   2.883   2.796  15.571 -0.0847 -0.2168  0.2483
 2245SOL    HW118368   2.914   2.885  15.556  0.3203 -0.5236 -0.7428
 2245SOL    HW218369   2.909   2.761  15.486  0.0158 -1.0322  0.6087
 2246SOL     OW18370   0.101   2.300   5.819 -0.3426  0.4081 -0.5678
 2246SOL    HW118371   0.130   2.226   5.766 -0.6362 -0.1351  0.0250
 2246SOL    HW218372   0.172   2.299   5.883 -1.0734 -0.0730  0.2429
 2247SOL     OW18373   4.636   4.697   3.795  0.4053 -0.1139  0.6052
 2247SOL    HW118374   4.603   4.695   3.705  0.2303 -2.6282  0.7094
 2247SOL    HW218375   4.580   0.029   3.829  0.6352 -1.1776  3.1841
 2248SOL     OW18376   1.033   0.991   5.225 -0.0011  0.1170 -0.0451
 2248SOL    HW118377   1.104   0.932   5.249 -0.3620 -0.9672 -1.6576
 2248SOL    HW218378   1.064   1.080   5.242  0.3318  0.2453 -1.3364
 2249SOL     OW18379   4.043   2.296   9.181 -0.9637  0.6554 -0.4328
 2249SOL    HW118380   4.063   2.362   9.246  2.0668  1.4081 -2.1182
 2249SOL    HW218381   3.960   2.260   9.214 -0.6257 -2.5828 -2.9991
 2250SOL     OW18382   3.002   0.804   2.518  0.5802  0.6879 -0.5217
 2250SOL    HW118383   2.960   0.880   2.477 -1.8979  1.0318  2.6156
 2250SOL    HW218384   2.924   0.772   2.563  0.4255  0.0489 -1.2435
 2251SOL     OW18385   0.912   1.989   4.229 -0.3170  0.2573  0.8098
 2251SOL    HW118386   0.997   1.979   4.271 -0.0635  0.5425  0.3650
 2251SOL    HW218387   0.912   2.082   4.210 -0.6805  0.6038  2.5367
 2252SOL     OW18388   4.083   2.182   9.802  0.3103  0.2554 -0.1302
 2252SOL    HW118389   4.130   2.237   9.740  1.9870  1.0070  1.7966
 2252SOL    HW218390   4.141   2.107   9.802 -0.7653 -0.5762  0.3879
 2253SOL     OW18391   0.747   1.315   3.376 -0.7472  0.4367  0.2375
 2253SOL    HW118392   0.760   1.376   3.448 -1.5023 -0.9949  1.5801
 2253SOL    HW218393   0.755   1.234   3.425 -2.2610  0.4992  0.6015
 2254SOL     OW18394   3.944   0.487   2.132  0.2057 -0.1249  0.4594
 2254SOL    HW118395   3.911   0.471   2.221  1.7161  0.1688  1.0716
 2254SOL    HW218396   3.880   0.430   2.090 -0.7789  2.4721 -1.5624
 2255SOL     OW18397   1.855   0.712   8.912  0.2129 -0.7558 -0.2150
 2255SOL    HW118398   1.928   0.774   8.916  0.1329 -0.7279  0.6850
 2255SOL    HW218399   1.825   0.721   8.821  0.3251 -2.6397 -0.4335
 2256SOL     OW18400   1.040   0.455   1.503 -0.2103  0.2126  0.2405
 2256SOL    HW118401   1.091   0.389   1.456  0.5067  2.0633 -1.6213
 2256SOL    HW218402   0.954   0.434   1.466 -0.0605  0.3484 -0.1908
 2257SOL     OW18403   1.360   2.591   2.789 -0.0051 -0.5821  0.0171
 2257SOL    HW118404   1.390   2.525   2.726 -2.4291 -3.1524  1.5394
 2257SOL    HW218405   1.266   2.585   2.771  0.0407  4.1767 -1.6676
 2258SOL     OW18406   0.402   3.142   2.707  0.0033 -0.3280  0.0920
 2258SOL    HW118407   0.447   3.065   2.672 -1.4960 -1.8808  1.5138
 2258SOL    HW218408   0.406   3.122   2.801 -1.0959  4.2400  1.0921
 2259SOL     OW18409   0.204   0.680   7.374 -0.1104 -0.3691  0.2507
 2259SOL    HW118410   0.225   0.715   7.461  0.8278 -0.8892  0.2339
 2259SOL    HW218411   0.259   0.744   7.330  0.4598 -1.3961 -0.5286
 2260SOL     OW18412   0.350   0.297   4.400 -1.1857 -0.0336  0.1101
 2260SOL    HW118413   0.282   0.258   4.454 -0.3613  0.5025  1.5159
 2260SOL    HW218414   0.296   0.352   4.343 -1.5081 -0.6520 -0.1788
 2261SOL     OW18415   1.764   3.005   5.027  0.1553  0.4112  0.1755
 2261SOL    HW118416   1.692   3.045   5.076 -1.4240 -2.4718  0.1907
 2261SOL    HW218417   1.724   2.935   4.974 -2.1776  0.6971  1.5438
 2262SOL     OW18418   3.151   0.485   8.622 -0.0096  0.2362  0.0956
 2262SOL    HW118419   3.133   0.478   8.716  1.6242  1.1783  0.4742
 2262SOL    HW218420   3.164   0.395   8.593  2.7622  0.5130  0.5126
 2263SOL     OW18421   2.371   4.004  15.233  0.0088 -0.3721 -0.0825
 2263SOL    HW118422   2.423   4.041  15.304  2.0692 -0.9152 -1.3275
 2263SOL    HW218423   2.390   3.912  15.252  2.8661  0.6025  1.6765
 2264SOL     OW18424   0.750   1.820  15.023 -0.0496  0.2461 -0.2017
 2264SOL    HW118425   0.778   1.782  14.940 -0.3419 -0.6024  0.0948
 2264SOL    HW218426   0.812   1.770  15.076 -0.9812 -1.4939 -0.7786
 2265SOL     OW18427   2.096   2.693   9.524  0.0847  0.5165  0.2940
 2265SOL    HW118428   2.173   2.671   9.473  0.2677 -0.5036  1.0172
 2265SOL    HW218429   2.081   2.616   9.579  1.6451  0.0129  0.0076
 2266SOL     OW18430   0.963   2.830  12.082 -0.9173  0.2577 -0.0501
 2266SOL    HW118431   0.874   2.793  12.083 -0.6359 -0.2798  3.1804
 2266SOL    HW218432   1.011   2.767  12.029  0.0423  0.2260  0.8562
 2267SOL     OW18433   0.040   1.197   4.994  0.1541 -0.1798  0.7856
 2267SOL    HW118434   0.023   1.138   5.067 -2.7616  1.6752  1.6434
 2267SOL    HW218435   0.023   1.275   5.048  3.8249  0.9782  0.3054
 2268SOL     OW18436   2.945   4.372   2.456  0.5531  0.6597 -0.2257
 2268SOL    HW118437   2.850   4.386   2.454  0.3896 -0.2225  1.3995
 2268SOL    HW218438   2.970   4.459   2.486  1.4801  0.2264  0.2520
 2269SOL     OW18439   2.974   4.137   3.796  0.2466 -0.3942  0.0194
 2269SOL    HW118440   3.049   4.162   3.742 -1.1934  1.7586 -0.9459
 2269SOL    HW218441   3.000   4.156   3.887  1.3665 -0.0196 -0.3814
 2270SOL     OW18442   3.599   1.722   6.093  0.5020  0.0396  0.5323
 2270SOL    HW118443   3.687   1.696   6.120  0.9837 -0.4253 -1.4849
 2270SOL    HW218444   3.542   1.672   6.151  1.9703 -0.4847  1.5376
 2271SOL     OW18445   0.496   1.797   4.158  0.1204 -0.1223  0.0469
 2271SOL    HW118446   0.401   1.806   4.170 -0.0709  0.6198 -1.9557
 2271SOL    HW218447   0.516   1.720   4.210  1.1068  0.2100  0.1548
 2272SOL     OW18448   2.861   0.127   2.753  0.3129 -0.1732 -0.1868
 2272SOL    HW118449   2.831   0.177   2.677 -0.6496 -2.6718 -1.4340
 2272SOL    HW218450   2.783   0.132   2.808 -0.9281 -1.4532 -1.8274
 2273SOL     OW18451   3.169   1.723   8.791 -0.1296  0.0172 -0.2596
 2273SOL    HW118452   3.181   1.713   8.697  1.9511 -0.6113  0.0489
 2273SOL    HW218453   3.159   1.630   8.811 -1.4954 -0.2154 -2.0628
 2274SOL     OW18454   0.443   1.164  10.150  0.1497 -0.1698  0.1568
 2274SOL    HW118455   0.420   1.095  10.212 -1.8854 -1.0436 -1.5974
 2274SOL    HW218456   0.389   1.236  10.182 -0.5099 -1.2910  1.5552
 2275SOL     OW18457   4.060   2.869   9.779 -0.1394 -0.2792 -0.0866
 2275SOL    HW118458   4.092   2.782   9.755  0.8752  0.7014 -2.3186
 2275SOL    HW218459   3.974   2.862   9.820  1.3572 -0.7563  2.9827
 2276SOL     OW18460   3.394   2.810   6.824 -0.8436  0.3216 -1.0500
 2276SOL    HW118461   3.477   2.778   6.858  0.6931  4.5806 -0.7479
 2276SOL    HW218462   3.344   2.777   6.898  0.4015  0.8770  0.0344
 2277SOL     OW18463   2.191   1.786   2.425  0.1070  0.0306  0.1527
 2277SOL    HW118464   2.204   1.879   2.407  0.0921  0.1078  0.5417
 2277SOL    HW218465   2.153   1.789   2.512 -1.3162 -1.2683 -0.4180
 2278SOL     OW18466   0.945   2.031   6.438 -0.2900  0.1696  0.4155
 2278SOL    HW118467   0.878   2.099   6.433  1.2918  1.7198  0.2823
 2278SOL    HW218468   0.897   1.972   6.380  1.4548 -1.0282  0.2136
 2279SOL     OW18469   1.027   2.537   2.486 -0.5114 -0.1785  0.1444
 2279SOL    HW118470   1.043   2.574   2.399  2.1299  2.2833  1.6747
 2279SOL    HW218471   0.954   2.477   2.469 -1.2957  1.1084 -1.0744
 2280SOL     OW18472   3.992   1.410  14.489 -0.3654  0.5176 -0.2935
 2280SOL    HW118473   3.908   1.453  14.478 -0.7228  0.5790  2.8990
 2280SOL    HW218474   4.039   1.483  14.529  0.9833 -0.6551  0.2627
 2281SOL     OW18475   3.561   4.494  10.177 -0.4825 -0.2193 -0.4280
 2281SOL    HW118476   3.525   4.552  10.244 -1.7525  0.8920 -2.0673
 2281SOL    HW218477   3.641   4.540  10.154 -1.4585  0.5381 -2.3393
 2282SOL     OW18478   4.269   1.183   3.540 -0.4517  0.4141 -0.2325
 2282SOL    HW118479   4.252   1.093   3.511 -0.1769 -0.3430  1.9746
 2282SOL    HW218480   4.255   1.220   3.453  0.3808 -0.6786 -0.8256
 2283SOL     OW18481   1.587   1.174   5.205 -0.1848  0.2634 -0.2054
 2283SOL    HW118482   1.617   1.264   5.213 -1.1545  0.7556 -2.2156
 2283SOL    HW218483   1.603   1.157   5.112 -1.1067 -0.7497 -0.1837
 2284SOL     OW18484   3.221   0.635   8.349  0.0043 -0.3869 -0.4787
 2284SOL    HW118485   3.310   0.643   8.383 -0.9862  1.0525  1.7807
 2284SOL    HW218486   3.167   0.619   8.427 -1.5195  0.2386 -1.3969
 2285SOL     OW18487   0.653   0.909   4.959  0.1657 -0.0713  0.1434
 2285SOL    HW118488   0.716   0.959   5.010  0.4827 -0.4013  0.0756
 2285SOL    HW218489   0.612   0.861   5.032  0.6090 -0.3492  0.2084
 2286SOL     OW18490   2.962   1.897   5.516  0.6063 -0.1301 -0.0188
 2286SOL    HW118491   2.988   1.805   5.520 -1.0017 -0.6332 -1.2705
 2286SOL    HW218492   3.019   1.930   5.585 -2.6498 -0.5155  2.8766
 2287SOL     OW18493   4.272   1.131   8.437  0.4905  0.3270  0.0380
 2287SOL    HW118494   4.178   1.146   8.444 -0.3472 -3.4157 -3.7785
 2287SOL    HW218495   4.305   1.087   8.515  1.9343  1.1349 -0.1013
 2288SOL     OW18496   0.817   0.532  17.485  0.2972  0.6164 -0.4445
 2288SOL    HW118497   0.806   0.625  17.504 -1.0710  0.4142 -0.2668
 2288SOL    HW218498   0.756   0.495  17.549  0.7740  1.8497  0.7195
 2289SOL     OW18499   0.343   0.852   6.482 -0.3383 -0.0192 -0.2955
 2289SOL    HW118500   0.400   0.799   6.426 -2.4541  1.3049 -3.7021
 2289SOL    HW218501   0.279   0.876   6.416  0.6252  0.8746 -0.9129
 2290SOL     OW18502   3.059   4.455  16.858 -0.0326  0.3082 -0.0988
 2290SOL    HW118503   3.068   4.463  16.953  1.1433 -0.7284 -0.1311
 2290SOL    HW218504   2.970   4.489  16.847 -0.6340 -2.0646 -2.6442
 2291SOL     OW18505   1.133   1.902   4.932  0.0470  0.2267  0.0258
 2291SOL    HW118506   1.138   1.872   5.022  0.4038  1.5620  0.4611
 2291SOL    HW218507   1.127   1.995   4.955 -1.6554  0.2356 -0.4184
 2292SOL     OW18508   4.725   0.774  14.187  0.0120 -0.0083 -0.2387
 2292SOL    HW118509   0.075   0.768  14.223  0.2214  0.2272 -0.7093
 2292SOL    HW218510   0.005   0.746  14.098  0.6860  2.2981 -0.8322
 2293SOL     OW18511   0.557   3.952   3.831 -0.0874  0.2081  0.4930
 2293SOL    HW118512   0.597   3.979   3.914  1.8793 -0.2042 -0.3460
 2293SOL    HW218513   0.538   4.042   3.803 -0.2257 -0.2794 -0.9843
 2294SOL     OW18514   3.427   1.213  12.081  0.2525  0.4502 -0.2151
 2294SOL    HW118515   3.360   1.245  12.142  1.4579  2.2763  0.1444
 2294SOL    HW218516   3.481   1.289  12.059  2.5357 -0.7117  1.2302
 2295SOL     OW18517   2.695   3.720   8.215  0.3799 -0.3672 -0.0791
 2295SOL    HW118518   2.647   3.638   8.224  0.1935 -0.2000  0.4476
 2295SOL    HW218519   2.634   3.791   8.234  1.5508  0.5472  0.3217
 2296SOL     OW18520   3.496   4.043   9.092 -0.6197 -0.4059 -0.3032
 2296SOL    HW118521   3.473   4.136   9.097 -0.3278 -0.3364 -0.2666
 2296SOL    HW218522   3.433   4.005   9.030 -1.2801  1.1261 -0.5805
 2297SOL     OW18523   3.568   0.709   4.821 -0.3191 -0.2383  0.1097
 2297SOL    HW118524   3.594   0.801   4.816 -1.6495  0.2012  1.1403
 2297SOL    HW218525   3.615   0.679   4.898  0.0850 -1.9590 -0.7871
 2298SOL     OW18526   2.142   4.369   5.848  0.3069  0.4217 -0.0147
 2298SOL    HW118527   2.079   4.436   5.824 -0.9488 -0.6737  0.2233
 2298SOL    HW218528   2.139   4.306   5.776 -1.4659 -1.7656  1.9844
 2299SOL     OW18529   1.958   3.872   8.300  0.3036  0.6294 -0.2197
 2299SOL    HW118530   2.032   3.893   8.243  1.1078  1.3252  1.0682
 2299SOL    HW218531   1.992   3.825   8.376 -1.4926 -0.3183 -0.0046
 2300SOL     OW18532   2.300   2.763   3.256 -0.1665 -0.2659 -0.5050
 2300SOL    HW118533   2.354   2.821   3.201  0.3943 -1.9761 -1.7648
 2300SOL    HW218534   2.293   2.814   3.336 -0.6679 -1.5068  0.2416
 2301SOL     OW18535   0.141   0.886  16.610 -0.1371  1.0055  0.0180
 2301SOL    HW118536   0.089   0.966  16.621  1.4320  2.0484 -0.1321
 2301SOL    HW218537   0.211   0.892  16.676  0.3622 -1.7179 -0.2635
 2302SOL     OW18538   3.650   3.905   8.500  0.5535 -0.2153 -0.9063
 2302SOL    HW118539   3.742   3.917   8.477  0.5198  0.7708 -0.5140
 2302SOL    HW218540   3.647   3.814   8.531  3.4451  1.0748  3.1277
 2303SOL     OW18541   2.015   3.249  14.919  0.4357  0.4135 -0.4972
 2303SOL    HW118542   2.010   3.303  14.998  0.2317 -0.9162  0.3919
 2303SOL    HW218543   1.967   3.170  14.941 -0.9033  0.9919 -1.3536
 2304SOL     OW18544   2.986   4.123   6.490  0.4268  0.3917 -0.3737
 2304SOL    HW118545   2.945   4.043   6.524 -0.1745  0.1390 -1.6769
 2304SOL    HW218546   3.010   4.164   6.573 -2.6293  0.6231  0.3717
 2305SOL     OW18547   0.556   1.396   6.143  1.1679  0.1936 -1.0750
 2305SOL    HW118548   0.549   1.415   6.049 -0.4527  2.1730 -0.5774
 2305SOL    HW218549   0.545   1.302   6.137 -0.6615  0.1313  3.1650
 2306SOL     OW18550   4.480   0.737   5.908 -0.2583  0.4925  0.0424
 2306SOL    HW118551   4.472   0.680   5.984 -0.7798 -1.4465 -1.4629
 2306SOL    HW218552   4.553   0.699   5.860 -2.0460 -1.3191 -1.2556
 2307SOL     OW18553   1.485   0.125   6.724  0.1587  0.3488 -0.0416
 2307SOL    HW118554   1.433   0.076   6.660  0.3356  0.2844 -0.1330
 2307SOL    HW218555   1.416   0.171   6.773 -0.2219  0.0396 -0.2792
 2308SOL     OW18556   1.913   0.435   9.562  0.1898 -0.4796 -0.1028
 2308SOL    HW118557   1.872   0.453   9.478 -1.2118  2.7089  1.2361
 2308SOL    HW218558   2.005   0.423   9.539  0.8258 -0.0642  2.2579
 2309SOL     OW18559   4.725   0.850  11.843  0.0255  0.0587  0.3497
 2309SOL    HW118560   4.669   0.922  11.873  0.6846  1.3238 -1.4591
 2309SOL    HW218561   0.074   0.883  11.862 -0.4881 -0.1126  3.0139
 2310SOL     OW18562   2.887   1.469   6.625 -0.0797  0.4113 -0.5451
 2310SOL    HW118563   2.939   1.480   6.545 -0.6923  2.7887 -0.6173
 2310SOL    HW218564   2.804   1.429   6.604 -1.0324  1.0385  1.9354
 2311SOL     OW18565   3.309   0.053   2.185 -0.8678 -0.0320  0.2809
 2311SOL    HW118566   3.259   0.090   2.258 -2.7967  0.6286 -1.3894
 2311SOL    HW218567   3.385   0.111   2.185 -2.1254  1.5980 -2.0304
 2312SOL     OW18568   3.705   3.594   1.176 -0.7416 -0.1097 -0.3245
 2312SOL    HW118569   3.627   3.619   1.225 -0.3879  1.9415 -0.7997
 2312SOL    HW218570   3.670   3.543   1.104 -0.0346  1.3774 -1.7390
 2313SOL     OW18571   3.637   4.040  13.705 -0.0598  0.1442  0.1497
 2313SOL    HW118572   3.688   4.105  13.657 -0.9777  1.0337  0.3558
 2313SOL    HW218573   3.607   3.983  13.634 -0.6997 -0.8098  1.1860
 2314SOL     OW18574   3.456   2.789  13.382  0.4271  0.2437 -0.1987
 2314SOL    HW118575   3.445   2.881  13.359  0.1044  0.5051  0.9996
 2314SOL    HW218576   3.363   2.771  13.395  0.9318 -2.2074  0.1223
 2315SOL     OW18577   4.306   0.249   3.601  0.2165  0.0251 -0.0237
 2315SOL    HW118578   4.262   0.316   3.550 -0.0844 -1.0996 -1.2585
 2315SOL    HW218579   4.292   0.167   3.553  1.6667  0.0451 -0.4859
 2316SOL     OW18580   1.970   2.974  10.419 -0.1087 -0.0745 -0.0709
 2316SOL    HW118581   1.921   3.044  10.463 -1.7243 -0.5287 -1.1290
 2316SOL    HW218582   2.048   2.985  10.473  0.1557 -1.4214 -0.1980
 2317SOL     OW18583   2.495   2.643  16.221  0.0650  0.0937 -0.0705
 2317SOL    HW118584   2.442   2.649  16.300  0.7073 -0.0824  0.3720
 2317SOL    HW218585   2.580   2.651  16.264  0.4010  3.2578 -1.3417
 2318SOL     OW18586   0.837   3.097   4.393 -0.3045  0.2316 -0.0015
 2318SOL    HW118587   0.802   3.181   4.363  0.0036  0.1530 -0.5936
 2318SOL    HW218588   0.922   3.103   4.349  0.2464  0.1807  1.0524
 2319SOL     OW18589   0.845   0.481   6.482  0.1275 -0.5242  0.4094
 2319SOL    HW118590   0.930   0.448   6.454  1.3190  3.0969 -0.3233
 2319SOL    HW218591   0.813   0.410   6.537  1.5157 -2.9123 -1.8986
 2320SOL     OW18592   2.203   3.281   2.161  0.1244 -0.0766  0.5272
 2320SOL    HW118593   2.207   3.365   2.206 -1.3375  1.1341 -1.6122
 2320SOL    HW218594   2.281   3.279   2.106  0.4192  0.8309  0.9188
 2321SOL     OW18595   3.970   0.838  16.653  0.3056 -0.1723  0.6022
 2321SOL    HW118596   3.957   0.932  16.664  0.2402 -0.0317 -0.7325
 2321SOL    HW218597   4.038   0.841  16.586 -0.0304  1.2725  0.3201
 2322SOL     OW18598   3.931   1.121   6.482  0.1880 -0.3745  0.1985
 2322SOL    HW118599   3.984   1.079   6.549 -0.1480  0.0275  0.7181
 2322SOL    HW218600   3.852   1.151   6.527  0.4348  1.1699 -0.3984
 2323SOL     OW18601   1.799   0.916   8.342 -0.4060 -0.3571  0.1347
 2323SOL    HW118602   1.858   0.862   8.395  0.4241  1.1300  0.7221
 2323SOL    HW218603   1.713   0.892   8.377 -1.2958 -1.2042 -2.6038
 2324SOL     OW18604   2.507   2.656  13.410  0.3467 -0.2832 -0.3564
 2324SOL    HW118605   2.512   2.576  13.357  1.0798 -0.2910 -0.2791
 2324SOL    HW218606   2.558   2.636  13.489 -1.0512 -0.1783  0.5720
 2325SOL     OW18607   2.402   2.924   9.339  0.3588 -0.1964 -0.2304
 2325SOL    HW118608   2.444   2.994   9.288  0.9346 -0.6987 -0.4460
 2325SOL    HW218609   2.483   2.875   9.358  0.0951 -1.0882 -1.4541
 2326SOL     OW18610   2.910   2.646   4.963  0.3920  0.1060  0.2061
 2326SOL    HW118611   2.938   2.700   4.889 -2.5742 -0.3756 -1.2915
 2326SOL    HW218612   2.913   2.699   5.043  0.6665 -1.9811  1.5716
 2327SOL     OW18613   0.577   0.421   3.155 -0.2864 -0.0112 -0.1176
 2327SOL    HW118614   0.650   0.477   3.128  0.6697 -0.6554  1.1256
 2327SOL    HW218615   0.624   0.361   3.214  1.4067  0.4202 -1.0252
 2328SOL     OW18616   3.126   2.597   4.092  0.0580  0.0023  0.4874
 2328SOL    HW118617   3.208   2.610   4.043  1.0390 -0.4022  2.0170
 2328SOL    HW218618   3.062   2.607   4.021  0.3501 -1.1716  0.0498
 2329SOL     OW18619   4.309   0.674   4.352  0.2363 -0.5167 -0.2973
 2329SOL    HW118620   4.358   0.723   4.285 -0.1749  0.2185 -0.0579
 2329SOL    HW218621   4.375   0.633   4.407  2.2314  0.1286 -2.1924
 2330SOL     OW18622   2.363   1.211   3.815 -0.1569  0.5794  0.2437
 2330SOL    HW118623   2.289   1.263   3.846 -1.6055 -0.9131 -0.6805
 2330SOL    HW218624   2.326   1.134   3.771  1.5075  0.2979 -0.6973
 2331SOL     OW18625   0.725   3.723   5.059  0.0065 -0.2436 -0.0478
 2331SOL    HW118626   0.665   3.752   4.990  0.2151  0.8148  0.2311
 2331SOL    HW218627   0.735   3.636   5.019 -0.4898 -0.5050  0.3928
 2332SOL     OW18628   2.246   2.637   4.185  0.0680 -0.2861 -0.0955
 2332SOL    HW118629   2.300   2.716   4.197 -1.2300  0.4475  0.9347
 2332SOL    HW218630   2.292   2.586   4.118  0.7734 -0.2106  0.3236
 2333SOL     OW18631   2.574   2.702   5.361 -0.3053 -0.8659  0.0134
 2333SOL    HW118632   2.541   2.688   5.450  1.7773  1.5580  1.1403
 2333SOL    HW218633   2.611   2.788   5.380 -1.3197 -0.1755 -1.2139
 2334SOL     OW18634   4.707   4.089   5.447  0.1253  0.4496  0.3378
 2334SOL    HW118635   0.037   4.072   5.511  0.8314  0.6461 -0.3635
 2334SOL    HW218636   4.690   4.183   5.448  1.8118  0.7360  1.1772
 2335SOL     OW18637   1.498   0.164   7.324  0.4861  0.5413 -0.2698
 2335SOL    HW118638   1.555   0.101   7.280  1.2895  0.6610  0.5822
 2335SOL    HW218639   1.493   0.132   7.414  3.1317 -3.6705 -1.6302
 2336SOL     OW18640   3.637   0.988   4.827 -0.3289 -0.1773  0.0053
 2336SOL    HW118641   3.543   1.000   4.815 -0.3474 -0.5172 -0.1865
 2336SOL    HW218642   3.670   1.057   4.885 -2.6201  0.1899  0.8937
 2337SOL     OW18643   1.685   2.765   6.084  0.3344 -0.8026 -0.5118
 2337SOL    HW118644   1.607   2.816   6.064  1.9703  1.8259 -0.1563
 2337SOL    HW218645   1.668   2.683   6.036  0.0721 -1.4967  0.7861
 2338SOL     OW18646   2.344   1.661   5.689  0.2118 -0.8028 -0.7401
 2338SOL    HW118647   2.365   1.577   5.648  2.2011 -0.4585 -0.4083
 2338SOL    HW218648   2.259   1.681   5.649  0.1196 -0.0055 -0.1361
 2339SOL     OW18649   2.884   4.103  10.794 -0.1998  0.0266 -0.0445
 2339SOL    HW118650   2.858   4.053  10.717  0.6958  1.1548 -1.0791
 2339SOL    HW218651   2.934   4.177  10.759  0.3988 -0.7231 -0.7706
 2340SOL     OW18652   2.086   3.728   3.320 -0.4440  0.2883  0.0609
 2340SOL    HW118653   2.104   3.698   3.231 -1.3326 -0.8921  0.2744
 2340SOL    HW218654   2.101   3.822   3.311 -0.3525  0.2187 -0.5203
 2341SOL     OW18655   0.443   2.835  11.529  0.6352  0.0572  0.2312
 2341SOL    HW118656   0.509   2.898  11.501  1.2297  0.1499  1.8309
 2341SOL    HW218657   0.434   2.864  11.619 -0.5386 -1.1234  0.5083
 2342SOL     OW18658   2.428   4.542   4.423  0.2660  0.4908 -0.1963
 2342SOL    HW118659   2.435   4.606   4.351  0.3871 -0.2279 -0.8276
 2342SOL    HW218660   2.361   4.576   4.481  1.0467 -1.1459  1.6443
 2343SOL     OW18661   2.904   1.735   2.580 -0.0499 -0.6485  0.0706
 2343SOL    HW118662   2.816   1.746   2.615  0.1368  0.4401  0.1853
 2343SOL    HW218663   2.945   1.816   2.609  0.7943 -1.3012  0.7219
 2344SOL     OW18664   4.155   3.004   7.449 -0.1323  0.1630  0.5272
 2344SOL    HW118665   4.187   2.932   7.504  1.5569  1.0489  0.7171
 2344SOL    HW218666   4.065   2.973   7.438  0.4541 -1.1711 -0.4842
 2345SOL     OW18667   1.885   4.555  17.049  0.1120 -0.2053  0.0016
 2345SOL    HW118668   1.850   4.576  17.136 -1.2537 -0.6092 -0.4583
 2345SOL    HW218669   1.851   4.625  16.993  2.1944  0.0872 -0.8932
 2346SOL     OW18670   1.753   3.252   7.242  0.1157  0.1309  0.4157
 2346SOL    HW118671   1.766   3.270   7.149 -1.4361  1.7015  0.5012
 2346SOL    HW218672   1.804   3.324   7.280 -0.6213  0.7387  0.2554
 2347SOL     OW18673   3.977   1.379  17.391 -0.1233 -0.4584  0.9711
 2347SOL    HW118674   4.007   1.448  17.333 -0.9446 -2.5273 -1.9392
 2347SOL    HW218675   3.986   1.427  17.473 -1.7734  0.8014  0.4035
 2348SOL     OW18676   3.850   1.678   3.612  0.0529  0.1286  0.3107
 2348SOL    HW118677   3.809   1.760   3.637  0.6085  0.1725  1.0823
 2348SOL    HW218678   3.789   1.613   3.646  0.4057 -0.6647 -0.5776
 2349SOL     OW18679   0.809   4.033   5.089 -0.1423 -0.6076 -0.3274
 2349SOL    HW118680   0.723   4.045   5.050 -1.0467 -2.7928  1.0033
 2349SOL    HW218681   0.799   3.956   5.146 -0.0629 -0.8080 -0.5835
 2350SOL     OW18682   0.511   1.033  14.515 -0.4163  0.2078 -0.4757
 2350SOL    HW118683   0.421   1.063  14.499 -0.8880  0.1922  2.0633
 2350SOL    HW218684   0.555   1.063  14.436 -1.3442 -0.0294 -1.0804
 2351SOL     OW18685   4.234   1.425   5.394 -0.1510  0.0740  0.0977
 2351SOL    HW118686   4.239   1.416   5.299  0.3764 -0.2495  0.1589
 2351SOL    HW218687   4.139   1.428   5.407  0.0380  0.8864  1.2758
 2352SOL     OW18688   2.147   1.369   1.301  0.4440 -0.4494  0.5107
 2352SOL    HW118689   2.134   1.426   1.226  1.6047 -1.9428 -0.8189
 2352SOL    HW218690   2.117   1.282   1.276 -2.2737  0.5647  0.3005
 2353SOL     OW18691   3.893   3.568   5.793  0.9995 -0.2393  0.6554
 2353SOL    HW118692   3.834   3.544   5.864 -1.0971  1.2597 -0.5930
 2353SOL    HW218693   3.859   3.497   5.738 -2.1527  2.0217 -0.3027
 2354SOL     OW18694   3.104   0.005   0.859 -0.5484  0.1431  0.5191
 2354SOL    HW118695   3.180   0.061   0.845  0.3106 -0.1805  3.7473
 2354SOL    HW218696   3.038   0.049   0.806  0.9832 -1.0284 -2.3295
 2355SOL     OW18697   3.719   0.780   1.964 -0.6250 -0.2294 -0.0300
 2355SOL    HW118698   3.808   0.807   1.943 -0.2732 -0.2830  1.4152
 2355SOL    HW218699   3.733   0.698   2.012 -0.0757 -1.1505 -1.7890
 2356SOL     OW18700   3.438   0.923  12.875  0.0751 -0.0341  0.4841
 2356SOL    HW118701   3.496   0.866  12.926 -1.0338 -0.9368  0.7414
 2356SOL    HW218702   3.401   0.977  12.945 -1.0195 -0.6485  0.3841
 2357SOL     OW18703   1.719   0.786   3.096 -0.2422 -0.6208  0.6044
 2357SOL    HW118704   1.643   0.797   3.154 -0.0126  0.4056  0.7177
 2357SOL    HW218705   1.682   0.820   3.015  1.8793 -1.5165 -0.7290
 2358SOL     OW18706   4.665   3.048   4.727 -0.1482 -0.2208  0.4800
 2358SOL    HW118707   4.697   3.093   4.649 -0.2424  1.8038  1.5901
 2358SOL    HW218708   4.668   3.124   4.786 -1.0687  0.2545 -0.0894
 2359SOL     OW18709   4.487   3.934   7.890 -0.1968  0.1860  0.0209
 2359SOL    HW118710   4.563   3.991   7.882 -0.2195  0.1777 -0.2484
 2359SOL    HW218711   4.484   3.930   7.986 -2.6417  2.4031  0.0241
 2360SOL     OW18712   3.128   2.441   5.363  0.7296 -0.1620  0.2573
 2360SOL    HW118713   3.080   2.518   5.394  2.1460  1.5086 -1.6887
 2360SOL    HW218714   3.064   2.382   5.322  0.7786 -0.6911  0.9509
 2361SOL     OW18715   2.788   3.729   9.184  0.2051 -0.2451  0.2154
 2361SOL    HW118716   2.729   3.801   9.205  2.0072  1.1380  0.5378
 2361SOL    HW218717   2.731   3.675   9.130 -0.6293  0.6629  0.1883
 2362SOL     OW18718   1.048   3.521   5.475  0.0100  0.2018 -0.1889
 2362SOL    HW118719   1.072   3.449   5.417  1.3030  2.4424 -2.4224
 2362SOL    HW218720   1.133   3.546   5.512  1.0138 -2.3545 -0.7104
 2363SOL     OW18721   3.678   4.561   6.466  0.0884 -0.5852  0.3052
 2363SOL    HW118722   3.705   4.560   6.558  1.5526 -0.6692 -0.1250
 2363SOL    HW218723   3.629   4.479   6.466 -1.0530  0.0875  1.8429
 2364SOL     OW18724   0.611   4.734  14.852 -0.2229  0.5780 -0.3034
 2364SOL    HW118725   0.704   4.738  14.828 -0.3317  1.3341 -0.6006
 2364SOL    HW218726   0.604   0.081  14.896 -1.0522  0.8018 -0.8909
 2365SOL     OW18727   3.273   1.429  11.827 -0.9231  0.2244 -0.2996
 2365SOL    HW118728   3.294   1.521  11.810 -0.5464  0.0460 -0.8113
 2365SOL    HW218729   3.366   1.413  11.845 -1.6220 -1.9456  1.3032
 2366SOL     OW18730   2.047   3.074  10.780 -0.1333 -0.3817 -0.2271
 2366SOL    HW118731   1.952   3.066  10.766 -0.4371  3.2722 -0.2330
 2366SOL    HW218732   2.084   3.089  10.694 -0.1593  0.5063 -0.0895
 2367SOL     OW18733   1.664   0.543   6.803  0.3545  0.2256  0.0319
 2367SOL    HW118734   1.665   0.581   6.891  2.8523 -0.5533  0.3407
 2367SOL    HW218735   1.598   0.475   6.820  0.3212 -0.1577 -1.6839
 2368SOL     OW18736   2.746   3.832   2.791 -0.2473 -0.3338 -0.1314
 2368SOL    HW118737   2.837   3.803   2.804 -0.7060 -0.6993  2.1943
 2368SOL    HW218738   2.731   3.869   2.878  1.0680  1.6169 -0.7444
 2369SOL     OW18739   1.891   0.534   0.015 -0.2268 -0.3933 -0.3567
 2369SOL    HW118740   1.904   0.577  17.681 -3.4742  0.0598 -0.6430
 2369SOL    HW218741   1.883   0.444  17.737 -2.4572 -0.3580  0.1862
 2370SOL     OW18742   0.703   0.876  12.939  0.0319  0.3647  0.3912
 2370SOL    HW118743   0.655   0.808  12.986  0.0377 -1.7527 -2.6775
 2370SOL    HW218744   0.791   0.841  12.947 -0.1259  0.0099  0.5685
 2371SOL     OW18745   1.300   1.434   7.843  0.5297 -0.2260  0.8236
 2371SOL    HW118746   1.364   1.392   7.784 -2.8534 -2.6183 -1.1526
 2371SOL    HW218747   1.270   1.507   7.789 -0.4738 -0.7194  0.7128
 2372SOL     OW18748   1.189   0.080   7.524 -0.6930  0.0801  0.4816
 2372SOL    HW118749   1.256   0.032   7.573 -0.7336 -0.1761  0.2815
 2372SOL    HW218750   1.185   0.034   7.441  1.3382  0.5017  0.1367
 2373SOL     OW18751   4.394   4.081   2.572 -0.1885 -0.1905  0.4964
 2373SOL    HW118752   4.300   4.063   2.576 -0.3895  0.8979  0.6756
 2373SOL    HW218753   4.414   4.045   2.486 -2.6514 -2.0506  0.6983
 2374SOL     OW18754   1.623   0.143   9.469  0.0567 -0.1937 -0.0745
 2374SOL    HW118755   1.704   0.102   9.499  1.6595  2.0562 -1.3899
 2374SOL    HW218756   1.570   0.144   9.549 -0.5966 -0.9513 -0.4908
 2375SOL     OW18757   0.117   4.504   8.955  0.1716  0.3983  0.8545
 2375SOL    HW118758   0.175   4.554   8.896  3.0448 -3.0463  0.7617
 2375SOL    HW218759   0.173   4.513   9.032  1.5377 -2.2894  0.1839
 2376SOL     OW18760   1.953   0.960   8.702  0.1396  0.0125 -0.0316
 2376SOL    HW118761   1.863   0.940   8.727  0.5659 -1.1025  0.6083
 2376SOL    HW218762   1.987   0.994   8.785 -2.0247 -1.6307  1.5305
 2377SOL     OW18763   0.195   0.504   5.841  0.1850 -0.0084  0.1225
 2377SOL    HW118764   0.189   0.411   5.818  1.4853 -0.3636  1.1812
 2377SOL    HW218765   0.216   0.494   5.934  1.3738  1.2212 -0.0049
 2378SOL     OW18766   0.424   3.919   8.756 -0.0990  0.0290 -0.4241
 2378SOL    HW118767   0.486   3.891   8.689 -0.9326 -1.9514 -0.3935
 2378SOL    HW218768   0.380   3.834   8.762 -0.7104  0.3831  0.1103
 2379SOL     OW18769   3.466   0.897   5.350 -0.4644  0.4391 -0.0419
 2379SOL    HW118770   3.520   0.818   5.348 -0.6242  0.3372 -0.4178
 2379SOL    HW218771   3.510   0.950   5.284 -1.3232  0.9814 -0.1743
 2380SOL     OW18772   4.305   1.611  10.234 -0.0375 -0.3413 -0.0877
 2380SOL    HW118773   4.255   1.674  10.286  1.9455 -0.2913  1.7489
 2380SOL    HW218774   4.239   1.571  10.177  1.0491 -0.9863 -0.9131
 2381SOL     OW18775   3.885   0.722   8.028 -0.3159 -0.4391  0.3835
 2381SOL    HW118776   3.971   0.748   7.997 -0.8438 -0.8159 -1.3777
 2381SOL    HW218777   3.904   0.629   8.041 -0.4525 -0.6904 -1.2646
 2382SOL     OW18778   1.534   3.585  10.819  0.6014  0.0961 -0.3639
 2382SOL    HW118779   1.541   3.489  10.824 -2.0598 -0.0398  0.9992
 2382SOL    HW218780   1.626   3.601  10.841  0.2973  1.9349 -0.4653
 2383SOL     OW18781   3.187   2.631  14.176 -0.2286 -0.0982 -0.1392
 2383SOL    HW118782   3.095   2.612  14.193 -0.2125 -0.9718 -1.0540
 2383SOL    HW218783   3.221   2.551  14.136  1.2115  0.4480 -0.0254
 2384SOL     OW18784   0.279   0.755   4.820 -0.3729  0.0116  0.1038
 2384SOL    HW118785   0.340   0.829   4.813 -0.2652  0.0170  1.0820
 2384SOL    HW218786   0.213   0.802   4.870  1.6511  1.6711  1.2445
 2385SOL     OW18787   2.990   2.189   4.177 -0.1174  0.3722  0.7170
 2385SOL    HW118788   2.949   2.224   4.098 -0.1008  0.4644  0.7487
 2385SOL    HW218789   3.079   2.224   4.169  0.0965 -0.3355  0.1053
 2386SOL     OW18790   0.444   4.051   1.033 -0.6774 -0.4712  0.7610
 2386SOL    HW118791   0.432   4.007   0.949  1.2703 -2.4763  1.5135
 2386SOL    HW218792   0.533   4.026   1.057 -0.3220  0.5762  0.5227
 2387SOL     OW18793   1.302   4.044   3.158 -0.1238 -0.1284 -0.8225
 2387SOL    HW118794   1.208   4.056   3.141 -0.1418 -0.0180 -0.6507
 2387SOL    HW218795   1.291   3.980   3.229 -2.3337  1.9675  0.7535
 2388SOL     OW18796   0.770   3.886   2.789 -0.2585  0.2584 -0.3658
 2388SOL    HW118797   0.707   3.814   2.791 -1.2803  1.2383  2.3464
 2388SOL    HW218798   0.718   3.966   2.786 -1.7311 -0.6533  0.7555
 2389SOL     OW18799   1.980   0.775   5.074  0.4241  0.1469 -0.0732
 2389SOL    HW118800   2.044   0.737   5.014 -0.5857 -0.8482 -0.5054
 2389SOL    HW218801   2.042   0.787   5.146  1.9058 -0.4737 -1.2419
 2390SOL     OW18802   4.362   1.853   8.244 -0.4982 -1.1007  0.1183
 2390SOL    HW118803   4.326   1.764   8.237  0.5608 -1.5383  0.2634
 2390SOL    HW218804   4.288   1.906   8.213 -0.9607 -1.8783 -0.1061
 2391SOL     OW18805   0.459   2.185   4.392 -0.0647 -0.3447  0.4043
 2391SOL    HW118806   0.541   2.137   4.383 -0.1822 -0.3624 -0.5582
 2391SOL    HW218807   0.480   2.273   4.360 -1.8623  0.4269  1.3404
 2392SOL     OW18808   1.365   4.462   8.609  0.1204 -0.3532 -0.1789
 2392SOL    HW118809   1.370   4.537   8.550  1.7886  1.3637  2.0920
 2392SOL    HW218810   1.306   4.484   8.681 -2.1197 -0.2816 -2.0736
 2393SOL     OW18811   0.934   3.140   8.197 -0.5520  0.6582 -0.3539
 2393SOL    HW118812   1.026   3.163   8.190 -0.4515  0.4445  0.2173
 2393SOL    HW218813   0.919   3.086   8.119  0.5039 -0.1348 -0.0095
 2394SOL     OW18814   3.345   4.650  13.728  0.1695  0.2596  0.0496
 2394SOL    HW118815   3.339   4.671  13.822 -2.9398 -0.9026  0.1035
 2394SOL    HW218816   3.435   4.674  13.705  0.0538  1.0032  0.3415
 2395SOL     OW18817   1.462   0.448   8.300 -0.4232 -0.2833 -0.2012
 2395SOL    HW118818   1.380   0.488   8.329  0.2629  1.4527 -0.6731
 2395SOL    HW218819   1.475   0.387   8.373  1.8369  0.0006 -0.3752
 2396SOL     OW18820   3.131   0.171   2.829  0.3320 -0.1239  0.2340
 2396SOL    HW118821   3.042   0.140   2.815 -0.5381  2.9587 -0.9904
 2396SOL    HW218822   3.166   0.096   2.879  4.2636  0.2055 -2.0332
 2397SOL     OW18823   1.187   1.556   4.721 -0.2122 -0.3995 -0.3441
 2397SOL    HW118824   1.096   1.529   4.706 -0.8810  1.4401  0.4357
 2397SOL    HW218825   1.172   1.650   4.723 -0.1476 -0.3961 -0.0071
 2398SOL     OW18826   3.550   2.885   2.819  0.1301 -0.0971  0.2173
 2398SOL    HW118827   3.547   2.970   2.862 -0.3278  1.0361 -2.0281
 2398SOL    HW218828   3.498   2.908   2.742 -1.4452 -0.9925  1.0082
 2399SOL     OW18829   1.994   3.645  14.296 -0.4851  0.2490 -0.1645
 2399SOL    HW118830   2.038   3.712  14.242  1.9458 -0.4648  0.9354
 2399SOL    HW218831   1.923   3.615  14.239 -0.5141 -0.3164  0.1676
 2400SOL     OW18832   1.181   3.369   2.720  0.5632 -0.3757 -0.3230
 2400SOL    HW118833   1.172   3.453   2.765  2.3186  0.4460 -1.4837
 2400SOL    HW218834   1.109   3.314   2.749 -0.0590 -0.2132 -1.5322
 2401SOL     OW18835   1.165   2.117   0.625 -0.6512  0.5709 -0.4327
 2401SOL    HW118836   1.148   2.061   0.700  0.1390  0.4188 -0.3686
 2401SOL    HW218837   1.104   2.191   0.635 -1.7270  0.0854 -3.4606
 2402SOL     OW18838   3.703   1.037   3.190  0.0818 -0.0149  0.4292
 2402SOL    HW118839   3.762   1.078   3.253 -0.0825  0.0463  0.5434
 2402SOL    HW218840   3.743   1.078   3.113 -2.2588  1.5680  0.0427
 2403SOL     OW18841   1.141   3.213   5.446  0.4682 -0.4863 -0.1782
 2403SOL    HW118842   1.108   3.222   5.535 -2.4942 -0.2079 -1.2818
 2403SOL    HW218843   1.099   3.129   5.424 -0.1768 -0.2953  0.3447
 2404SOL     OW18844   0.975   3.069   6.550  0.6702  0.1560 -0.1531
 2404SOL    HW118845   1.012   3.153   6.579 -0.3346 -0.1859  2.0747
 2404SOL    HW218846   1.050   3.028   6.508  1.0654  0.8589 -0.1414
 2405SOL     OW18847   2.016   2.439   8.114 -0.7930 -0.2083 -0.6032
 2405SOL    HW118848   2.035   2.465   8.205 -1.8495  0.2633 -0.5097
 2405SOL    HW218849   1.947   2.374   8.127 -1.2271 -0.0831 -2.3352
 2406SOL     OW18850   2.596   4.191   6.974 -0.3414 -0.4312 -0.1668
 2406SOL    HW118851   2.542   4.123   7.015 -2.7360  1.8843  0.4870
 2406SOL    HW218852   2.558   4.208   6.888  1.2375  2.5740 -0.2875
 2407SOL     OW18853   0.247   0.676   6.073 -0.3426  0.1307  0.3379
 2407SOL    HW118854   0.213   0.765   6.072 -0.0834  0.2334  0.7122
 2407SOL    HW218855   0.335   0.690   6.039 -0.3153 -1.0149 -0.0641
 2408SOL     OW18856   1.533   3.244   9.037  0.0386  0.5223  0.1845
 2408SOL    HW118857   1.585   3.301   9.093  1.6900 -0.3926 -0.4397
 2408SOL    HW218858   1.462   3.244   9.101 -2.5475 -0.2219 -2.6705
 2409SOL     OW18859   0.899   1.697   4.120 -0.5406 -0.4068 -0.2417
 2409SOL    HW118860   0.984   1.678   4.158 -0.1508  1.0095 -0.4094
 2409SOL    HW218861   0.881   1.789   4.139 -0.8561 -0.0916 -2.0049
 2410SOL     OW18862   0.759   0.438   4.273 -0.3927 -0.6302  0.7322
 2410SOL    HW118863   0.771   0.353   4.231  0.4906 -0.1004 -0.0845
 2410SOL    HW218864   0.707   0.422   4.352 -1.3645 -1.8541 -0.1535
 2411SOL     OW18865   3.122   3.873  17.332  0.0189 -0.0993 -0.0555
 2411SOL    HW118866   3.214   3.848  17.338  0.2876  1.0997  1.0041
 2411SOL    HW218867   3.134   3.965  17.355  1.1639 -0.4731  0.8262
 2412SOL     OW18868   2.962   3.773   3.911 -0.0782  0.5349  0.9120
 2412SOL    HW118869   3.026   3.703   3.899 -1.3002 -0.8857  2.5809
 2412SOL    HW218870   2.917   3.755   3.994  0.2558 -1.7525  0.5905
 2413SOL     OW18871   0.504   4.155   8.840  0.0009 -0.1333 -0.5890
 2413SOL    HW118872   0.505   4.071   8.794  2.0625  0.1395 -1.0420
 2413SOL    HW218873   0.414   4.186   8.837  0.0454  0.1830  1.4242
 2414SOL     OW18874   1.620   2.907   4.493  0.1350  0.0372 -0.0598
 2414SOL    HW118875   1.627   3.000   4.514 -0.0733 -0.2550  1.3094
 2414SOL    HW218876   1.545   2.911   4.434  0.3239 -1.9609 -0.4173
 2415SOL     OW18877   1.640   3.005   8.649 -0.3039  0.1230  0.2731
 2415SOL    HW118878   1.581   3.029   8.721  1.6442  0.1492  1.8430
 2415SOL    HW218879   1.606   3.059   8.577 -0.3673 -1.5348 -0.9474
 2416SOL     OW18880   2.689   1.781  15.033 -0.6125  0.1047  0.8163
 2416SOL    HW118881   2.739   1.732  15.099  0.6446 -0.0605 -0.2600
 2416SOL    HW218882   2.755   1.803  14.967 -1.2116 -1.8446 -0.4434
 2417SOL     OW18883   4.387   3.132   3.250 -0.4763  0.2529  0.2943
 2417SOL    HW118884   4.463   3.189   3.240  0.1955 -0.6428  0.2941
 2417SOL    HW218885   4.421   3.063   3.192 -2.3086 -1.4682  1.2937
 2418SOL     OW18886   3.303   3.615   1.594 -0.2886 -0.7238 -0.4837
 2418SOL    HW118887   3.225   3.561   1.604 -0.0774 -0.7320  1.1442
 2418SOL    HW218888   3.328   3.614   1.686  0.8299 -0.5625 -0.7853
 2419SOL     OW18889   1.737   3.640   2.658  0.0397 -0.4749 -0.8485
 2419SOL    HW118890   1.759   3.546   2.659 -2.7373 -1.0639  1.7204
 2419SOL    HW218891   1.762   3.682   2.575 -0.0452  2.5360  0.6759
 2420SOL     OW18892   0.299   1.256   4.489 -0.3454 -0.6460 -0.8215
 2420SOL    HW118893   0.326   1.348   4.482 -0.2161 -0.5300  1.2088
 2420SOL    HW218894   0.261   1.250   4.577  0.1911 -1.4867 -0.6493
 2421SOL     OW18895   3.268   3.266  11.276 -0.5372  0.4567  0.2671
 2421SOL    HW118896   3.326   3.341  11.264 -1.8802  1.7992  2.0894
 2421SOL    HW218897   3.193   3.296  11.328 -1.9518  2.4488 -2.9186
 2422SOL     OW18898   2.140   1.750  15.694 -0.4017 -0.4678 -0.4698
 2422SOL    HW118899   2.108   1.840  15.695  0.3659 -0.1779 -1.8954
 2422SOL    HW218900   2.098   1.716  15.614 -0.4082 -0.8195 -0.3166
 2423SOL     OW18901   0.959   4.445   3.931  0.0678 -0.5037 -0.0040
 2423SOL    HW118902   0.975   4.368   3.877 -0.7027 -1.1561  0.7039
 2423SOL    HW218903   0.932   4.400   4.011  0.6586 -1.9421 -0.6310
 2424SOL     OW18904   0.680   0.446  13.419 -0.7308  0.8055 -0.5195
 2424SOL    HW118905   0.718   0.434  13.332  3.3790  1.6554  1.1494
 2424SOL    HW218906   0.586   0.443  13.405 -0.5046 -0.3926 -1.8374
 2425SOL     OW18907   2.583   3.920  13.204  0.1259 -0.0413  0.7279
 2425SOL    HW118908   2.606   3.882  13.119  0.8751 -0.0124  0.9238
 2425SOL    HW218909   2.670   3.925  13.244  0.8092 -1.4724 -0.5582
 2426SOL     OW18910   4.101   3.811   0.632  0.3327 -0.2342 -0.0599
 2426SOL    HW118911   4.032   3.798   0.568 -1.1168  0.1300  1.4328
 2426SOL    HW218912   4.180   3.762   0.608 -0.1224  0.0294 -2.0952
 2427SOL     OW18913   0.594   2.669   9.841 -0.0412  0.4328 -0.0064
 2427SOL    HW118914   0.635   2.604   9.784  0.9334 -1.5656  2.9564
 2427SOL    HW218915   0.500   2.657   9.828 -0.0341  1.0900 -0.6074
 2428SOL     OW18916   4.704   0.599  17.366 -0.1134 -0.4930  0.0271
 2428SOL    HW118917   4.700   0.623  17.273  1.1161 -0.8551 -0.1219
 2428SOL    HW218918   4.639   0.663  17.395  1.3732  0.6545  0.8346
 2429SOL     OW18919   4.058   1.017  14.853  0.1716 -0.3491  0.0442
 2429SOL    HW118920   3.967   1.002  14.881  0.3411 -0.9118  0.2967
 2429SOL    HW218921   4.110   0.976  14.922  2.1369  1.0212 -0.6521
 2430SOL     OW18922   4.360   4.360   7.043 -0.7105 -0.4826 -0.3000
 2430SOL    HW118923   4.398   4.272   7.052 -1.3859 -0.7386  0.0677
 2430SOL    HW218924   4.292   4.345   6.977 -0.2673  1.7855 -1.2838
 2431SOL     OW18925   4.317   0.805   6.438 -0.2848 -0.3044  0.1546
 2431SOL    HW118926   4.267   0.726   6.422  1.6917 -1.6468  0.6035
 2431SOL    HW218927   4.405   0.773   6.459 -0.5237 -0.8889  0.2516
 2432SOL     OW18928   0.314   0.913  16.124  0.0024 -0.5687  0.2877
 2432SOL    HW118929   0.337   0.992  16.075 -1.7907  0.7829  1.6199
 2432SOL    HW218930   0.299   0.937  16.216  1.8646 -2.6310  1.1185
 2433SOL     OW18931   0.411   1.968   1.177 -0.6380 -0.3822 -0.1977
 2433SOL    HW118932   0.491   1.996   1.134 -0.2429 -0.6702  0.3555
 2433SOL    HW218933   0.439   1.902   1.240 -2.3365  2.0251  3.1461
 2434SOL     OW18934   2.110   3.669   7.036  0.3237  0.2116  0.0077
 2434SOL    HW118935   2.178   3.619   6.990  0.9052  2.4715 -1.5763
 2434SOL    HW218936   2.133   3.665   7.129 -0.2059 -0.5628  0.1093
 2435SOL     OW18937   0.020   3.134  15.156 -0.0136 -1.0058  0.0619
 2435SOL    HW118938   0.001   3.110  15.246 -0.5031  0.4105  0.3306
 2435SOL    HW218939   4.679   3.180  15.128  0.6581  0.0171 -0.1867
 2436SOL     OW18940   3.345   2.325   5.483 -0.3477 -0.3842 -0.1850
 2436SOL    HW118941   3.352   2.257   5.416  2.5245 -0.6050  0.3281
 2436SOL    HW218942   3.274   2.375   5.443  0.5815  1.1719  0.1169
 2437SOL     OW18943   3.549   0.011   3.076 -0.2257 -0.0373 -0.3884
 2437SOL    HW118944   3.598   4.735   2.995  0.6669 -0.3948  0.2065
 2437SOL    HW218945   3.601   4.696   3.136  0.9964  1.4505 -0.1237
 2438SOL     OW18946   4.009   1.224   5.965 -0.0665 -0.1000 -0.2304
 2438SOL    HW118947   3.984   1.133   5.980  0.7306  0.4127  4.0746
 2438SOL    HW218948   4.103   1.222   5.982 -0.4133 -2.3954  1.4906
 2439SOL     OW18949   2.473   1.407   5.210  0.5926 -0.5941  0.3917
 2439SOL    HW118950   2.559   1.364   5.215  0.1470 -1.2625  2.1605
 2439SOL    HW218951   2.431   1.362   5.283 -0.8038  0.1572  0.0453
 2440SOL     OW18952   2.852   2.942   5.752 -0.1335 -0.1109 -0.2402
 2440SOL    HW118953   2.896   3.026   5.766 -0.0250  0.1048 -1.8742
 2440SOL    HW218954   2.793   2.964   5.680 -0.0135  1.6369  0.1843
 2441SOL     OW18955   1.136   1.812   4.685  0.2906  0.0324  0.6100
 2441SOL    HW118956   1.129   1.824   4.780 -0.0865 -0.8687  0.6950
 2441SOL    HW218957   1.193   1.888   4.670 -1.4058  0.8510 -1.6110
 2442SOL     OW18958   3.365   0.038  15.366 -0.4161  0.2364  0.2264
 2442SOL    HW118959   3.347   0.019  15.274  1.1433 -1.9414  0.3639
 2442SOL    HW218960   3.416   4.703  15.401 -1.8577  1.4057  4.7145
 2443SOL     OW18961   3.526   1.716   5.754 -0.4912 -0.5512 -0.5572
 2443SOL    HW118962   3.588   1.644   5.751  1.4246  1.0794 -0.3376
 2443SOL    HW218963   3.451   1.684   5.704 -1.8531  1.3247  0.2925
 2444SOL     OW18964   2.874   1.743   5.983 -0.7043  0.1958  0.1702
 2444SOL    HW118965   2.945   1.736   5.919 -0.5740 -0.9778  0.4333
 2444SOL    HW218966   2.820   1.809   5.939 -1.2021  0.3769  1.0702
 2445SOL     OW18967   2.328   0.316   5.015  0.1970 -0.2833  0.2622
 2445SOL    HW118968   2.274   0.242   5.043  0.3324 -0.5162 -0.0951
 2445SOL    HW218969   2.295   0.327   4.925 -1.2275 -1.2144  0.6681
 2446SOL     OW18970   2.183   3.915   8.749  0.1589  0.2042 -0.1771
 2446SOL    HW118971   2.088   3.910   8.761  0.5051 -0.5419  2.2946
 2446SOL    HW218972   2.215   3.832   8.714 -0.1961  1.0052 -2.4049
 2447SOL     OW18973   3.920   1.492   2.192 -0.1933  0.2795  0.4969
 2447SOL    HW118974   3.990   1.553   2.215  1.7210 -1.7358  0.0793
 2447SOL    HW218975   3.948   1.464   2.105  0.9188  1.6008  0.4358
 2448SOL     OW18976   0.898   4.728   5.397 -0.4011  0.3578  0.2549
 2448SOL    HW118977   0.835   0.037   5.343 -0.0793  1.8202  1.1480
 2448SOL    HW218978   0.980   0.030   5.370 -0.8172  1.1279  0.1238
 2449SOL     OW18979   3.153   4.619   2.084  0.1982 -0.3536 -0.4141
 2449SOL    HW118980   3.203   4.687   2.130  1.0626 -0.7231 -0.8000
 2449SOL    HW218981   3.075   4.670   2.062 -1.2201 -2.2941  0.1004
 2450SOL     OW18982   1.563   1.885  10.234 -0.4977 -0.4266  0.0162
 2450SOL    HW118983   1.492   1.870  10.172 -1.8349 -0.9285  1.6695
 2450SOL    HW218984   1.620   1.929  10.171  0.7894  0.1833  1.6081
 2451SOL     OW18985   4.285   0.904   6.830 -0.5468  1.0689 -0.0341
 2451SOL    HW118986   4.319   0.958   6.902 -2.0546 -2.2820  3.2226
 2451SOL    HW218987   4.365   0.867   6.794  0.4987  0.9384  2.4100
 2452SOL     OW18988   4.415   2.513   7.902  0.1794 -0.5083 -0.1832
 2452SOL    HW118989   4.336   2.530   7.851  1.4723  1.7306 -1.4262
 2452SOL    HW218990   4.371   2.496   7.986  1.6353  0.5736  0.7858
 2453SOL     OW18991   1.278   4.245   2.718 -0.1893  0.6465  0.2675
 2453SOL    HW118992   1.295   4.259   2.625  1.9868 -1.2209  0.3758
 2453SOL    HW218993   1.365   4.234   2.755 -0.5379  0.5973  1.0596
 2454SOL     OW18994   0.227   3.315   1.299  0.2617  0.1584  0.1834
 2454SOL    HW118995   0.268   3.391   1.258  1.4713 -0.0430  0.9998
 2454SOL    HW218996   0.154   3.355   1.346  0.6091 -0.6358  1.4046
 2455SOL     OW18997   1.596   3.013  13.510 -0.3617  0.2259 -0.5063
 2455SOL    HW118998   1.589   3.003  13.415  0.0312 -0.6827 -0.4434
 2455SOL    HW218999   1.664   2.951  13.537 -0.3006  0.7228  0.4734
 2456SOL     OW19000   2.292   1.841   8.456  0.2070  0.4387  0.3241
 2456SOL    HW119001   2.311   1.933   8.475  1.7088 -0.0008  1.0028
 2456SOL    HW219002   2.219   1.841   8.395  1.6309 -0.2048 -1.3739
 2457SOL     OW19003   2.278   2.819   8.289  0.0295  0.3174  0.0383
 2457SOL    HW119004   2.218   2.795   8.360 -1.4599  1.4862 -0.8181
 2457SOL    HW219005   2.291   2.914   8.297  3.0283 -0.0924 -0.0601
 2458SOL     OW19006   2.173   4.380   6.119  0.2952  0.2648  0.2160
 2458SOL    HW119007   2.220   4.463   6.110 -1.6996  1.2014 -1.6257
 2458SOL    HW219008   2.182   4.340   6.032 -3.9212  0.7051 -0.4150
 2459SOL     OW19009   1.259   0.979   6.671 -0.2025  0.3016  0.1400
 2459SOL    HW119010   1.244   1.057   6.725 -2.2553  0.0481 -0.0748
 2459SOL    HW219011   1.293   0.918   6.737  1.7661  0.9521 -0.2704
 2460SOL     OW19012   1.995   3.135   2.118  0.0687  0.0144  0.3017
 2460SOL    HW119013   2.077   3.184   2.123  0.4432 -0.5659 -0.1570
 2460SOL    HW219014   1.975   3.129   2.211 -1.1344 -1.1847 -0.0302
 2461SOL     OW19015   2.190   4.630  12.599  0.0840 -0.8254  0.4058
 2461SOL    HW119016   2.115   4.617  12.541 -2.2509 -0.2973  3.3063
 2461SOL    HW219017   2.256   4.681  12.551 -0.7940 -1.2267 -1.2333
 2462SOL     OW19018   3.671   1.384   2.849 -0.0209 -0.1976  0.1659
 2462SOL    HW119019   3.632   1.299   2.834  2.3573 -1.3949  0.6403
 2462SOL    HW219020   3.663   1.383   2.945 -1.2204  0.9704  0.0729
 2463SOL     OW19021   0.004   1.206  14.276 -0.2785  0.2577 -0.0747
 2463SOL    HW119022   4.657   1.236  14.307  0.3194 -1.0739  2.8694
 2463SOL    HW219023   4.717   1.190  14.185  0.5874 -0.6423 -0.1557
 2464SOL     OW19024   1.508   2.555   8.179 -0.4314  0.7390  0.0545
 2464SOL    HW119025   1.436   2.615   8.161  0.4510  2.1026  1.0944
 2464SOL    HW219026   1.582   2.588   8.128 -1.8630  3.0712 -0.5058
 2465SOL     OW19027   1.135   3.942   8.780 -0.0340  0.2815 -0.1796
 2465SOL    HW119028   1.109   3.899   8.699 -1.3283 -1.1544  1.0001
 2465SOL    HW219029   1.176   4.021   8.745  0.0208  0.8532  1.1769
 2466SOL     OW19030   4.436   4.212   2.138 -0.7588  0.4564  0.5375
 2466SOL    HW119031   4.366   4.222   2.074 -0.7755  1.1215  0.6521
 2466SOL    HW219032   4.497   4.282   2.114 -1.6655  0.9004 -0.4863
 2467SOL     OW19033   4.169   0.403   1.542 -0.2777 -0.1832 -0.6422
 2467SOL    HW119034   4.245   0.377   1.490 -0.5075 -2.4417  0.1425
 2467SOL    HW219035   4.175   0.357   1.626  1.6800 -1.6439 -1.5974
 2468SOL     OW19036   0.517   4.292  14.596 -0.2805  0.4662  0.2615
 2468SOL    HW119037   0.428   4.286  14.631 -0.6357  0.9650 -0.5484
 2468SOL    HW219038   0.551   4.346  14.667 -2.9855  4.4498 -1.4283
 2469SOL     OW19039   1.144   3.146   8.519 -0.2797 -0.0211 -0.1226
 2469SOL    HW119040   1.105   3.194   8.593 -0.7866  0.8570 -0.9584
 2469SOL    HW219041   1.125   3.058   8.553 -0.9805  0.0605 -0.2941
 2470SOL     OW19042   1.953   3.456  15.177  0.7193 -0.2266 -0.1323
 2470SOL    HW119043   1.958   3.380  15.235  0.2637  0.3436  0.6535
 2470SOL    HW219044   2.041   3.492  15.189 -0.2501  2.7300 -1.9520
 2471SOL     OW19045   2.384   2.000   4.757 -0.5150 -0.5276 -0.3354
 2471SOL    HW119046   2.477   1.979   4.756 -0.3054  0.3339  1.9834
 2471SOL    HW219047   2.360   1.958   4.840 -0.3958 -0.0300 -0.0495
 2472SOL     OW19048   3.023   3.515  13.560 -0.4660  0.0890  0.1870
 2472SOL    HW119049   3.090   3.505  13.628 -0.9009  0.8311  0.7181
 2472SOL    HW219050   2.972   3.435  13.569  2.3120 -1.6911  0.3289
 2473SOL     OW19051   4.117   2.546   9.767  0.6208  0.2805 -0.0270
 2473SOL    HW119052   4.143   2.464   9.725  1.6815  0.4076  0.3860
 2473SOL    HW219053   4.041   2.528   9.821  0.2153  0.1038 -0.6611
 2474SOL     OW19054   0.156   0.227   0.064 -0.3919  0.2753 -0.7790
 2474SOL    HW119055   0.134   0.180   0.144 -2.5031  0.2759 -1.3715
 2474SOL    HW219056   0.083   0.288   0.056  0.1578  1.0447  0.1216
 2475SOL     OW19057   0.607   0.067  16.427 -0.4104 -0.2945  0.7560
 2475SOL    HW119058   0.623   0.154  16.389  0.6092 -0.6311  0.4270
 2475SOL    HW219059   0.608   0.081  16.522 -1.3550  0.3883  0.6667
 2476SOL     OW19060   1.538   4.734  14.397 -0.3058  0.0021  0.2861
 2476SOL    HW119061   1.572   4.724  14.486 -3.2242  2.1461  1.6631
 2476SOL    HW219062   1.445   4.735  14.421 -0.3664  0.2590  0.0321
 2477SOL     OW19063   0.984   0.722   5.683 -0.3396 -0.1870 -0.0480
 2477SOL    HW119064   1.033   0.689   5.758 -0.4921 -0.0361  0.1187
 2477SOL    HW219065   0.936   0.796   5.721  0.4322 -0.3333  1.1893
 2478SOL     OW19066   3.440   2.777   8.354  0.3136  0.5215 -0.1327
 2478SOL    HW119067   3.446   2.873   8.356 -2.3613  0.7162 -0.8315
 2478SOL    HW219068   3.360   2.772   8.406 -0.5933 -1.2372 -1.7040
 2479SOL     OW19069   3.030   2.277   6.972 -0.4496  0.2445  0.1922
 2479SOL    HW119070   3.014   2.255   6.880 -1.0975  1.8856 -0.0751
 2479SOL    HW219071   2.995   2.196   7.010  2.0054  0.5856  3.1887
 2480SOL     OW19072   1.921   4.083   9.504  0.3193  0.1567  0.4753
 2480SOL    HW119073   1.876   4.165   9.521  0.2496  0.6769 -2.2777
 2480SOL    HW219074   2.012   4.111   9.512 -0.7735  2.4386  4.5637
 2481SOL     OW19075   1.167   2.407  13.084  0.3878  0.3656 -0.5409
 2481SOL    HW119076   1.084   2.367  13.111  0.1195  0.5410 -1.1119
 2481SOL    HW219077   1.231   2.376  13.148  0.2876  0.8053 -0.2285
 2482SOL     OW19078   3.855   4.156   0.011 -0.2071 -0.1903 -0.3107
 2482SOL    HW119079   3.875   4.210  17.686 -0.3759 -2.3414 -1.8565
 2482SOL    HW219080   3.841   4.214   0.086 -0.1991 -0.2907 -0.2310
 2483SOL     OW19081   1.043   1.414   6.321  0.3837 -0.6580  1.0288
 2483SOL    HW119082   1.011   1.372   6.241  0.7129  0.6533  0.2075
 2483SOL    HW219083   0.959   1.448   6.351  0.3107 -1.8675  2.1696
 2484SOL     OW19084   4.141   3.739   2.399  0.0723 -0.1714 -0.4633
 2484SOL    HW119085   4.122   3.794   2.323  0.0691 -1.1361 -1.1539
 2484SOL    HW219086   4.181   3.664   2.355  1.7382  0.8167 -0.6321
 2485SOL     OW19087   0.210   3.326  15.421  0.0972  0.1906 -0.4904
 2485SOL    HW119088   0.295   3.284  15.436 -0.3212 -0.8134 -0.8772
 2485SOL    HW219089   0.179   3.322  15.511  0.9661 -1.6123 -0.2643
 2486SOL     OW19090   2.399   1.731   7.754  0.0396 -0.7263  0.2299
 2486SOL    HW119091   2.430   1.822   7.749 -0.9027 -0.2581  3.0209
 2486SOL    HW219092   2.461   1.691   7.694  1.0653 -0.3964  1.0847
 2487SOL     OW19093   0.272   2.694  10.732  0.2472  0.0474 -0.1255
 2487SOL    HW119094   0.232   2.666  10.814 -0.1687  1.5822  0.1935
 2487SOL    HW219095   0.267   2.612  10.684  4.6317  0.5507 -1.4963
 2488SOL     OW19096   4.109   1.032   4.570  0.1961  0.0192 -0.4126
 2488SOL    HW119097   4.098   0.970   4.498  2.0241 -1.2889  0.4391
 2488SOL    HW219098   4.028   1.081   4.557  0.1447  0.2160  0.6518
 2489SOL     OW19099   1.782   0.256  17.695  0.0989  0.5541  0.1625
 2489SOL    HW119100   1.806   0.184   0.000  1.1183 -0.8922 -2.1217
 2489SOL    HW219101   1.699   0.278  17.738  0.1934  0.6993  0.2698
 2490SOL     OW19102   2.509   0.946   4.375 -0.3107 -0.3634 -0.0499
 2490SOL    HW119103   2.450   0.931   4.449  2.8103 -0.3234  2.4315
 2490SOL    HW219104   2.466   0.897   4.305  2.7206 -1.1132 -1.3918
 2491SOL     OW19105   0.678   0.726   8.810  0.6015 -0.4515  0.6383
 2491SOL    HW119106   0.687   0.753   8.901  3.1049 -1.4639  0.6865
 2491SOL    HW219107   0.741   0.782   8.764 -0.2624  0.4642  0.5596
 2492SOL     OW19108   1.406   0.075   1.739  0.2831  0.1181  0.3315
 2492SOL    HW119109   1.316   0.089   1.769  0.5536  1.5847  0.4544
 2492SOL    HW219110   1.407   4.724   1.707  0.2499 -0.2421  1.3306
 2493SOL     OW19111   3.415   4.542   7.450  0.1507 -0.1019  0.4918
 2493SOL    HW119112   3.441   4.533   7.542  0.6860  0.4181  0.3980
 2493SOL    HW219113   3.337   4.487   7.451  0.7024 -0.8817  1.6635
 2494SOL     OW19114   0.788   2.167   7.942 -0.0460 -0.1635 -0.0868
 2494SOL    HW119115   0.748   2.242   7.987 -1.2671 -1.6849  1.3391
 2494SOL    HW219116   0.788   2.107   8.016 -0.5160 -1.0905 -0.8436
 2495SOL     OW19117   4.593   3.110   1.087  0.2643 -0.0118  0.3099
 2495SOL    HW119118   4.552   3.170   1.024 -0.9489 -0.4343  0.7137
 2495SOL    HW219119   4.617   3.175   1.152 -2.6008  1.2516  0.0723
 2496SOL     OW19120   3.015   0.871   2.822 -0.1072  0.0163 -0.2094
 2496SOL    HW119121   3.018   0.840   2.913  1.6270 -1.3654 -0.7481
 2496SOL    HW219122   3.091   0.831   2.780 -0.5377 -1.5360  0.4907
 2497SOL     OW19123   1.095   1.743  16.518 -0.2463 -0.0316 -0.1897
 2497SOL    HW119124   1.125   1.725  16.429  1.3419 -0.5674  0.4427
 2497SOL    HW219125   1.148   1.674  16.558 -0.1207  0.8462  1.1683
 2498SOL     OW19126   3.425   4.302   9.041 -0.3824  0.6842 -0.3363
 2498SOL    HW119127   3.385   4.302   8.954  1.0291 -0.2366 -0.9963
 2498SOL    HW219128   3.348   4.338   9.085  0.1912 -0.4118  1.5423
 2499SOL     OW19129   3.095   3.994   4.021  0.3353 -0.5175  0.2870
 2499SOL    HW119130   3.094   3.976   4.115 -2.8058 -0.8940  0.1729
 2499SOL    HW219131   3.035   3.930   3.983 -1.2990  1.4502 -0.4217
 2500SOL     OW19132   2.076   3.697   2.989  0.0471 -0.7624  0.6921
 2500SOL    HW119133   2.064   3.772   2.930  1.3495 -1.5958 -0.6011
 2500SOL    HW219134   2.145   3.649   2.945 -2.0306 -3.4970  0.4295
 2501SOL     OW19135   1.303   4.141   5.325 -0.3345  0.4448 -0.7582
 2501SOL    HW119136   1.265   4.227   5.308 -1.0190  0.7203  2.2003
 2501SOL    HW219137   1.348   4.158   5.407 -1.2435 -1.9935  0.2416
 2502SOL     OW19138   1.907   2.171   7.780  0.3960 -0.4877 -0.5144
 2502SOL    HW119139   1.926   2.188   7.688  4.0118  1.1545  0.5308
 2502SOL    HW219140   1.958   2.241   7.821 -0.7296 -0.7611  1.3608
 2503SOL     OW19141   1.427   0.123   9.017 -0.3891  0.2389 -0.2430
 2503SOL    HW119142   1.516   0.158   9.011  0.0926 -1.1244 -0.9302
 2503SOL    HW219143   1.392   0.186   8.954 -0.7082  0.6101  0.2980
 2504SOL     OW19144   1.547   1.177   8.115 -0.4148 -0.6866  0.2114
 2504SOL    HW119145   1.525   1.089   8.147 -0.3076 -0.5207  0.7278
 2504SOL    HW219146   1.610   1.202   8.182  0.2423  2.3389 -1.5460
 2505SOL     OW19147   3.910   4.226  12.166 -0.0948  0.3004  0.0323
 2505SOL    HW119148   3.908   4.179  12.249 -1.0255  1.4421  0.6509
 2505SOL    HW219149   3.826   4.205  12.125 -0.1945 -0.2547  0.5252
 2506SOL     OW19150   3.456   2.826  12.567  0.7521 -0.3424 -0.3356
 2506SOL    HW119151   3.439   2.883  12.492  0.9824 -0.6092 -0.5895
 2506SOL    HW219152   3.403   2.862  12.638 -1.4910  0.2445 -2.3176
 2507SOL     OW19153   4.648   1.850   6.541  0.2983  0.1332  0.3038
 2507SOL    HW119154   4.671   1.941   6.560 -2.3186  0.8352  0.0176
 2507SOL    HW219155   4.596   1.830   6.619 -1.2941  0.9461 -0.5463
 2508SOL     OW19156   1.644   1.291  17.242 -0.3824 -0.5488 -0.0902
 2508SOL    HW119157   1.721   1.347  17.233 -2.0830  1.7946 -0.1004
 2508SOL    HW219158   1.591   1.347  17.299 -1.6909 -0.9224 -0.9277
 2509SOL     OW19159   3.348   2.055   3.932  0.4492 -0.1282 -0.6111
 2509SOL    HW119160   3.310   2.042   3.845  0.8928 -1.4923 -0.5967
 2509SOL    HW219161   3.276   2.110   3.963  0.1962 -1.2732  0.7991
 2510SOL     OW19162   1.497   2.154  17.205 -0.4943  0.2783  0.1595
 2510SOL    HW119163   1.550   2.171  17.127 -0.7928  0.8405  0.0730
 2510SOL    HW219164   1.411   2.189  17.181  0.0031  0.8259 -0.8035
 2511SOL     OW19165   1.335   1.286  11.544 -0.5140 -0.1576  0.0867
 2511SOL    HW119166   1.317   1.280  11.638 -2.0020  0.5829 -0.1434
 2511SOL    HW219167   1.361   1.197  11.522 -0.5908 -0.2232  0.2600
 2512SOL     OW19168   0.712   3.215  14.985  0.1576  0.2977 -0.2983
 2512SOL    HW119169   0.646   3.275  14.951 -2.1072 -2.4337 -0.6904
 2512SOL    HW219170   0.658   3.137  14.999  0.2688  0.4609  1.0978
 2513SOL     OW19171   2.008   0.497  14.763 -0.0296  0.3275 -0.7893
 2513SOL    HW119172   2.064   0.433  14.719 -0.6435 -0.4571 -0.4186
 2513SOL    HW219173   2.000   0.459  14.850 -1.2809 -3.5924 -2.6258
 2514SOL     OW19174   3.980   0.835   1.889 -0.2243  0.1639  0.0961
 2514SOL    HW119175   4.040   0.871   1.825 -0.0888  0.2066  0.2475
 2514SOL    HW219176   3.998   0.741   1.886  1.8135  0.6437 -1.9152
 2515SOL     OW19177   3.089   0.604   4.906 -0.0203  0.0091  0.7093
 2515SOL    HW119178   3.143   0.651   4.842 -0.1901  1.8020  1.8780
 2515SOL    HW219179   3.134   0.520   4.914 -1.8373 -0.9159  1.1610
 2516SOL     OW19180   1.378   3.815   6.483 -0.4343  0.2278  0.2122
 2516SOL    HW119181   1.467   3.780   6.477  0.3361  2.0710  0.7687
 2516SOL    HW219182   1.361   3.827   6.390 -0.1601 -0.0046  0.1326
 2517SOL     OW19183   3.172   4.276   4.143  0.4757  0.1404  0.0005
 2517SOL    HW119184   3.146   4.226   4.220 -1.2166  0.6946 -0.2060
 2517SOL    HW219185   3.210   4.354   4.183  0.4260  0.7393 -1.1053
 2518SOL     OW19186   2.408   1.168  14.808 -0.4542  0.1913  0.5574
 2518SOL    HW119187   2.489   1.218  14.816 -0.0214 -0.4238  0.0708
 2518SOL    HW219188   2.412   1.125  14.722  2.1326 -1.0048  1.2642
 2519SOL     OW19189   3.611   0.404  10.002  0.0333 -0.1859 -0.0179
 2519SOL    HW119190   3.588   0.463  10.073 -0.5288 -0.0042 -0.3521
 2519SOL    HW219191   3.676   0.459   9.959 -0.3928 -0.2207 -0.7014
 2520SOL     OW19192   3.053   3.792   6.293  0.3400 -0.5479  0.6192
 2520SOL    HW119193   2.994   3.718   6.308  0.7925 -1.2050 -0.8186
 2520SOL    HW219194   3.129   3.766   6.344  1.7823  1.0634 -0.6809
 2521SOL     OW19195   1.061   2.613   2.760  0.0313  0.0400  0.0887
 2521SOL    HW119196   0.984   2.558   2.778  0.8123 -1.2312 -0.4940
 2521SOL    HW219197   1.071   2.600   2.666 -0.0689 -1.6039  0.2930
 2522SOL     OW19198   4.372   1.831   8.609  0.5067 -0.0286 -0.5707
 2522SOL    HW119199   4.303   1.892   8.637  0.4441  0.0275 -0.8442
 2522SOL    HW219200   4.325   1.760   8.565  0.7305 -0.5440  0.0286
 2523SOL     OW19201   1.834   3.403  13.057 -0.2116 -0.0329  0.5346
 2523SOL    HW119202   1.776   3.344  13.009 -0.1926 -0.0372  0.5169
 2523SOL    HW219203   1.806   3.486  13.018  0.8712 -1.0343 -2.3514
 2524SOL     OW19204   3.431   3.482   8.243 -0.1220 -0.6260 -0.4004
 2524SOL    HW119205   3.476   3.420   8.186  0.7513 -0.3964  0.0353
 2524SOL    HW219206   3.340   3.470   8.216  0.3239  0.5431 -2.4233
 2525SOL     OW19207   2.221   2.454  15.350 -0.1702  0.1814 -0.3872
 2525SOL    HW119208   2.303   2.447  15.301 -0.5188 -1.0954 -0.7838
 2525SOL    HW219209   2.238   2.425  15.440 -0.2682 -0.5268 -0.5942
 2526SOL     OW19210   2.181   3.407   7.732 -0.3080 -0.3728  0.4802
 2526SOL    HW119211   2.192   3.328   7.784 -0.1397  0.5461  1.8273
 2526SOL    HW219212   2.236   3.461   7.788  0.2277 -0.3752 -0.0468
 2527SOL     OW19213   1.632   3.266  11.145  0.3376 -0.7074 -0.2281
 2527SOL    HW119214   1.575   3.220  11.084 -0.0816 -1.9081  1.0489
 2527SOL    HW219215   1.707   3.274  11.086  2.6710  0.1242  2.8462
 2528SOL     OW19216   2.686   0.941   1.695 -0.1410  0.0693  0.2250
 2528SOL    HW119217   2.644   1.027   1.689  2.5257  1.4670  1.1362
 2528SOL    HW219218   2.772   0.966   1.659  1.6637  0.0198  4.4210
 2529SOL     OW19219   2.965   3.463   1.224 -0.1447 -0.3928 -0.4107
 2529SOL    HW119220   2.875   3.476   1.194 -0.6413  1.0721  1.6977
 2529SOL    HW219221   2.946   3.391   1.285  1.3662 -0.6503 -0.2436
 2530SOL     OW19222   3.084   1.254  11.777 -0.6839  0.3831 -0.3730
 2530SOL    HW119223   3.146   1.326  11.768 -0.4945  0.1819 -0.6976
 2530SOL    HW219224   3.005   1.299  11.746 -0.7550 -0.9591 -2.1977
 2531SOL     OW19225   4.486   0.447   6.794 -0.2849 -0.3174  0.1781
 2531SOL    HW119226   4.452   0.361   6.770  0.7380 -0.6310 -0.1511
 2531SOL    HW219227   4.572   0.423   6.829 -0.7768 -1.3776  0.6383
 2532SOL     OW19228   4.360   0.216   1.658 -0.3273  0.4518 -0.0871
 2532SOL    HW119229   4.397   0.277   1.595  1.1232  0.3460  0.6501
 2532SOL    HW219230   4.376   0.252   1.746 -0.5928  0.9398 -0.2440
 2533SOL     OW19231   1.783   2.456   8.573  0.1315  0.2468  0.1175
 2533SOL    HW119232   1.740   2.416   8.497  1.9722  1.5186 -1.6209
 2533SOL    HW219233   1.872   2.419   8.573 -0.1522 -0.4732 -2.9131
 2534SOL     OW19234   2.631   1.045   5.642 -0.2371 -0.0103 -0.2809
 2534SOL    HW119235   2.586   1.058   5.725  0.6407 -0.5457  0.2767
 2534SOL    HW219236   2.588   0.966   5.607  0.5069 -0.6902  0.3241
 2535SOL     OW19237   2.121   0.742   0.591 -0.1432  0.4609  0.2330
 2535SOL    HW119238   2.033   0.770   0.568 -0.6899 -0.5058  1.1808
 2535SOL    HW219239   2.164   0.737   0.506  2.1550 -2.0298  1.5483
 2536SOL     OW19240   2.772   2.593   0.087 -0.1944  0.5951 -0.1226
 2536SOL    HW119241   2.813   2.677   0.105 -0.7727  0.8475  0.0216
 2536SOL    HW219242   2.739   2.564   0.172  1.7241 -0.0936  0.3915
 2537SOL     OW19243   4.054   2.267   3.090 -0.0087  0.2585  0.0201
 2537SOL    HW119244   4.061   2.324   3.166  0.3952 -0.6872  0.6784
 2537SOL    HW219245   4.130   2.212   3.108  0.6141  1.0082 -0.3272
 2538SOL     OW19246   0.679   1.100   1.969  0.4407  0.0718  0.2066
 2538SOL    HW119247   0.696   1.164   1.900 -2.0757  1.9325  1.3320
 2538SOL    HW219248   0.767   1.081   2.002  0.9129 -0.5009 -1.4172
 2539SOL     OW19249   0.545   3.021  15.034 -0.7926  0.0681  0.2970
 2539SOL    HW119250   0.577   2.931  15.043  1.2943  0.8824  0.7633
 2539SOL    HW219251   0.470   2.989  14.984 -1.1938  1.5294 -0.0439
 2540SOL     OW19252   1.592   1.247   2.582 -0.2399  0.8075 -0.2330
 2540SOL    HW119253   1.547   1.200   2.512  1.3064  0.5928 -1.0863
 2540SOL    HW219254   1.683   1.244   2.552  0.5026 -1.5223  2.1900
 2541SOL     OW19255   3.427   1.211   3.224 -0.2199 -0.1833  0.1251
 2541SOL    HW119256   3.340   1.194   3.186  0.2656 -0.7959 -0.7122
 2541SOL    HW219257   3.403   1.280   3.286 -1.6262  0.3683 -1.0113
 2542SOL     OW19258   4.645   1.917   8.577 -0.4455 -0.1153 -0.8350
 2542SOL    HW119259   4.564   1.880   8.612 -1.3650  0.7017 -2.1189
 2542SOL    HW219260   4.645   1.893   8.484 -0.8759  0.7240 -1.0505
 2543SOL     OW19261   3.424   4.516   4.585 -0.6284  0.2753 -0.2315
 2543SOL    HW119262   3.398   4.603   4.555 -1.2150 -0.4556 -1.8375
 2543SOL    HW219263   3.500   4.544   4.636  0.5769 -0.4571 -1.5934
 2544SOL     OW19264   1.925   2.800   5.908 -0.0240 -0.0719 -0.5476
 2544SOL    HW119265   1.873   2.809   5.987  1.7481  1.8362  0.3949
 2544SOL    HW219266   2.005   2.760   5.943  2.1041  0.3021 -4.9748
 2545SOL     OW19267   4.216   2.206   7.896 -0.4454 -0.3383  0.1567
 2545SOL    HW119268   4.140   2.219   7.953 -0.5464 -0.1097 -0.0301
 2545SOL    HW219269   4.185   2.150   7.825 -0.2178 -1.5678  1.0310
 2546SOL     OW19270   2.446   2.960   4.728  0.3414 -0.0756  0.0316
 2546SOL    HW119271   2.493   3.037   4.763  1.4093 -0.0383 -1.5077
 2546SOL    HW219272   2.380   2.938   4.794  1.4405 -0.7403  0.9274
 2547SOL     OW19273   4.329   0.178   7.213 -0.2231 -0.4426  0.4272
 2547SOL    HW119274   4.279   0.121   7.272  0.1204  0.1061  1.2584
 2547SOL    HW219275   4.418   0.143   7.212 -0.3185 -0.7302  1.3236
 2548SOL     OW19276   1.367   3.371   5.459  0.6133  0.3071  0.5164
 2548SOL    HW119277   1.293   3.311   5.445  0.1322  0.9582  0.2492
 2548SOL    HW219278   1.336   3.458   5.484 -0.7395  0.1353 -0.5688
 2549SOL     OW19279   0.680   3.366  16.511 -0.1000 -0.3738 -0.8164
 2549SOL    HW119280   0.644   3.295  16.459 -0.2762 -1.4829  0.8193
 2549SOL    HW219281   0.742   3.407  16.450 -0.7722 -0.8570 -1.8102
 2550SOL     OW19282   3.703   0.686   5.774  0.1223 -0.0190  0.2733
 2550SOL    HW119283   3.619   0.731   5.771  0.8587  1.3723  0.8394
 2550SOL    HW219284   3.744   0.724   5.697  0.4855  0.2462  0.6020
 2551SOL     OW19285   1.865   4.726   8.178 -0.0257 -0.1169  0.7409
 2551SOL    HW119286   1.880   4.675   8.098  0.0991 -0.7868  1.1971
 2551SOL    HW219287   1.773   4.699   8.183 -0.7437  2.1230 -0.3058
 2552SOL     OW19288   0.731   2.564   2.663  0.3880  0.5675 -0.2276
 2552SOL    HW119289   0.775   2.499   2.718 -1.9305 -0.4373  0.4356
 2552SOL    HW219290   0.645   2.573   2.705 -0.4661 -1.1318 -1.6529
 2553SOL     OW19291   2.344   4.180   3.457 -0.0487 -0.0551  0.3173
 2553SOL    HW119292   2.399   4.111   3.420 -2.2628 -1.0248 -1.1627
 2553SOL    HW219293   2.337   4.141   3.544 -1.1756  1.3308  0.8460
 2554SOL     OW19294   1.078   1.795  13.498 -0.2285 -0.5254 -0.1037
 2554SOL    HW119295   1.160   1.830  13.532 -0.7214  0.4088  0.1373
 2554SOL    HW219296   1.049   1.867  13.442 -1.1412 -1.2525 -0.5820
 2555SOL     OW19297   4.181   0.500   7.754 -0.6963  0.3243  0.0242
 2555SOL    HW119298   4.205   0.535   7.840  0.4717 -0.2493 -0.0690
 2555SOL    HW219299   4.203   0.408   7.764 -2.1689  0.2815  2.9161
 2556SOL     OW19300   2.669   2.067   5.068 -0.1209 -0.1511  0.3338
 2556SOL    HW119301   2.742   2.060   5.131 -1.0455  1.6714  1.5973
 2556SOL    HW219302   2.599   2.033   5.124  2.0747 -4.0560  0.7542
 2557SOL     OW19303   1.259   2.677   6.556  0.1970 -0.2121 -0.6238
 2557SOL    HW119304   1.337   2.633   6.523  1.6123  0.3534  1.9451
 2557SOL    HW219305   1.201   2.604   6.535  0.4200 -0.5883  0.0617
 2558SOL     OW19306   4.517   2.248   5.332 -0.0862  0.3105 -0.0531
 2558SOL    HW119307   4.430   2.251   5.371 -0.3452 -1.1590 -0.5003
 2558SOL    HW219308   4.527   2.341   5.313 -0.3895  0.5013  0.7154
 2559SOL     OW19309   0.494   0.067   3.086 -0.0812 -0.0112  0.1347
 2559SOL    HW119310   0.488   0.121   3.164 -0.5752  2.2962 -1.5128
 2559SOL    HW219311   0.590   0.062   3.076  0.2992  1.2780  3.1791
 2560SOL     OW19312   4.218   0.385   6.899  0.2860 -0.3084 -0.6631
 2560SOL    HW119313   4.308   0.412   6.915  0.0046  0.4519 -0.3963
 2560SOL    HW219314   4.192   0.445   6.830 -0.2129  1.5108  1.1248
 2561SOL     OW19315   0.755   3.701   6.166 -0.1532  0.0018 -0.0977
 2561SOL    HW119316   0.716   3.669   6.248  0.8011 -1.0919 -0.0623
 2561SOL    HW219317   0.694   3.767   6.133 -0.0067 -0.1173 -0.6095
 2562SOL     OW19318   4.256   3.086   6.018 -0.2637 -0.0465  0.0846
 2562SOL    HW119319   4.171   3.042   6.016 -0.4146  0.2340  0.2214
 2562SOL    HW219320   4.299   3.050   6.096  1.3640  0.6303 -0.5100
 2563SOL     OW19321   0.189   3.403   9.483  0.3553 -0.1126 -0.1008
 2563SOL    HW119322   0.180   3.489   9.523  0.3322  0.3417 -1.0982
 2563SOL    HW219323   0.158   3.344   9.552  0.8326 -2.2832 -1.7373
 2564SOL     OW19324   2.438   0.093   3.846  0.4561  0.3913  0.1985
 2564SOL    HW119325   2.425   0.013   3.896 -0.2216  0.0061 -0.5829
 2564SOL    HW219326   2.428   0.066   3.754  0.6013  0.0091  0.2963
 2565SOL     OW19327   0.035   4.426   1.129 -0.2069  0.1471  0.0283
 2565SOL    HW119328   0.116   4.375   1.129 -0.4517 -0.2504 -0.6610
 2565SOL    HW219329   4.731   4.409   1.045  1.3070  0.5459 -0.8027
 2566SOL     OW19330   0.803   4.398   4.166 -0.0612 -0.2340  0.1967
 2566SOL    HW119331   0.733   4.456   4.136  0.8235  0.3742 -0.6683
 2566SOL    HW219332   0.853   4.453   4.226 -2.7258  0.0117  2.2193
 2567SOL     OW19333   4.325   2.500   5.796  0.1519  0.1598 -0.1773
 2567SOL    HW119334   4.242   2.457   5.817 -0.8369  0.4751 -3.4535
 2567SOL    HW219335   4.338   2.564   5.866  0.9064 -0.2126  0.0290
 2568SOL     OW19336   1.802   3.905   4.397 -1.1031 -0.8459 -0.0962
 2568SOL    HW119337   1.774   3.820   4.364 -1.7635 -0.3786 -0.7542
 2568SOL    HW219338   1.796   3.954   4.315 -0.9696 -0.7216 -0.0323
 2569SOL     OW19339   3.765   3.821  16.790  0.3084  0.0399 -0.1595
 2569SOL    HW119340   3.673   3.837  16.770  0.7088  0.2467 -1.8596
 2569SOL    HW219341   3.771   3.887  16.859 -0.4393  1.2780 -1.2738
 2570SOL     OW19342   1.754   2.650   2.757 -0.6661  0.2412  0.2121
 2570SOL    HW119343   1.688   2.718   2.773 -1.0294 -0.2914  1.0075
 2570SOL    HW219344   1.775   2.623   2.846  0.6130 -1.6611 -0.6529
 2571SOL     OW19345   1.635   4.364   7.944  0.3072  0.7140  0.0673
 2571SOL    HW119346   1.591   4.376   8.029 -2.3254  0.2695 -1.2308
 2571SOL    HW219347   1.562   4.331   7.891  1.4662 -0.8126 -0.5812
 2572SOL     OW19348   3.162   3.768   8.274  0.4255  0.1301 -0.3610
 2572SOL    HW119349   3.208   3.754   8.357 -0.6138 -2.1440 -0.1404
 2572SOL    HW219350   3.085   3.713   8.287  0.0183  0.5945 -0.8391
 2573SOL     OW19351   0.248   3.059  15.504  0.0716  0.0765  0.5778
 2573SOL    HW119352   0.276   3.055  15.413  1.2510 -0.3194  0.9584
 2573SOL    HW219353   0.186   3.130  15.486 -0.5486 -1.0247 -1.5738
 2574SOL     OW19354   3.381   2.321   3.524  0.1649 -0.0750  0.0321
 2574SOL    HW119355   3.469   2.311   3.561 -0.3078  2.6520  1.9103
 2574SOL    HW219356   3.384   2.392   3.460  3.3264 -1.8803 -1.8123
 2575SOL     OW19357   1.469   3.953  11.567  0.5339 -0.1529 -0.4734
 2575SOL    HW119358   1.546   3.906  11.599  2.5983  1.6087 -2.8279
 2575SOL    HW219359   1.482   3.951  11.473 -0.1940  1.1129 -0.6018
 2576SOL     OW19360   2.076   3.223   9.082  0.1493 -0.4330  0.2748
 2576SOL    HW119361   2.105   3.139   9.049  0.8760 -0.6656  1.5070
 2576SOL    HW219362   2.075   3.205   9.176 -2.0961  2.2858  0.7888
 2577SOL     OW19363   0.682   1.807   5.250  0.5741 -0.2672 -0.0135
 2577SOL    HW119364   0.702   1.791   5.343 -0.3319 -1.7996 -0.0899
 2577SOL    HW219365   0.712   1.898   5.245  0.4228 -0.3222 -1.7551
 2578SOL     OW19366   4.333   1.644   4.681  0.0833 -0.1949  0.1423
 2578SOL    HW119367   4.403   1.584   4.656 -1.1621 -0.7244 -2.1035
 2578SOL    HW219368   4.262   1.581   4.668  1.3910 -1.5743 -0.1982
 2579SOL     OW19369   2.567   4.656   2.834 -0.7505 -0.0663 -0.0236
 2579SOL    HW119370   2.572   4.726   2.770  0.6154 -1.9926 -2.0090
 2579SOL    HW219371   2.630   4.587   2.814 -1.1317 -0.0948 -1.0975
 2580SOL     OW19372   1.562   0.425  10.753 -0.3357 -0.0494 -0.7027
 2580SOL    HW119373   1.589   0.474  10.675  0.8808 -0.0102 -0.2625
 2580SOL    HW219374   1.603   0.342  10.729 -1.0915 -0.0983 -1.8343
 2581SOL     OW19375   4.599   4.597   0.298 -0.0387  0.3290 -0.0660
 2581SOL    HW119376   4.616   4.520   0.244  0.4714  0.0841  0.4448
 2581SOL    HW219377   4.678   4.648   0.285 -0.2598  0.3838 -1.1487
 2582SOL     OW19378   3.178   4.275   6.664  0.2986 -0.2443 -0.5534
 2582SOL    HW119379   3.245   4.226   6.712  0.2327 -1.5260 -1.7739
 2582SOL    HW219380   3.123   4.304   6.736  0.7429 -3.6350  1.1575
 2583SOL     OW19381   0.702   3.627   8.772 -0.0016 -0.5336 -0.2461
 2583SOL    HW119382   0.626   3.568   8.774 -0.9587  0.7076  0.5468
 2583SOL    HW219383   0.766   3.598   8.836  0.2246 -0.5464 -0.4776
 2584SOL     OW19384   1.843   4.226   7.682 -0.2120 -0.0431  0.6873
 2584SOL    HW119385   1.828   4.227   7.587 -0.2109 -1.8706  0.6682
 2584SOL    HW219386   1.764   4.280   7.689 -0.0211  0.3026  0.1940
 2585SOL     OW19387   3.247   2.650   7.633  0.0346 -0.0177 -0.1805
 2585SOL    HW119388   3.226   2.653   7.540 -2.3119 -2.0840  0.2673
 2585SOL    HW219389   3.337   2.682   7.635 -0.6687  2.0211 -0.8775
 2586SOL     OW19390   2.016   1.367   9.496 -0.1926  0.1829 -0.1659
 2586SOL    HW119391   2.043   1.275   9.492  0.0432  0.2704 -0.5981
 2586SOL    HW219392   2.061   1.383   9.579  0.0575 -1.5921  0.0310
 2587SOL     OW19393   4.412   2.136  11.427 -0.1115  0.9610  0.2958
 2587SOL    HW119394   4.494   2.106  11.388  0.4270  1.5265  1.0083
 2587SOL    HW219395   4.365   2.139  11.343  2.7663  2.5791 -1.2685
 2588SOL     OW19396   4.659   2.434  14.630  0.3125  0.2930 -0.1438
 2588SOL    HW119397   4.619   2.351  14.657 -1.1273  1.0302 -0.0281
 2588SOL    HW219398   4.683   2.420  14.538  1.6401  1.9561 -0.0584
 2589SOL     OW19399   3.467   1.277  11.541 -0.1429 -0.4258 -0.1386
 2589SOL    HW119400   3.545   1.278  11.486 -0.2250 -2.4752 -0.2961
 2589SOL    HW219401   3.486   1.351  11.598  0.9273  0.0801 -1.1578
 2590SOL     OW19402   1.418   0.494  10.362 -0.0750  0.4539 -0.4991
 2590SOL    HW119403   1.477   0.419  10.353 -1.1139 -0.0639 -2.9610
 2590SOL    HW219404   1.427   0.509  10.456  2.5119  2.5226 -1.0689
 2591SOL     OW19405   0.157   3.686   7.574 -0.1618  0.0221 -0.2657
 2591SOL    HW119406   0.126   3.596   7.581  1.2950 -0.5052 -0.7307
 2591SOL    HW219407   0.105   3.727   7.644 -2.6796 -0.5519 -1.8218
 2592SOL     OW19408   1.135   4.266   8.292 -0.4118  0.0806  0.0407
 2592SOL    HW119409   1.054   4.216   8.286  0.1841 -1.0488  1.5650
 2592SOL    HW219410   1.124   4.317   8.373 -0.1037  0.7654 -0.3427
 2593SOL     OW19411   3.329   3.277   1.968  0.1208 -0.1882 -0.2915
 2593SOL    HW119412   3.369   3.261   1.882  1.8601  3.3444 -0.1343
 2593SOL    HW219413   3.296   3.189   1.989 -0.0327  0.4861  2.2749
 2594SOL     OW19414   4.607   0.397   1.771  0.4193  0.4541 -0.2495
 2594SOL    HW119415   4.577   0.488   1.764  0.5197  0.3786 -1.7070
 2594SOL    HW219416   4.617   0.376   1.864 -0.6578  3.1073  0.4737
 2595SOL     OW19417   1.354   1.151   9.568  0.1382 -0.4140  0.0121
 2595SOL    HW119418   1.409   1.110   9.501  0.5394 -1.9361  1.2668
 2595SOL    HW219419   1.274   1.122   9.525  0.2338 -0.3858 -0.1851
 2596SOL     OW19420   0.478   4.066   5.195  0.1828  0.4312 -0.2876
 2596SOL    HW119421   0.411   4.023   5.248  0.6652 -1.0330 -0.8360
 2596SOL    HW219422   0.556   4.055   5.249 -0.5835  1.3814  0.9868
 2597SOL     OW19423   3.594   3.384   8.884  0.7809 -0.0223  0.3483
 2597SOL    HW119424   3.562   3.474   8.877  0.3681 -0.2987 -1.2499
 2597SOL    HW219425   3.580   3.381   8.978 -3.8703 -1.2733 -0.4045
 2598SOL     OW19426   4.725   3.674   6.150  0.3007  0.2650 -0.0438
 2598SOL    HW119427   4.645   3.641   6.192 -0.3368  0.6525 -0.9530
 2598SOL    HW219428   4.722   3.763   6.186  2.6740  0.1579  0.3692
 2599SOL     OW19429   4.121   2.289  10.490  0.0794 -0.4838  0.0854
 2599SOL    HW119430   4.049   2.246  10.443 -0.6497 -0.0848  0.8367
 2599SOL    HW219431   4.081   2.298  10.577  0.0065  1.8767 -0.1918
 2600SOL     OW19432   1.194   2.582  17.345 -0.5891 -0.1091  0.3467
 2600SOL    HW119433   1.217   2.650  17.409 -0.2090 -2.4500  2.7240
 2600SOL    HW219434   1.216   2.622  17.261 -0.8237 -0.6702  0.0261
 2601SOL     OW19435   3.384   2.492  14.456 -0.0315  0.6363 -0.0090
 2601SOL    HW119436   3.418   2.414  14.411 -2.7123 -0.3929 -0.2330
 2601SOL    HW219437   3.292   2.472  14.473  0.4161  0.7128  2.4218
 2602SOL     OW19438   1.117   0.147  16.820  0.3573 -0.3781  0.5988
 2602SOL    HW119439   1.067   0.164  16.740 -0.2725  1.4933  1.3735
 2602SOL    HW219440   1.195   0.099  16.792  1.3269  0.9978  0.9472
 2603SOL     OW19441   1.477   4.081   4.535  0.2065  0.3976  0.3252
 2603SOL    HW119442   1.409   4.119   4.591  0.9054  1.1516  0.6648
 2603SOL    HW219443   1.486   3.997   4.580  1.8237 -0.0952 -0.9390
 2604SOL     OW19444   2.932   2.828   0.108  0.5864  0.1541 -0.2033
 2604SOL    HW119445   3.025   2.835   0.130  0.8606 -0.6999 -1.1116
 2604SOL    HW219446   2.913   2.922   0.101 -1.6286 -0.1567  1.6936
 2605SOL     OW19447   3.173   2.159   4.467 -0.2077 -0.3195 -0.2960
 2605SOL    HW119448   3.158   2.230   4.528  1.8581  2.4264 -3.0029
 2605SOL    HW219449   3.094   2.111   4.493 -0.1209  0.5418  1.5268
 2606SOL     OW19450   1.803   1.204  16.894  0.2321  0.5294  0.4381
 2606SOL    HW119451   1.877   1.219  16.953 -0.1113  0.9256  0.7686
 2606SOL    HW219452   1.776   1.293  16.870 -4.3250 -1.2933 -1.3182
 2607SOL     OW19453   0.198   3.597  15.020 -0.1803  0.2078  0.0847
 2607SOL    HW119454   0.164   3.525  15.074 -1.9215  0.0444 -1.2514
 2607SOL    HW219455   0.163   3.565  14.937 -0.5506  2.9219 -0.7733
 2608SOL     OW19456   2.217   3.254  15.538 -0.5254 -0.0996 -0.2418
 2608SOL    HW119457   2.158   3.222  15.470  1.2365 -1.2989 -1.2141
 2608SOL    HW219458   2.205   3.348  15.522  0.0241 -0.2740 -1.6601
 2609SOL     OW19459   2.417   3.767   1.627 -0.0081  0.4540  0.0919
 2609SOL    HW119460   2.472   3.845   1.637 -2.2622  2.0493  0.0525
 2609SOL    HW219461   2.359   3.781   1.702 -2.8624  1.5480 -2.3152
 2610SOL     OW19462   0.902   1.072   7.669 -0.3212 -0.1193  0.2732
 2610SOL    HW119463   0.939   1.034   7.590  0.8290  0.9696  0.2803
 2610SOL    HW219464   0.824   1.016   7.675  0.7491 -1.6273  0.0290
 2611SOL     OW19465   1.790   0.052   3.711  0.1576 -0.3532  0.1003
 2611SOL    HW119466   1.756   0.038   3.799  1.1239 -0.9212  0.3834
 2611SOL    HW219467   1.733   4.731   3.661 -0.2177  0.7028 -0.7249
 2612SOL     OW19468   2.636   4.025  12.949 -0.7021  0.0376 -0.1818
 2612SOL    HW119469   2.617   3.985  12.864  1.6327 -0.2879 -0.5482
 2612SOL    HW219470   2.603   4.114  12.938  1.6911  0.7464 -1.5158
 2613SOL     OW19471   1.810   2.762  12.224 -0.2466 -0.6712  0.7804
 2613SOL    HW119472   1.759   2.681  12.231 -0.3165 -0.6759  0.2008
 2613SOL    HW219473   1.740   2.824  12.245 -1.2075 -1.0359 -1.3607
 2614SOL     OW19474   3.123   3.877   6.634  0.0399  0.5612  0.2516
 2614SOL    HW119475   3.200   3.821   6.647 -1.2079 -1.0774  0.6486
 2614SOL    HW219476   3.071   3.821   6.577 -1.0756  2.8555 -0.9753
 2615SOL     OW19477   1.870   4.121   7.389 -0.0370  0.2177  0.1035
 2615SOL    HW119478   1.938   4.182   7.359 -1.0471  0.8145 -0.9754
 2615SOL    HW219479   1.863   4.060   7.316  0.0994  0.0727  0.2100
 2616SOL     OW19480   4.185   0.358  13.637  0.2281 -0.8466  0.0083
 2616SOL    HW119481   4.131   0.294  13.683 -0.6488  0.7748  1.2693
 2616SOL    HW219482   4.196   0.322  13.549  1.8857  0.4339 -0.3149
 2617SOL     OW19483   2.829   0.429   6.053 -0.1648 -0.3367  0.0337
 2617SOL    HW119484   2.907   0.379   6.028 -1.2368 -1.2735 -1.5000
 2617SOL    HW219485   2.771   0.362   6.090 -1.1968  1.7156  2.1636
 2618SOL     OW19486   0.267   4.118   7.508  0.5223 -0.3107 -0.2662
 2618SOL    HW119487   0.280   4.098   7.415  2.1975  0.0979 -0.1159
 2618SOL    HW219488   0.219   4.201   7.502  0.9413 -0.0158  0.5504
 2619SOL     OW19489   4.209   0.613  11.313 -0.3551 -0.0524 -0.1623
 2619SOL    HW119490   4.236   0.540  11.369 -1.3737 -0.4315 -0.1650
 2619SOL    HW219491   4.277   0.679  11.330 -0.6836  0.4008 -0.6286
 2620SOL     OW19492   4.445   0.458   6.171 -0.1888  0.0210 -0.3069
 2620SOL    HW119493   4.392   0.409   6.108 -1.3342 -1.6741  1.9359
 2620SOL    HW219494   4.489   0.384   6.214 -1.6427  0.0518  1.2639
 2621SOL     OW19495   2.231   0.005   7.934 -0.4217 -0.3342 -0.0639
 2621SOL    HW119496   2.312   0.054   7.948 -1.9038  2.0265  0.3184
 2621SOL    HW219497   2.195   0.075   7.878 -0.9218 -0.0796  0.5708
 2622SOL     OW19498   0.094   4.311   7.501  0.1860  0.6552 -0.3916
 2622SOL    HW119499   0.110   4.395   7.545  1.2798  0.6168 -0.7284
 2622SOL    HW219500   0.000   4.297   7.516  0.2562  0.7899  0.2111
 2623SOL     OW19501   0.186   0.999  14.116  0.2375 -0.2724 -0.1680
 2623SOL    HW119502   0.109   1.041  14.079 -1.9732 -1.8790  2.6123
 2623SOL    HW219503   0.183   0.906  14.094 -1.4709  0.3179 -2.4067
 2624SOL     OW19504   2.203   0.522   0.754 -0.0007  0.3658  0.1718
 2624SOL    HW119505   2.253   0.570   0.821  0.6520 -1.1693  0.7745
 2624SOL    HW219506   2.169   0.601   0.712  0.1996  1.0788  1.3565
 2625SOL     OW19507   0.700   2.707  12.226 -0.7959  0.1791 -0.2703
 2625SOL    HW119508   0.661   2.794  12.225 -0.5836  0.3028  1.6767
 2625SOL    HW219509   0.625   2.648  12.220 -1.5937  1.3934 -2.2231
 2626SOL     OW19510   4.639   2.651   5.680  0.3777 -0.0208  0.3628
 2626SOL    HW119511   4.639   2.620   5.590  0.1297 -0.9976  0.7003
 2626SOL    HW219512   4.565   2.710   5.690  0.0026 -0.2490 -1.0752
 2627SOL     OW19513   2.077   3.703   2.673 -0.2263  0.4516 -0.4128
 2627SOL    HW119514   2.166   3.705   2.708  1.0157 -1.0724 -3.4917
 2627SOL    HW219515   2.085   3.765   2.601  2.6636  0.7103  0.1261
 2628SOL     OW19516   4.284   4.670   2.842  0.2553 -0.4092  0.3339
 2628SOL    HW119517   4.247   4.673   2.931 -1.0483 -0.6874 -0.2040
 2628SOL    HW219518   4.378   4.688   2.844 -0.1143  1.4972  0.8267
 2629SOL     OW19519   1.514   1.594   9.708  0.1549 -0.3205 -0.0027
 2629SOL    HW119520   1.459   1.652   9.761 -1.0535  0.6246 -2.2958
 2629SOL    HW219521   1.564   1.553   9.779  0.7791 -0.6291 -0.6329
 2630SOL     OW19522   4.544   1.288   5.938 -0.2885  0.4474  0.3198
 2630SOL    HW119523   4.585   1.333   5.863  0.7510  0.0735  0.6547
 2630SOL    HW219524   4.555   1.200   5.903 -1.6132  0.6153 -0.4860
 2631SOL     OW19525   3.207   4.578   9.207 -0.0425  0.2648  0.7285
 2631SOL    HW119526   3.179   4.489   9.228 -0.2000  0.7584  2.6751
 2631SOL    HW219527   3.284   4.583   9.264 -0.2920  2.3941  0.8825
 2632SOL     OW19528   1.618   4.242   4.157 -0.0421 -0.4457 -0.1250
 2632SOL    HW119529   1.655   4.318   4.202 -0.9409 -0.3647  0.4773
 2632SOL    HW219530   1.584   4.275   4.074 -0.4480 -1.6116 -0.4270
 2633SOL     OW19531   3.212   1.628  13.033  0.2519  0.4853 -0.1528
 2633SOL    HW119532   3.287   1.685  13.050  0.6342 -0.2890  0.7798
 2633SOL    HW219533   3.144   1.679  12.990 -0.7339  1.0603  2.0664
 2634SOL     OW19534   4.428   2.190  13.779  0.1063  0.3667  0.2322
 2634SOL    HW119535   4.422   2.111  13.833  0.0968  1.2427  1.5119
 2634SOL    HW219536   4.480   2.152  13.709 -2.3086 -0.0897 -1.3076
 2635SOL     OW19537   3.353   0.403   2.180 -1.1322  0.3621  0.2324
 2635SOL    HW119538   3.293   0.434   2.248 -0.3721  0.1582  0.9969
 2635SOL    HW219539   3.296   0.349   2.126  0.9959 -1.3900 -0.2752
 2636SOL     OW19540   2.565   2.171   9.690  0.4163 -0.3233 -0.3645
 2636SOL    HW119541   2.613   2.234   9.744  1.3956 -0.0721 -1.5221
 2636SOL    HW219542   2.474   2.176   9.718  1.0175  1.0801  1.3098
 2637SOL     OW19543   0.978   4.697   5.911  0.3126 -0.9570 -0.3929
 2637SOL    HW119544   1.000   0.051   5.918 -0.3729 -0.7058 -1.5350
 2637SOL    HW219545   0.992   4.675   5.819 -1.0671 -0.7079 -0.6600
 2638SOL     OW19546   3.778   3.570   3.484 -0.2133  0.3408 -0.3402
 2638SOL    HW119547   3.712   3.626   3.441 -2.3966 -0.9921  1.2782
 2638SOL    HW219548   3.822   3.647   3.520  1.0372 -1.0869  1.1472
 2639SOL     OW19549   0.724   4.315   2.309  0.2760 -0.1514 -0.4913
 2639SOL    HW119550   0.780   4.312   2.232 -1.3322 -2.4799 -1.5737
 2639SOL    HW219551   0.718   4.409   2.324  1.0458  0.1692 -2.2223
 2640SOL     OW19552   2.328   1.142   1.803 -0.1014  0.0014 -0.2874
 2640SOL    HW119553   2.257   1.094   1.759  1.7852 -1.2546 -1.9593
 2640SOL    HW219554   2.409   1.122   1.756  1.1113  0.6361  1.5448
 2641SOL     OW19555   3.051   2.311   9.663  0.2893 -0.4344  0.5065
 2641SOL    HW119556   3.134   2.268   9.644  0.4626  0.6736 -1.2173
 2641SOL    HW219557   2.987   2.258   9.616  2.6503 -0.5726 -2.5766
 2642SOL     OW19558   3.495   0.282   1.578  0.6148  0.2473  0.6408
 2642SOL    HW119559   3.470   0.235   1.657 -0.4141  1.4020  1.0010
 2642SOL    HW219560   3.564   0.220   1.554 -2.0677 -2.0366 -1.1652
 2643SOL     OW19561   0.144   3.454   8.555 -0.1683 -0.1377  0.4238
 2643SOL    HW119562   0.073   3.479   8.615  0.5045 -0.2134  1.2618
 2643SOL    HW219563   0.115   3.487   8.470  0.8439 -0.1254  0.0807
 2644SOL     OW19564   4.707   4.209  12.085 -1.0851 -0.1671  0.2792
 2644SOL    HW119565   0.015   4.160  12.017  0.6983 -0.9065  2.0340
 2644SOL    HW219566   4.641   4.253  12.031 -3.0324 -0.5205  2.3759
 2645SOL     OW19567   0.803   3.988   3.616 -0.3756 -0.2540 -0.4646
 2645SOL    HW119568   0.719   3.942   3.615 -0.3538 -0.3552  1.3661
 2645SOL    HW219569   0.779   4.063   3.670  1.4225 -1.0034  1.3756
 2646SOL     OW19570   4.494   0.620   2.251  0.5797  0.2167  0.0592
 2646SOL    HW119571   4.513   0.526   2.249 -3.4040 -0.5815 -0.2300
 2646SOL    HW219572   4.407   0.634   2.213  0.3207  0.5327  0.7746
 2647SOL     OW19573   3.257   0.912  13.433 -0.4969  0.1969 -0.0638
 2647SOL    HW119574   3.325   0.942  13.493 -1.7456 -0.0612  1.4810
 2647SOL    HW219575   3.220   0.996  13.403  1.2907  0.5137 -1.3368
 2648SOL     OW19576   0.097   0.894   6.175 -0.0629 -0.3596 -0.4248
 2648SOL    HW119577   0.005   0.869   6.174  0.0157 -0.7079  1.3544
 2648SOL    HW219578   0.106   0.935   6.261 -0.2302  1.4835 -1.2841
 2649SOL     OW19579   1.394   0.787   7.214 -0.2398 -0.1330  0.6989
 2649SOL    HW119580   1.403   0.825   7.301 -0.1033  0.6634  0.3355
 2649SOL    HW219581   1.399   0.869   7.165 -0.1145 -0.1014  0.7643
 2650SOL     OW19582   2.309   4.649   3.676 -0.0185  0.8729 -0.2378
 2650SOL    HW119583   2.305   4.555   3.693  2.3623  0.6703 -0.7771
 2650SOL    HW219584   2.221   4.678   3.701 -0.8347 -0.9966 -1.0162
 2651SOL     OW19585   2.895   4.733   5.560 -0.3776  0.3930  0.0365
 2651SOL    HW119586   2.891   0.048   5.640 -2.2822  1.9522 -1.0831
 2651SOL    HW219587   2.988   4.715   5.553 -0.1433  0.6260  2.4962
 2652SOL     OW19588   0.572   0.601  17.065 -0.1153 -0.1316 -0.0292
 2652SOL    HW119589   0.533   0.661  17.129 -0.8510  0.7300 -1.2833
 2652SOL    HW219590   0.513   0.526  17.067  0.9192 -0.9203  0.6117
 2653SOL     OW19591   1.923   2.599  17.324  1.0463  0.3933  0.1567
 2653SOL    HW119592   1.891   2.616  17.413  0.0873  1.7233 -0.4295
 2653SOL    HW219593   1.899   2.509  17.304  2.0996 -0.1038  1.1670
 2654SOL     OW19594   1.509   3.045   8.873 -0.3561  0.2202 -0.0443
 2654SOL    HW119595   1.526   3.122   8.927 -1.3360 -0.3229  1.0528
 2654SOL    HW219596   1.414   3.040   8.883 -0.3857  1.1420  0.1265
 2655SOL     OW19597   4.579   4.717  17.699  0.3220 -0.4612  0.8959
 2655SOL    HW119598   4.642   4.650  17.727  0.7910 -0.2667  0.3128
 2655SOL    HW219599   4.510   4.651  17.694 -0.1933  0.2743 -1.6925
 2656SOL     OW19600   4.323   1.552   7.246 -0.1746 -0.1539 -0.2764
 2656SOL    HW119601   4.379   1.513   7.179 -1.4157 -0.5957 -1.0660
 2656SOL    HW219602   4.386   1.610   7.288 -0.0030 -1.9674  1.9749
 2657SOL     OW19603   1.138   2.184   8.751  0.5263  0.0010  0.9701
 2657SOL    HW119604   1.133   2.224   8.664 -0.4828 -1.2832  0.4339
 2657SOL    HW219605   1.195   2.113   8.722 -0.5729 -1.5700  2.6061
 2658SOL     OW19606   3.488   4.192   4.315 -0.3833 -0.8393 -0.2547
 2658SOL    HW119607   3.430   4.240   4.257 -0.3923 -0.1529  0.3121
 2658SOL    HW219608   3.559   4.255   4.329 -0.0743 -1.2578  0.0677
 2659SOL     OW19609   4.210   1.095   0.677  0.0426  0.0531 -0.3300
 2659SOL    HW119610   4.151   1.025   0.704  0.3890  0.1116  0.5557
 2659SOL    HW219611   4.158   1.176   0.682  0.9125  0.6616 -1.0747
 2660SOL     OW19612   3.894   2.282   4.500 -0.1489 -0.2054 -0.0111
 2660SOL    HW119613   3.935   2.362   4.466 -1.9760  0.8845  0.3719
 2660SOL    HW219614   3.898   2.217   4.430 -1.5111  0.3984 -0.6412
 2661SOL     OW19615   2.506   0.953   2.667 -0.4257  0.0835  0.1719
 2661SOL    HW119616   2.591   0.910   2.662 -0.6900 -0.7916  2.7671
 2661SOL    HW219617   2.461   0.896   2.605 -0.8469 -0.0195  0.5696
 2662SOL     OW19618   2.522   4.644  12.395 -0.3525  0.1424 -0.3076
 2662SOL    HW119619   2.569   4.622  12.475 -1.7802  0.9187  0.7304
 2662SOL    HW219620   2.588   4.684  12.338  0.3866  0.3651  0.7176
 2663SOL     OW19621   2.924   3.711   8.625 -0.8561  1.0283 -0.0211
 2663SOL    HW119622   2.917   3.805   8.606 -0.7681  1.0094 -0.1484
 2663SOL    HW219623   3.019   3.704   8.633 -0.9726 -2.2108 -1.5553
 2664SOL     OW19624   3.971   1.389  11.736 -0.0689 -0.0677  0.2359
 2664SOL    HW119625   4.030   1.314  11.744  0.8940  0.4908 -1.6034
 2664SOL    HW219626   3.973   1.409  11.643 -1.2611 -0.2063  0.1801
 2665SOL     OW19627   1.816   0.436   8.933  0.4075  0.5215 -0.4586
 2665SOL    HW119628   1.816   0.532   8.939  1.6860  0.6389 -2.1794
 2665SOL    HW219629   1.830   0.437   8.838 -1.4737  0.8093 -0.7362
 2666SOL     OW19630   0.716   1.994   7.173  0.3310 -0.3601 -0.0733
 2666SOL    HW119631   0.702   2.054   7.100  2.0322 -1.3956 -1.2809
 2666SOL    HW219632   0.638   1.941   7.156 -1.0076  2.1115 -1.5345
 2667SOL     OW19633   2.096   0.716   3.641 -0.2494 -0.2412 -0.1387
 2667SOL    HW119634   2.037   0.645   3.616 -2.1515  2.1644 -2.4678
 2667SOL    HW219635   2.040   0.793   3.628 -0.6486 -0.2578  1.4952
 2668SOL     OW19636   1.370   3.707   1.932 -0.5117 -0.0136  0.4224
 2668SOL    HW119637   1.300   3.643   1.945 -0.4828 -0.1003  0.1619
 2668SOL    HW219638   1.320   3.788   1.928  0.0636  0.2847 -0.6412
 2669SOL     OW19639   0.934   3.352   9.225 -0.0746 -0.1757  0.1276
 2669SOL    HW119640   0.950   3.271   9.274  0.5702 -0.4412 -0.5057
 2669SOL    HW219641   0.966   3.423   9.280 -1.1446  2.0647 -2.1436
 2670SOL     OW19642   0.282   3.840   2.175  0.1504  0.0060 -0.3304
 2670SOL    HW119643   0.196   3.880   2.163  0.5880  1.0388 -0.0684
 2670SOL    HW219644   0.334   3.912   2.138  0.1506 -0.2771 -0.8931
 2671SOL     OW19645   3.471   2.484   7.297 -0.7337  0.2699 -0.0511
 2671SOL    HW119646   3.409   2.412   7.289  0.8276 -0.9900 -0.6765
 2671SOL    HW219647   3.512   2.479   7.211 -1.1851  2.4596 -0.3962
 2672SOL     OW19648   2.967   3.157   8.122  0.2010  0.0592 -0.3957
 2672SOL    HW119649   2.993   3.211   8.197  0.2976 -0.9088  0.2808
 2672SOL    HW219650   3.022   3.079   8.134 -2.8836 -2.0231  0.2259
 2673SOL     OW19651   3.086   3.587   4.116  0.5675  0.3156 -0.2894
 2673SOL    HW119652   3.112   3.588   4.209  1.9877 -0.0149 -0.6825
 2673SOL    HW219653   3.096   3.494   4.097 -0.3770  0.1197  0.1497
 2674SOL     OW19654   2.137   0.618   9.901 -0.3466 -0.0176  0.2359
 2674SOL    HW119655   2.087   0.536   9.899  0.5495 -0.4881 -2.6144
 2674SOL    HW219656   2.066   0.683   9.901  1.1956  1.6683 -1.4260
 2675SOL     OW19657   1.690   1.193  16.580 -0.3029 -0.0227 -0.0414
 2675SOL    HW119658   1.775   1.237  16.585 -1.1174  1.6541 -0.9988
 2675SOL    HW219659   1.636   1.273  16.580  1.6436  1.2844 -0.5720
 2676SOL     OW19660   0.273   0.547   2.471  0.8669 -0.0277 -0.4320
 2676SOL    HW119661   0.325   0.517   2.545  0.4621  0.6366  0.1264
 2676SOL    HW219662   0.205   0.599   2.515 -2.6266 -2.7526 -2.5736
 2677SOL     OW19663   0.339   0.900   0.360  0.3782 -0.1067  0.3359
 2677SOL    HW119664   0.434   0.888   0.365  0.2747 -1.6346 -1.3093
 2677SOL    HW219665   0.316   0.890   0.452 -1.5096  2.5336  0.1497
 2678SOL     OW19666   1.086   3.668   5.193 -0.2253 -0.2798 -0.0542
 2678SOL    HW119667   1.136   3.686   5.273  2.2667 -1.1535 -1.4298
 2678SOL    HW219668   1.017   3.732   5.211  0.5087  0.2352  0.9046
 2679SOL     OW19669   1.431   4.129   5.558 -0.6341  0.0088 -0.1828
 2679SOL    HW119670   1.403   4.164   5.643 -0.7367 -0.9769  0.1908
 2679SOL    HW219671   1.510   4.079   5.576 -0.5651  0.1631 -0.0572
 2680SOL     OW19672   1.459   2.308   8.090 -0.1156 -0.4042  0.1034
 2680SOL    HW119673   1.506   2.319   8.008  0.0072  1.6759  0.4548
 2680SOL    HW219674   1.458   2.392   8.137  1.5274  0.9120 -2.2448
 2681SOL     OW19675   4.390   3.884  17.585  0.0614  0.3662 -0.1060
 2681SOL    HW119676   4.393   3.934  17.667  0.6845 -0.8686  0.6164
 2681SOL    HW219677   4.413   3.796  17.615  0.6369  0.6231  0.1912
 2682SOL     OW19678   4.705   2.787   3.846  0.2346  0.4455 -0.1125
 2682SOL    HW119679   0.004   2.699   3.842 -0.9037 -0.0351 -0.0801
 2682SOL    HW219680   4.616   2.776   3.814  1.2643  0.8890 -3.1526
 2683SOL     OW19681   3.399   3.034  14.204 -0.4904  0.2351  0.2788
 2683SOL    HW119682   3.421   3.020  14.112 -1.3783  1.6903 -0.1503
 2683SOL    HW219683   3.324   3.094  14.206 -2.3470 -2.1049 -0.3694
 2684SOL     OW19684   1.067   2.376   9.585  0.2590  0.2387  0.7006
 2684SOL    HW119685   1.158   2.386   9.556 -0.6100  0.8675 -1.8140
 2684SOL    HW219686   1.057   2.283   9.563 -2.1032  0.2833  1.5407
 2685SOL     OW19687   3.883   2.290   2.107  0.4048 -0.0986  0.1250
 2685SOL    HW119688   3.788   2.276   2.107  0.5590 -1.1633 -0.5407
 2685SOL    HW219689   3.896   2.376   2.069  2.0535 -0.0435  0.8383
 2686SOL     OW19690   3.857   0.267   0.204 -0.6834 -0.0667  0.0462
 2686SOL    HW119691   3.888   0.320   0.277 -0.6079 -1.3039  0.9246
 2686SOL    HW219692   3.807   0.329   0.151 -1.1930 -0.5927 -0.0872
 2687SOL     OW19693   4.515   2.548  17.041  0.0476 -0.4541  0.6267
 2687SOL    HW119694   4.594   2.506  17.074  0.2604 -0.0195  0.6672
 2687SOL    HW219695   4.482   2.477  16.986 -1.3292  0.1300  0.6896
 2688SOL     OW19696   1.989   1.569   7.687 -0.2329 -0.3995  0.3815
 2688SOL    HW119697   2.052   1.577   7.758  1.0447 -0.8165 -0.6947
 2688SOL    HW219698   2.044   1.540   7.614  1.9419 -0.1495  1.9236
 2689SOL     OW19699   0.832   2.972   9.845  0.3881 -0.8777  0.0738
 2689SOL    HW119700   0.861   3.047   9.794  0.4212  0.4404  2.0602
 2689SOL    HW219701   0.833   2.901   9.780 -0.0590 -0.8928  0.0877
 2690SOL     OW19702   0.366   2.583   3.076  1.0236 -0.2048  0.3023
 2690SOL    HW119703   0.365   2.672   3.110 -0.9534  0.2745 -1.0035
 2690SOL    HW219704   0.384   2.589   2.983  0.5544 -1.1111  0.1559
 2691SOL     OW19705   4.140   2.418   8.701  0.0121  0.1900 -0.1709
 2691SOL    HW119706   4.229   2.389   8.682 -0.3004 -0.3589 -0.8409
 2691SOL    HW219707   4.108   2.346   8.755  0.1525 -0.9162 -1.5478
 2692SOL     OW19708   1.817   0.138   7.891 -0.0067 -0.6304 -1.2847
 2692SOL    HW119709   1.770   0.215   7.859  0.2609 -0.8685 -2.2368
 2692SOL    HW219710   1.907   0.164   7.870 -0.2679  0.8359 -0.6048
 2693SOL     OW19711   0.953   1.834   9.751  0.2661  0.1568 -0.1016
 2693SOL    HW119712   1.019   1.885   9.799 -2.8565  1.7661  2.5016
 2693SOL    HW219713   1.005   1.757   9.729  0.4285  0.1782  0.2041
 2694SOL     OW19714   1.548   1.470   6.745 -0.2839 -0.0857 -0.2456
 2694SOL    HW119715   1.621   1.515   6.788  0.3017 -0.8700 -0.4149
 2694SOL    HW219716   1.581   1.441   6.660  1.8191  0.4480  0.3748
 2695SOL     OW19717   3.808   2.850  13.136 -0.7345 -0.1029  0.0376
 2695SOL    HW119718   3.731   2.853  13.079 -1.3428 -1.0141  0.8202
 2695SOL    HW219719   3.843   2.762  13.119 -2.2702 -0.7701  0.3412
 2696SOL     OW19720   4.650   1.854   8.315 -0.0696  0.5317  0.0239
 2696SOL    HW119721   4.556   1.848   8.294  0.3310  0.7784 -1.8304
 2696SOL    HW219722   4.685   1.928   8.265 -0.0256  0.5321  0.0553
 2697SOL     OW19723   3.179   0.219   2.415 -0.4887 -0.0240 -0.3734
 2697SOL    HW119724   3.140   0.299   2.449 -1.1676  0.0089 -1.2414
 2697SOL    HW219725   3.242   0.200   2.484  1.0920  2.6497 -1.0863
 2698SOL     OW19726   1.646   4.598  11.658 -0.1253 -0.8162  0.6122
 2698SOL    HW119727   1.654   4.671  11.720 -0.6137 -1.1178  1.0390
 2698SOL    HW219728   1.551   4.591  11.658 -0.1615 -0.1899 -2.4791
 2699SOL     OW19729   3.976   2.336   4.106 -0.3404  0.2261  0.6065
 2699SOL    HW119730   3.965   2.422   4.147  0.9854  1.5314 -1.8108
 2699SOL    HW219731   4.037   2.337   4.032  0.9862 -2.7359  1.6630
 2700SOL     OW19732   1.202   1.290   2.779  0.4778  0.7199 -0.3110
 2700SOL    HW119733   1.275   1.340   2.742  0.7439  0.7740  0.2789
 2700SOL    HW219734   1.138   1.284   2.708  1.0916 -0.6190 -0.7511
 2701SOL     OW19735   2.158   1.910   0.688 -0.2913 -0.3589 -0.0606
 2701SOL    HW119736   2.065   1.931   0.700 -0.6245 -0.8287 -1.7768
 2701SOL    HW219737   2.166   1.928   0.594 -1.8234 -0.1557 -0.1473
 2702SOL     OW19738   1.664   0.465   4.911  0.3413  0.4049 -0.0296
 2702SOL    HW119739   1.700   0.377   4.906 -0.6654  0.0806 -1.5422
 2702SOL    HW219740   1.695   0.492   4.824  1.2631  3.7928  1.3522
 2703SOL     OW19741   3.298   3.779   7.812 -0.3730 -0.5215 -0.2093
 2703SOL    HW119742   3.277   3.691   7.842 -0.2204 -0.8975 -1.2081
 2703SOL    HW219743   3.223   3.813   7.764  0.4380 -0.8689 -1.7318
 2704SOL     OW19744   1.116   4.618   0.430  0.0714 -0.4612 -0.0029
 2704SOL    HW119745   1.169   4.697   0.439  0.7900 -0.8637 -0.7586
 2704SOL    HW219746   1.116   4.598   0.523  0.7135 -0.1702  0.0572
 2705SOL     OW19747   1.898   0.352  17.455 -0.2978 -0.3065  0.4569
 2705SOL    HW119748   1.893   0.294  17.531 -0.2620 -1.1750 -0.2002
 2705SOL    HW219749   1.814   0.396  17.465 -0.0620 -0.3183  2.4668
 2706SOL     OW19750   0.861   1.953   2.331 -0.1116  0.0008  0.0467
 2706SOL    HW119751   0.806   2.032   2.330  0.0209  0.1096  1.3435
 2706SOL    HW219752   0.881   1.953   2.425 -0.4524 -2.3182  0.1121
 2707SOL     OW19753   1.350   0.588   2.227  0.2213 -0.7779  0.1899
 2707SOL    HW119754   1.402   0.619   2.154  1.5727 -3.0529  0.1962
 2707SOL    HW219755   1.400   0.633   2.295  1.5604 -3.3974  0.9320
 2708SOL     OW19756   0.381   0.442   7.617 -0.3576 -0.2930  0.2501
 2708SOL    HW119757   0.299   0.393   7.616 -1.0528  0.9042 -2.1980
 2708SOL    HW219758   0.372   0.483   7.531 -0.1948 -1.0643 -0.1304
 2709SOL     OW19759   2.959   4.358   6.792  0.2139 -0.3181  0.0229
 2709SOL    HW119760   2.867   4.360   6.765  0.2556  0.2644 -0.0822
 2709SOL    HW219761   2.940   4.299   6.865  0.7164 -1.6366 -0.9274
 2710SOL     OW19762   4.685   1.911   6.133 -0.6072 -0.0687  0.1750
 2710SOL    HW119763   4.641   1.996   6.123 -2.7471 -0.7777  3.8456
 2710SOL    HW219764   0.021   1.932   6.076  0.1111 -4.0390 -0.3355
 2711SOL     OW19765   4.003   4.658   9.367 -0.4519  0.3899  0.7133
 2711SOL    HW119766   4.010   0.010   9.399  0.2677  1.2669 -1.9045
 2711SOL    HW219767   4.005   4.603   9.445  2.6490 -2.6146 -1.4292
 2712SOL     OW19768   1.792   3.739   8.003  0.4391 -0.1464  0.4429
 2712SOL    HW119769   1.742   3.763   7.925  0.2934  0.0036  0.5836
 2712SOL    HW219770   1.883   3.746   7.973 -0.6302 -0.1100 -2.8129
 2713SOL     OW19771   4.606   1.817   4.538  0.2286  0.0896  0.1518
 2713SOL    HW119772   4.560   1.770   4.468  1.6493 -0.8619 -0.1417
 2713SOL    HW219773   4.660   1.749   4.579  2.9805  1.4035 -1.2838
 2714SOL     OW19774   1.706   1.367   9.583  0.0371 -0.2147 -0.3548
 2714SOL    HW119775   1.786   1.321   9.608 -0.2683  0.2433  1.4686
 2714SOL    HW219776   1.662   1.376   9.668  0.6483  1.8816 -0.2678
 2715SOL     OW19777   0.109   0.003   0.242 -0.5078  0.2641  0.2206
 2715SOL    HW119778   0.118   0.023   0.336  1.5699  3.0406 -0.5859
 2715SOL    HW219779   0.163   4.670   0.209 -3.1221 -1.7345  0.1953
 2716SOL     OW19780   2.064   0.800   2.287 -0.2556  0.0380 -0.1227
 2716SOL    HW119781   2.038   0.825   2.199  2.5880  1.1704 -0.6151
 2716SOL    HW219782   1.985   0.827   2.335 -1.2387 -1.2020 -1.0465
 2717SOL     OW19783   4.152   4.298   8.016  0.4596  0.0743  0.5457
 2717SOL    HW119784   4.199   4.335   8.091  0.5789 -1.5942  1.2995
 2717SOL    HW219785   4.176   4.205   8.021  3.5576  0.8247 -0.3471
 2718SOL     OW19786   2.945   2.969   1.398 -0.1037 -0.2993 -0.4143
 2718SOL    HW119787   2.924   2.971   1.304 -1.1288  1.2275 -0.1538
 2718SOL    HW219788   3.031   2.928   1.404 -0.1393 -0.1993  0.7229
 2719SOL     OW19789   0.055   0.338  17.027  0.0696  0.5390  0.2479
 2719SOL    HW119790   0.060   0.242  17.031 -0.2709  0.5242  0.3213
 2719SOL    HW219791   0.083   0.355  17.117 -3.4289  0.3279  1.3617
 2720SOL     OW19792   3.800   3.085  12.620  0.3349 -0.6034  0.0103
 2720SOL    HW119793   3.885   3.127  12.614 -0.3875  0.7923 -0.4578
 2720SOL    HW219794   3.818   3.032  12.697 -1.3361  0.7550  1.3311
 2721SOL     OW19795   1.219   3.065   3.806  0.0414  0.1512 -0.0568
 2721SOL    HW119796   1.231   3.160   3.801 -2.1743  0.3537 -1.4226
 2721SOL    HW219797   1.160   3.050   3.732 -1.1464  1.0910  0.7169
 2722SOL     OW19798   4.007   0.451   0.799 -0.2241  0.2583  0.6806
 2722SOL    HW119799   4.054   0.533   0.788 -0.5903  0.4660  0.6551
 2722SOL    HW219800   4.047   0.414   0.878  1.1108  0.3743  0.0602
 2723SOL     OW19801   0.945   3.807   3.071  0.3258  0.2001  0.5044
 2723SOL    HW119802   0.850   3.812   3.066  0.2807 -0.9788  0.2853
 2723SOL    HW219803   0.965   3.852   2.988 -1.5640  2.2907  1.1758
 2724SOL     OW19804   2.850   0.038   7.902 -0.2679 -0.2746  0.2656
 2724SOL    HW119805   2.927   0.095   7.898  0.0816 -0.6675  1.3616
 2724SOL    HW219806   2.778   0.094   7.874  0.2603  0.4910  0.4242
 2725SOL     OW19807   3.956   0.670   6.970 -0.3178 -0.2065 -0.1145
 2725SOL    HW119808   3.951   0.626   7.055 -1.3027  1.4917  0.7053
 2725SOL    HW219809   4.045   0.705   6.980  0.1246 -1.8179  1.4234
 2726SOL     OW19810   2.966   3.672  11.386 -0.6603  0.1996 -0.2114
 2726SOL    HW119811   2.954   3.738  11.454  0.9321  2.5338 -2.2266
 2726SOL    HW219812   2.977   3.727  11.309  1.8942 -1.8680 -1.3139
 2727SOL     OW19813   2.008   0.854   1.372  0.3043 -0.1813  0.2324
 2727SOL    HW119814   1.975   0.824   1.287 -0.8352  3.7250 -0.6904
 2727SOL    HW219815   1.927   0.866   1.421 -1.2318 -1.2799 -2.0228
 2728SOL     OW19816   0.659   3.351   2.085  0.0147 -0.1108 -0.5472
 2728SOL    HW119817   0.593   3.323   2.148  0.1015  2.4642  0.6839
 2728SOL    HW219818   0.738   3.304   2.110 -0.6362 -1.3939 -0.8936
 2729SOL     OW19819   3.680   3.292  14.288 -0.0763 -0.1478  0.5040
 2729SOL    HW119820   3.725   3.335  14.361  1.4061 -0.4263 -0.2473
 2729SOL    HW219821   3.714   3.202  14.292  0.2652 -0.0104  0.7336
 2730SOL     OW19822   1.277   2.169  16.927  0.4021  0.3992  0.7717
 2730SOL    HW119823   1.344   2.227  16.890  0.5852  0.1339  0.6908
 2730SOL    HW219824   1.284   2.202  17.017  0.8301 -0.6495  1.1280
 2731SOL     OW19825   1.090   1.254  17.581 -0.2113  0.1660 -0.2099
 2731SOL    HW119826   1.148   1.179  17.568 -0.2408  0.0458  0.3401
 2731SOL    HW219827   1.147   1.320  17.621 -0.2926 -0.3064  0.7001
 2732SOL     OW19828   0.960   2.789   0.663  0.0626  0.8034  0.2651
 2732SOL    HW119829   1.042   2.828   0.632  1.0011 -1.2755  0.1141
 2732SOL    HW219830   0.969   2.698   0.636  0.3286  0.5042  1.3500
 2733SOL     OW19831   0.109   0.592  17.634 -0.2097 -0.2278 -0.1436
 2733SOL    HW119832   0.037   0.561  17.690  0.2268 -0.9766 -0.0027
 2733SOL    HW219833   0.063   0.634  17.562 -0.3279  0.4127  0.3015
 2734SOL     OW19834   0.598   2.139   8.206 -0.4850  0.0125 -0.9220
 2734SOL    HW119835   0.675   2.083   8.200 -0.4525 -0.0631  0.1259
 2734SOL    HW219836   0.618   2.197   8.280  1.2290 -1.5497 -0.1723
 2735SOL     OW19837   2.138   1.808   9.311 -0.1873 -0.3504  0.0121
 2735SOL    HW119838   2.080   1.825   9.237 -0.6593  0.3297  0.5491
 2735SOL    HW219839   2.163   1.718   9.287  0.6582  0.0224 -0.4920
 2736SOL     OW19840   4.709   4.095   3.691 -0.0754  0.1701  0.0159
 2736SOL    HW119841   4.628   4.109   3.740  1.1346  0.4158  1.9493
 2736SOL    HW219842   0.026   4.038   3.744 -0.5722 -0.2489  0.0759
 2737SOL     OW19843   0.532   0.322   6.683  0.4844  0.2913  0.4457
 2737SOL    HW119844   0.455   0.290   6.731 -1.1727  1.4180 -1.4367
 2737SOL    HW219845   0.502   0.410   6.657  0.9675  0.8127  1.6685
 2738SOL     OW19846   1.540   0.296  12.072  0.1646 -0.4506  0.2250
 2738SOL    HW119847   1.458   0.345  12.067 -0.0006 -0.7063  0.4309
 2738SOL    HW219848   1.604   0.361  12.041 -1.1148  0.8005  0.2438
 2739SOL     OW19849   1.357   2.888  15.024  0.6848 -0.1978  0.1719
 2739SOL    HW119850   1.362   2.907  14.930  2.7603  2.1050  0.7479
 2739SOL    HW219851   1.292   2.952  15.051 -0.7542 -1.3172 -0.6341
 2740SOL     OW19852   4.631   0.371   5.666 -0.3017 -0.1636 -0.1468
 2740SOL    HW119853   4.665   0.456   5.695  1.6642 -0.9252 -0.2111
 2740SOL    HW219854   4.583   0.334   5.740 -1.0774 -0.3785 -0.7650
 2741SOL     OW19855   0.758   0.123  12.398 -0.2867 -0.1989 -0.3030
 2741SOL    HW119856   0.771   0.086  12.485  0.4378  0.7953  0.0038
 2741SOL    HW219857   0.734   0.040  12.356  1.2742 -1.1523  0.7095
 2742SOL     OW19858   1.613   1.330   9.327 -0.1095 -0.5956 -0.6352
 2742SOL    HW119859   1.693   1.287   9.297  0.0850 -1.3387  0.9614
 2742SOL    HW219860   1.628   1.335   9.422 -2.5841  0.5581 -0.2999
 2743SOL     OW19861   1.544   3.685   7.298 -0.5415  0.9585  0.1946
 2743SOL    HW119862   1.457   3.719   7.319 -2.1793 -2.5182 -0.7962
 2743SOL    HW219863   1.562   3.636   7.378 -1.1042  0.7269  0.1820
 2744SOL     OW19864   1.752   2.427   5.269 -0.5749  0.3929 -0.5189
 2744SOL    HW119865   1.812   2.440   5.342  0.8135 -1.3672 -1.3389
 2744SOL    HW219866   1.676   2.392   5.317 -0.0804  1.0672  0.7527
 2745SOL     OW19867   2.657   3.320   1.998  0.6009  0.0704 -0.0984
 2745SOL    HW119868   2.727   3.322   2.063 -0.3673 -1.2695  0.9939
 2745SOL    HW219869   2.658   3.415   1.984  1.6351 -0.2744 -2.3741
 2746SOL     OW19870   3.722   1.497  11.214  0.6859  0.1310 -0.2920
 2746SOL    HW119871   3.666   1.570  11.186  0.0119 -1.0989 -2.1652
 2746SOL    HW219872   3.667   1.441  11.269  1.8514 -0.1210  0.6053
 2747SOL     OW19873   1.132   0.817  17.296 -0.2331  0.6311 -0.6296
 2747SOL    HW119874   1.182   0.812  17.214 -0.3832 -2.1704 -0.5557
 2747SOL    HW219875   1.107   0.909  17.286 -2.1083 -0.0328 -2.0163
 2748SOL     OW19876   3.145   1.524   7.872  0.5409 -0.2640  0.2184
 2748SOL    HW119877   3.104   1.543   7.788 -0.8546 -1.3100  0.6660
 2748SOL    HW219878   3.179   1.436   7.857 -2.7214 -1.7409  1.5336
 2749SOL     OW19879   3.112   1.499   8.277  0.3783 -0.1855  0.2483
 2749SOL    HW119880   3.045   1.510   8.210  1.2932  3.2011 -0.1341
 2749SOL    HW219881   3.065   1.541   8.349 -2.6593 -1.2153 -1.1393
 2750SOL     OW19882   3.733   1.538   2.419 -0.2870 -0.0459 -0.4500
 2750SOL    HW119883   3.800   1.544   2.351  0.1717 -1.5603 -0.1466
 2750SOL    HW219884   3.780   1.497   2.492  0.6564  1.1834 -0.3680
 2751SOL     OW19885   0.228   3.543   6.143 -0.8806  0.2110  0.0782
 2751SOL    HW119886   0.137   3.571   6.155 -0.9615 -0.0959  0.1639
 2751SOL    HW219887   0.272   3.628   6.153 -0.9095  0.1066  1.1475
 2752SOL     OW19888   1.640   2.558   5.924 -0.1495 -0.0369 -0.5252
 2752SOL    HW119889   1.566   2.600   5.880  1.0207 -1.6943 -4.0840
 2752SOL    HW219890   1.628   2.464   5.914 -0.7024 -0.0822  0.6204
 2753SOL     OW19891   1.312   3.282   7.478 -0.2557 -0.3674  0.2788
 2753SOL    HW119892   1.396   3.241   7.455 -0.0287 -1.5885  3.2892
 2753SOL    HW219893   1.279   3.212   7.533 -0.6244 -0.0290  0.4881
 2754SOL     OW19894   3.317   3.643   3.886  0.0990  0.1539  0.1416
 2754SOL    HW119895   3.333   3.736   3.904  2.4045 -0.4082  0.9406
 2754SOL    HW219896   3.324   3.607   3.974 -0.8697  2.7279  1.2701
 2755SOL     OW19897   0.503   4.035  14.217  0.6669  0.3556  0.0317
 2755SOL    HW119898   0.470   4.105  14.160 -1.1618 -1.5195 -1.2372
 2755SOL    HW219899   0.422   4.010  14.262  1.1114  0.7622  1.0420
 2756SOL     OW19900   1.796   1.399  11.367 -0.0434 -0.2937 -0.2807
 2756SOL    HW119901   1.719   1.388  11.422 -0.3128  1.8086 -0.2317
 2756SOL    HW219902   1.776   1.341  11.293  1.7828 -0.5413 -0.5898
 2757SOL     OW19903   0.884   0.999  16.344  0.5047  0.0652  0.3675
 2757SOL    HW119904   0.959   1.048  16.377  1.8233 -0.7066 -1.4640
 2757SOL    HW219905   0.924   0.921  16.303 -1.5387  1.3167 -3.9577
 2758SOL     OW19906   4.567   3.994   5.203 -0.2034 -0.0914 -0.0224
 2758SOL    HW119907   4.575   4.030   5.291 -2.0830 -1.0426  0.5257
 2758SOL    HW219908   4.654   4.026   5.178 -0.3914  0.6576  0.2798
 2759SOL     OW19909   3.896   4.110  13.049  0.0401 -0.1014 -0.2060
 2759SOL    HW119910   3.874   4.202  13.066 -1.0870  0.0657 -2.4466
 2759SOL    HW219911   3.814   4.066  13.073  0.5891 -0.7233  0.4882
 2760SOL     OW19912   0.587   3.987   6.603  0.2210  0.2664  0.4122
 2760SOL    HW119913   0.663   3.971   6.659 -0.2650  1.6523  1.4663
 2760SOL    HW219914   0.523   4.011   6.670 -0.9859 -0.1205 -0.6165
 2761SOL     OW19915   1.840   3.209   9.502  0.2169 -0.1590  0.2710
 2761SOL    HW119916   1.891   3.272   9.451  0.2310  0.0641  0.5634
 2761SOL    HW219917   1.751   3.217   9.468 -0.0093 -1.1032  0.6361
 2762SOL     OW19918   0.620   3.760   1.952 -0.2606  0.1890 -0.0241
 2762SOL    HW119919   0.631   3.855   1.953  0.7646  0.0677  2.3164
 2762SOL    HW219920   0.620   3.749   2.047  1.5251 -0.6005 -0.1300
 2763SOL     OW19921   4.427   2.773   8.661  0.8257  0.0307 -0.5207
 2763SOL    HW119922   4.495   2.827   8.702  0.7176  1.3217 -2.0390
 2763SOL    HW219923   4.363   2.842   8.645  0.2870  0.1911  2.3058
 2764SOL     OW19924   1.793   4.319   9.544 -0.1408  0.3548  0.2704
 2764SOL    HW119925   1.728   4.335   9.476 -1.4146 -0.3455  1.3209
 2764SOL    HW219926   1.767   4.371   9.620 -1.0088  1.4116 -0.7544
 2765SOL     OW19927   1.774   3.747   6.598  0.1767 -0.5609  0.0620
 2765SOL    HW119928   1.741   3.660   6.623  1.8001 -0.7797  1.3631
 2765SOL    HW219929   1.710   3.752   6.526  0.1882 -3.5166 -0.1631
 2766SOL     OW19930   2.637   2.783   8.490 -0.0149  0.2464 -0.1962
 2766SOL    HW119931   2.662   2.691   8.488  1.2051  0.5955 -0.6179
 2766SOL    HW219932   2.548   2.775   8.525  0.6739  0.3370  1.6036
 2767SOL     OW19933   0.927   2.354  12.800 -0.8292  0.4442  0.1495
 2767SOL    HW119934   0.947   2.261  12.789  0.0634  0.9073 -2.0410
 2767SOL    HW219935   0.922   2.378  12.893  1.4256  1.2350  0.0529
 2768SOL     OW19936   4.043   4.435   3.555  0.2697  0.1268  0.2604
 2768SOL    HW119937   4.046   4.510   3.614 -0.5242 -0.3750  0.9363
 2768SOL    HW219938   4.003   4.372   3.615  0.3540 -0.6842 -0.5276
 2769SOL     OW19939   1.135   1.626   8.384  0.0279  0.1884  0.7225
 2769SOL    HW119940   1.061   1.565   8.377  1.3742 -1.2554 -0.8177
 2769SOL    HW219941   1.126   1.693   8.317 -4.7679 -1.5389 -0.3975
 2770SOL     OW19942   1.538   3.731   3.445 -0.1412  0.5526  0.2940
 2770SOL    HW119943   1.546   3.797   3.376  0.7353  1.5239  1.3168
 2770SOL    HW219944   1.599   3.664   3.414  0.2084  1.0467 -0.0927
 2771SOL     OW19945   0.437   0.629   2.960 -0.2169  1.4545  0.8116
 2771SOL    HW119946   0.483   0.678   2.892 -1.3045  1.3331 -0.0094
 2771SOL    HW219947   0.510   0.604   3.017 -0.7312 -1.7022  0.0832
 2772SOL     OW19948   1.955   3.290   3.364 -0.8673  0.8900 -0.4857
 2772SOL    HW119949   2.031   3.233   3.352 -0.2423  1.6094  0.0355
 2772SOL    HW219950   1.989   3.373   3.397  0.7317  0.4949 -1.1757
 2773SOL     OW19951   1.340   0.380   2.053 -0.4430  0.3526 -0.0442
 2773SOL    HW119952   1.413   0.382   1.991 -1.8617 -1.0014 -1.7426
 2773SOL    HW219953   1.364   0.450   2.113  0.3637  0.2335 -0.2236
 2774SOL     OW19954   4.410   3.683  11.880 -0.1324 -0.1082 -0.5415
 2774SOL    HW119955   4.489   3.733  11.859  1.9078 -3.3566 -0.4511
 2774SOL    HW219956   4.389   3.733  11.959  0.7763 -0.0594 -0.3309
 2775SOL     OW19957   3.861   1.083   3.464 -0.0277  0.2290  0.2741
 2775SOL    HW119958   3.940   1.029   3.464  0.2147  0.5728  1.7444
 2775SOL    HW219959   3.827   1.070   3.552 -0.0741  0.6482  0.3150
 2776SOL     OW19960   2.111   0.414   3.533  0.2746 -0.4171 -0.0433
 2776SOL    HW119961   2.033   0.468   3.548  1.3074  0.7854  0.9847
 2776SOL    HW219962   2.137   0.375   3.616 -0.9296  1.3127  1.1405
 2777SOL     OW19963   2.749   0.991   4.606  0.0514 -0.2440  0.1039
 2777SOL    HW119964   2.701   0.953   4.532 -0.9883  0.9139  0.1970
 2777SOL    HW219965   2.839   1.005   4.577  0.1242 -2.3423 -0.7194
 2778SOL     OW19966   2.761   2.094   6.631  0.3856  0.3079 -0.0030
 2778SOL    HW119967   2.771   2.115   6.538 -1.8283  2.0422  0.1429
 2778SOL    HW219968   2.825   2.036   6.671 -2.1232 -0.5763  2.7192
 2779SOL     OW19969   1.882   2.315  17.228  0.6895  0.5311 -0.2922
 2779SOL    HW119970   1.939   2.261  17.173 -0.0700 -0.2591 -0.2964
 2779SOL    HW219971   1.868   2.261  17.306  1.6699  1.4179  0.5105
 2780SOL     OW19972   3.740   2.030   2.594  0.1145  0.0509 -0.0935
 2780SOL    HW119973   3.724   1.992   2.680 -2.4546 -1.5945 -1.3059
 2780SOL    HW219974   3.731   1.951   2.540  1.1364  0.2492 -0.5515
 2781SOL     OW19975   3.339   0.143  11.160 -0.8990 -0.3799  0.0527
 2781SOL    HW119976   3.279   0.069  11.168  0.6625 -1.6274  0.3369
 2781SOL    HW219977   3.281   0.218  11.167 -0.3037  0.2516 -1.8350
 2782SOL     OW19978   0.314   4.157   4.921 -0.0387 -0.5739 -0.0956
 2782SOL    HW119979   0.294   4.210   4.999  2.5961 -1.4937  1.2467
 2782SOL    HW219980   0.303   4.071   4.962  0.4842 -0.7490 -0.3179
 2783SOL     OW19981   1.602   0.117  10.868 -0.0953 -0.0995 -0.5937
 2783SOL    HW119982   1.688   0.154  10.847  1.0928 -2.3436  0.2292
 2783SOL    HW219983   1.562   0.182  10.925  0.3031  1.1593 -1.7607
 2784SOL     OW19984   0.895   2.845   5.164 -0.0624 -0.2031  0.7295
 2784SOL    HW119985   0.914   2.832   5.071  3.8333 -2.1959  1.7828
 2784SOL    HW219986   0.913   2.756   5.194 -1.8634 -1.1600 -1.0810
 2785SOL     OW19987   1.598   0.676   7.037  0.5087 -0.4276 -0.0060
 2785SOL    HW119988   1.533   0.732   7.080  0.9535  2.1432 -2.6453
 2785SOL    HW219989   1.678   0.725   7.052  0.7817 -0.8245 -0.1654
 2786SOL     OW19990   4.062   3.539   7.696  0.2257  0.8332  0.1179
 2786SOL    HW119991   4.114   3.465   7.664  1.6556  0.3496  3.4966
 2786SOL    HW219992   4.137   3.590   7.726  2.1887 -1.9788 -0.0212
 2787SOL     OW19993   0.803   1.345  11.835  0.0988  0.8073 -0.0794
 2787SOL    HW119994   0.877   1.319  11.889  2.1084  1.0712 -2.6833
 2787SOL    HW219995   0.820   1.437  11.818  1.2699  0.3366 -1.4484
 2788SOL     OW19996   0.999   3.077   6.154 -0.2637  0.0258  0.5884
 2788SOL    HW119997   1.083   3.068   6.110  0.2395  3.4207  0.8421
 2788SOL    HW219998   0.987   3.172   6.153 -0.6358 -0.0154  1.2582
 2789SOL     OW19999   3.607   0.514   7.574 -0.4280 -0.4528 -0.0766
 2789SOL    HW120000   3.591   0.449   7.506  0.1168 -2.1828  1.4522
 2789SOL    HW220001   3.541   0.578   7.546  0.9172  0.7300 -0.4909
 2790SOL     OW20002   1.900   3.526  12.087  0.8780 -0.5342 -0.4137
 2790SOL    HW120003   1.845   3.512  12.164 -0.6421 -0.7703 -1.5365
 2790SOL    HW220004   1.968   3.586  12.118 -0.8182 -0.6229  3.4497
 2791SOL     OW20005   3.672   1.720  11.443  0.4768  0.0115  0.3784
 2791SOL    HW120006   3.614   1.692  11.514  1.1076  0.2387  0.9797
 2791SOL    HW220007   3.615   1.714  11.366 -0.6623 -0.8940  1.2887
 2792SOL     OW20008   0.585   3.178  11.867  0.9224 -0.2758 -0.3453
 2792SOL    HW120009   0.572   3.093  11.909  1.4556  0.8003  2.0188
 2792SOL    HW220010   0.561   3.236  11.939 -0.2123 -2.4243  1.0005
 2793SOL     OW20011   0.017   4.562  16.400  0.0753  0.1758 -0.3136
 2793SOL    HW120012   4.709   4.641  16.375 -2.4222 -1.6696 -1.5120
 2793SOL    HW220013   0.080   4.583  16.469 -1.0068 -0.9743  1.0318
 2794SOL     OW20014   2.361   3.540   7.863 -0.2614  0.4122 -0.2110
 2794SOL    HW120015   2.418   3.592   7.920  1.2663 -0.4560 -0.9418
 2794SOL    HW220016   2.406   3.554   7.780  1.6792  0.8161  0.9001
 2795SOL     OW20017   1.572   3.128   9.373  0.1797 -0.8372  0.4388
 2795SOL    HW120018   1.552   3.105   9.464 -0.5434 -1.1507  0.1975
 2795SOL    HW220019   1.492   3.177   9.356  0.6899  0.3051  1.2650
 2796SOL     OW20020   2.307   0.201   6.949  0.1218  0.0595 -0.1661
 2796SOL    HW120021   2.291   0.287   6.910  1.3933  0.3482 -0.0605
 2796SOL    HW220022   2.218   0.179   6.978 -0.4032 -0.1485 -1.9033
 2797SOL     OW20023   3.272   3.322   5.035 -0.1071 -0.0031  0.0196
 2797SOL    HW120024   3.198   3.279   5.079 -0.6665  1.9341  0.9596
 2797SOL    HW220025   3.245   3.413   5.023 -0.0169  0.3708  2.6674
 2798SOL     OW20026   0.818   4.612   8.965  0.0601 -0.0298 -0.2020
 2798SOL    HW120027   0.728   4.581   8.976 -0.3208  0.8916 -0.8412
 2798SOL    HW220028   0.833   4.654   9.050  0.2398 -0.5458  0.0268
 2799SOL     OW20029   4.390   4.393   6.244  0.3369  0.3864 -0.5662
 2799SOL    HW120030   4.327   4.465   6.251 -0.1671 -0.2082  1.0007
 2799SOL    HW220031   4.362   4.344   6.166 -1.5132  2.2964 -1.1187
 2800SOL     OW20032   1.628   0.777   4.607 -0.2067  0.2953 -0.1526
 2800SOL    HW120033   1.627   0.682   4.599  2.2236  0.1034  1.7601
 2800SOL    HW220034   1.601   0.780   4.699  3.1281  1.2324  0.7900
 2801SOL     OW20035   1.352   0.206   5.551 -0.0688 -0.1912 -0.3999
 2801SOL    HW120036   1.338   0.138   5.485 -2.7103  1.0422 -1.1257
 2801SOL    HW220037   1.379   0.145   5.619  0.0302 -0.4677 -0.6866
 2802SOL     OW20038   0.387   4.455   6.738 -0.2151  0.8316 -0.0677
 2802SOL    HW120039   0.437   4.450   6.820 -0.7353  1.1696  0.2636
 2802SOL    HW220040   0.450   4.508   6.689  0.3681 -1.1393 -1.4535
 2803SOL     OW20041   3.192   1.796   2.879  0.1139  0.0171 -0.3753
 2803SOL    HW120042   3.120   1.733   2.884  0.0940  0.0769  0.0430
 2803SOL    HW220043   3.246   1.758   2.949  2.0059  1.5242 -0.9990
 2804SOL     OW20044   2.732   3.982  10.618  0.1912 -0.0192 -0.0254
 2804SOL    HW120045   2.670   3.975  10.690 -0.0419 -1.0529 -0.3391
 2804SOL    HW220046   2.752   3.891  10.599  2.4185 -0.2166  3.2579
 2805SOL     OW20047   2.579   0.980   8.699  0.9657  0.1736  0.5695
 2805SOL    HW120048   2.610   0.902   8.654  0.2363 -0.3039  0.8965
 2805SOL    HW220049   2.589   1.054   8.639  0.9619 -0.1461  0.1732
 2806SOL     OW20050   0.066   4.617  10.627  0.3252  0.2524 -0.3883
 2806SOL    HW120051   4.731   4.563  10.595 -0.8694  0.3737  2.1875
 2806SOL    HW220052   0.143   4.560  10.619  0.2369 -0.1570  1.7033
 2807SOL     OW20053   2.668   4.512   8.365 -0.0454  1.1366 -0.0117
 2807SOL    HW120054   2.701   4.602   8.365  1.9292  0.4048 -2.1906
 2807SOL    HW220055   2.753   4.468   8.372 -0.6273  0.1029  0.4576
 2808SOL     OW20056   4.065   3.925   2.183  0.7537 -0.7197  0.4417
 2808SOL    HW120057   4.091   3.878   2.104 -1.7717 -0.3687 -0.5884
 2808SOL    HW220058   4.004   3.989   2.148 -1.8498 -3.0040  0.8402
 2809SOL     OW20059   1.394   0.910   1.341  0.2383 -0.0046 -0.8799
 2809SOL    HW120060   1.322   0.923   1.279 -1.7521 -1.9297  1.0816
 2809SOL    HW220061   1.446   0.844   1.295  0.2353  0.7624 -1.9943
 2810SOL     OW20062   1.226   3.369   2.395 -0.2668 -0.4531 -0.4839
 2810SOL    HW120063   1.257   3.451   2.357 -2.1180  0.9739  1.1132
 2810SOL    HW220064   1.262   3.361   2.483 -2.9181  0.9004  0.7200
 2811SOL     OW20065   1.457   0.964  16.932  0.5229  0.4986 -0.1911
 2811SOL    HW120066   1.499   0.940  16.850 -1.9850 -0.5955 -1.1585
 2811SOL    HW220067   1.489   1.051  16.953 -0.3365  1.1458 -1.5345
 2812SOL     OW20068   0.480   4.583   4.564  0.5904  0.1356 -0.3376
 2812SOL    HW120069   0.391   4.617   4.568  0.8038  0.4448  1.5707
 2812SOL    HW220070   0.503   4.603   4.654 -1.6370 -3.6318  1.0347
 2813SOL     OW20071   1.805   0.235   5.387 -0.2787  0.6777 -0.0361
 2813SOL    HW120072   1.814   0.330   5.384 -0.7145  0.7359  0.5010
 2813SOL    HW220073   1.876   0.203   5.332 -0.4934 -2.2250  1.3511
 2814SOL     OW20074   1.205   2.843   9.083 -0.4348  0.3528 -0.3209
 2814SOL    HW120075   1.185   2.908   9.150  0.0691 -1.6378  1.7791
 2814SOL    HW220076   1.116   2.822   9.054 -0.0249  0.0064 -1.3270
 2815SOL     OW20077   0.612   3.808   8.607 -0.0389  0.4389  0.3474
 2815SOL    HW120078   0.656   3.736   8.651 -1.5651 -1.6342 -1.5443
 2815SOL    HW220079   0.670   3.820   8.531  0.5955 -0.2401  0.7271
 2816SOL     OW20080   4.214   1.834   1.063 -0.2386  0.2023 -0.2488
 2816SOL    HW120081   4.294   1.878   1.091 -1.4315  1.4208  1.2358
 2816SOL    HW220082   4.194   1.793   1.147 -1.4539 -1.7526 -1.4782
 2817SOL     OW20083   0.200   3.961   0.292 -0.1533  0.6326 -0.0573
 2817SOL    HW120084   0.200   3.927   0.382 -0.2687  0.2404 -0.2026
 2817SOL    HW220085   0.287   3.944   0.257 -0.3024 -1.1672  0.3945
 2818SOL     OW20086   2.873   4.208   5.397 -0.2949  0.5868  0.3836
 2818SOL    HW120087   2.812   4.278   5.371 -0.4647 -0.0728 -1.0044
 2818SOL    HW220088   2.877   4.212   5.492  0.0461  0.4336  0.3737
 2819SOL     OW20089   1.694   4.656   8.946 -0.3609  0.0805 -0.1649
 2819SOL    HW120090   1.763   4.604   8.905  1.0371  1.3893  0.5168
 2819SOL    HW220091   1.742   4.731   8.981 -1.0836  1.0892 -1.2855
 2820SOL     OW20092   1.085   2.197  14.504 -0.6301  0.4374 -0.7929
 2820SOL    HW120093   1.047   2.258  14.567 -0.7401 -2.4744  2.0092
 2820SOL    HW220094   1.177   2.226  14.504 -0.5743  0.2720 -0.1926
 2821SOL     OW20095   3.329   4.608   6.711 -0.4759  0.0646 -0.0303
 2821SOL    HW120096   3.268   4.580   6.779  1.2628 -0.5132  1.3004
 2821SOL    HW220097   3.274   4.680   6.679 -0.2778  0.2618  0.0649
 2822SOL     OW20098   3.823   3.120   5.365  0.4757  0.6279  0.0363
 2822SOL    HW120099   3.842   3.037   5.408  0.2815 -0.2008 -1.5016
 2822SOL    HW220100   3.890   3.120   5.297  1.8496  0.5589  1.3782
 2823SOL     OW20101   3.603   2.833   9.391 -0.1440  0.4081  0.1590
 2823SOL    HW120102   3.515   2.856   9.422 -0.4754 -0.1732 -0.3266
 2823SOL    HW220103   3.651   2.884   9.456  1.8320  2.4391 -2.9257
 2824SOL     OW20104   0.604   2.953   6.073 -0.4734 -0.6941  0.6472
 2824SOL    HW120105   0.691   2.978   6.045 -0.4883 -2.7323 -1.2596
 2824SOL    HW220106   0.611   2.971   6.167  0.5834 -0.3497  0.4941
 2825SOL     OW20107   3.353   3.331   3.254 -0.1511  0.1937  0.0262
 2825SOL    HW120108   3.284   3.397   3.258 -0.4063 -0.0578 -0.2795
 2825SOL    HW220109   3.307   3.247   3.245 -0.4378  0.3305  0.2085
 2826SOL     OW20110   4.476   3.989  11.849  0.2390 -0.1954  0.1952
 2826SOL    HW120111   4.565   3.962  11.825  0.1924 -0.0263 -0.1622
 2826SOL    HW220112   4.494   4.044  11.926 -0.8035  1.3115 -0.6580
 2827SOL     OW20113   0.118   0.787  12.146 -0.1756 -0.3078  0.0535
 2827SOL    HW120114   0.208   0.791  12.113 -0.6211 -1.7414 -1.3595
 2827SOL    HW220115   0.100   0.880  12.159  1.4897 -0.1398  1.1638
 2828SOL     OW20116   2.572   3.552   5.513 -0.0651  0.3331  0.1504
 2828SOL    HW120117   2.658   3.516   5.533  0.5732  1.0202 -1.3985
 2828SOL    HW220118   2.555   3.560   5.607 -0.7540 -1.8635  0.2063
 2829SOL     OW20119   4.593   3.414   5.132 -0.0041 -0.3453  0.1225
 2829SOL    HW120120   4.506   3.411   5.172  0.8043  3.4328  2.1391
 2829SOL    HW220121   4.651   3.449   5.200 -0.1876  0.3749 -0.0899
 2830SOL     OW20122   1.027   4.318   8.562  0.0270  0.0843  0.1410
 2830SOL    HW120123   0.969   4.393   8.547  0.7965  0.8090  0.7479
 2830SOL    HW220124   1.049   4.329   8.655 -3.0909 -1.4891  1.0571
 2831SOL     OW20125   3.155   0.412   5.832  0.2483  0.5477 -0.9003
 2831SOL    HW120126   3.201   0.333   5.803 -0.4711 -0.3828  0.4493
 2831SOL    HW220127   3.069   0.389   5.796 -0.0772  0.1762  0.1034
 2832SOL     OW20128   1.458   1.359   2.074  0.1912 -0.7340  0.4567
 2832SOL    HW120129   1.399   1.285   2.092  0.0278 -0.2274  1.9876
 2832SOL    HW220130   1.503   1.313   2.003 -1.9604 -1.3097 -0.5346
 2833SOL     OW20131   1.482   2.202   5.644  0.3447 -0.4177 -0.3338
 2833SOL    HW120132   1.392   2.189   5.613 -0.5912 -0.1395  2.2299
 2833SOL    HW220133   1.478   2.245   5.730  1.0260 -1.4253  0.2097
 2834SOL     OW20134   1.557   4.441   4.484 -0.2565  0.0927  0.1535
 2834SOL    HW120135   1.577   4.436   4.391 -0.6709 -0.3486  0.0859
 2834SOL    HW220136   1.589   4.356   4.516 -1.3341 -1.3439 -2.5619
 2835SOL     OW20137   0.615   3.271  11.259 -0.1283  0.2122 -0.0314
 2835SOL    HW120138   0.709   3.265  11.248 -0.0763 -1.4622  1.3916
 2835SOL    HW220139   0.610   3.350  11.313  3.0285 -1.8571  3.2365
 2836SOL     OW20140   0.137   0.189   2.881 -0.7199  0.2075 -0.1374
 2836SOL    HW120141   0.083   0.226   2.950 -2.0263  1.1266 -1.6693
 2836SOL    HW220142   0.228   0.215   2.899 -0.8669 -0.3929  1.5101
 2837SOL     OW20143   0.634   2.063   1.045 -0.6123 -0.2846 -0.4945
 2837SOL    HW120144   0.649   1.969   1.038  1.5184 -0.0654  1.0575
 2837SOL    HW220145   0.623   2.083   0.952  2.3791 -0.6938 -0.9605
 2838SOL     OW20146   0.771   0.507  14.184 -0.0787  0.1593  0.2506
 2838SOL    HW120147   0.856   0.543  14.209  0.1511 -0.6254  0.6173
 2838SOL    HW220148   0.778   0.414  14.207  1.5077  0.4282  0.8182
 2839SOL     OW20149   0.664   0.281   0.922  0.2818 -0.1813  0.1596
 2839SOL    HW120150   0.713   0.297   0.841 -0.0410  0.6751  0.1362
 2839SOL    HW220151   0.606   0.210   0.893 -0.3228  0.0816  0.7267
 2840SOL     OW20152   2.684   2.854  13.639  0.2244  0.4655 -0.9459
 2840SOL    HW120153   2.593   2.877  13.619 -0.2939  0.5900  1.5950
 2840SOL    HW220154   2.683   2.875  13.732 -0.0512 -0.7237 -0.6803
 2841SOL     OW20155   1.976   3.058   1.169 -0.3007 -0.7990  0.1615
 2841SOL    HW120156   2.053   3.107   1.142 -1.2542  0.7423  0.2021
 2841SOL    HW220157   2.007   3.057   1.259  1.7288  1.1293 -0.5173
 2842SOL     OW20158   1.637   0.384  13.251  0.1200  0.2957  0.2670
 2842SOL    HW120159   1.679   0.390  13.337 -2.6897  0.5395  1.5996
 2842SOL    HW220160   1.677   0.305  13.216  0.2142  0.4212  0.0886
 2843SOL     OW20161   1.939   0.603   4.665 -0.2430 -0.0587  0.1687
 2843SOL    HW120162   1.980   0.666   4.724 -1.5537  0.1294  0.8810
 2843SOL    HW220163   1.955   0.514   4.696  1.4164 -0.0250 -0.6303
 2844SOL     OW20164   3.817   3.149   2.515 -0.1706 -0.2514  0.0819
 2844SOL    HW120165   3.902   3.181   2.487  0.1234 -0.6943  0.4614
 2844SOL    HW220166   3.804   3.085   2.445 -0.7314 -0.5150  0.4192
 2845SOL     OW20167   0.780   0.116   8.547  0.4166 -0.3577 -0.9968
 2845SOL    HW120168   0.819   0.202   8.528  0.7611 -0.5521 -1.1644
 2845SOL    HW220169   0.835   0.091   8.621  0.5485 -1.4132 -1.4509
 2846SOL     OW20170   3.390   2.661  17.241 -0.8466  0.3758  0.8748
 2846SOL    HW120171   3.410   2.717  17.166  2.4835  1.6053  2.6594
 2846SOL    HW220172   3.426   2.720  17.307 -2.4333  1.2638  0.9348
 2847SOL     OW20173   4.509   2.915  13.686 -0.3610 -1.5634 -0.2472
 2847SOL    HW120174   4.531   2.949  13.599  1.5943  0.4374  1.0367
 2847SOL    HW220175   4.563   2.837  13.682  3.7317  1.1935  1.4729
 2848SOL     OW20176   2.872   3.730   1.485  0.0333 -0.2171  0.2469
 2848SOL    HW120177   2.818   3.799   1.522 -0.3340 -0.1447 -0.4208
 2848SOL    HW220178   2.809   3.659   1.477  1.2569 -1.2980  0.1852
 2849SOL     OW20179   4.573   2.574   6.508  0.1023 -0.0691 -0.1759
 2849SOL    HW120180   4.530   2.653   6.477  1.8044  0.4367 -1.2626
 2849SOL    HW220181   4.520   2.500   6.477  1.5304 -0.5649 -1.4411
 2850SOL     OW20182   4.707   4.017   4.070  0.5235 -0.2343 -1.0199
 2850SOL    HW120183   4.723   3.986   4.159 -3.3611 -1.9722 -0.9521
 2850SOL    HW220184   4.618   3.994   4.045 -0.1488  1.2756  0.0025
 2851SOL     OW20185   4.022   3.922   1.475 -0.2164 -0.8515 -0.3458
 2851SOL    HW120186   3.994   4.014   1.482  1.2302 -0.4270 -0.0293
 2851SOL    HW220187   3.966   3.893   1.404 -1.0844  1.0188 -0.4396
 2852SOL     OW20188   2.637   1.977   8.080 -0.0890  0.0923 -0.0785
 2852SOL    HW120189   2.703   2.040   8.108 -1.1609  1.0949  0.2325
 2852SOL    HW220190   2.554   2.026   8.086 -1.7986 -3.0580  1.8939
 2853SOL     OW20191   2.613   2.714   2.280 -0.5328  0.6601 -0.2417
 2853SOL    HW120192   2.601   2.795   2.229 -0.1660  0.9197  0.0883
 2853SOL    HW220193   2.524   2.680   2.281 -0.7844  1.3801  0.7432
 2854SOL     OW20194   2.405   0.263   7.851  0.3676 -0.3443  0.0784
 2854SOL    HW120195   2.423   0.310   7.933  2.5102 -2.2107  0.6746
 2854SOL    HW220196   2.328   0.315   7.828 -0.4102 -1.5796 -0.0776
 2855SOL     OW20197   3.565   4.189   0.417  0.4300 -0.5265  0.3260
 2855SOL    HW120198   3.492   4.150   0.464 -0.8791  0.9211 -0.4992
 2855SOL    HW220199   3.575   4.276   0.455  2.1336 -1.2793  1.5826
 2856SOL     OW20200   3.991   3.352   3.480 -0.7974  0.2278 -0.3400
 2856SOL    HW120201   4.071   3.406   3.478 -1.3840  1.1275  0.3121
 2856SOL    HW220202   3.930   3.425   3.474  0.1287  0.9666 -0.9101
 2857SOL     OW20203   2.014   0.192   2.560 -0.4600  0.2367  0.2320
 2857SOL    HW120204   1.933   0.194   2.611 -1.0961  0.4462 -0.7731
 2857SOL    HW220205   2.024   0.277   2.517 -1.2023  0.1631 -0.0814
 2858SOL     OW20206   0.142   1.558   7.448  0.2364  0.0457 -0.1610
 2858SOL    HW120207   0.062   1.559   7.501  0.3744  2.3744  0.0079
 2858SOL    HW220208   0.164   1.651   7.449  0.1643  0.0462  0.7562
 2859SOL     OW20209   4.382   0.846  16.370  0.4538  0.1114 -0.2592
 2859SOL    HW120210   4.452   0.886  16.318  1.4420 -1.3562 -0.0497
 2859SOL    HW220211   4.433   0.849  16.452  0.1833 -0.6123 -0.0692
 2860SOL     OW20212   3.981   4.224  14.163  0.0026 -0.1593 -0.6961
 2860SOL    HW120213   3.889   4.199  14.166  0.6629 -2.6626 -1.1171
 2860SOL    HW220214   4.035   4.151  14.193  0.4765  1.1032  1.4704
 2861SOL     OW20215   1.960   2.846   9.693 -0.3671  0.1288  0.1576
 2861SOL    HW120216   1.918   2.773   9.740 -1.2028  0.4214 -0.1312
 2861SOL    HW220217   2.020   2.802   9.633 -0.0760  0.6016  0.1083
 2862SOL     OW20218   2.030   3.417   8.890 -0.1479 -0.6892 -0.6644
 2862SOL    HW120219   2.046   3.363   8.968  0.4033 -1.3551 -1.2431
 2862SOL    HW220220   2.041   3.504   8.929  1.6655 -0.3360 -1.9731
 2863SOL     OW20221   0.244   4.411  14.791  0.2742  0.0608 -0.3823
 2863SOL    HW120222   0.255   4.345  14.860  1.0251  2.4456  1.7784
 2863SOL    HW220223   0.161   4.448  14.822  0.7091  1.7553 -1.2365
 2864SOL     OW20224   1.754   1.022   7.767  0.0962 -0.0402  0.3932
 2864SOL    HW120225   1.751   1.117   7.782 -1.0245  0.1549 -1.1005
 2864SOL    HW220226   1.820   0.996   7.832  0.7322 -3.7012 -1.7433
 2865SOL     OW20227   4.613   1.215   2.697  0.7566 -0.4066 -0.5311
 2865SOL    HW120228   4.623   1.182   2.608  0.2303 -2.4632  0.1598
 2865SOL    HW220229   4.553   1.288   2.681 -0.1629 -1.0540 -0.0243
 2866SOL     OW20230   3.143   0.118   5.731 -0.6530  0.0636 -0.2203
 2866SOL    HW120231   3.054   0.107   5.767 -1.1943  0.3610 -1.4752
 2866SOL    HW220232   3.144   0.030   5.692  0.2880 -0.6189  1.3271
 2867SOL     OW20233   2.487   4.197   6.737  0.5535 -0.1395 -0.2926
 2867SOL    HW120234   2.468   4.149   6.657 -2.2775  1.2311 -0.4333
 2867SOL    HW220235   2.399   4.225   6.762 -0.2657 -2.2074 -0.8399
 2868SOL     OW20236   0.807   2.732   8.776  0.0971 -0.2520  0.2998
 2868SOL    HW120237   0.725   2.762   8.737  0.0923  0.3161  0.7457
 2868SOL    HW220238   0.836   2.679   8.702 -0.5167  0.0816 -0.1801
 2869SOL     OW20239   4.569   3.319   8.585 -0.0489 -0.0200 -0.0469
 2869SOL    HW120240   4.615   3.267   8.520  2.7637  0.8714  1.2256
 2869SOL    HW220241   4.481   3.281   8.586 -0.2945  0.5228 -1.5624
 2870SOL     OW20242   1.582   3.125  17.033  0.2962  0.0017 -0.3086
 2870SOL    HW120243   1.577   3.070  16.954  1.4762  0.6596 -0.8430
 2870SOL    HW220244   1.499   3.111  17.079 -0.5434  0.2080 -1.7436
 2871SOL     OW20245   2.754   3.233   7.078  0.4588 -0.0729 -0.2178
 2871SOL    HW120246   2.704   3.165   7.033 -0.7584  0.3861  0.4498
 2871SOL    HW220247   2.812   3.180   7.132 -1.4511 -1.2079  0.7050
 2872SOL     OW20248   0.047   3.997   7.859 -0.0344  0.3872  0.0432
 2872SOL    HW120249   0.073   3.994   7.951  0.8169 -0.8793 -0.2457
 2872SOL    HW220250   0.031   3.907   7.829  1.1533  0.2122 -0.0566
 2873SOL     OW20251   2.022   2.174  12.606 -0.3171 -0.4942  0.1236
 2873SOL    HW120252   2.029   2.184  12.511 -0.3567 -0.3559  0.1338
 2873SOL    HW220253   2.099   2.120  12.623  1.3671  1.0743 -2.5030
 2874SOL     OW20254   4.326   3.777   1.742 -0.5949 -0.3615 -0.1028
 2874SOL    HW120255   4.350   3.864   1.711  1.4791 -0.1686  2.0329
 2874SOL    HW220256   4.371   3.717   1.681 -1.2168  0.1680 -1.0824
 2875SOL     OW20257   1.679   3.200  11.414  0.0152 -0.3155 -0.2205
 2875SOL    HW120258   1.755   3.255  11.433 -1.2429  1.0351  0.9039
 2875SOL    HW220259   1.669   3.210  11.319 -0.3778  1.0528 -0.0388
 2876SOL     OW20260   1.732   0.439   9.339 -0.3505  0.8226  0.6995
 2876SOL    HW120261   1.715   0.388   9.260  2.9820 -1.4104  1.4313
 2876SOL    HW220262   1.730   0.525   9.298 -0.6296  0.6116  0.2795
 2877SOL     OW20263   4.571   3.133  10.279  0.5377  0.8963  0.2405
 2877SOL    HW120264   4.637   3.066  10.295  0.3379  0.6090 -0.1254
 2877SOL    HW220265   4.480   3.104  10.272  1.2772 -0.6939 -3.0372
 2878SOL     OW20266   3.438   0.575   4.649 -0.7928  0.4188  0.5025
 2878SOL    HW120267   3.505   0.607   4.710  0.0597 -0.4085  0.0034
 2878SOL    HW220268   3.445   0.633   4.573  0.6853 -0.3640  0.0496
 2879SOL     OW20269   3.851   4.117   7.432  0.5744 -0.2802 -0.5476
 2879SOL    HW120270   3.893   4.201   7.452  0.8490 -0.4726 -0.3003
 2879SOL    HW220271   3.860   4.067   7.513  2.0684 -1.3037 -1.3523
 2880SOL     OW20272   2.031   4.445  16.368 -0.5228  0.6093  0.1967
 2880SOL    HW120273   2.079   4.366  16.392 -0.3577  0.5916 -0.2006
 2880SOL    HW220274   2.094   4.488  16.310 -0.9575  0.1865 -0.5760
 2881SOL     OW20275   1.350   4.567   1.699  0.5919 -0.2788 -0.2631
 2881SOL    HW120276   1.272   4.595   1.650 -0.3648 -1.1579  0.7684
 2881SOL    HW220277   1.377   4.493   1.645  0.1115  0.6856 -1.8620
 2882SOL     OW20278   1.258   2.176   8.167  0.2233 -0.4228  0.6267
 2882SOL    HW120279   1.237   2.207   8.079  0.5887  0.1450  0.7422
 2882SOL    HW220280   1.347   2.212   8.164 -0.5401  1.4045  0.3709
 2883SOL     OW20281   3.695   1.177   6.631  0.8918  0.8554 -0.3125
 2883SOL    HW120282   3.630   1.245   6.614 -1.7148 -1.2991  1.2281
 2883SOL    HW220283   3.652   1.138   6.706  1.9260 -0.4043 -0.3711
 2884SOL     OW20284   0.338   1.014  17.633  0.0533 -0.6738 -0.0337
 2884SOL    HW120285   0.331   1.104  17.601  0.3826 -1.0806 -1.2331
 2884SOL    HW220286   0.384   1.017  17.716  0.3497  0.2239 -0.2303
 2885SOL     OW20287   1.011   3.568   4.931 -0.0318  0.3615 -0.5689
 2885SOL    HW120288   1.027   3.474   4.922  0.6989  0.4446 -0.1441
 2885SOL    HW220289   0.999   3.564   5.026  0.1009 -0.0653 -0.5694
 2886SOL     OW20290   2.866   1.474   7.028 -0.5488  0.0192 -0.3258
 2886SOL    HW120291   2.853   1.406   6.963  2.5463 -1.1193  0.2423
 2886SOL    HW220292   2.816   1.543   6.985  0.5376  1.7136  1.1011
 2887SOL     OW20293   0.507   2.620   2.797  0.8374 -0.2593  0.2074
 2887SOL    HW120294   0.552   2.671   2.864 -1.8989  0.7984  1.2309
 2887SOL    HW220295   0.437   2.677   2.766 -0.6500 -1.6619  0.9697
 2888SOL     OW20296   3.362   2.671  10.972 -0.3088  0.0944 -0.3132
 2888SOL    HW120297   3.371   2.588  11.018 -0.1565  0.9486  1.1957
 2888SOL    HW220298   3.358   2.734  11.044  1.5903  0.1345 -0.2364
 2889SOL     OW20299   0.029   4.083   6.949 -0.5781 -0.2025  0.5312
 2889SOL    HW120300   4.714   4.163   6.944 -0.7120 -0.2029  1.9691
 2889SOL    HW220301   0.013   4.074   7.043  1.2895  0.9953  0.9732
 2890SOL     OW20302   4.231   0.190   0.788  0.0538  0.0423  0.0029
 2890SOL    HW120303   4.191   0.239   0.860  0.1747  0.2029 -0.0385
 2890SOL    HW220304   4.296   0.139   0.835 -0.1264  0.8370  1.1051
 2891SOL     OW20305   2.946   1.534   4.853 -0.6383  0.1259  0.1756
 2891SOL    HW120306   2.931   1.618   4.811 -0.3496 -0.5963 -1.3542
 2891SOL    HW220307   2.871   1.545   4.912 -1.0374  1.2793 -0.5492
 2892SOL     OW20308   3.482   2.282   5.966  0.1332 -0.0805 -0.3566
 2892SOL    HW120309   3.569   2.315   5.942  1.2542 -1.1316  2.2403
 2892SOL    HW220310   3.478   2.289   6.061  2.8067 -1.7069 -0.1201
 2893SOL     OW20311   1.384   4.114   1.233  0.3216 -0.0828  0.4545
 2893SOL    HW120312   1.331   4.057   1.178 -0.0589  1.7740 -1.1030
 2893SOL    HW220313   1.333   4.104   1.314 -1.0926 -0.6067 -0.5050
 2894SOL     OW20314   2.788   0.578   2.137  0.1104 -0.2523 -0.1409
 2894SOL    HW120315   2.763   0.499   2.090  0.1001  1.3195 -2.7747
 2894SOL    HW220316   2.878   0.576   2.106  0.0401  1.4554 -0.4821
 2895SOL     OW20317   0.484   0.139  12.148 -0.4690 -0.3994  0.0476
 2895SOL    HW120318   0.514   0.061  12.194 -2.2338 -1.6981 -1.0467
 2895SOL    HW220319   0.547   0.208  12.170  0.7388 -0.8210 -2.0740
 2896SOL     OW20320   3.987   1.590   6.872  0.2597  0.3736  0.7830
 2896SOL    HW120321   3.906   1.561   6.831 -0.8653 -0.5010  3.5785
 2896SOL    HW220322   4.027   1.653   6.813 -0.7843 -0.4278 -0.7710
 2897SOL     OW20323   4.570   0.351  16.349  0.6152 -0.0917 -0.3824
 2897SOL    HW120324   4.629   0.376  16.420  1.0652  1.1603 -1.1849
 2897SOL    HW220325   4.592   0.418  16.283  1.3631  1.3394  1.3259
 2898SOL     OW20326   1.111   0.103   1.822 -0.4769  0.7691 -0.0426
 2898SOL    HW120327   1.040   0.050   1.784 -0.2606  0.0756  0.5322
 2898SOL    HW220328   1.063   0.183   1.843 -0.9915  0.3533  0.3638
 2899SOL     OW20329   3.460   2.283   0.550 -0.3218 -0.4638 -0.3332
 2899SOL    HW120330   3.516   2.212   0.584 -0.5816 -0.2778  0.4708
 2899SOL    HW220331   3.419   2.244   0.473 -0.2978 -2.9078  0.8951
 2900SOL     OW20332   1.823   3.151   8.275  0.2295 -0.1618 -0.8786
 2900SOL    HW120333   1.763   3.196   8.334 -0.6208  0.0476 -1.8954
 2900SOL    HW220334   1.909   3.178   8.306 -0.4128  0.3677  0.4153
 2901SOL     OW20335   4.451   0.463   5.472 -0.5970 -0.5740 -0.4643
 2901SOL    HW120336   4.405   0.381   5.484 -0.6305 -0.0515  3.0263
 2901SOL    HW220337   4.520   0.447   5.536  0.4445  1.0078 -1.1741
 2902SOL     OW20338   0.838   0.835  14.093  0.4996 -0.0685  0.1372
 2902SOL    HW120339   0.776   0.773  14.133  2.6369 -1.8825  0.6394
 2902SOL    HW220340   0.909   0.781  14.059  0.7629  0.4561 -0.1402
 2903SOL     OW20341   1.069   4.139   2.854 -0.7839  0.3353 -0.0281
 2903SOL    HW120342   1.053   4.047   2.831  0.1870 -0.5611  2.8134
 2903SOL    HW220343   1.133   4.167   2.789 -1.5195  0.3153 -0.7710
 2904SOL     OW20344   3.556   4.647   0.059 -0.3574 -0.2584 -0.1246
 2904SOL    HW120345   3.613   4.714   0.097 -0.6793 -0.5920  0.9560
 2904SOL    HW220346   3.506   4.615   0.135  0.8059 -1.8725 -0.0427
 2905SOL     OW20347   0.587   0.362   6.367  0.1971  0.7192  0.3757
 2905SOL    HW120348   0.548   0.365   6.454  0.8092 -1.8831  0.7520
 2905SOL    HW220349   0.675   0.396   6.383  0.2941 -0.1135  1.5852
 2906SOL     OW20350   0.590   1.355   4.052 -0.1867  0.2705 -0.0419
 2906SOL    HW120351   0.618   1.333   3.964 -2.5847  0.4528 -0.8586
 2906SOL    HW220352   0.537   1.276   4.057  1.4537 -0.8882 -1.1475
 2907SOL     OW20353   4.059   3.332   2.004 -0.5601  0.5464  0.0101
 2907SOL    HW120354   3.966   3.338   1.983 -0.1896  1.9431 -1.1646
 2907SOL    HW220355   4.079   3.421   2.032  1.9106  0.1071 -0.3847
 2908SOL     OW20356   1.649   4.581   6.537  0.1042  0.3902 -0.6247
 2908SOL    HW120357   1.734   4.616   6.512  0.5694  0.6669  1.3217
 2908SOL    HW220358   1.586   4.642   6.498  0.1533  1.3714  0.8346
 2909SOL     OW20359   4.698   4.599   1.353  0.5182 -0.1160  0.3098
 2909SOL    HW120360   4.665   4.677   1.308  1.6333  0.8558  1.2044
 2909SOL    HW220361   0.026   4.574   1.288  1.5520 -2.3006  2.2215
 2910SOL     OW20362   3.925   2.170  10.326  0.6227  0.1098 -0.2599
 2910SOL    HW120363   3.833   2.184  10.304  0.9292  0.9423 -1.0301
 2910SOL    HW220364   3.969   2.181  10.241  1.5872 -0.1922  0.2014
 2911SOL     OW20365   1.816   4.127   5.943 -0.1078  0.1723  0.3258
 2911SOL    HW120366   1.792   4.178   6.020 -1.6957  1.7630 -1.2263
 2911SOL    HW220367   1.863   4.054   5.983 -0.9799 -0.7167 -0.2690
 2912SOL     OW20368   0.236   0.650  14.309  0.1698 -0.4368 -0.2114
 2912SOL    HW120369   0.318   0.682  14.271 -1.4139  0.6976 -2.6981
 2912SOL    HW220370   0.268   0.594  14.379 -2.1765 -1.1982  0.2614
 2913SOL     OW20371   3.777   1.481   7.765  0.8187  0.6318  0.4336
 2913SOL    HW120372   3.800   1.500   7.855 -2.7004  0.0433  1.4584
 2913SOL    HW220373   3.819   1.395   7.765  1.3489  0.8637 -3.1058
 2914SOL     OW20374   0.042   4.356  13.177  0.3451 -0.0588  0.0620
 2914SOL    HW120375   0.009   4.438  13.214 -1.1831 -0.3750 -0.5847
 2914SOL    HW220376   0.117   4.329  13.230  0.1618  1.6251  1.1819
 2915SOL     OW20377   2.837   0.620   3.482 -0.1411  0.5095 -0.1040
 2915SOL    HW120378   2.802   0.619   3.571  0.9563  0.1972  0.3339
 2915SOL    HW220379   2.764   0.652   3.429 -1.8201  1.3601  2.7109
 2916SOL     OW20380   3.128   0.864   1.557  0.2563  0.1180  0.2495
 2916SOL    HW120381   3.158   0.836   1.470 -0.5439  0.8916 -0.2837
 2916SOL    HW220382   3.200   0.923   1.580 -0.3369  1.1471 -0.5238
 2917SOL     OW20383   3.917   1.365   5.401 -0.6590 -0.0377 -0.1188
 2917SOL    HW120384   3.875   1.443   5.437 -2.7687 -1.3730  0.3064
 2917SOL    HW220385   3.848   1.299   5.388  0.9961 -1.8340  0.1894
 2918SOL     OW20386   0.253   3.268  17.229 -0.6298 -0.1010  0.0849
 2918SOL    HW120387   0.253   3.282  17.134  2.4117 -1.4646 -0.1129
 2918SOL    HW220388   0.334   3.217  17.233 -1.2124 -1.1871 -1.7928
 2919SOL     OW20389   3.227   1.504   9.079  0.1447 -0.0489 -0.3771
 2919SOL    HW120390   3.152   1.562   9.077  0.1822 -0.0803 -2.5826
 2919SOL    HW220391   3.301   1.563   9.096 -0.5208  0.2656  1.3784
 2920SOL     OW20392   1.683   3.818  11.636  0.4927 -0.0401 -0.2516
 2920SOL    HW120393   1.735   3.784  11.709  2.2147 -0.1795 -1.5581
 2920SOL    HW220394   1.704   3.753  11.569 -3.1418  0.7627 -2.1955
 2921SOL     OW20395   4.416   0.092   7.963 -0.0735  0.2915 -0.3939
 2921SOL    HW120396   4.466   0.023   7.917  0.5377  0.9743 -0.7566
 2921SOL    HW220397   4.416   0.052   8.050  0.3846 -0.0071 -0.5258
 2922SOL     OW20398   3.896   1.467  14.827 -0.5238  0.4407 -0.0575
 2922SOL    HW120399   3.823   1.406  14.828 -1.4791  1.5920  0.1725
 2922SOL    HW220400   3.968   1.415  14.791  2.3500  1.9445  3.5785
 2923SOL     OW20401   0.721   3.575  15.076  0.3858  0.3848 -0.1084
 2923SOL    HW120402   0.659   3.535  15.015  1.4393 -0.4623 -0.6152
 2923SOL    HW220403   0.800   3.525  15.056  0.2262  0.6431 -1.3430
 2924SOL     OW20404   3.246   2.868   3.655 -0.2114 -0.3887  0.0284
 2924SOL    HW120405   3.336   2.898   3.665 -0.1659 -0.1354 -1.2058
 2924SOL    HW220406   3.204   2.925   3.720 -0.1412 -1.2713  0.8390
 2925SOL     OW20407   2.713   4.190   8.025 -0.3626 -0.7064 -0.1475
 2925SOL    HW120408   2.644   4.243   8.064 -0.4926 -0.9787 -0.0047
 2925SOL    HW220409   2.757   4.166   8.107  3.0929  0.4303 -1.6591
 2926SOL     OW20410   0.396   2.763   4.750  0.2330 -0.2135  0.1676
 2926SOL    HW120411   0.374   2.797   4.837 -0.4418  2.0594 -0.9182
 2926SOL    HW220412   0.333   2.814   4.699 -1.5869  0.9466  3.5919
 2927SOL     OW20413   2.742   1.496   5.011  0.1055 -0.3162 -0.4007
 2927SOL    HW120414   2.656   1.518   4.976  0.0699  0.1352 -0.0288
 2927SOL    HW220415   2.724   1.429   5.078  0.7688  1.3421  1.4340
 2928SOL     OW20416   3.151   4.182   1.331 -0.0209  0.0303 -0.1831
 2928SOL    HW120417   3.222   4.118   1.331  0.6126  0.7328  0.5698
 2928SOL    HW220418   3.193   4.268   1.335  1.4888 -0.7601  1.0999
 2929SOL     OW20419   0.108   3.208   4.170 -0.4324  0.4723  0.3088
 2929SOL    HW120420   0.106   3.208   4.074  0.0008  0.4014  0.3018
 2929SOL    HW220421   0.051   3.283   4.189 -2.4286 -0.9014 -0.3373
 2930SOL     OW20422   3.841   0.462   8.036  0.0215 -0.8880 -0.5033
 2930SOL    HW120423   3.817   0.369   8.035 -1.5128 -0.4958 -0.4988
 2930SOL    HW220424   3.799   0.496   7.957 -1.2311  0.8364  0.8986
 2931SOL     OW20425   3.804   0.195   6.444  0.4732 -0.1662  0.2015
 2931SOL    HW120426   3.852   0.154   6.516  0.7951 -0.5804 -0.2562
 2931SOL    HW220427   3.724   0.141   6.445  0.2177  0.1889 -0.6600
 2932SOL     OW20428   4.463   2.722   1.976 -0.7541 -0.3843 -0.0189
 2932SOL    HW120429   4.557   2.741   1.973 -0.4435 -2.1932 -1.4343
 2932SOL    HW220430   4.452   2.670   2.056 -0.2475  0.8873  0.8773
 2933SOL     OW20431   0.909   0.575   3.673 -0.7365  0.1542  0.6581
 2933SOL    HW120432   0.960   0.649   3.640 -0.3952 -1.1157 -1.7018
 2933SOL    HW220433   0.840   0.562   3.608  0.9731  0.8998 -1.3387
 2934SOL     OW20434   1.132   0.151   6.034  0.5722  0.1466  0.5386
 2934SOL    HW120435   1.053   0.184   6.077 -0.5197 -1.1021 -0.4733
 2934SOL    HW220436   1.148   0.218   5.968  2.1148 -0.4016  0.3683
 2935SOL     OW20437   0.228   0.812   3.263 -0.7604  0.5274  0.1646
 2935SOL    HW120438   0.270   0.859   3.191  4.5033 -3.9831  0.2532
 2935SOL    HW220439   0.295   0.747   3.284 -0.0972  1.4510  0.9317
 2936SOL     OW20440   1.160   3.008   9.333 -0.4183  0.3821  0.2806
 2936SOL    HW120441   1.092   3.065   9.369  0.3437  1.3043  0.2629
 2936SOL    HW220442   1.156   2.929   9.386 -1.3843 -0.3901 -0.9384
 2937SOL     OW20443   1.315   1.305   8.792  0.2933  0.2019 -0.0886
 2937SOL    HW120444   1.341   1.349   8.873 -0.9734 -0.4433  0.6750
 2937SOL    HW220445   1.344   1.366   8.725  4.4023  1.6559  2.9755
 2938SOL     OW20446   2.948   0.751   8.790 -0.0046  0.3178 -0.2195
 2938SOL    HW120447   2.890   0.681   8.761 -0.3886 -0.1172  1.6594
 2938SOL    HW220448   3.009   0.748   8.716 -0.8745  1.0834 -0.9758
 2939SOL     OW20449   2.193   0.801   5.665 -0.0484  0.0956 -0.0967
 2939SOL    HW120450   2.108   0.758   5.650 -0.7859  0.6983  2.3292
 2939SOL    HW220451   2.255   0.741   5.625 -0.0289 -0.0555  0.1595
 2940SOL     OW20452   4.495   4.411   1.380 -0.2838  0.6544  0.3549
 2940SOL    HW120453   4.526   4.400   1.290 -0.5821 -0.0933  0.3459
 2940SOL    HW220454   4.572   4.464   1.402  1.7903 -2.5330  0.7827
 2941SOL     OW20455   3.147   2.779   8.773  0.3539 -0.2731 -0.4157
 2941SOL    HW120456   3.234   2.783   8.813  0.7388  2.9009 -1.5388
 2941SOL    HW220457   3.160   2.788   8.678 -1.9625  0.6570 -0.6584
 2942SOL     OW20458   3.339   4.324   9.504  0.0926  0.1704  0.3795
 2942SOL    HW120459   3.296   4.368   9.577 -1.0069 -0.1399 -0.0865
 2942SOL    HW220460   3.327   4.233   9.530  0.9470 -0.5229 -1.6314
 2943SOL     OW20461   3.525   2.799   8.719 -0.2787 -0.5823  0.1754
 2943SOL    HW120462   3.498   2.729   8.778 -0.3485  1.3009  2.3763
 2943SOL    HW220463   3.459   2.864   8.744 -1.6970 -1.2223 -1.9171
 2944SOL     OW20464   4.295   0.297   6.020 -0.0919 -0.2548 -0.4781
 2944SOL    HW120465   4.206   0.331   6.028  0.0804  0.1983 -0.5094
 2944SOL    HW220466   4.277   0.211   5.981  2.7107 -0.5997 -0.9994
 2945SOL     OW20467   2.358   4.013   9.730  0.0699 -0.0586 -0.8866
 2945SOL    HW120468   2.371   4.075   9.801 -1.7180  0.3509 -0.9274
 2945SOL    HW220469   2.348   3.930   9.776 -0.9222  2.1182  2.8241
 2946SOL     OW20470   2.264   3.014  15.999 -0.3551 -0.7893  0.3921
 2946SOL    HW120471   2.317   2.990  15.923 -0.6486 -0.2459  0.0088
 2946SOL    HW220472   2.181   2.976  15.969  1.2572 -1.2545 -3.5175
 2947SOL     OW20473   0.680   2.238  10.574 -0.0049 -0.0033 -0.7076
 2947SOL    HW120474   0.734   2.165  10.605  0.9138  0.2234 -1.7612
 2947SOL    HW220475   0.653   2.204  10.488  1.7502 -0.0436 -1.2548
 2948SOL     OW20476   3.933   4.482   9.864  0.0715  0.4702 -0.3306
 2948SOL    HW120477   4.026   4.474   9.842 -0.1653 -2.3343 -0.3645
 2948SOL    HW220478   3.910   4.550   9.800  1.0507  0.3010 -0.8803
 2949SOL     OW20479   0.203   1.305   8.009  0.2900  1.0374 -0.1557
 2949SOL    HW120480   0.253   1.376   8.048 -0.6724  0.9530  1.2358
 2949SOL    HW220481   0.243   1.230   8.053 -1.0902 -0.1284 -0.8955
 2950SOL     OW20482   1.857   3.348  16.070 -0.3251 -0.3497  0.1633
 2950SOL    HW120483   1.813   3.326  15.987  0.2954  0.7665 -0.4651
 2950SOL    HW220484   1.939   3.300  16.069 -2.0604 -3.3052 -0.0336
 2951SOL     OW20485   0.139   1.433   1.671 -0.3437 -0.1622  0.1008
 2951SOL    HW120486   0.194   1.504   1.636 -1.6484  0.5106 -0.5986
 2951SOL    HW220487   0.122   1.378   1.595  1.5861  0.2776 -0.6536
 2952SOL     OW20488   2.326   4.521   7.097 -0.2994  0.0474 -0.3019
 2952SOL    HW120489   2.328   4.553   7.187 -0.7310  0.2044 -0.3444
 2952SOL    HW220490   2.321   4.426   7.108  4.5188 -0.2290 -0.6808
 2953SOL     OW20491   4.317   0.363   4.313 -0.4294 -0.3680 -0.4575
 2953SOL    HW120492   4.319   0.355   4.409  0.4162 -0.4748 -0.4869
 2953SOL    HW220493   4.276   0.449   4.306 -0.8786 -0.4226  1.4662
 2954SOL     OW20494   1.291   3.843  14.898  0.0500  0.1089  0.2203
 2954SOL    HW120495   1.362   3.789  14.933  0.7182  0.7643 -0.1295
 2954SOL    HW220496   1.310   3.826  14.806 -2.9650 -1.6251 -0.0743
 2955SOL     OW20497   0.120   0.539   8.142 -0.1751 -0.0202 -0.3258
 2955SOL    HW120498   0.060   0.605   8.177  0.6556  0.3500  0.4013
 2955SOL    HW220499   0.071   0.457   8.144  0.0234 -0.0911  1.5250
 2956SOL     OW20500   2.539   4.077   3.268  0.1980 -0.8031  0.0194
 2956SOL    HW120501   2.520   3.988   3.297 -1.7198 -0.4394 -0.1634
 2956SOL    HW220502   2.474   4.090   3.199 -1.0319 -1.2607  1.1132
 2957SOL     OW20503   2.084   4.315   4.714 -0.0664  0.3469  0.2562
 2957SOL    HW120504   2.105   4.269   4.633 -3.1240  3.5495 -2.3146
 2957SOL    HW220505   2.054   4.246   4.774 -0.1340  0.2234  0.0794
 2958SOL     OW20506   0.269   4.262   9.962 -0.5984  0.2485  0.0088
 2958SOL    HW120507   0.174   4.251   9.963 -0.7957  1.9491  0.0689
 2958SOL    HW220508   0.293   4.170   9.971  1.5104  0.7140 -0.9112
 2959SOL     OW20509   1.026   2.524   4.214 -0.0634 -0.6829 -0.6041
 2959SOL    HW120510   0.963   2.596   4.205  1.9662  1.2851  0.9327
 2959SOL    HW220511   0.979   2.461   4.268 -0.1037  0.2915  0.5038
 2960SOL     OW20512   2.365   2.877   3.502  0.2330 -0.0606 -0.3925
 2960SOL    HW120513   2.312   2.907   3.576  0.2614  1.6831 -1.0868
 2960SOL    HW220514   2.449   2.851   3.539 -0.1392  1.5581  1.5942
 2961SOL     OW20515   0.175   1.418   2.520 -0.0387  0.0692  0.1552
 2961SOL    HW120516   0.115   1.420   2.445  0.7171  2.5093 -0.3616
 2961SOL    HW220517   0.122   1.470   2.580 -0.9998  1.3576 -1.8015
 2962SOL     OW20518   3.844   0.248   9.444 -0.0266  0.5506  0.8153
 2962SOL    HW120519   3.775   0.254   9.510 -0.5892  0.0788  0.2749
 2962SOL    HW220520   3.913   0.295   9.490 -1.5566  3.5581  0.0175
 2963SOL     OW20521   3.261   2.849  10.098 -0.2425 -0.0155  0.0631
 2963SOL    HW120522   3.246   2.917  10.032  0.7919 -1.7170 -1.9083
 2963SOL    HW220523   3.252   2.771  10.043  0.1957 -0.2482  0.3230
 2964SOL     OW20524   1.238   1.334  12.640  0.1848 -0.1432 -0.2708
 2964SOL    HW120525   1.235   1.243  12.611  0.4057  0.7082 -2.8980
 2964SOL    HW220526   1.331   1.346  12.658 -0.3102  0.0853  2.2094
 2965SOL     OW20527   4.020   4.215   3.227  0.0949 -0.5151 -0.2695
 2965SOL    HW120528   4.069   4.133   3.228  1.4141  0.2466 -1.8550
 2965SOL    HW220529   4.070   4.274   3.169  1.2362  0.7546  2.0118
 2966SOL     OW20530   3.483   2.253  15.418  0.5180  0.3924 -0.3608
 2966SOL    HW120531   3.573   2.230  15.439  0.2774  0.7596  1.0524
 2966SOL    HW220532   3.435   2.171  15.432 -1.6466  1.2791 -2.3635
 2967SOL     OW20533   3.975   4.558   8.345  0.7751  0.3056  0.1527
 2967SOL    HW120534   3.990   4.644   8.385 -1.7647 -0.1653  2.0710
 2967SOL    HW220535   3.998   4.508   8.423  0.8880 -0.9198 -0.6699
 2968SOL     OW20536   3.151   2.316   4.713 -0.3820  0.2202 -0.6918
 2968SOL    HW120537   3.121   2.351   4.796 -2.2785  0.5108 -1.4923
 2968SOL    HW220538   3.227   2.373   4.703 -1.0160  0.9118 -1.5666
 2969SOL     OW20539   0.558   2.226   7.043  0.0052 -0.8593  0.0352
 2969SOL    HW120540   0.509   2.267   6.972  0.3150  0.1637  0.4159
 2969SOL    HW220541   0.508   2.231   7.125  1.0286 -0.6911  0.6522
 2970SOL     OW20542   4.044   2.929   6.055  0.1794 -0.0092  0.2555
 2970SOL    HW120543   3.970   2.876   6.084 -0.9575  0.4602 -1.8417
 2970SOL    HW220544   4.017   2.930   5.964 -0.3643 -2.6131  0.3806
 2971SOL     OW20545   4.390   3.119  11.330  0.0041 -0.0138 -0.5553
 2971SOL    HW120546   4.323   3.105  11.397 -2.0427 -1.8011 -2.9859
 2971SOL    HW220547   4.433   3.034  11.345 -2.3264 -1.3210 -1.3015
 2972SOL     OW20548   2.795   2.854   5.130 -0.1782  0.8305  0.0581
 2972SOL    HW120549   2.759   2.906   5.058  0.4845 -1.8895 -2.2827
 2972SOL    HW220550   2.721   2.796   5.150 -0.8653  2.0013  0.8705
 2973SOL     OW20551   3.812   4.063   0.362  0.0252  0.4941  0.8953
 2973SOL    HW120552   3.781   4.140   0.314  0.3959  0.1870  0.1705
 2973SOL    HW220553   3.727   4.040   0.400 -0.1579  0.0681  0.2281
 2974SOL     OW20554   4.373   4.614   7.712  0.6024  0.2103 -0.1883
 2974SOL    HW120555   4.397   4.625   7.620  1.5065  1.0529  0.1517
 2974SOL    HW220556   4.436   4.548   7.742  0.7193  0.2894 -0.2572
 2975SOL     OW20557   1.261   3.431  13.431 -0.3596  0.2839  0.0607
 2975SOL    HW120558   1.346   3.466  13.458 -0.3445 -1.0794  1.7273
 2975SOL    HW220559   1.234   3.383  13.509 -2.3627 -2.0529 -2.0542
 2976SOL     OW20560   3.701   3.234   2.172  0.4137  0.2622  0.0424
 2976SOL    HW120561   3.744   3.316   2.198 -0.2751  1.2605 -1.9376
 2976SOL    HW220562   3.737   3.227   2.084 -0.9801 -1.5763 -0.3545
 2977SOL     OW20563   4.733   4.502   0.011  0.0143 -0.3683 -0.0259
 2977SOL    HW120564   0.087   4.503   0.037  0.6528 -0.3654 -2.2962
 2977SOL    HW220565   4.726   4.409  17.740 -0.2702 -0.7152  1.4970
 2978SOL     OW20566   1.065   4.468  12.098  0.2413 -0.8166 -0.0652
 2978SOL    HW120567   0.979   4.487  12.061  0.6551  2.5926  0.7225
 2978SOL    HW220568   1.081   4.536  12.164  0.3650 -1.7480  0.8701
 2979SOL     OW20569   4.124   2.419  16.466  0.5721 -0.0308 -0.1767
 2979SOL    HW120570   4.167   2.400  16.550 -0.2687  1.0336  0.5053
 2979SOL    HW220571   4.081   2.504  16.474 -0.9258 -0.7447 -0.6370
 2980SOL     OW20572   3.457   3.291   6.903 -0.1171 -0.6820  0.1135
 2980SOL    HW120573   3.459   3.305   6.809  1.2270 -0.5318  0.1679
 2980SOL    HW220574   3.538   3.241   6.918  1.2375  0.9864 -1.7399
 2981SOL     OW20575   4.160   0.233   6.433 -0.6315 -0.3784 -0.3811
 2981SOL    HW120576   4.093   0.178   6.474  1.0178 -2.5175 -0.6071
 2981SOL    HW220577   4.224   0.174   6.395 -1.4775 -0.6731 -1.3503
 2982SOL     OW20578   3.348   2.462   0.291 -0.1187  0.3727 -0.0588
 2982SOL    HW120579   3.273   2.420   0.249  0.2163 -1.3693  1.0919
 2982SOL    HW220580   3.413   2.464   0.221 -0.8608  1.3683 -0.7070
 2983SOL     OW20581   1.427   3.714   9.088 -0.1823 -0.1543  0.1996
 2983SOL    HW120582   1.374   3.790   9.110  0.4470  0.2352  0.3781
 2983SOL    HW220583   1.467   3.744   9.006  1.0338 -3.2717 -0.3578
 2984SOL     OW20584   3.445   2.020   4.918  0.0919 -0.2969  0.2172
 2984SOL    HW120585   3.471   2.015   4.826  1.0585  2.6629  0.3166
 2984SOL    HW220586   3.509   1.960   4.957 -0.4637 -0.4992  0.8081
 2985SOL     OW20587   0.866   3.083   4.827  0.0377  0.5406 -0.0654
 2985SOL    HW120588   0.913   3.046   4.752 -0.5817  0.0889 -0.2346
 2985SOL    HW220589   0.789   3.027   4.835  0.2404  0.3342  0.4791
 2986SOL     OW20590   0.863   1.994   7.592  0.4116 -0.3877  0.1912
 2986SOL    HW120591   0.796   1.937   7.555  0.1076 -0.8391  1.4227
 2986SOL    HW220592   0.932   1.988   7.527  0.0253  1.4694 -0.3759
 2987SOL     OW20593   1.008   4.672   0.192  0.1413  0.6463 -0.2914
 2987SOL    HW120594   1.078   4.668   0.127  2.1163 -0.2100  1.8695
 2987SOL    HW220595   1.055   4.637   0.267 -0.0701  1.0241  0.0160
 2988SOL     OW20596   2.485   1.638   7.015  0.3896  0.5122 -0.1130
 2988SOL    HW120597   2.577   1.642   6.987  0.1290 -0.6223 -1.0967
 2988SOL    HW220598   2.475   1.731   7.039  1.2558  0.8210 -0.9418
 2989SOL     OW20599   4.004   0.745  11.442  0.1247 -0.3143 -0.9831
 2989SOL    HW120600   4.029   0.825  11.489 -1.6946  0.1730 -0.8211
 2989SOL    HW220601   4.079   0.730  11.384  1.3576  0.4643  0.4086
 2990SOL     OW20602   1.227   0.956   3.518  0.0099  0.5682  0.0070
 2990SOL    HW120603   1.224   0.987   3.609 -1.7442  0.6904 -0.1050
 2990SOL    HW220604   1.321   0.937   3.512 -0.8351 -3.4008 -0.8240
 2991SOL     OW20605   3.800   0.113  17.099  0.1032  0.0091  0.1758
 2991SOL    HW120606   3.890   0.143  17.092 -0.7072  1.7185 -3.0568
 2991SOL    HW220607   3.803   0.039  17.039  0.9734 -0.9139  1.3587
 2992SOL     OW20608   1.142   1.479  16.543 -0.2029  0.1525  0.1282
 2992SOL    HW120609   1.056   1.441  16.554  0.5723 -1.4424  0.6114
 2992SOL    HW220610   1.184   1.442  16.620 -0.9662 -2.2559 -0.6397
 2993SOL     OW20611   0.620   2.880   8.185  0.1190 -0.1114  0.4232
 2993SOL    HW120612   0.561   2.873   8.110 -2.1695  1.9772  2.0532
 2993SOL    HW220613   0.593   2.963   8.224 -0.0939 -1.3044  2.8317
 2994SOL     OW20614   4.638   2.518   6.783 -0.6218  0.7954  0.3483
 2994SOL    HW120615   4.602   2.490   6.699 -0.3890 -1.0283  0.8651
 2994SOL    HW220616   4.684   2.600   6.768  1.4985 -0.6110 -0.7966
 2995SOL     OW20617   1.163   0.661   1.371  0.8386  0.1543 -0.3775
 2995SOL    HW120618   1.249   0.625   1.393  0.8207  0.9382  0.9847
 2995SOL    HW220619   1.113   0.599   1.423  1.5909 -1.1526 -1.2230
 2996SOL     OW20620   2.414   1.708   8.677 -0.7406  0.2051 -0.1728
 2996SOL    HW120621   2.494   1.758   8.689 -2.5237  2.6231  1.5508
 2996SOL    HW220622   2.382   1.753   8.599 -1.7154 -0.9449 -0.4271
 2997SOL     OW20623   1.947   3.807   6.863 -0.2395  0.4617 -0.3687
 2997SOL    HW120624   1.961   3.741   6.796  0.1171 -0.0491  0.2091
 2997SOL    HW220625   2.005   3.781   6.935 -2.3909 -1.0471  0.8171
 2998SOL     OW20626   3.568   2.894   6.066  0.1783 -0.3313  0.1356
 2998SOL    HW120627   3.631   2.868   6.133 -0.4849  1.5620  1.4756
 2998SOL    HW220628   3.525   2.811   6.046  1.4686 -0.0224 -4.1251
 2999SOL     OW20629   2.055   3.527   3.843 -0.1823  0.5496  0.0018
 2999SOL    HW120630   2.037   3.569   3.758 -1.2892 -0.6925 -0.3788
 2999SOL    HW220631   2.149   3.512   3.843 -0.1127  0.9866  0.7486
 3000SOL     OW20632   3.327   0.432   6.524  1.1328  0.6660  0.4066
 3000SOL    HW120633   3.415   0.402   6.501  0.8099  2.1086 -2.6487
 3000SOL    HW220634   3.306   0.480   6.444  0.7866 -2.0543 -1.1284
 3001SOL     OW20635   1.333   1.983   4.648 -0.5032  0.0191 -0.4866
 3001SOL    HW120636   1.348   2.072   4.616 -0.7677 -0.0185 -0.7097
 3001SOL    HW220637   1.395   1.933   4.594 -0.3196 -1.0931  0.7367
 3002SOL     OW20638   4.032   4.421  16.165  0.2070  0.3018  0.1594
 3002SOL    HW120639   3.950   4.388  16.202  0.5100 -0.6181 -0.0130
 3002SOL    HW220640   4.034   4.498  16.222 -1.7909  0.7246 -0.3204
 3003SOL     OW20641   3.510   0.269  14.749 -0.6986  0.3199 -0.4057
 3003SOL    HW120642   3.465   0.251  14.832  0.4407 -0.5438  0.0254
 3003SOL    HW220643   3.596   0.285  14.787 -0.9539  2.9659 -0.9912
 3004SOL     OW20644   1.236   1.079   1.856 -0.5056  0.0914 -0.2852
 3004SOL    HW120645   1.214   0.996   1.815  0.7673 -0.1071 -0.5590
 3004SOL    HW220646   1.296   1.116   1.791  0.9247 -0.9676  0.4066
 3005SOL     OW20647   2.146   4.469   0.218  0.1207 -0.5720  0.6253
 3005SOL    HW120648   2.158   4.549   0.167 -1.3217  0.7110  2.2921
 3005SOL    HW220649   2.134   4.400   0.153 -1.3518 -0.1640  0.4521
 3006SOL     OW20650   2.041   3.521  15.648  0.8533  0.0813  0.1078
 3006SOL    HW120651   2.128   3.560  15.648  1.0437 -0.3489  0.1139
 3006SOL    HW220652   1.990   3.599  15.669  0.2564  0.0279 -1.1467
 3007SOL     OW20653   0.846   0.741   9.446 -0.4732 -0.8739 -0.0371
 3007SOL    HW120654   0.808   0.819   9.487  0.4392  0.0250 -0.8754
 3007SOL    HW220655   0.815   0.751   9.355 -1.9512  0.2110  0.5842
 3008SOL     OW20656   0.092   2.411   5.119 -0.2645  0.6402 -0.1992
 3008SOL    HW120657   0.180   2.447   5.112  0.7237 -1.9678 -1.1299
 3008SOL    HW220658   0.039   2.491   5.110  0.2210  0.8277 -1.3833
 3009SOL     OW20659   4.143   4.132   4.230 -0.5110 -0.2516  0.2260
 3009SOL    HW120660   4.231   4.140   4.194  0.0393 -1.7636  1.2887
 3009SOL    HW220661   4.119   4.042   4.211  0.0152 -0.6400  1.4356
 3010SOL     OW20662   3.322   1.461   3.331  0.2750 -0.2091  0.1971
 3010SOL    HW120663   3.300   1.551   3.355  0.8407  0.3532 -1.3866
 3010SOL    HW220664   3.304   1.467   3.237 -1.4934 -1.6130  0.4456
 3011SOL     OW20665   0.668   4.439   0.897 -0.4403  0.1577  0.5632
 3011SOL    HW120666   0.606   4.497   0.941  0.0831  1.6901 -0.7249
 3011SOL    HW220667   0.746   4.493   0.902  1.2617 -2.0474 -1.9223
 3012SOL     OW20668   2.268   4.072  11.227 -0.0995 -0.5282 -0.2588
 3012SOL    HW120669   2.234   3.988  11.197 -3.0636  0.2514  0.9023
 3012SOL    HW220670   2.340   4.046  11.285  2.0354  0.6741 -2.3623
 3013SOL     OW20671   0.866   2.489   3.446 -0.0432 -0.1161 -0.0328
 3013SOL    HW120672   0.914   2.471   3.526 -2.6635  0.0700  1.5851
 3013SOL    HW220673   0.914   2.434   3.385 -0.9334 -0.1163 -0.7413
 3014SOL     OW20674   4.263   3.282   7.302 -0.0821 -0.6166  0.4790
 3014SOL    HW120675   4.223   3.321   7.379  1.3156 -2.0311  1.9377
 3014SOL    HW220676   4.357   3.278   7.320  0.1101 -2.8215 -1.0773
 3015SOL     OW20677   0.857   4.211  17.190  0.0072 -0.1777  0.0566
 3015SOL    HW120678   0.835   4.296  17.151 -0.8581 -0.2745  0.3400
 3015SOL    HW220679   0.882   4.151  17.121 -0.7778 -0.6638  0.1982
 3016SOL     OW20680   4.487   3.724   6.293 -0.2967 -0.2204  0.5139
 3016SOL    HW120681   4.434   3.672   6.353 -2.7932  0.6225 -0.9911
 3016SOL    HW220682   4.478   3.810   6.335  0.5150  0.6810 -1.1314
 3017SOL     OW20683   3.884   3.608   8.329  0.1650 -0.2156  0.3014
 3017SOL    HW120684   3.889   3.677   8.395  1.6316 -1.4642  1.4835
 3017SOL    HW220685   3.829   3.539   8.365 -1.6792  0.0223 -2.0690
 3018SOL     OW20686   2.620   0.658  12.029 -0.7502 -0.0045  0.1442
 3018SOL    HW120687   2.598   0.671  12.121  2.1505  1.2785  0.6797
 3018SOL    HW220688   2.663   0.739  12.001 -1.1277  0.8878  2.1236
 3019SOL     OW20689   3.669   4.703   2.830  0.8508  0.2956 -0.0538
 3019SOL    HW120690   3.747   4.666   2.788  0.5387  1.1088 -1.3653
 3019SOL    HW220691   3.600   4.646   2.796 -1.3411  1.3571  2.6079
 3020SOL     OW20692   0.134   2.684   6.714 -0.3647  0.1300  0.6928
 3020SOL    HW120693   0.219   2.715   6.745  0.6619 -0.2812 -1.6943
 3020SOL    HW220694   0.092   2.766   6.740 -0.6705 -0.4100  1.8990
 3021SOL     OW20695   0.356   4.145   0.514  0.1340 -0.1419  0.6163
 3021SOL    HW120696   0.423   4.161   0.580 -0.0465  1.6083  0.3647
 3021SOL    HW220697   0.378   4.061   0.472 -2.7010 -0.4606 -0.2267
 3022SOL     OW20698   1.365   0.839   7.643 -0.0206  0.2546 -0.6010
 3022SOL    HW120699   1.327   0.921   7.610  1.4006  1.9580  2.0132
 3022SOL    HW220700   1.329   0.776   7.581  0.6047 -0.7603  0.0677
 3023SOL     OW20701   2.634   3.620   1.727 -0.7075  0.0857 -0.0448
 3023SOL    HW120702   2.572   3.690   1.706  0.0709  0.2268 -1.8148
 3023SOL    HW220703   2.643   3.574   1.644 -1.1960  0.4968 -0.3303
 3024SOL     OW20704   4.263   2.731   5.301  0.1211  0.2291 -0.3849
 3024SOL    HW120705   4.199   2.799   5.279  1.3708  0.9775 -1.6523
 3024SOL    HW220706   4.271   2.719   5.396 -1.6456 -1.7018 -0.4645
 3025SOL     OW20707   2.613   3.481   6.895  0.3172 -0.0502 -0.1559
 3025SOL    HW120708   2.691   3.531   6.917  1.2575 -0.8318 -1.7438
 3025SOL    HW220709   2.594   3.434   6.976  1.4900 -0.2377 -0.0012
 3026SOL     OW20710   1.256   4.064  10.179  0.0664 -0.1799 -0.1919
 3026SOL    HW120711   1.175   4.050  10.131 -0.7379  2.7977  0.2824
 3026SOL    HW220712   1.226   4.111  10.258 -1.3948  1.5864 -1.7965
 3027SOL     OW20713   3.867   2.568   9.186  0.7071  0.2571 -0.7293
 3027SOL    HW120714   3.848   2.657   9.158 -2.1491 -0.6635 -1.7353
 3027SOL    HW220715   3.796   2.547   9.247  0.3179 -0.2972 -1.3710
 3028SOL     OW20716   4.146   1.956   3.741 -0.3585 -0.0218  0.0726
 3028SOL    HW120717   4.091   2.024   3.781 -2.2462 -0.5812 -1.5422
 3028SOL    HW220718   4.109   1.881   3.788  4.5133 -1.4411  1.6003
 3029SOL     OW20719   3.567   0.305   3.132 -0.5966 -0.2427 -0.2327
 3029SOL    HW120720   3.582   0.218   3.096 -0.3322  0.2190 -1.2212
 3029SOL    HW220721   3.498   0.339   3.074  0.9106  3.5533  0.2313
 3030SOL     OW20722   1.174   2.996  15.388 -0.3026  0.1025 -0.3772
 3030SOL    HW120723   1.176   3.091  15.378 -2.4314  0.2612  0.8945
 3030SOL    HW220724   1.149   2.983  15.296 -1.6643 -1.2025  0.1799
 3031SOL     OW20725   4.543   0.940  16.578 -0.2208  0.4961 -0.2383
 3031SOL    HW120726   4.573   0.899  16.659 -0.7045  1.5973  0.4951
 3031SOL    HW220727   4.578   1.029  16.570  0.0688  0.6309  2.5199
 3032SOL     OW20728   1.252   2.230   6.513  0.3263 -0.0675  0.3023
 3032SOL    HW120729   1.286   2.219   6.602  0.4669  0.2845  0.2911
 3032SOL    HW220730   1.299   2.157   6.473  1.4662  0.9875 -0.2785
 3033SOL     OW20731   3.357   0.813   6.418 -0.0133  0.1116 -0.2613
 3033SOL    HW120732   3.320   0.819   6.506  0.5815  5.7345 -0.3978
 3033SOL    HW220733   3.293   0.866   6.372 -1.1448 -0.0782  1.0905
 3034SOL     OW20734   2.485   1.234   7.605 -0.5414  0.6644  0.2938
 3034SOL    HW120735   2.441   1.228   7.521  1.0779  0.9417 -0.5694
 3034SOL    HW220736   2.426   1.300   7.642 -2.6869 -1.2075  0.2069
 3035SOL     OW20737   1.097   0.367  12.282 -0.1310 -0.4671 -0.1653
 3035SOL    HW120738   1.173   0.399  12.330 -1.5608 -0.3409  2.0063
 3035SOL    HW220739   1.103   0.273  12.301 -4.9695 -0.8653 -0.4859
 3036SOL     OW20740   3.113   0.537   7.404 -0.4259  0.1238 -0.1241
 3036SOL    HW120741   3.111   0.539   7.308 -0.0690 -1.9049 -0.1689
 3036SOL    HW220742   3.193   0.588   7.417 -0.1528 -0.1454 -0.7966
 3037SOL     OW20743   0.559   3.808   2.251 -0.5636 -0.0204  0.3954
 3037SOL    HW120744   0.469   3.840   2.248 -0.3904  0.3750 -0.6088
 3037SOL    HW220745   0.605   3.878   2.298 -0.6311 -0.6370  1.3837
 3038SOL     OW20746   4.250   2.238   5.403 -0.3388 -0.1531  0.4624
 3038SOL    HW120747   4.183   2.307   5.403 -0.1715 -0.0205  3.7579
 3038SOL    HW220748   4.233   2.188   5.482  0.8640  1.0290  1.4635
 3039SOL     OW20749   3.346   0.008   6.127  0.5393  0.2702  0.3339
 3039SOL    HW120750   3.285   4.690   6.173  1.6459 -0.7233  0.5970
 3039SOL    HW220751   3.409   0.025   6.197  2.4421 -1.6050 -0.9341
 3040SOL     OW20752   1.378   2.393   3.489  0.0314 -0.0292 -0.2773
 3040SOL    HW120753   1.332   2.371   3.408 -0.4769 -0.6234  0.1787
 3040SOL    HW220754   1.461   2.426   3.454  0.2882 -0.7694 -0.3479
 3041SOL     OW20755   0.236   1.610   7.175  0.5181 -0.1855 -0.2106
 3041SOL    HW120756   0.199   1.571   7.255  3.8284 -0.9215  0.9403
 3041SOL    HW220757   0.299   1.543   7.152  1.5932  0.5631  0.5291
 3042SOL     OW20758   1.002   4.392  16.018 -0.0116 -0.4243 -0.1209
 3042SOL    HW120759   0.957   4.452  16.077  0.7282  0.7085 -0.6982
 3042SOL    HW220760   0.991   4.309  16.063  0.6394 -1.3316 -1.6470
 3043SOL     OW20761   3.267   2.333   9.149 -0.1212  0.2673 -0.3504
 3043SOL    HW120762   3.180   2.352   9.183  1.3483  3.5580  1.6457
 3043SOL    HW220763   3.303   2.287   9.225 -2.6509 -0.1874  0.5673
 3044SOL     OW20764   0.773   2.018   4.916  0.2778 -0.2265 -0.3860
 3044SOL    HW120765   0.781   1.924   4.931 -0.2767 -0.1825  0.2066
 3044SOL    HW220766   0.846   2.054   4.966  1.2494 -0.7139 -1.4609
 3045SOL     OW20767   4.579   1.342   0.638  0.3328 -0.4372  0.4901
 3045SOL    HW120768   4.639   1.268   0.632 -0.4981 -0.9399 -1.3844
 3045SOL    HW220769   4.620   1.400   0.574 -1.5969 -0.1614 -0.4931
 3046SOL     OW20770   1.160   1.671   1.826 -0.2949 -0.3186 -0.4708
 3046SOL    HW120771   1.199   1.739   1.770  0.4597  0.9003  1.5419
 3046SOL    HW220772   1.107   1.630   1.757 -4.9051  1.6681  1.8348
 3047SOL     OW20773   1.059   4.465   6.255 -0.3990  0.3124 -0.1152
 3047SOL    HW120774   1.123   4.400   6.227  1.0865  2.5204 -1.8973
 3047SOL    HW220775   0.978   4.415   6.256  0.8197 -1.6730 -2.1807
 3048SOL     OW20776   2.438   3.286  10.696  0.1889 -0.2713 -0.0582
 3048SOL    HW120777   2.433   3.193  10.676 -2.3418  0.6548 -3.7976
 3048SOL    HW220778   2.423   3.321  10.608 -0.4264 -2.5801 -0.8638
 3049SOL     OW20779   0.654   0.594   2.502  0.1917  0.0215 -0.2451
 3049SOL    HW120780   0.622   0.505   2.484 -0.1018 -0.2198  1.5118
 3049SOL    HW220781   0.585   0.652   2.470  0.4150  0.2963 -0.2271
 3050SOL     OW20782   2.135   3.195   7.346 -0.3140  0.2523 -0.7460
 3050SOL    HW120783   2.203   3.172   7.409 -2.1243  2.4921  2.0253
 3050SOL    HW220784   2.182   3.240   7.276  0.4625  1.8001  0.7602
 3051SOL     OW20785   3.622   2.840   3.106  0.0047  0.8778  0.5014
 3051SOL    HW120786   3.527   2.826   3.101 -0.1273  1.7153  0.7144
 3051SOL    HW220787   3.647   2.753   3.074  0.2054  1.1368 -0.0534
 3052SOL     OW20788   1.149   4.238  10.398 -0.3801 -0.3914  0.4211
 3052SOL    HW120789   1.106   4.272  10.477 -1.2531  0.6333 -0.4973
 3052SOL    HW220790   1.127   4.299  10.328  0.3213  0.4661  0.9410
 3053SOL     OW20791   3.787   2.325   7.347  0.1931 -0.3377  0.1680
 3053SOL    HW120792   3.724   2.389   7.316  0.5972 -0.3667 -0.7312
 3053SOL    HW220793   3.735   2.245   7.340  0.1703 -0.2865 -0.2457
 3054SOL     OW20794   2.818   2.788  13.139 -0.2934  0.1169  0.3591
 3054SOL    HW120795   2.723   2.784  13.134 -0.2183  0.3499 -1.3705
 3054SOL    HW220796   2.847   2.728  13.070  0.8412  1.1886 -0.1036
 3055SOL     OW20797   0.355   0.015   6.939  0.3029  0.0194  0.1347
 3055SOL    HW120798   0.303   4.698   6.997  0.9775 -3.0134 -2.1658
 3055SOL    HW220799   0.439   4.708   6.937 -0.8180 -2.0789  0.6377
 3056SOL     OW20800   3.781   0.833   6.182  0.7176  0.0968 -0.5469
 3056SOL    HW120801   3.857   0.881   6.149  1.6396  0.0808  1.5019
 3056SOL    HW220802   3.819   0.764   6.238 -2.6281  0.6135  2.3537
 3057SOL     OW20803   3.462   2.600   7.987 -0.2596  0.1063  0.0400
 3057SOL    HW120804   3.420   2.539   7.926 -0.9154 -0.0920  0.6884
 3057SOL    HW220805   3.443   2.551   8.067  1.4129 -0.8372 -0.1466
 3058SOL     OW20806   2.430   1.043   6.343 -0.1529  0.3848  0.1518
 3058SOL    HW120807   2.351   1.065   6.294  1.1515 -0.6773 -2.4154
 3058SOL    HW220808   2.474   0.987   6.279  2.1340 -0.4049  2.3930
 3059SOL     OW20809   0.660   4.148   8.578 -0.3536  1.0592 -1.2002
 3059SOL    HW120810   0.718   4.076   8.600  0.9270  1.5866 -2.8710
 3059SOL    HW220811   0.586   4.109   8.530 -0.7292  1.7052 -1.1503
 3060SOL     OW20812   1.005   1.999  13.759 -0.1689 -0.2454 -0.2006
 3060SOL    HW120813   0.980   2.012  13.850  0.0787 -0.4517 -0.1018
 3060SOL    HW220814   1.052   1.916  13.758 -0.4940 -0.4286 -0.8445
 3061SOL     OW20815   1.504   3.876  15.577 -0.5248 -0.3190  0.0450
 3061SOL    HW120816   1.510   3.808  15.644 -0.4627 -1.1487 -0.8108
 3061SOL    HW220817   1.409   3.883  15.571 -0.6883 -1.2048  1.4475
 3062SOL     OW20818   2.918   0.112   6.871 -0.1961  0.0233 -0.3635
 3062SOL    HW120819   2.916   0.043   6.937 -1.3832 -1.0686 -1.5508
 3062SOL    HW220820   2.823   0.124   6.865 -0.3173  0.7083  2.5419
 3063SOL     OW20821   3.872   4.002   6.863  0.4520  0.5928 -0.1601
 3063SOL    HW120822   3.873   3.973   6.954  0.3036 -0.2523 -0.4308
 3063SOL    HW220823   3.947   4.060   6.877  0.1092  1.5366 -2.2099
 3064SOL     OW20824   0.787   1.908   2.888  0.2089  0.5995  0.0210
 3064SOL    HW120825   0.854   1.876   2.949 -1.0999 -0.7003  0.7835
 3064SOL    HW220826   0.709   1.859   2.913  0.9605  0.5504  2.2977
 3065SOL     OW20827   4.281   4.723   3.468  0.7180 -0.0700  0.5356
 3065SOL    HW120828   4.242   4.653   3.416  0.5483  2.0110 -2.1115
 3065SOL    HW220829   4.255   4.706   3.559 -1.4503 -2.2381 -0.4747
 3066SOL     OW20830   0.003   0.644   5.003 -0.8818  0.0778 -0.2538
 3066SOL    HW120831   0.087   0.688   5.017 -1.6102  1.1845  0.6828
 3066SOL    HW220832   4.701   0.675   5.084  0.9738  2.0713 -0.0835
 3067SOL     OW20833   2.615   1.097  16.480  0.2613  0.9039  0.2719
 3067SOL    HW120834   2.671   1.048  16.420  0.7003  0.9216  0.6647
 3067SOL    HW220835   2.531   1.069  16.444 -0.5740  1.2407  1.9369
 3068SOL     OW20836   0.166   1.026   7.347 -0.3578  0.2509  0.3602
 3068SOL    HW120837   0.153   1.114   7.383 -0.9675  0.2707  0.0950
 3068SOL    HW220838   0.194   0.982   7.427  1.4092 -0.8773 -0.8919
 3069SOL     OW20839   2.380   4.281   4.413  0.4809 -0.6080 -0.1912
 3069SOL    HW120840   2.424   4.238   4.339 -1.0241 -1.2605 -0.6935
 3069SOL    HW220841   2.406   4.373   4.419  1.4913 -1.1558  3.5458
 3070SOL     OW20842   0.648   1.667   2.982  0.0474 -0.4364  0.2148
 3070SOL    HW120843   0.697   1.587   3.002 -2.9825 -2.0820  1.0822
 3070SOL    HW220844   0.598   1.625   2.912  0.7443 -1.0822  0.1118
 3071SOL     OW20845   0.156   1.424  16.553 -0.2707 -0.6643 -0.0109
 3071SOL    HW120846   0.249   1.408  16.543 -0.2388 -0.9229  0.7011
 3071SOL    HW220847   0.129   1.461  16.469 -0.7795  0.3598  0.6056
 3072SOL     OW20848   3.996   3.815  16.641  0.0856  0.3971 -0.2827
 3072SOL    HW120849   3.911   3.824  16.685  0.6985 -0.0611  1.0177
 3072SOL    HW220850   4.043   3.749  16.693  0.7926  0.5453 -0.7296
 3073SOL     OW20851   1.870   3.560   5.959 -0.0976 -0.0478  0.2032
 3073SOL    HW120852   1.931   3.488   5.977 -0.8311 -0.3055  1.6299
 3073SOL    HW220853   1.835   3.542   5.871  0.5499  0.6796 -0.2010
 3074SOL     OW20854   2.079   3.215   5.568 -0.3300 -0.3073  0.2835
 3074SOL    HW120855   2.096   3.170   5.651  0.1146 -0.7279 -0.0372
 3074SOL    HW220856   2.165   3.192   5.533 -0.4233 -2.1459  1.2175
 3075SOL     OW20857   4.691   1.414  10.077  0.2298 -0.2891 -0.2236
 3075SOL    HW120858   0.027   1.463  10.113 -0.1723  0.0686  0.1071
 3075SOL    HW220859   4.683   1.355  10.152 -0.2631 -0.0051 -0.0557
 3076SOL     OW20860   1.282   2.102   9.973  0.3469  0.3647  0.4545
 3076SOL    HW120861   1.374   2.119   9.955  0.4462  0.8347  1.4276
 3076SOL    HW220862   1.255   2.058   9.892  1.9827  1.6214 -0.7615
 3077SOL     OW20863   0.706   3.550   1.786  0.2831  0.4366 -0.1757
 3077SOL    HW120864   0.700   3.489   1.860 -1.5079  0.4180 -0.3301
 3077SOL    HW220865   0.680   3.632   1.828  2.0296  0.5222  0.7325
 3078SOL     OW20866   4.094   3.516   2.631  0.2192 -0.2776  0.2445
 3078SOL    HW120867   4.181   3.554   2.636  1.2323 -2.4063 -0.9345
 3078SOL    HW220868   4.052   3.572   2.696  0.6220  2.0473 -1.4914
 3079SOL     OW20869   3.499   1.601   7.220  0.5571 -0.0115 -0.1662
 3079SOL    HW120870   3.496   1.509   7.246  1.1108  0.1461  0.4705
 3079SOL    HW220871   3.513   1.635   7.308 -1.2014  1.4780 -0.4605
 3080SOL     OW20872   0.038   4.335   5.187 -0.0543 -0.2823  0.5475
 3080SOL    HW120873   0.028   4.355   5.280 -1.4204 -2.0085  0.7641
 3080SOL    HW220874   0.061   4.422   5.153 -2.5558  0.7978  1.6689
 3081SOL     OW20875   2.241   1.164  11.907  0.0064 -0.2767 -0.0029
 3081SOL    HW120876   2.322   1.141  11.951  0.5279 -1.7671 -1.7523
 3081SOL    HW220877   2.234   1.259  11.918  0.1040 -0.5412  2.2106
 3082SOL     OW20878   2.196   1.177   6.198  0.0807  0.3740 -0.0774
 3082SOL    HW120879   2.166   1.119   6.128  1.5398 -0.0494 -0.3488
 3082SOL    HW220880   2.244   1.237   6.140  1.7216  0.3567  1.2777
 3083SOL     OW20881   2.705   0.125   3.835  0.2853 -0.8618 -0.2127
 3083SOL    HW120882   2.612   0.105   3.836  0.3577 -1.3593 -2.1719
 3083SOL    HW220883   2.730   0.113   3.926 -0.7019  1.7778  0.3807
 3084SOL     OW20884   2.544   1.975   7.801  0.0323  0.4285  0.2903
 3084SOL    HW120885   2.603   1.974   7.876 -2.1862 -0.1855  2.0378
 3084SOL    HW220886   2.507   2.060   7.828 -1.7033  0.0040 -0.7235
 3085SOL     OW20887   2.778   2.449  13.033  0.2333 -0.3563 -0.2293
 3085SOL    HW120888   2.846   2.441  13.100 -0.5707 -3.2452  0.2408
 3085SOL    HW220889   2.821   2.514  12.978  0.8070 -0.2312  0.3623
 3086SOL     OW20890   4.646   3.435  10.283  0.0244  0.1589 -0.0603
 3086SOL    HW120891   4.646   3.341  10.266  0.6800  0.4377 -1.5703
 3086SOL    HW220892   4.568   3.441  10.338  0.9996  3.1958  0.9923
 3087SOL     OW20893   0.215   3.023   2.124  0.3101  0.0148  0.4563
 3087SOL    HW120894   0.221   3.115   2.098  1.6190  0.3909  2.1446
 3087SOL    HW220895   0.121   3.007   2.129  0.1488  0.8304  0.0491
 3088SOL     OW20896   4.162   0.077   5.931 -0.2972 -0.3508 -0.0486
 3088SOL    HW120897   4.138   4.727   5.901 -0.1425 -0.5543  0.4282
 3088SOL    HW220898   4.099   0.084   6.003 -0.3751 -1.1676 -0.0339
 3089SOL     OW20899   2.361   0.041   0.536 -0.5214 -0.3222  0.1783
 3089SOL    HW120900   2.454   0.034   0.514 -0.6786  0.5136 -0.7509
 3089SOL    HW220901   2.360   0.130   0.571 -0.3826 -0.9198  1.7295
 3090SOL     OW20902   2.307   2.152   9.846 -0.5305  0.1510 -0.6225
 3090SOL    HW120903   2.258   2.142   9.928 -1.2866  1.0040 -0.9613
 3090SOL    HW220904   2.264   2.089   9.788  0.8104 -2.2380  1.0240
 3091SOL     OW20905   4.678   0.182   5.474  0.1546  0.2846 -0.6637
 3091SOL    HW120906   4.714   0.238   5.406  0.2678  2.2158  0.9853
 3091SOL    HW220907   4.660   0.246   5.543 -0.0894 -3.4362  2.7598
 3092SOL     OW20908   1.686   1.951   4.763  0.1135 -0.0751  0.4920
 3092SOL    HW120909   1.634   2.022   4.802  0.6360 -0.3915  1.7752
 3092SOL    HW220910   1.624   1.881   4.783  0.3322 -0.1076  1.0711
 3093SOL     OW20911   2.501   2.035  17.375 -0.0028  0.0369  0.2708
 3093SOL    HW120912   2.573   2.078  17.422  0.3606 -1.4649  1.0973
 3093SOL    HW220913   2.429   2.098  17.374 -0.7153 -0.7768  1.8569
 3094SOL     OW20914   3.812   4.034  11.119 -0.1646  0.3351 -0.5299
 3094SOL    HW120915   3.777   4.031  11.029 -0.5811  2.6888 -0.4573
 3094SOL    HW220916   3.833   4.127  11.120  0.4220  0.1798  0.6614
 3095SOL     OW20917   4.087   4.545   5.856 -0.1930  0.4934  0.0652
 3095SOL    HW120918   4.046   4.511   5.935 -1.5700 -1.1040 -1.3527
 3095SOL    HW220919   4.061   4.493   5.780 -2.5855 -0.4744  1.5610
 3096SOL     OW20920   1.020   1.175   7.170  0.4828  0.0587  0.2545
 3096SOL    HW120921   0.953   1.160   7.236  0.7347  3.0656  1.1895
 3096SOL    HW220922   0.993   1.263   7.144 -0.3948  0.1081  1.3632
 3097SOL     OW20923   2.509   2.775   1.621  0.2890  0.0104 -0.1985
 3097SOL    HW120924   2.596   2.815   1.620 -0.2970  1.2388 -1.9493
 3097SOL    HW220925   2.536   2.707   1.559  1.0172 -0.9483  1.1838
 3098SOL     OW20926   1.667   4.037   3.882 -0.3035 -0.5145  0.2344
 3098SOL    HW120927   1.611   4.113   3.868 -1.6770 -1.5052  0.3591
 3098SOL    HW220928   1.636   3.989   3.805  1.7341 -0.7848 -0.4250
 3099SOL     OW20929   3.027   2.608   6.711 -0.3799 -0.2527 -0.4157
 3099SOL    HW120930   3.042   2.651   6.627  0.7164  1.7935  0.8332
 3099SOL    HW220931   3.089   2.534   6.704 -0.1445 -0.0530 -0.4435
 3100SOL     OW20932   3.871   0.754  13.122 -0.7754 -0.2195  0.1667
 3100SOL    HW120933   3.943   0.708  13.078 -1.2372 -0.4272 -0.3634
 3100SOL    HW220934   3.861   0.683  13.185 -1.2477  0.5268  0.9248
 3101SOL     OW20935   3.706   1.708   8.381 -0.4709 -0.8482 -0.1999
 3101SOL    HW120936   3.654   1.691   8.303 -0.4332  2.6487 -1.0063
 3101SOL    HW220937   3.639   1.733   8.445 -0.8136 -0.7465 -0.5940
 3102SOL     OW20938   3.118   3.083   3.824  0.7266 -0.5875 -0.8467
 3102SOL    HW120939   3.199   3.135   3.824  0.7721 -0.6519  0.0812
 3102SOL    HW220940   3.124   3.041   3.910 -0.0998  0.4790 -0.2578
 3103SOL     OW20941   0.617   0.723  16.099 -0.3723  0.5643 -0.0678
 3103SOL    HW120942   0.621   0.808  16.056  1.4058 -1.1135 -3.2420
 3103SOL    HW220943   0.581   0.751  16.183  2.7817 -0.4409  1.6055
 3104SOL     OW20944   2.318   2.225   7.465  0.0675  0.2988  0.4246
 3104SOL    HW120945   2.236   2.257   7.502  0.9519  0.9720  1.7896
 3104SOL    HW220946   2.317   2.133   7.492 -2.3946  0.9309  2.5308
 3105SOL     OW20947   1.729   2.888   9.252  0.0619 -0.1139 -0.6545
 3105SOL    HW120948   1.710   2.844   9.169 -2.2394  2.4765 -1.4960
 3105SOL    HW220949   1.642   2.911   9.284  0.3972  0.1948  0.0291
 3106SOL     OW20950   0.511   3.030   2.356  0.6017 -0.3119 -0.7344
 3106SOL    HW120951   0.559   3.021   2.274 -2.9076 -0.9153 -2.6721
 3106SOL    HW220952   0.589   3.045   2.411  2.6373 -0.3320 -3.6229
 3107SOL     OW20953   3.552   3.169   5.344 -0.5782 -0.4388 -0.4718
 3107SOL    HW120954   3.515   3.083   5.325 -2.2827  0.5854 -1.7511
 3107SOL    HW220955   3.647   3.158   5.348 -0.7883 -1.1469  2.2441
 3108SOL     OW20956   0.398   2.591   5.630  0.2466  0.2197 -0.5939
 3108SOL    HW120957   0.402   2.656   5.560 -2.5390  1.0682  0.0478
 3108SOL    HW220958   0.449   2.646   5.690  2.9873 -2.2328 -0.7180
 3109SOL     OW20959   1.375   1.778   8.801  0.1215  0.5089 -0.0394
 3109SOL    HW120960   1.355   1.806   8.891  1.6480 -1.3777  0.8944
 3109SOL    HW220961   1.425   1.696   8.804 -0.5024  0.1434  0.5423
 3110SOL     OW20962   3.865   4.503   3.845 -0.2272  0.4720  0.8977
 3110SOL    HW120963   3.942   4.491   3.900  1.0631 -1.4865 -1.3404
 3110SOL    HW220964   3.826   4.578   3.890  0.4695  0.9967  0.6346
 3111SOL     OW20965   0.273   0.814   1.475  0.1040  0.2948 -0.0598
 3111SOL    HW120966   0.257   0.868   1.397 -0.3067  0.8697  0.4294
 3111SOL    HW220967   0.346   0.862   1.514  1.2751 -0.5753 -1.1519
 3112SOL     OW20968   0.979   4.454   1.383  0.0655 -0.4017 -0.0879
 3112SOL    HW120969   0.905   4.468   1.325  0.3122 -0.1636 -0.3477
 3112SOL    HW220970   0.968   4.362   1.407  0.1907  0.8346  4.7133
 3113SOL     OW20971   1.842   0.570   7.726 -0.0473 -0.3947 -0.8420
 3113SOL    HW120972   1.911   0.599   7.785  0.9633 -1.6873 -1.3895
 3113SOL    HW220973   1.822   0.657   7.691 -1.4116 -1.6782 -3.2315
 3114SOL     OW20974   2.344   0.096   5.502 -0.4017  0.3720  0.1248
 3114SOL    HW120975   2.308   0.013   5.470  1.5732 -1.0036  1.4719
 3114SOL    HW220976   2.381   0.071   5.586 -2.0764  0.6361  0.9349
 3115SOL     OW20977   4.396   2.447   7.400 -0.0679  0.3395 -0.4197
 3115SOL    HW120978   4.419   2.423   7.490  0.0736 -2.4724 -1.2148
 3115SOL    HW220979   4.406   2.360   7.363  0.9221  0.1477  0.2961
 3116SOL     OW20980   3.083   1.836   0.520 -0.0965  0.2531 -0.3424
 3116SOL    HW120981   3.110   1.852   0.429  1.4673 -0.5870 -0.0273
 3116SOL    HW220982   3.121   1.914   0.561  1.0225 -1.4208  1.8089
 3117SOL     OW20983   2.410   2.898   5.856 -0.2497 -0.1086 -0.2472
 3117SOL    HW120984   2.498   2.893   5.892 -0.1436 -1.5796 -0.7012
 3117SOL    HW220985   2.416   2.979   5.806 -1.1127  0.5771  0.7507
 3118SOL     OW20986   4.023   2.086   4.866 -0.6272  0.6036 -0.3548
 3118SOL    HW120987   4.028   2.181   4.860  2.3131  0.4732 -0.2475
 3118SOL    HW220988   4.054   2.072   4.776  1.1663  0.3756  0.2966
 3119SOL     OW20989   3.471   2.471   3.288  0.7761 -0.0026  0.6008
 3119SOL    HW120990   3.555   2.443   3.254  1.0106 -0.6588  1.7407
 3119SOL    HW220991   3.417   2.490   3.211  0.0097  1.1764  1.4187
 3120SOL     OW20992   3.711   0.216   8.015 -0.2371  0.6692 -0.6605
 3120SOL    HW120993   3.666   0.271   7.951  0.8554  0.8939 -1.2320
 3120SOL    HW220994   3.792   0.197   7.968 -0.2196  1.6685 -1.0275
 3121SOL     OW20995   2.120   1.491   2.801  0.3837  0.4411 -0.5535
 3121SOL    HW120996   2.158   1.446   2.726  0.9704 -1.3534  0.8159
 3121SOL    HW220997   2.033   1.453   2.804  0.6050 -0.1119 -1.1462
 3122SOL     OW20998   3.461   4.202   3.670  0.3159 -0.0092  0.6914
 3122SOL    HW120999   3.535   4.261   3.679 -1.1033  2.2687 -2.4720
 3122SOL    HW221000   3.415   4.223   3.752  0.5917  0.0055  0.8409
 3123SOL     OW21001   2.335   2.235  11.609  0.0665 -1.2983  0.7332
 3123SOL    HW121002   2.274   2.168  11.577  0.9514 -1.8243  0.1453
 3123SOL    HW221003   2.325   2.285  11.529  0.0427 -1.8905  0.3638
 3124SOL     OW21004   2.860   0.044  14.646  0.2352 -0.0796 -0.0886
 3124SOL    HW121005   2.955   0.033  14.643  0.1099 -0.9063 -0.7249
 3124SOL    HW221006   2.858   0.137  14.671 -0.1648  0.3582 -1.7869
 3125SOL     OW21007   1.065   1.459   2.991  0.2203  0.3201  0.0903
 3125SOL    HW121008   1.096   1.416   2.911 -0.7465 -1.4867  0.6746
 3125SOL    HW221009   0.982   1.411   3.000  0.5344  0.0065  1.3444
 3126SOL     OW21010   0.587   4.376   7.894  0.3155  0.1217  0.3603
 3126SOL    HW121011   0.560   4.284   7.901 -0.0708  0.1762 -0.3795
 3126SOL    HW221012   0.618   4.398   7.982  1.9948  0.4018 -0.3142
 3127SOL     OW21013   0.924   4.100   8.260 -0.3267 -0.3028 -0.6063
 3127SOL    HW121014   0.986   4.027   8.261 -1.8410 -1.5700 -1.3640
 3127SOL    HW221015   0.861   4.074   8.327 -0.3239  1.1476 -0.0224
 3128SOL     OW21016   2.173   1.284   8.274  0.0779  0.1681 -0.0408
 3128SOL    HW121017   2.266   1.286   8.299  0.3886 -0.3988 -1.1405
 3128SOL    HW221018   2.135   1.251   8.355 -2.8332  1.9678 -0.6857
 3129SOL     OW21019   0.647   3.250  12.347 -0.4635 -0.0544  0.2602
 3129SOL    HW121020   0.637   3.156  12.361  0.3655 -0.1302  0.3542
 3129SOL    HW221021   0.740   3.255  12.324 -0.1778 -1.3026  1.1461
 3130SOL     OW21022   0.105   0.356   8.708  0.4282 -0.2008  0.3109
 3130SOL    HW121023   0.020   0.330   8.743  0.0792 -2.1515 -2.0329
 3130SOL    HW221024   0.154   0.362   8.791 -1.2716  0.7830  1.2410
 3131SOL     OW21025   0.219   3.680   7.012 -0.1464  0.1561  0.1001
 3131SOL    HW121026   0.126   3.693   6.993  0.0067  0.5320 -0.3646
 3131SOL    HW221027   0.222   3.678   7.108  3.0155  1.6177  0.0325
 3132SOL     OW21028   4.311   4.381  16.437 -0.4675  0.3032  0.1617
 3132SOL    HW121029   4.253   4.385  16.513  0.2064  2.6811  0.5453
 3132SOL    HW221030   4.337   4.473  16.445 -1.9918  0.5639  2.2184
 3133SOL     OW21031   3.462   1.101   8.598 -0.3050 -0.1047 -0.3056
 3133SOL    HW121032   3.483   1.192   8.620 -0.9562 -0.4093  1.5758
 3133SOL    HW221033   3.391   1.124   8.537 -0.8908  2.3276  1.2691
 3134SOL     OW21034   0.096   2.182   5.000  0.5061  0.1966 -0.9076
 3134SOL    HW121035   0.109   2.264   5.047  2.2225 -0.0285 -0.9754
 3134SOL    HW221036   0.026   2.211   4.942  2.6594  0.2574 -3.4809
 3135SOL     OW21037   0.773   2.419   5.750 -0.0528 -0.6510  0.6903
 3135SOL    HW121038   0.847   2.458   5.797  0.2534 -0.6077  0.1785
 3135SOL    HW221039   0.806   2.422   5.660 -3.6366 -0.8906 -0.6303
 3136SOL     OW21040   3.188   2.803   1.421  0.0199  0.2325  0.5203
 3136SOL    HW121041   3.209   2.856   1.498 -0.5949 -3.3721  3.1915
 3136SOL    HW221042   3.219   2.718   1.452 -0.6333  0.2333  1.1828
 3137SOL     OW21043   4.487   3.393   4.762 -0.4013 -0.7461  0.0848
 3137SOL    HW121044   4.553   3.345   4.813 -0.5416 -0.0410  0.9352
 3137SOL    HW221045   4.452   3.325   4.705  2.5252  2.4989 -5.4978
 3138SOL     OW21046   0.569   4.396   9.436 -0.3027 -0.6347  0.1878
 3138SOL    HW121047   0.654   4.371   9.473 -0.0004 -0.1543 -0.1718
 3138SOL    HW221048   0.587   4.490   9.428  0.5547 -0.9156 -1.1597
 3139SOL     OW21049   4.555   3.223   9.203  0.4551  0.2512  0.5365
 3139SOL    HW121050   4.623   3.207   9.138 -1.3740 -3.2061 -0.5341
 3139SOL    HW221051   4.546   3.132   9.234 -0.2992 -0.3284 -1.4128
 3140SOL     OW21052   1.229   0.432   9.565 -0.7795  0.0856 -0.5951
 3140SOL    HW121053   1.140   0.460   9.584 -0.5540 -0.5352  1.3063
 3140SOL    HW221054   1.243   0.454   9.472  0.4328 -0.1963 -0.4855
 3141SOL     OW21055   3.490   1.064   9.671  0.2892 -0.3383  0.2625
 3141SOL    HW121056   3.539   1.069   9.588 -1.4356  1.7918 -0.6172
 3141SOL    HW221057   3.424   1.129   9.646  1.0080  0.3932  0.2241
 3142SOL     OW21058   1.626   0.573   6.517  0.4045 -0.2976  0.7935
 3142SOL    HW121059   1.637   0.582   6.611 -0.3617  1.2230  0.7308
 3142SOL    HW221060   1.579   0.489   6.515 -0.8583  0.4748 -2.4563
 3143SOL     OW21061   1.087   0.606   2.087  0.2386 -0.2379 -0.1885
 3143SOL    HW121062   1.102   0.594   2.181 -0.1516  0.0023 -0.0951
 3143SOL    HW221063   1.031   0.533   2.062 -0.0078 -0.2175  0.2932
 3144SOL     OW21064   2.448   3.966   4.895 -0.2885 -0.0318  0.1756
 3144SOL    HW121065   2.443   3.965   4.990  1.9266 -0.2516  0.2878
 3144SOL    HW221066   2.400   3.886   4.870 -0.3759  0.0801 -0.0218
 3145SOL     OW21067   0.529   4.032  12.197  0.2345  0.0091  0.2076
 3145SOL    HW121068   0.552   3.945  12.229  0.9489 -0.5212 -1.7307
 3145SOL    HW221069   0.437   4.009  12.191  1.2089 -4.3766  2.2831
 3146SOL     OW21070   3.333   2.886   8.943  0.2452 -0.2067  0.1102
 3146SOL    HW121071   3.417   2.916   8.977  0.8281 -0.9356 -0.6642
 3146SOL    HW221072   3.286   2.902   9.024 -0.2678  1.2495 -0.4891
 3147SOL     OW21073   4.136   4.033   8.086  0.0941 -0.6757  0.0237
 3147SOL    HW121074   4.176   4.032   8.173  1.0596  1.7708 -0.3834
 3147SOL    HW221075   4.045   4.059   8.100  0.9477  1.6859  1.3480
 3148SOL     OW21076   2.038   3.403   9.732 -0.1372 -0.4793 -0.3051
 3148SOL    HW121077   2.074   3.402   9.643 -0.2095 -0.3625 -0.3366
 3148SOL    HW221078   1.947   3.376   9.717 -0.1239 -1.2508  0.9837
 3149SOL     OW21079   4.014   4.290   2.858  0.1651 -0.3008 -0.3397
 3149SOL    HW121080   3.992   4.273   2.766 -0.1172 -0.5063 -0.2339
 3149SOL    HW221081   3.945   4.241   2.902  1.1448 -1.6414 -0.2889
 3150SOL     OW21082   4.552   2.095   5.105 -0.2271 -0.3383  0.2651
 3150SOL    HW121083   4.539   2.145   5.185  1.7687 -0.2322  0.5295
 3150SOL    HW221084   4.626   2.038   5.127  1.5218  1.8098 -0.0597
 3151SOL     OW21085   0.493   1.263  17.144  0.4555  0.3566 -0.0602
 3151SOL    HW121086   0.460   1.231  17.060  0.0200 -1.7932  0.9332
 3151SOL    HW221087   0.458   1.352  17.140 -1.6970 -0.5380 -1.0165
 3152SOL     OW21088   4.338   0.646   1.499 -0.2593  0.3886 -0.3925
 3152SOL    HW121089   4.423   0.602   1.492 -0.7723 -0.5029 -1.0697
 3152SOL    HW221090   4.280   0.572   1.521 -1.5413  1.0352 -1.5789
 3153SOL     OW21091   4.044   0.835   8.778  0.1556 -0.3289 -0.8962
 3153SOL    HW121092   4.039   0.740   8.767  1.4829 -0.4327 -0.6501
 3153SOL    HW221093   4.028   0.845   8.872  0.6041  0.0703 -0.8612
 3154SOL     OW21094   3.097   0.036  15.300 -0.0871  0.1810 -0.1564
 3154SOL    HW121095   3.078   0.129  15.288  0.6441  0.3356 -0.1166
 3154SOL    HW221096   3.181   0.036  15.346  0.0013  0.0887 -0.3204
 3155SOL     OW21097   4.559   0.301   6.363 -0.4260  0.9515 -0.0845
 3155SOL    HW121098   4.516   0.327   6.445 -2.4907  1.3424 -1.2753
 3155SOL    HW221099   4.651   0.318   6.382 -0.4209 -0.2071  0.9165
 3156SOL     OW21100   3.312   2.760   6.508  0.3083  0.1003  0.4331
 3156SOL    HW121101   3.236   2.813   6.533 -0.8026 -1.1618 -0.2357
 3156SOL    HW221102   3.350   2.723   6.588  1.6189  0.3355 -0.0881
 3157SOL     OW21103   1.351   0.602  10.941 -0.2910 -0.5529  0.6225
 3157SOL    HW121104   1.272   0.548  10.950 -1.1648  1.0915  3.0407
 3157SOL    HW221105   1.393   0.566  10.863 -0.7074 -0.9096  0.5597
 3158SOL     OW21106   3.886   2.842   4.423  0.1509 -0.7150 -0.6292
 3158SOL    HW121107   3.818   2.835   4.356 -0.7912 -0.1517  0.2682
 3158SOL    HW221108   3.957   2.874   4.368  0.8838 -1.9304 -0.3994
 3159SOL     OW21109   0.466   3.574   0.418 -0.2585 -0.3651  0.2346
 3159SOL    HW121110   0.394   3.533   0.369  0.0292  0.7618 -1.1436
 3159SOL    HW221111   0.534   3.577   0.350  1.4740  2.4381  2.0590
 3160SOL     OW21112   3.823   2.200   6.366  0.3729  0.4924 -0.6845
 3160SOL    HW121113   3.775   2.157   6.296  1.2694  1.0630 -1.6441
 3160SOL    HW221114   3.764   2.271   6.392 -0.8369 -1.1845  1.1826
 3161SOL     OW21115   3.636   0.739   4.225 -0.1943 -0.1788 -0.0831
 3161SOL    HW121116   3.685   0.820   4.209 -1.8763  1.1912  1.6360
 3161SOL    HW221117   3.592   0.718   4.143  0.4294  0.3369 -0.5532
 3162SOL     OW21118   0.170   2.194   2.651  0.2482  0.2516 -0.3505
 3162SOL    HW121119   0.143   2.132   2.718  0.5589 -1.6759 -1.9889
 3162SOL    HW221120   0.213   2.150   2.577  0.3172 -1.4635  0.7164
 3163SOL     OW21121   2.488   0.593   6.380  0.4444  0.2181  0.0704
 3163SOL    HW121122   2.444   0.571   6.297 -0.0141 -1.4286  0.7487
 3163SOL    HW221123   2.538   0.513   6.396 -0.3696 -0.4135 -0.5082
 3164SOL     OW21124   4.261   3.167   3.499 -0.4662  0.0083 -0.0445
 3164SOL    HW121125   4.188   3.229   3.492  0.0978  0.7718  0.9526
 3164SOL    HW221126   4.322   3.190   3.429  1.2293 -1.9891  0.7999
 3165SOL     OW21127   1.037   2.700  10.117  0.2229 -0.4509 -0.4076
 3165SOL    HW121128   0.988   2.781  10.129  2.8430  1.3884 -2.3595
 3165SOL    HW221129   0.971   2.647  10.073 -1.4831 -0.2543  1.9195
 3166SOL     OW21130   3.199   2.415  12.597 -0.1598  0.2085 -0.3980
 3166SOL    HW121131   3.168   2.505  12.603 -0.3594  0.2021 -1.2839
 3166SOL    HW221132   3.238   2.419  12.509  2.3171  2.1195  0.7861
 3167SOL     OW21133   2.111   0.874   8.897 -0.6523  0.1932 -0.0699
 3167SOL    HW121134   2.187   0.930   8.881 -0.2765 -0.7251 -1.5436
 3167SOL    HW221135   2.141   0.786   8.873 -1.0779  0.6072 -2.1017
 3168SOL     OW21136   1.077   3.226   7.665 -0.3815 -0.5359 -0.1957
 3168SOL    HW121137   1.028   3.148   7.691  1.0847 -0.9734  1.2655
 3168SOL    HW221138   1.009   3.291   7.653  0.7582  0.5270 -0.8706
 3169SOL     OW21139   4.391   2.237   6.465  0.1645  0.3837  0.1419
 3169SOL    HW121140   4.336   2.159   6.466  0.1804  0.3428 -1.1024
 3169SOL    HW221141   4.343   2.289   6.400  0.7222  0.7001 -0.0172
 3170SOL     OW21142   2.462   3.757   8.000  0.7031  0.2615 -0.4599
 3170SOL    HW121143   2.406   3.835   7.995  0.7998  0.3661  0.1348
 3170SOL    HW221144   2.541   3.798   7.964  0.7822  1.3828  1.0142
 3171SOL     OW21145   1.822   0.830   1.749 -0.2875  0.1907 -0.1228
 3171SOL    HW121146   1.860   0.817   1.662 -0.2562  0.2327 -0.1155
 3171SOL    HW221147   1.842   0.922   1.767  0.7294  0.0674 -0.6150
 3172SOL     OW21148   4.175   0.183   8.672 -0.3715  0.1000  0.5119
 3172SOL    HW121149   4.237   0.112   8.689 -0.3228 -0.2104 -0.9369
 3172SOL    HW221150   4.136   0.200   8.757  1.4504 -0.5666  1.4821
 3173SOL     OW21151   0.717   2.891  11.311  0.0557 -0.2139 -0.2716
 3173SOL    HW121152   0.633   2.909  11.269 -0.1718  1.6256  0.9901
 3173SOL    HW221153   0.732   2.974  11.357  0.2223  0.8160 -2.2068
 3174SOL     OW21154   2.866   4.487   5.721  0.5446 -0.1967 -0.7821
 3174SOL    HW121155   2.831   4.563   5.768  0.9531 -1.4865  1.5783
 3174SOL    HW221156   2.949   4.533   5.703  1.2853 -1.2088  0.0502
 3175SOL     OW21157   4.064   4.478   1.388 -0.4076 -0.5371  0.6079
 3175SOL    HW121158   4.008   4.462   1.465  0.6297 -3.0451  0.8508
 3175SOL    HW221159   4.137   4.527   1.424 -0.0819  0.2329 -1.1104
 3176SOL     OW21160   4.207   0.765  17.384 -0.0622 -0.3367 -0.0928
 3176SOL    HW121161   4.192   0.694  17.447 -0.0371  1.9748  2.5185
 3176SOL    HW221162   4.258   0.824  17.439  0.2492 -0.5351 -0.1677
 3177SOL     OW21163   1.895   4.589   5.667  0.0846 -0.4588 -0.0471
 3177SOL    HW121164   1.882   4.526   5.738 -1.6712  0.7274  0.7100
 3177SOL    HW221165   1.809   4.628   5.647  1.2405  0.6529 -2.8192
 3178SOL     OW21166   2.851   1.195   5.791  0.2306  0.5203 -0.2622
 3178SOL    HW121167   2.763   1.158   5.786  0.2173  0.4873  0.2193
 3178SOL    HW221168   2.867   1.201   5.885 -2.1673  0.3625  0.1586
 3179SOL     OW21169   1.186   0.382   2.381 -0.0686 -0.1107  0.3584
 3179SOL    HW121170   1.257   0.323   2.403  0.0686  0.0030  0.2197
 3179SOL    HW221171   1.240   0.441   2.328  2.3342 -1.3052  1.5193
 3180SOL     OW21172   3.632   4.021  13.167  0.6432  0.0160 -0.3750
 3180SOL    HW121173   3.551   4.026  13.116  2.0094  1.3969 -2.4244
 3180SOL    HW221174   3.596   4.036  13.254 -0.4453 -0.6416 -0.7102
 3181SOL     OW21175   3.783   4.246   7.018 -0.1764 -0.0893 -0.5920
 3181SOL    HW121176   3.825   4.324   6.982 -1.7792  0.2420 -1.7651
 3181SOL    HW221177   3.855   4.183   7.026  1.0587  0.9163 -3.6541
 3182SOL     OW21178   3.071   4.273  14.943 -0.5857 -0.0210 -0.9073
 3182SOL    HW121179   3.121   4.204  14.988 -1.5524 -0.5816 -0.6979
 3182SOL    HW221180   3.134   4.310  14.882  2.2416  0.2803  2.1591
 3183SOL     OW21181   3.958   4.414   4.105  0.1338 -0.0444 -0.0378
 3183SOL    HW121182   3.958   4.433   4.198  1.5972 -0.3870  0.0361
 3183SOL    HW221183   3.892   4.344   4.098  0.5643 -0.4292 -0.2547
 3184SOL     OW21184   4.487   2.447   4.660  0.1496 -0.3311  0.3655
 3184SOL    HW121185   4.569   2.416   4.698  1.1376 -1.3199 -2.5504
 3184SOL    HW221186   4.419   2.441   4.727 -0.2183 -3.9922 -0.3413
 3185SOL     OW21187   3.628   1.868   8.839  0.2463  0.7064  0.0269
 3185SOL    HW121188   3.712   1.887   8.798  0.9638  0.7044  1.4826
 3185SOL    HW221189   3.635   1.835   8.929  2.0904 -2.1093 -1.1573
 3186SOL     OW21190   1.471   4.010   8.989  0.3669 -0.0062 -0.1269
 3186SOL    HW121191   1.446   4.091   8.945 -0.6952  1.0291  2.3588
 3186SOL    HW221192   1.387   3.982   9.028 -0.2687  0.7173 -0.9852
 3187SOL     OW21193   0.275   0.510  10.950 -1.0253 -0.3653 -0.1574
 3187SOL    HW121194   0.195   0.561  10.934  0.1540  1.4709 -0.2791
 3187SOL    HW221195   0.252   0.471  11.035  0.9981 -1.2906 -0.0504
 3188SOL     OW21196   0.702   0.433   7.238 -0.1818 -0.1775 -0.0811
 3188SOL    HW121197   0.695   0.440   7.333  0.1698 -1.5319  0.0397
 3188SOL    HW221198   0.670   0.345   7.218  2.2222 -0.5771 -2.1762
 3189SOL     OW21199   3.388   3.770   4.416 -0.0185 -0.1185  0.6228
 3189SOL    HW121200   3.427   3.835   4.474  0.2844 -0.5802  0.9319
 3189SOL    HW221201   3.430   3.692   4.453  2.6306  1.1294  0.2258
 3190SOL     OW21202   3.922   1.027   0.977 -0.5777 -0.0883 -0.2422
 3190SOL    HW121203   3.931   1.064   1.065  1.0740 -0.0253 -0.4373
 3190SOL    HW221204   3.884   0.942   0.997  0.5796 -0.2732  1.1620
 3191SOL     OW21205   2.262   2.425   5.902 -0.2598 -0.0679 -0.0929
 3191SOL    HW121206   2.353   2.436   5.876  0.0908 -3.5382 -0.2714
 3191SOL    HW221207   2.256   2.330   5.914 -0.5891  0.2723  2.6167
 3192SOL     OW21208   0.453   3.675   1.244  0.7476  0.2696 -0.8664
 3192SOL    HW121209   0.401   3.756   1.238  1.0891  0.5240 -0.3573
 3192SOL    HW221210   0.391   3.617   1.199 -1.3855  0.0668  2.2641
 3193SOL     OW21211   4.274   1.989   6.463  0.0777  0.6092 -0.0838
 3193SOL    HW121212   4.217   1.978   6.387 -0.5520  1.3092  0.2944
 3193SOL    HW221213   4.355   1.949   6.434 -0.3394  0.4194 -0.9801
 3194SOL     OW21214   2.386   3.840   4.513  0.4156 -0.1996  0.8096
 3194SOL    HW121215   2.378   3.755   4.470 -0.0758  0.0762  0.3512
 3194SOL    HW221216   2.465   3.883   4.480  0.9191 -1.1721  0.7490
 3195SOL     OW21217   4.176   1.267   1.969 -0.0852 -0.7437  0.4245
 3195SOL    HW121218   4.113   1.336   1.948 -0.2976 -1.6376 -1.7725
 3195SOL    HW221219   4.121   1.189   1.978  0.1567 -0.8432  1.0783
 3196SOL     OW21220   2.333   3.364   2.982 -0.5744  0.3124  0.5029
 3196SOL    HW121221   2.386   3.434   3.019 -1.6199  0.8513  0.9790
 3196SOL    HW221222   2.348   3.370   2.887 -0.5046 -1.0073  0.4234
 3197SOL     OW21223   2.186   2.575   9.066  0.4334  0.4802 -0.0357
 3197SOL    HW121224   2.218   2.547   9.152 -1.3360 -2.8828 -0.4758
 3197SOL    HW221225   2.126   2.646   9.091  1.0037  0.4151  1.5658
 3198SOL     OW21226   1.562   0.578  13.081  0.0849  0.2132 -0.6986
 3198SOL    HW121227   1.607   0.513  13.135  3.8354  2.0693 -1.6382
 3198SOL    HW221228   1.489   0.598  13.141  0.1545 -1.0041 -0.2126
 3199SOL     OW21229   2.116   2.658  10.005  0.1280 -0.3337  0.1296
 3199SOL    HW121230   2.198   2.704   9.986 -0.2985 -0.4708 -2.1069
 3199SOL    HW221231   2.087   2.714  10.076  1.5399 -1.5587  1.6736
 3200SOL     OW21232   3.259   0.482   8.107  0.1737 -0.1470  0.0314
 3200SOL    HW121233   3.239   0.557   8.051  0.7866 -0.3235 -0.4252
 3200SOL    HW221234   3.275   0.522   8.193  0.5604 -0.6358  0.1879
 3201SOL     OW21235   1.156   1.812   5.200  0.1398 -0.6851 -0.2302
 3201SOL    HW121236   1.235   1.763   5.179 -0.2791 -1.2602 -0.4461
 3201SOL    HW221237   1.093   1.744   5.223 -0.2248  0.7059  2.9412
 3202SOL     OW21238   4.335   3.052   2.473  0.0590 -0.0344  0.1370
 3202SOL    HW121239   4.388   3.107   2.416 -2.0480  1.4949 -0.3413
 3202SOL    HW221240   4.270   3.023   2.409 -1.0995 -1.4005  1.9117
 3203SOL     OW21241   3.225   1.801   7.541  0.0510 -0.4877  0.1082
 3203SOL    HW121242   3.300   1.750   7.573  1.2400  1.0580 -0.1682
 3203SOL    HW221243   3.212   1.766   7.453  0.8560 -3.1442  1.0765
 3204SOL     OW21244   0.650   3.983   5.672  0.0212  0.3967  0.7293
 3204SOL    HW121245   0.584   3.916   5.694  0.3666 -0.4697 -0.8307
 3204SOL    HW221246   0.733   3.950   5.706  0.3706 -1.1217 -1.5147
 3205SOL     OW21247   0.712   4.642   9.312 -0.1808 -0.7584 -0.2604
 3205SOL    HW121248   0.793   4.691   9.300  0.5824 -1.9117  0.1361
 3205SOL    HW221249   0.723   4.561   9.262 -2.0323 -1.3325  0.2730
 3206SOL     OW21250   0.544   3.245   4.094 -0.3181  0.1539 -0.0619
 3206SOL    HW121251   0.528   3.156   4.124  0.3334  0.0769  0.0479
 3206SOL    HW221252   0.457   3.283   4.110 -0.4962  0.5838 -2.0187
 3207SOL     OW21253   2.681   3.802   7.145 -0.6387 -0.0882  0.1905
 3207SOL    HW121254   2.619   3.790   7.217  0.3582 -0.8927  0.9042
 3207SOL    HW221255   2.621   3.837   7.079  0.3475  1.0032 -0.1282
 3208SOL     OW21256   0.020   0.034  14.557  0.5408  0.3896 -0.5471
 3208SOL    HW121257   0.078   4.698  14.539  1.9791  1.2634  0.5019
 3208SOL    HW221258   0.003   0.009  14.647 -2.1015  0.6004 -0.9955
 3209SOL     OW21259   2.669   3.107  12.244 -0.1066 -0.5462  0.2084
 3209SOL    HW121260   2.737   3.118  12.178  1.0214 -0.1667  1.4167
 3209SOL    HW221261   2.669   3.190  12.292  2.7756  0.4304 -1.4526
 3210SOL     OW21262   4.011   3.081   9.004  0.0283  0.7066 -0.4524
 3210SOL    HW121263   4.072   3.039   8.944  1.8042 -0.5262  2.2093
 3210SOL    HW221264   3.928   3.062   8.960  1.5857 -2.3193 -2.0716
 3211SOL     OW21265   3.162   2.852   7.865  0.2653  0.5305 -0.1480
 3211SOL    HW121266   3.174   2.801   7.786 -0.1057  0.6185 -0.2610
 3211SOL    HW221267   3.238   2.910   7.863  0.4228  0.1551 -3.8004
 3212SOL     OW21268   1.734   0.253   7.491 -0.4182  0.1816  0.4580
 3212SOL    HW121269   1.731   0.158   7.486  1.0250  0.2007 -0.7867
 3212SOL    HW221270   1.682   0.272   7.413  0.4015 -0.9987 -0.3636
 3213SOL     OW21271   1.649   3.342   8.733  0.0855 -0.3188  0.1796
 3213SOL    HW121272   1.703   3.294   8.796 -3.3594 -1.1231  2.5033
 3213SOL    HW221273   1.563   3.329   8.772  0.0434  0.1431  0.2323
 3214SOL     OW21274   3.164   3.018   6.121  0.0324  0.4428 -0.0624
 3214SOL    HW121275   3.130   2.948   6.066 -1.5125  0.7337  0.5094
 3214SOL    HW221276   3.241   3.033   6.066 -0.5224 -0.8807 -1.2055
 3215SOL     OW21277   0.813   0.567   7.863 -0.4214  0.0234 -0.0435
 3215SOL    HW121278   0.888   0.584   7.806  0.4119 -1.2167  0.6862
 3215SOL    HW221279   0.849   0.602   7.944 -2.5483 -1.6529  1.6361
 3216SOL     OW21280   0.284   2.278  13.752  0.0802  0.2051  0.2160
 3216SOL    HW121281   0.292   2.272  13.847 -1.5992  0.3473  0.3596
 3216SOL    HW221282   0.377   2.291  13.730 -0.0582 -2.4070 -1.9984
 3217SOL     OW21283   1.607   0.888  13.258 -0.1221  0.0464  0.4560
 3217SOL    HW121284   1.512   0.887  13.263 -0.0753  0.7229  1.5453
 3217SOL    HW221285   1.629   0.903  13.166  0.4572  3.0771  1.0869
 3218SOL     OW21286   0.082   3.363   3.460 -0.3202 -0.0363 -0.0894
 3218SOL    HW121287   0.164   3.321   3.485 -1.1489 -1.6028 -0.0570
 3218SOL    HW221288   0.114   3.453   3.452 -0.4829  0.1030  0.8510
 3219SOL     OW21289   0.948   0.374   9.939 -0.2396  0.0943  1.1589
 3219SOL    HW121290   1.035   0.401   9.910 -1.0655  1.2737 -0.2282
 3219SOL    HW221291   0.899   0.359   9.858  0.7949 -0.7564  0.6932
 3220SOL     OW21292   3.491   1.955  12.218  1.0340  0.2938  0.4428
 3220SOL    HW121293   3.571   1.920  12.256  0.0034 -1.1765  1.2465
 3220SOL    HW221294   3.515   1.972  12.126 -1.1224 -0.1847 -0.2202
 3221SOL     OW21295   3.043   2.418   7.183  0.4970  0.1140 -0.1268
 3221SOL    HW121296   3.031   2.361   7.107  1.6263 -1.5481  0.9331
 3221SOL    HW221297   3.017   2.503   7.150  2.0725  0.5409 -0.2970
 3222SOL     OW21298   3.859   4.617   6.280  1.2431 -0.0282  0.0677
 3222SOL    HW121299   3.775   4.610   6.325 -0.0769  2.7524 -2.0274
 3222SOL    HW221300   3.913   4.621   6.359 -1.0804  2.5113  1.5205
 3223SOL     OW21301   2.845   0.388   1.901 -0.6628  0.4780 -0.0924
 3223SOL    HW121302   2.783   0.408   1.830 -0.8532  0.4165  0.0583
 3223SOL    HW221303   2.927   0.387   1.852  1.1166 -1.0951  2.9742
 3224SOL     OW21304   1.077   1.721   2.743 -0.5496 -0.3645  0.2296
 3224SOL    HW121305   1.161   1.693   2.780 -1.0733  1.6342  2.9493
 3224SOL    HW221306   1.103   1.741   2.653  0.1817 -1.2065  0.2549
 3225SOL     OW21307   2.865   4.219   8.767 -0.3371  0.0632  0.1866
 3225SOL    HW121308   2.830   4.296   8.811  0.4074 -0.2659  1.3747
 3225SOL    HW221309   2.790   4.181   8.721 -0.6883 -0.9221  1.5862
 3226SOL     OW21310   0.039   3.760   9.265 -0.0505 -0.1740  0.1408
 3226SOL    HW121311   4.693   3.714   9.261 -1.2042  1.7348  2.3035
 3226SOL    HW221312   0.017   3.843   9.308 -0.1615  2.0678 -4.2749
 3227SOL     OW21313   2.795   2.041  12.310  0.3122 -0.4369 -0.5910
 3227SOL    HW121314   2.736   2.105  12.351  1.8798 -0.1024  1.1283
 3227SOL    HW221315   2.746   2.004  12.237  1.5050 -1.5746 -0.8028
 3228SOL     OW21316   0.856   4.327   3.163  0.1518  0.3281 -0.1299
 3228SOL    HW121317   0.871   4.310   3.256 -0.4080 -2.3301 -0.5386
 3228SOL    HW221318   0.778   4.273   3.156  0.4463 -0.4863  3.0219
 3229SOL     OW21319   2.339   2.205  13.251 -0.0611 -0.1248  0.0030
 3229SOL    HW121320   2.413   2.151  13.220 -0.3714  1.3829 -3.3266
 3229SOL    HW221321   2.278   2.138  13.284 -1.1035  1.0174  0.3763
 3230SOL     OW21322   3.363   4.722   9.953  0.1314  0.1003  0.4276
 3230SOL    HW121323   3.439   0.042   9.949  0.9224 -1.0691 -1.6008
 3230SOL    HW221324   3.383   4.658  10.021  2.1723  1.2825  0.9590
 3231SOL     OW21325   3.844   2.080   9.019 -0.0441  0.6430  0.0919
 3231SOL    HW121326   3.879   2.061   9.106  0.6174 -0.7040 -0.4735
 3231SOL    HW221327   3.755   2.111   9.038  0.7749 -0.1217  5.0338
 3232SOL     OW21328   1.575   1.173   8.419  0.0860 -0.2211  0.2295
 3232SOL    HW121329   1.592   1.265   8.400  0.0732 -0.8956 -3.1405
 3232SOL    HW221330   1.652   1.136   8.462 -0.0116  0.7263  1.2162
 3233SOL     OW21331   1.339   2.683  13.481 -0.0183  0.1573  0.3924
 3233SOL    HW121332   1.285   2.750  13.439 -2.1742 -1.7512  0.1427
 3233SOL    HW221333   1.358   2.712  13.570 -1.5134  2.3813 -0.0366
 3234SOL     OW21334   1.037   3.958   3.968 -0.2220 -0.2481  0.3731
 3234SOL    HW121335   0.990   4.000   4.040  0.7935  1.3431  0.1150
 3234SOL    HW221336   1.126   3.951   4.003  0.3774  0.7182 -0.9596
 3235SOL     OW21337   2.176   1.106   3.267 -0.7569  0.3211  0.4162
 3235SOL    HW121338   2.252   1.164   3.259 -0.5880 -0.3597 -2.7967
 3235SOL    HW221339   2.106   1.148   3.217  0.5315  1.2254 -0.6568
 3236SOL     OW21340   3.708   1.071   8.034  0.2862  0.0468 -0.1352
 3236SOL    HW121341   3.713   1.164   8.012  0.1376 -0.0826 -0.7175
 3236SOL    HW221342   3.713   1.073   8.130 -1.2172 -0.5220 -0.0449
 3237SOL     OW21343   0.498   1.728   7.576 -0.0754 -0.0185 -0.0398
 3237SOL    HW121344   0.421   1.779   7.553 -0.9206 -1.8765 -1.3016
 3237SOL    HW221345   0.461   1.668   7.642  1.6047 -0.0453  0.8700
 3238SOL     OW21346   2.289   4.574   2.745 -0.5732 -0.8045 -0.4121
 3238SOL    HW121347   2.311   4.486   2.777  0.4796 -0.8073 -1.1401
 3238SOL    HW221348   2.323   4.631   2.814  1.6628 -2.4788 -0.0976
 3239SOL     OW21349   1.248   0.823   3.067  0.0766  0.3067  0.1862
 3239SOL    HW121350   1.294   0.876   3.003  0.5214  1.1631  1.2070
 3239SOL    HW221351   1.219   0.878   3.140  0.9251 -0.8998  1.4453
 3240SOL     OW21352   2.011   4.647  16.694 -0.4435 -0.1307  0.5017
 3240SOL    HW121353   2.032   4.554  16.685  2.7143  0.4200  2.3488
 3240SOL    HW221354   1.936   4.654  16.635  1.3381 -0.4951 -1.8217
 3241SOL     OW21355   3.574   0.094   6.673 -0.2018  0.1397  0.2407
 3241SOL    HW121356   3.633   0.170   6.673 -0.9800  0.7495  0.5944
 3241SOL    HW221357   3.504   0.136   6.723 -1.3222 -2.0169  0.4635
 3242SOL     OW21358   0.851   2.206   9.852 -0.0176  0.2035 -0.0241
 3242SOL    HW121359   0.911   2.190   9.925 -0.8536  0.4057  0.7022
 3242SOL    HW221360   0.867   2.300   9.845 -1.6944  0.4977  0.0270
 3243SOL     OW21361   1.346   0.231  10.644 -0.1038 -0.9020 -0.0123
 3243SOL    HW121362   1.324   0.281  10.723 -2.5080  1.3981 -2.1003
 3243SOL    HW221363   1.371   0.152  10.691 -0.5927 -0.2758  1.3250
 3244SOL     OW21364   3.582   0.118  10.992 -0.5046 -0.1355  0.5789
 3244SOL    HW121365   3.654   0.132  11.054  0.7430  0.5289 -0.9847
 3244SOL    HW221366   3.508   0.109  11.051  0.1949  0.0040  1.4874
 3245SOL     OW21367   2.592   1.777  17.433  0.9243  0.5218  0.5068
 3245SOL    HW121368   2.677   1.821  17.434  0.4141  1.5191 -0.5931
 3245SOL    HW221369   2.537   1.840  17.386 -0.6809 -1.4424 -0.2522
 3246SOL     OW21370   2.676   4.066   4.805 -0.1109 -0.2623  0.4711
 3246SOL    HW121371   2.617   3.992   4.819  0.6590 -0.4457  2.8518
 3246SOL    HW221372   2.615   4.132   4.772  1.4007  2.3288  2.8540
 3247SOL     OW21373   2.347   3.496   8.787  0.0972 -0.2199  0.1230
 3247SOL    HW121374   2.284   3.513   8.856 -1.9304 -0.7141 -1.5804
 3247SOL    HW221375   2.366   3.402   8.790 -1.4449 -0.5554 -0.1762
 3248SOL     OW21376   3.781   0.946   4.175  0.7031  0.3946 -0.3513
 3248SOL    HW121377   3.744   0.996   4.103  3.2358  0.3527 -1.6690
 3248SOL    HW221378   3.833   1.014   4.217  0.1216  0.1445  0.7861
 3249SOL     OW21379   2.489   3.760   6.626  0.3761 -0.1750  0.0111
 3249SOL    HW121380   2.462   3.725   6.541 -1.2606 -1.3394  1.0081
 3249SOL    HW221381   2.559   3.695   6.640  1.0247  0.8346  1.4370
 3250SOL     OW21382   3.058   2.191  13.942 -0.5097  0.2362 -0.8260
 3250SOL    HW121383   3.011   2.156  13.866 -3.7212  2.5683  0.0815
 3250SOL    HW221384   3.120   2.122  13.967  0.4789 -0.0763 -4.0981
 3251SOL     OW21385   4.541   2.414   7.008 -0.4050  0.2131 -0.5318
 3251SOL    HW121386   4.579   2.468   6.939 -0.8455 -0.3411 -1.1995
 3251SOL    HW221387   4.594   2.435   7.086  0.3750 -0.2838 -0.9270
 3252SOL     OW21388   2.793   1.904   1.942  0.4009 -0.3710  0.2298
 3252SOL    HW121389   2.793   1.967   2.015  0.0594 -1.7624  1.4312
 3252SOL    HW221390   2.872   1.933   1.897 -0.6640 -1.1986 -2.1538
 3253SOL     OW21391   2.184   2.154   2.840  0.2640  0.2251 -0.4909
 3253SOL    HW121392   2.195   2.070   2.794  0.5590  1.0466 -1.9260
 3253SOL    HW221393   2.258   2.154   2.900 -0.4001 -2.6587  0.3551
 3254SOL     OW21394   1.572   2.180   9.095  0.0361  0.8480  0.5342
 3254SOL    HW121395   1.603   2.123   9.165  1.0462  1.0908  0.2822
 3254SOL    HW221396   1.477   2.185   9.104 -0.1146  2.6732 -2.1466
 3255SOL     OW21397   1.097   3.158  15.697  0.1130  0.1401 -0.5954
 3255SOL    HW121398   1.175   3.178  15.646  0.4612  0.9256  0.2318
 3255SOL    HW221399   1.029   3.132  15.635 -0.8066  1.4328 -0.1449
 3256SOL     OW21400   4.289   2.132   5.695  0.0915  0.1015 -0.0298
 3256SOL    HW121401   4.314   2.070   5.764  0.0349  0.6106  0.4394
 3256SOL    HW221402   4.374   2.142   5.653  0.0094  0.6984 -0.0556
 3257SOL     OW21403   4.490   4.569   2.257 -0.1210 -0.4075  0.4940
 3257SOL    HW121404   4.512   4.661   2.267 -1.2059  0.2267 -2.8889
 3257SOL    HW221405   4.572   4.520   2.264 -0.1118 -0.3915  0.4959
 3258SOL     OW21406   3.301   0.719   7.436 -0.1681 -0.3560 -0.1507
 3258SOL    HW121407   3.390   0.732   7.469 -0.1549 -0.5809 -0.0967
 3258SOL    HW221408   3.304   0.763   7.351 -1.1617 -1.0186 -0.5139
 3259SOL     OW21409   1.636   2.338   7.851  0.4339  0.0089  0.4280
 3259SOL    HW121410   1.671   2.316   7.764 -0.4042 -1.4878  0.4697
 3259SOL    HW221411   1.564   2.398   7.829  0.7329  0.6979  1.3800
 3260SOL     OW21412   1.669   1.777   9.915 -0.0887  0.4817 -0.4621
 3260SOL    HW121413   1.738   1.807   9.856 -1.8224  3.2012 -1.1188
 3260SOL    HW221414   1.714   1.715   9.972 -0.8864  0.2485 -0.0794
 3261SOL     OW21415   3.579   2.716  16.865  0.1908  0.3265  0.2533
 3261SOL    HW121416   3.573   2.748  16.955 -0.6796  1.1021 -0.0807
 3261SOL    HW221417   3.487   2.702  16.844  1.0639 -3.3411 -1.0548
 3262SOL     OW21418   3.476   1.019   5.636 -0.4589 -0.6848  0.2103
 3262SOL    HW121419   3.431   1.097   5.603  0.8878  0.1803  0.4355
 3262SOL    HW221420   3.511   0.983   5.555  0.5441 -1.8419  1.1567
 3263SOL     OW21421   4.239   4.460  10.824  0.1222 -0.1958 -0.0902
 3263SOL    HW121422   4.145   4.457  10.807  0.0024 -0.1111  0.5556
 3263SOL    HW221423   4.264   4.371  10.847 -0.6432 -0.9085 -2.0090
 3264SOL     OW21424   2.509   1.240  12.900  0.2662  0.0732 -0.0423
 3264SOL    HW121425   2.581   1.218  12.841  0.3038 -2.1325  0.8201
 3264SOL    HW221426   2.511   1.336  12.908  0.0105  0.0248  0.6816
 3265SOL     OW21427   4.083   3.461   5.344 -0.5015 -0.3762 -0.5767
 3265SOL    HW121428   4.016   3.435   5.407 -2.2069  0.7567 -1.9076
 3265SOL    HW221429   4.148   3.391   5.354 -1.3144 -0.4696  3.8605
 3266SOL     OW21430   3.158   1.648  14.692 -0.2727  0.6340  0.1340
 3266SOL    HW121431   3.229   1.712  14.688  0.4274 -0.2125 -1.0111
 3266SOL    HW221432   3.130   1.650  14.600  0.6532  0.4230 -0.1501
 3267SOL     OW21433   0.790   1.425   0.641 -0.1185 -0.2352  0.4713
 3267SOL    HW121434   0.747   1.501   0.604  1.0633 -0.0328 -0.4842
 3267SOL    HW221435   0.871   1.459   0.679  0.8475 -2.0793  0.0715
 3268SOL     OW21436   0.172   3.695   8.243  0.0775  0.2805  0.0186
 3268SOL    HW121437   0.141   3.611   8.278 -0.2045  0.7887  0.9887
 3268SOL    HW221438   0.181   3.658   8.155  0.3412 -1.0709  0.6082
 3269SOL     OW21439   1.812   4.411   5.829  0.0030 -0.3450 -0.1175
 3269SOL    HW121440   1.724   4.373   5.829  0.1864 -0.7832 -1.1770
 3269SOL    HW221441   1.828   4.413   5.923 -0.4955 -0.4561 -0.0292
 3270SOL     OW21442   0.390   1.406   5.752 -0.9667  0.0094 -0.4355
 3270SOL    HW121443   0.318   1.451   5.795 -2.6765 -0.4198 -2.8124
 3270SOL    HW221444   0.463   1.431   5.808 -0.0676 -2.8524 -0.3281
 3271SOL     OW21445   4.065   0.400   8.170  1.0001 -0.6689  0.0294
 3271SOL    HW121446   3.982   0.412   8.124  0.5487  0.2904  1.0860
 3271SOL    HW221447   4.039   0.417   8.260 -0.4137 -0.8554 -0.3515
 3272SOL     OW21448   2.900   1.138   7.283  0.2376 -0.7247  0.6666
 3272SOL    HW121449   2.884   1.044   7.290  0.6602 -0.8282  0.2018
 3272SOL    HW221450   2.813   1.171   7.259 -0.8244 -2.1781  2.5693
 3273SOL     OW21451   1.203   2.087   5.634  0.4549  0.4423  0.0447
 3273SOL    HW121452   1.117   2.083   5.593  0.1152  1.6731  0.6129
 3273SOL    HW221453   1.167   2.101   5.722 -0.1408 -4.0608  0.4783
 3274SOL     OW21454   4.083   0.283   1.028  0.0667  0.2965 -0.1804
 3274SOL    HW121455   4.014   0.264   1.092 -0.8215  0.4542 -1.1019
 3274SOL    HW221456   4.158   0.281   1.089 -0.0885 -0.1423  0.0008
 3275SOL     OW21457   3.563   0.214   2.231 -0.2084 -0.9017  0.0443
 3275SOL    HW121458   3.650   0.230   2.196 -0.1472  1.2576  1.1745
 3275SOL    HW221459   3.519   0.294   2.202  1.3425 -0.3150 -0.6837
 3276SOL     OW21460   3.193   3.489   3.429 -1.6675  0.2246  0.5386
 3276SOL    HW121461   3.259   3.489   3.499 -0.6239 -0.3098 -0.4438
 3276SOL    HW221462   3.125   3.438   3.473 -1.5188 -1.7561 -1.5543
 3277SOL     OW21463   3.490   2.091  17.748 -0.4197  0.2209 -0.0769
 3277SOL    HW121464   3.446   2.038   0.064  0.7555 -0.9839 -0.2564
 3277SOL    HW221465   3.426   2.162   0.003 -0.1938  0.4703 -0.6441
 3278SOL     OW21466   3.205   0.293   1.509  0.1987 -0.1940 -0.1366
 3278SOL    HW121467   3.299   0.281   1.500  0.1249 -0.8630 -0.0030
 3278SOL    HW221468   3.189   0.341   1.427 -0.7987  0.3194  0.3558
 3279SOL     OW21469   0.869   3.366  14.134  0.1969  0.2764  0.1390
 3279SOL    HW121470   0.871   3.300  14.064 -0.4930  1.7938 -1.3265
 3279SOL    HW221471   0.952   3.412  14.125  0.6428 -0.8484 -1.5479
 3280SOL     OW21472   0.489   2.653   5.245 -0.0214 -0.3462 -0.3703
 3280SOL    HW121473   0.488   2.717   5.316  1.5894 -0.7666  0.0270
 3280SOL    HW221474   0.565   2.599   5.267  0.7380  0.6372 -0.5867
 3281SOL     OW21475   0.036   0.242   3.145  0.0214 -0.1266 -0.1245
 3281SOL    HW121476   0.051   0.149   3.129 -1.0333 -0.4870  0.9135
 3281SOL    HW221477   0.121   0.286   3.147 -0.2833  0.4637  0.2746
 3282SOL     OW21478   0.213   1.709   2.418 -0.6067 -0.0924 -0.4782
 3282SOL    HW121479   0.128   1.665   2.419 -1.2719  1.2454  1.2494
 3282SOL    HW221480   0.272   1.657   2.473 -0.9091  1.9121  1.7568
 3283SOL     OW21481   3.925   2.690   8.105 -0.4187  0.3604 -0.5927
 3283SOL    HW121482   3.842   2.673   8.149 -0.8573 -0.3234 -1.6621
 3283SOL    HW221483   3.920   2.785   8.101  1.2227  0.4392 -0.6155
 3284SOL     OW21484   0.414   2.581   3.390 -0.3070  0.6042  0.3790
 3284SOL    HW121485   0.327   2.616   3.373  0.0242  1.6827  0.9071
 3284SOL    HW221486   0.398   2.516   3.459  0.6168 -0.2397 -0.2048
 3285SOL     OW21487   3.297   3.129  17.469  0.4957 -0.6726  0.2991
 3285SOL    HW121488   3.203   3.113  17.473 -0.3139  3.9647 -0.4335
 3285SOL    HW221489   3.330   3.159  17.553  1.2663  0.0440 -0.2558
 3286SOL     OW21490   3.119   3.507   3.777 -0.0742 -0.2563 -0.3148
 3286SOL    HW121491   3.182   3.564   3.821 -0.5465  1.1046 -1.3997
 3286SOL    HW221492   3.090   3.562   3.704  2.0928 -0.1458 -1.0836
 3287SOL     OW21493   1.737   2.075   8.784  0.1923  0.3963  0.1166
 3287SOL    HW121494   1.757   2.108   8.871 -0.5128  0.1137  0.3832
 3287SOL    HW221495   1.652   2.117   8.773  0.7913  1.6653  0.3323
 3288SOL     OW21496   0.036   2.774   8.134  0.0840 -0.2707  0.0406
 3288SOL    HW121497   4.734   2.821   8.207  0.3744  1.0155 -0.6313
 3288SOL    HW221498   4.699   2.757   8.077  0.1819  1.6158 -0.6576
 3289SOL     OW21499   0.249   3.071   0.409 -0.8253 -0.2007  0.7652
 3289SOL    HW121500   0.166   3.054   0.454  0.4984 -1.7153  2.6047
 3289SOL    HW221501   0.211   3.089   0.323  1.0305  1.7675  0.3480
 3290SOL     OW21502   0.325   0.388   1.882 -0.1268 -0.0853 -0.1762
 3290SOL    HW121503   0.307   0.482   1.878 -0.8882 -0.2079  0.2442
 3290SOL    HW221504   0.353   0.377   1.973  0.2718 -1.2215 -0.4308
 3291SOL     OW21505   4.341   4.029   7.085  0.0687 -0.4886  0.0755
 3291SOL    HW121506   4.383   3.991   7.163  0.2335  0.8614  0.6402
 3291SOL    HW221507   4.385   3.998   7.006 -0.2131 -1.2880  0.2266
 3292SOL     OW21508   0.453   0.554  11.965  0.4905 -0.2334 -0.0420
 3292SOL    HW121509   0.443   0.648  11.950  1.0289  0.4399  3.7777
 3292SOL    HW221510   0.384   0.517  11.910  1.3079 -2.3364  0.3304
 3293SOL     OW21511   2.973   2.105   4.806 -0.2654 -0.0246 -0.5888
 3293SOL    HW121512   3.026   2.083   4.883 -0.3291  1.2130 -0.1738
 3293SOL    HW221513   3.023   2.179   4.770 -1.6374  0.7010 -1.0216
 3294SOL     OW21514   2.277   2.377   3.244  0.2564 -0.3203  0.0101
 3294SOL    HW121515   2.311   2.288   3.256 -1.9354 -1.0853  0.5248
 3294SOL    HW221516   2.333   2.412   3.174  2.3179  2.6855  3.1416
 3295SOL     OW21517   1.250   3.219   5.178 -0.2493  0.1813  0.1091
 3295SOL    HW121518   1.196   3.206   5.100 -1.3104  1.4056  0.6458
 3295SOL    HW221519   1.184   3.237   5.244  0.0440 -0.2012  0.5064
 3296SOL     OW21520   0.175   4.559  14.503 -0.2328 -0.0697 -0.4911
 3296SOL    HW121521   0.240   4.531  14.567  2.8506  1.6394 -2.8555
 3296SOL    HW221522   0.190   4.490  14.439 -2.1223 -0.7496 -0.1877
 3297SOL     OW21523   3.294   3.356   7.209 -0.1026 -0.1555 -0.1382
 3297SOL    HW121524   3.332   3.270   7.193  1.0450  0.6073 -1.5137
 3297SOL    HW221525   3.292   3.386   7.118 -3.5854 -0.5133 -0.1756
 3298SOL     OW21526   1.511   2.100   6.403 -0.1820  0.0097 -0.2410
 3298SOL    HW121527   1.510   2.023   6.346 -2.2693 -0.8978  1.0175
 3298SOL    HW221528   1.559   2.059   6.476 -2.3346 -0.5728  0.8312
 3299SOL     OW21529   0.418   3.528   2.010 -0.0251 -0.2575 -0.0201
 3299SOL    HW121530   0.485   3.578   1.962 -0.0825 -0.6203 -0.4841
 3299SOL    HW221531   0.376   3.594   2.064 -0.1178 -0.1452 -0.2288
 3300SOL     OW21532   0.441   1.402   6.414 -0.2168  0.3272  0.1250
 3300SOL    HW121533   0.466   1.315   6.445 -0.0341  0.1253 -0.5759
 3300SOL    HW221534   0.461   1.391   6.321  3.0388 -1.2962  1.0127
 3301SOL     OW21535   4.169   0.683   7.178  0.3726  0.5960 -0.2475
 3301SOL    HW121536   4.241   0.628   7.209  0.7803  1.3638  0.1560
 3301SOL    HW221537   4.186   0.766   7.222 -1.7472  0.2498  1.2342
 3302SOL     OW21538   1.683   1.199  11.204  0.3857  0.4645  0.0779
 3302SOL    HW121539   1.591   1.193  11.178  0.6970  1.4564 -1.2283
 3302SOL    HW221540   1.721   1.123  11.159 -0.4619 -0.4711  0.9103
 3303SOL     OW21541   3.661   1.973   1.970 -0.0980  0.5992 -0.2154
 3303SOL    HW121542   3.703   2.023   1.900  1.9516  0.0542  0.6131
 3303SOL    HW221543   3.586   2.024   1.999 -0.6809 -0.1794 -0.3355
 3304SOL     OW21544   0.191   3.573   9.937  0.0151  0.4878  0.1332
 3304SOL    HW121545   0.185   3.488   9.893 -0.0884 -0.4385  1.9472
 3304SOL    HW221546   0.284   3.584   9.918 -0.2846 -0.5697 -2.0241
 3305SOL     OW21547   2.479   4.550   4.944 -0.1759 -0.9077 -0.3292
 3305SOL    HW121548   2.402   4.538   4.888  0.1898 -0.8128 -0.8535
 3305SOL    HW221549   2.515   4.628   4.903 -1.8572 -0.7550 -1.5287
 3306SOL     OW21550   0.154   1.854   7.798 -0.4050 -0.3771  0.5886
 3306SOL    HW121551   0.083   1.917   7.803  0.3471  0.5825 -0.9245
 3306SOL    HW221552   0.127   1.790   7.864 -0.6301 -1.2978 -0.3938
 3307SOL     OW21553   2.107   1.777   6.564 -0.0591 -0.0618 -0.2018
 3307SOL    HW121554   2.201   1.761   6.577  0.0509 -0.3828 -1.3758
 3307SOL    HW221555   2.070   1.747   6.646  0.5601 -1.3007 -0.3810
 3308SOL     OW21556   1.608   3.724   6.386  0.3672 -0.1545 -0.4230
 3308SOL    HW121557   1.606   3.789   6.315  0.6254  0.1235 -0.1777
 3308SOL    HW221558   1.650   3.648   6.347 -0.6830  0.8487 -3.5098
 3309SOL     OW21559   4.143   0.989   6.601  0.0539 -0.2914  0.4565
 3309SOL    HW121560   4.190   0.939   6.535  0.6046  1.1421 -0.2384
 3309SOL    HW221561   4.189   0.969   6.683  0.7361 -1.2467 -0.1650
 3310SOL     OW21562   1.662   0.147   1.838  0.3695 -0.2937  0.3029
 3310SOL    HW121563   1.653   0.086   1.911 -1.3515 -3.2023 -2.3144
 3310SOL    HW221564   1.581   0.121   1.794  0.9540 -0.8023 -0.4868
 3311SOL     OW21565   3.447   2.219  10.889 -0.3095 -0.1547 -0.6307
 3311SOL    HW121566   3.462   2.293  10.948 -0.2725  1.6983 -2.9797
 3311SOL    HW221567   3.493   2.258  10.815 -1.7311  2.5363 -0.0970
 3312SOL     OW21568   4.124   0.140   2.489  0.2004  0.0250  0.0955
 3312SOL    HW121569   4.110   0.137   2.584 -2.0753  1.2819 -0.2009
 3312SOL    HW221570   4.080   0.062   2.455 -1.8205  0.9764  0.5617
 3313SOL     OW21571   2.133   2.491   0.543  0.6797  0.2183  1.0569
 3313SOL    HW121572   2.041   2.511   0.562  0.2261  0.6162 -1.5228
 3313SOL    HW221573   2.149   2.408   0.588  0.1257 -1.9592 -2.7178
 3314SOL     OW21574   4.637   3.531   0.984  0.1644 -0.2156 -0.5207
 3314SOL    HW121575   4.691   3.609   0.970 -1.3365  0.4478 -2.5834
 3314SOL    HW221576   4.550   3.565   0.963 -1.5059 -2.8902  2.1703
 3315SOL     OW21577   0.644   4.516   3.148 -0.1969  0.2372 -0.5273
 3315SOL    HW121578   0.708   4.446   3.154  1.0520  1.4227  0.0660
 3315SOL    HW221579   0.558   4.477   3.162 -1.1990  3.1136  1.3172
 3316SOL     OW21580   3.820   1.580   8.014  0.0767 -0.5437 -0.3478
 3316SOL    HW121581   3.891   1.641   7.997 -0.8119  0.1716 -1.5435
 3316SOL    HW221582   3.855   1.501   8.053  2.0091  0.1910 -0.6271
 3317SOL     OW21583   4.702   3.326   2.126 -0.0764  0.3820 -0.0424
 3317SOL    HW121584   0.044   3.300   2.170 -0.4403 -1.2325 -0.3601
 3317SOL    HW221585   4.730   3.415   2.101 -2.1271  0.3537 -2.4864
 3318SOL     OW21586   4.263   1.629   6.382  0.1083  0.0854  0.1132
 3318SOL    HW121587   4.338   1.688   6.385  1.1790 -1.2627 -0.2768
 3318SOL    HW221588   4.209   1.667   6.313  1.1750  0.8897 -0.2852
 3319SOL     OW21589   4.673   2.383  13.583 -0.5113  0.0481  0.5315
 3319SOL    HW121590   4.584   2.407  13.558  0.2607 -0.1290 -2.3337
 3319SOL    HW221591   4.731   2.445  13.540  0.8363 -2.0692 -0.6945
 3320SOL     OW21592   0.154   2.769  15.611 -0.2224  0.3936 -0.1362
 3320SOL    HW121593   0.085   2.705  15.594 -1.2309  2.2229 -2.8618
 3320SOL    HW221594   0.119   2.845  15.566 -1.8318 -0.1583  0.1743
 3321SOL     OW21595   0.778   1.708  13.263 -0.2429  0.1085  0.0433
 3321SOL    HW121596   0.706   1.719  13.325 -1.1016 -1.4308 -0.6813
 3321SOL    HW221597   0.739   1.643  13.204 -0.1866  0.3862 -0.3028
 3322SOL     OW21598   0.292   0.056   2.442 -0.2909  0.2592  0.0314
 3322SOL    HW121599   0.200   0.042   2.465 -0.1878 -0.7353 -0.1667
 3322SOL    HW221600   0.287   0.125   2.376  1.3761 -1.1481 -1.5671
 3323SOL     OW21601   1.066   1.267   8.460 -0.2292  0.1837  0.0549
 3323SOL    HW121602   1.152   1.227   8.446  0.1431  1.1226 -0.3055
 3323SOL    HW221603   1.073   1.337   8.395 -1.7148  0.8298  0.6039
 3324SOL     OW21604   3.583   1.390   4.888 -0.0731 -0.2965 -0.3655
 3324SOL    HW121605   3.612   1.337   4.814  0.1906  0.5820 -0.8890
 3324SOL    HW221606   3.609   1.476   4.854 -0.6905 -0.4688 -1.2614
 3325SOL     OW21607   2.119   0.201  13.431  0.0375  0.0247 -0.5819
 3325SOL    HW121608   2.210   0.198  13.461  0.6298  0.3726 -2.3108
 3325SOL    HW221609   2.107   0.294  13.411  0.1060  1.1107  4.4577
 3326SOL     OW21610   2.805   1.262   2.277 -0.1302 -0.7987  0.5983
 3326SOL    HW121611   2.822   1.271   2.183 -0.8284 -1.1906  0.4296
 3326SOL    HW221612   2.810   1.355   2.299 -2.0747 -0.5149 -0.1767
 3327SOL     OW21613   4.481   3.374   5.911  0.4631 -0.1658 -0.2459
 3327SOL    HW121614   4.452   3.460   5.879 -2.1223 -1.1711 -0.5938
 3327SOL    HW221615   4.449   3.379   6.001 -0.0199  0.1096 -0.4338
 3328SOL     OW21616   0.269   3.919   7.255  0.2612  0.2272 -0.4549
 3328SOL    HW121617   0.352   3.939   7.298  2.1918 -0.7366 -3.7199
 3328SOL    HW221618   0.293   3.830   7.229 -2.0314 -0.1029 -1.4510
 3329SOL     OW21619   1.465   2.998   3.339 -0.4140 -0.1832  0.3126
 3329SOL    HW121620   1.537   3.061   3.344  0.2387 -0.9941  1.1391
 3329SOL    HW221621   1.477   2.944   3.417 -3.6711 -0.5152  0.5813
 3330SOL     OW21622   4.346   3.644   0.875  1.0806 -0.7884  0.7824
 3330SOL    HW121623   4.339   3.612   0.785 -3.0833  0.2743  0.7283
 3330SOL    HW221624   4.320   3.734   0.858 -0.3045 -1.2809  0.2788
 3331SOL     OW21625   2.141   2.596   8.787 -0.2348  0.2376 -0.1212
 3331SOL    HW121626   2.174   2.600   8.877 -3.0832 -0.2171  0.9290
 3331SOL    HW221627   2.058   2.643   8.797  0.0438  0.6177  0.4420
 3332SOL     OW21628   3.494   2.105   6.453  0.7067 -0.3096 -0.2313
 3332SOL    HW121629   3.540   2.026   6.424  2.5772 -0.0890  2.0276
 3332SOL    HW221630   3.502   2.088   6.547  0.0742  2.3444  0.3206
 3333SOL     OW21631   4.038   0.923   2.530 -0.2154 -0.6351 -0.4659
 3333SOL    HW121632   3.947   0.945   2.509  0.5498  1.0608 -1.9586
 3333SOL    HW221633   4.038   0.827   2.522 -0.4338 -0.9176  2.8080
 3334SOL     OW21634   2.261   3.305   9.332 -0.5546 -0.8109  0.3293
 3334SOL    HW121635   2.213   3.231   9.371 -2.8473  2.2132  3.2341
 3334SOL    HW221636   2.340   3.257   9.307 -0.8733 -0.9922 -0.3240
 3335SOL     OW21637   2.598   3.151   3.999  0.3273  0.3189  0.0182
 3335SOL    HW121638   2.520   3.173   4.049  1.8967  0.3661  2.4509
 3335SOL    HW221639   2.560   3.089   3.937 -0.1938 -0.3520  1.0052
 3336SOL     OW21640   1.243   1.675  12.477 -0.2560  0.0803 -0.1435
 3336SOL    HW121641   1.257   1.767  12.456 -1.0837 -0.1771 -1.8558
 3336SOL    HW221642   1.228   1.677  12.571 -0.0652 -1.2128 -0.0771
 3337SOL     OW21643   4.365   0.253   6.632  0.4230  0.5527  0.0707
 3337SOL    HW121644   4.272   0.247   6.657 -0.4598  2.5721 -2.7662
 3337SOL    HW221645   4.389   0.161   6.624 -2.9826 -0.4472  1.3043
 3338SOL     OW21646   2.385   2.761  13.862  0.3573 -0.2101  0.1632
 3338SOL    HW121647   2.469   2.737  13.902  0.3855 -0.2377  0.0889
 3338SOL    HW221648   2.349   2.830  13.916 -1.7836 -3.1010  2.4280
 3339SOL     OW21649   0.190   2.209   7.289  0.0961  0.1824  0.0930
 3339SOL    HW121650   0.219   2.271   7.223 -1.1034 -0.4409 -1.0245
 3339SOL    HW221651   0.267   2.219   7.345  0.5363  0.7688 -0.6050
 3340SOL     OW21652   2.128   2.282  11.211 -0.6613 -0.4883 -0.3443
 3340SOL    HW121653   2.105   2.276  11.118  0.4284  2.1290 -0.7877
 3340SOL    HW221654   2.071   2.212  11.242  0.4286 -0.1947  2.3317
 3341SOL     OW21655   1.322   4.286   0.358  0.0193  0.4684  0.0559
 3341SOL    HW121656   1.353   4.360   0.411  0.7806  0.6046 -0.5706
 3341SOL    HW221657   1.332   4.217   0.423 -0.3524 -1.5066 -1.9646
 3342SOL     OW21658   0.665   2.920  13.678  0.1809  0.1773  0.8046
 3342SOL    HW121659   0.576   2.951  13.666  0.8483  1.5877 -0.5122
 3342SOL    HW221660   0.649   2.826  13.683  3.3892 -0.3242  1.7851
 3343SOL     OW21661   2.296   0.343   3.095  0.1708  0.0352  0.0926
 3343SOL    HW121662   2.241   0.300   3.030 -1.7684 -0.3153  1.9840
 3343SOL    HW221663   2.247   0.424   3.107 -0.9289 -0.6926  0.5402
 3344SOL     OW21664   0.383   3.979   6.388 -0.6155 -0.4709 -0.3486
 3344SOL    HW121665   0.379   4.073   6.368 -1.5541 -0.4261  0.0770
 3344SOL    HW221666   0.469   3.967   6.427 -1.1010  1.5423  1.3511
 3345SOL     OW21667   3.518   2.878  17.090  0.0745  0.2192 -0.7208
 3345SOL    HW121668   3.509   2.913  17.179  1.4792  0.1862 -0.5575
 3345SOL    HW221669   3.476   2.938  17.028  0.4403 -0.6275 -1.7766
 3346SOL     OW21670   2.747   0.165   4.744  1.0221  0.1540 -0.5824
 3346SOL    HW121671   2.713   0.126   4.663 -1.5564  0.7210  0.2079
 3346SOL    HW221672   2.838   0.184   4.724  0.8094 -0.1306 -1.8438
 3347SOL     OW21673   2.467   2.043   4.411  0.0184 -0.2311 -0.5841
 3347SOL    HW121674   2.450   1.961   4.364  0.4410 -0.8151  0.2743
 3347SOL    HW221675   2.421   2.112   4.363  1.1974  1.6637  0.9879
 3348SOL     OW21676   4.220   0.176   4.548 -0.3391  0.6640  0.3385
 3348SOL    HW121677   4.183   0.261   4.527 -1.7703  0.1393  0.7723
 3348SOL    HW221678   4.292   0.204   4.605 -0.0863  0.2869  0.2043
 3349SOL     OW21679   3.368   2.952   6.310 -0.9380 -0.2961  0.2745
 3349SOL    HW121680   3.302   2.938   6.242 -1.1865  0.8165  0.2817
 3349SOL    HW221681   3.349   2.877   6.366 -1.4333 -0.5766 -0.2582
 3350SOL     OW21682   2.421   3.535   9.907 -0.3883 -0.1800 -0.0410
 3350SOL    HW121683   2.512   3.525   9.935 -0.8906 -2.0393  0.9393
 3350SOL    HW221684   2.401   3.447   9.876 -0.7255 -0.4756  1.0226
 3351SOL     OW21685   2.809   1.488   3.426 -0.1573 -0.4794  0.1165
 3351SOL    HW121686   2.721   1.485   3.464  0.1872  0.8114  1.0225
 3351SOL    HW221687   2.858   1.439   3.493 -1.1668 -1.4320  0.1521
 3352SOL     OW21688   0.604   4.735   6.316 -0.3027 -0.4041 -0.0321
 3352SOL    HW121689   0.663   0.038   6.379  0.7320  0.0223 -1.2922
 3352SOL    HW221690   0.657   4.713   6.239 -2.4093  0.9253 -1.8595
 3353SOL     OW21691   1.795   0.056   6.111 -0.2634  0.5505  0.2319
 3353SOL    HW121692   1.873   0.087   6.158  1.4457  0.4167 -2.5012
 3353SOL    HW221693   1.837   0.041   6.026 -0.3570 -2.1518  0.6495
 3354SOL     OW21694   4.655   0.921  13.484 -0.1624 -1.0326 -0.0967
 3354SOL    HW121695   4.616   1.008  13.488  0.1922 -0.9079  0.7947
 3354SOL    HW221696   4.715   0.936  13.411  0.8708 -3.4781  0.2278
 3355SOL     OW21697   2.820   3.513   2.272 -0.3901 -0.5935  0.0383
 3355SOL    HW121698   2.894   3.569   2.249 -0.3881 -0.7080 -0.2225
 3355SOL    HW221699   2.868   3.434   2.249 -1.7196 -1.5433  0.5050
 3356SOL     OW21700   4.614   4.076   3.406 -0.3935  0.3577 -0.2231
 3356SOL    HW121701   4.643   3.994   3.446 -1.0659  0.1989 -0.0501
 3356SOL    HW221702   4.591   4.112   3.492  0.3236 -2.9064  1.3487
 3357SOL     OW21703   1.412   2.594   3.706 -0.4924 -0.2072  0.5617
 3357SOL    HW121704   1.423   2.543   3.625 -0.6315 -1.9294  1.6190
 3357SOL    HW221705   1.424   2.682   3.671  1.0972  0.1133  1.8870
 3358SOL     OW21706   4.127   3.482  14.901  0.0605  0.4024  0.1063
 3358SOL    HW121707   4.152   3.408  14.957 -0.6538  1.1252  1.3699
 3358SOL    HW221708   4.185   3.470  14.825 -3.2455 -0.3689 -2.2784
 3359SOL     OW21709   4.618   3.763   7.743 -0.5231  0.2762 -0.0374
 3359SOL    HW121710   4.555   3.825   7.780  1.3399  0.3158  2.9975
 3359SOL    HW221711   4.568   3.684   7.721 -0.6725  0.6954 -1.2567
 3360SOL     OW21712   4.104   2.556  15.578 -0.1134  0.4600 -0.2015
 3360SOL    HW121713   4.182   2.535  15.629 -1.1157  2.2317  2.0872
 3360SOL    HW221714   4.146   2.612  15.513 -2.0185 -0.7755 -2.5093
 3361SOL     OW21715   2.727   0.356   1.643 -0.0862  0.3554  0.4435
 3361SOL    HW121716   2.708   0.421   1.576  0.4955 -0.6156 -0.6647
 3361SOL    HW221717   2.816   0.329   1.620 -0.3399  0.5367 -0.7668
 3362SOL     OW21718   0.748   2.246   9.132 -0.4896  0.3038  0.2537
 3362SOL    HW121719   0.711   2.161   9.108  0.6262  0.5440 -2.3186
 3362SOL    HW221720   0.730   2.248   9.226  0.7130  1.1000  0.4622
 3363SOL     OW21721   2.649   2.953   7.334 -0.1015 -0.2585 -0.3167
 3363SOL    HW121722   2.720   3.014   7.351  0.0846 -0.5404 -0.0915
 3363SOL    HW221723   2.569   3.006   7.339  0.4282  0.5025 -0.0395
 3364SOL     OW21724   3.494   2.942   4.199 -0.0894  0.3146  0.1682
 3364SOL    HW121725   3.426   2.898   4.249 -1.9322 -1.4155 -3.8610
 3364SOL    HW221726   3.516   3.022   4.247  0.7190 -1.5385  2.8507
 3365SOL     OW21727   4.703   2.235  16.202  0.3578  0.1293  0.5768
 3365SOL    HW121728   4.726   2.217  16.111 -2.1372 -1.0922  0.1790
 3365SOL    HW221729   4.660   2.320  16.193 -1.5894 -0.8296  0.8463
 3366SOL     OW21730   3.901   1.162  17.698  0.2724 -0.2255  0.1624
 3366SOL    HW121731   3.988   1.143  17.663 -0.4977 -4.1769  0.3735
 3366SOL    HW221732   3.904   1.120   0.032 -1.1264  0.9904  0.8125
 3367SOL     OW21733   4.724   0.721   9.328  0.1538  0.7008 -0.7802
 3367SOL    HW121734   0.011   0.733   9.236  1.4602 -1.5507 -0.7091
 3367SOL    HW221735   0.067   0.745   9.372  0.0044 -0.1450 -0.0621
 3368SOL     OW21736   2.586   0.129   6.521 -0.0016 -0.2119  0.1389
 3368SOL    HW121737   2.525   0.055   6.528 -1.2471  0.7037 -0.9008
 3368SOL    HW221738   2.664   0.085   6.553  1.0255 -0.0439 -2.1541
 3369SOL     OW21739   2.313   3.960  10.960 -0.7135  0.3380 -0.0878
 3369SOL    HW121740   2.258   3.894  11.000 -2.3295  2.4284  1.1000
 3369SOL    HW221741   2.309   4.020  11.034 -1.2185 -0.1075  0.2436
 3370SOL     OW21742   0.050   0.393  11.588  0.6681  0.1408 -0.1246
 3370SOL    HW121743   0.116   0.416  11.653 -2.2654  0.1271  2.8738
 3370SOL    HW221744   0.108   0.372  11.515  2.4987 -0.4694  1.4913
 3371SOL     OW21745   3.158   0.591   2.610  0.2852  0.6255 -0.0307
 3371SOL    HW121746   3.089   0.560   2.669 -0.6165 -0.5932 -1.7071
 3371SOL    HW221747   3.127   0.678   2.585 -1.2070 -0.0590 -0.6029
 3372SOL     OW21748   2.664   0.757   8.562  0.1011  0.7398 -0.0434
 3372SOL    HW121749   2.720   0.772   8.485 -0.2931  1.6693 -0.1551
 3372SOL    HW221750   2.708   0.689   8.613  0.6309 -0.2164 -1.7912
 3373SOL     OW21751   2.644   0.045   8.925 -0.1706 -0.0088  0.2976
 3373SOL    HW121752   2.682   0.025   9.011 -1.0705  2.5026  1.2692
 3373SOL    HW221753   2.561   0.000   8.940  0.7410 -2.4680 -2.0619
 3374SOL     OW21754   3.801   3.805  12.847 -0.5958  0.3133 -0.0626
 3374SOL    HW121755   3.771   3.721  12.812 -0.7861  0.1942  0.3836
 3374SOL    HW221756   3.730   3.866  12.829 -0.1559  0.4930 -1.1642
 3375SOL     OW21757   0.524   2.862   1.274 -0.0059 -0.2660 -0.5889
 3375SOL    HW121758   0.478   2.920   1.334  1.8833 -1.0987  1.7116
 3375SOL    HW221759   0.456   2.813   1.228 -0.1777  0.3517 -0.9898
 3376SOL     OW21760   1.680   0.683   5.480  0.0959  0.1529 -0.0501
 3376SOL    HW121761   1.602   0.629   5.477  1.0565 -1.1482 -1.2376
 3376SOL    HW221762   1.642   0.766   5.510  1.3188 -0.8209  4.2418
 3377SOL     OW21763   0.667   3.389   6.739 -0.0936 -0.3715 -0.0267
 3377SOL    HW121764   0.609   3.465   6.743 -1.3843 -1.4348  1.4129
 3377SOL    HW221765   0.636   3.358   6.654 -0.5413  0.9987 -0.3592
 3378SOL     OW21766   2.984   1.951   6.732 -0.0119  0.1762  0.1736
 3378SOL    HW121767   2.983   1.857   6.745  1.2585  0.1807  0.3034
 3378SOL    HW221768   3.077   1.968   6.719  0.2572 -2.0151 -0.6692
 3379SOL     OW21769   1.542   0.549  15.595  0.3027  0.5098 -0.2729
 3379SOL    HW121770   1.515   0.641  15.598  2.2346  0.9254  3.9450
 3379SOL    HW221771   1.473   0.499  15.551 -0.6927  0.7244  1.0526
 3380SOL     OW21772   0.317   4.151   1.667 -0.1367  0.3926 -0.5232
 3380SOL    HW121773   0.336   4.089   1.737  0.5934  0.0290 -1.0373
 3380SOL    HW221774   0.269   4.096   1.605 -1.4294 -1.2603  1.9553
 3381SOL     OW21775   1.566   2.033   6.917  0.0754  0.2185 -0.0518
 3381SOL    HW121776   1.516   1.976   6.976  0.0303  0.1018 -0.2054
 3381SOL    HW221777   1.500   2.087   6.873  0.0085 -0.4957 -0.8190
 3382SOL     OW21778   1.057   3.871   4.858  0.1465 -0.0513 -0.1022
 3382SOL    HW121779   0.983   3.895   4.802  0.4098 -1.9674 -1.2836
 3382SOL    HW221780   1.031   3.779   4.867 -0.4762  0.2551  1.3414
 3383SOL     OW21781   0.508   1.762   8.524  0.1802 -0.3159 -0.2673
 3383SOL    HW121782   0.533   1.820   8.452  0.1825  0.3944  0.3028
 3383SOL    HW221783   0.418   1.794   8.531 -0.5908 -1.4856 -4.7830
 3384SOL     OW21784   3.455   3.531   3.558 -0.4083 -0.6379  0.4130
 3384SOL    HW121785   3.508   3.547   3.636  1.7546  1.4710 -1.4854
 3384SOL    HW221786   3.439   3.623   3.536 -0.9623 -1.1697 -1.4471
 3385SOL     OW21787   1.233   0.934   2.392 -0.2949  0.6211  0.3980
 3385SOL    HW121788   1.312   0.976   2.425  0.8949 -0.6622 -0.8363
 3385SOL    HW221789   1.170   0.970   2.454  0.1761 -1.2855  1.9822
 3386SOL     OW21790   3.603   3.615   5.764  0.0273 -0.2032 -0.3476
 3386SOL    HW121791   3.617   3.665   5.684 -1.4467  0.7809  0.0046
 3386SOL    HW221792   3.629   3.525   5.744 -1.1755  0.1057 -3.4160
 3387SOL     OW21793   2.111   2.669  11.177  0.3075 -0.6512 -0.3756
 3387SOL    HW121794   2.074   2.755  11.200 -2.5470 -2.0910  0.3841
 3387SOL    HW221795   2.179   2.680  11.111 -0.1378  0.7969 -0.5966
 3388SOL     OW21796   1.536   3.324   8.177 -0.0467  0.6231 -0.4879
 3388SOL    HW121797   1.578   3.264   8.116  2.2347  1.8065 -0.0895
 3388SOL    HW221798   1.587   3.318   8.258 -0.6180 -0.2186 -0.1931
 3389SOL     OW21799   3.481   3.992   4.566  0.0680 -0.0089  0.8355
 3389SOL    HW121800   3.532   3.952   4.637  0.0411 -0.4399  0.6078
 3389SOL    HW221801   3.407   4.026   4.615 -0.3739 -0.4213  0.4459
 3390SOL     OW21802   0.298   3.743   4.704 -0.6961 -0.1791  0.0094
 3390SOL    HW121803   0.365   3.691   4.659 -1.2586  0.4645 -1.6028
 3390SOL    HW221804   0.220   3.690   4.688 -1.2811  0.2669  1.4153
 3391SOL     OW21805   2.763   2.141  15.052 -0.3448  0.0305  0.4297
 3391SOL    HW121806   2.714   2.138  15.134 -4.0547  0.2657 -1.8026
 3391SOL    HW221807   2.729   2.209  14.994  3.7282  0.5954 -1.3441
 3392SOL     OW21808   4.440   1.775   5.203  0.1436 -0.5620  0.6115
 3392SOL    HW121809   4.507   1.738   5.145  0.7282 -0.8539  1.4692
 3392SOL    HW221810   4.374   1.813   5.145  1.4967 -1.2914 -1.4072
 3393SOL     OW21811   4.406   3.263  16.802  0.3189 -0.1447  0.6316
 3393SOL    HW121812   4.398   3.316  16.881 -0.9406  0.0294  0.3823
 3393SOL    HW221813   4.367   3.332  16.749  0.6609  0.0609  0.6483
 3394SOL     OW21814   0.662   3.493   0.127  0.1293  0.2850 -0.4420
 3394SOL    HW121815   0.719   3.570   0.130  0.0877  0.2705  0.6996
 3394SOL    HW221816   0.630   3.489   0.037  0.6740 -2.8911 -0.4870
 3395SOL     OW21817   4.140   0.983   1.746 -0.2544  0.1606  0.5360
 3395SOL    HW121818   4.137   1.070   1.706 -2.4781  0.6691  1.7894
 3395SOL    HW221819   4.210   0.941   1.696  0.2801  1.6897  0.0159
 3396SOL     OW21820   4.277   0.421  17.313  0.7807  0.3028  0.1866
 3396SOL    HW121821   4.252   0.485  17.380 -3.0651 -0.1416 -0.8297
 3396SOL    HW221822   4.207   0.430  17.249 -1.7578  1.3466  3.1166
 3397SOL     OW21823   0.016   3.524   5.595 -0.0959 -0.0471 -0.4373
 3397SOL    HW121824   0.029   3.509   5.689 -1.0470 -0.4614 -0.3758
 3397SOL    HW221825   4.671   3.570   5.589 -0.5223 -0.6998  0.5668
 3398SOL     OW21826   3.685   3.522  16.481  0.1641  0.0726  0.7823
 3398SOL    HW121827   3.706   3.506  16.573 -0.4287  3.0280  1.4420
 3398SOL    HW221828   3.592   3.541  16.484  0.2874  1.0158 -1.4300
 3399SOL     OW21829   1.721   1.919   2.352  0.8227  0.2738  0.0897
 3399SOL    HW121830   1.767   1.951   2.429  0.8874 -2.4825  1.1933
 3399SOL    HW221831   1.774   1.843   2.328 -0.4272 -0.2550 -0.9967
 3400SOL     OW21832   4.504   3.318   7.473 -0.3915 -0.1273 -0.2372
 3400SOL    HW121833   4.529   3.285   7.559 -0.8415  0.0673 -0.0301
 3400SOL    HW221834   4.565   3.390   7.455  0.6920 -0.7517  0.9634
 3401SOL     OW21835   2.745   2.211   2.362  0.0024  0.0783  0.2969
 3401SOL    HW121836   2.793   2.221   2.444  0.1666  0.1982  0.1858
 3401SOL    HW221837   2.672   2.272   2.374 -0.4862 -0.2663 -1.0037
 3402SOL     OW21838   4.493   3.736   9.159  0.0085 -0.4724 -0.2004
 3402SOL    HW121839   4.466   3.685   9.236 -0.0216  0.1894  0.2294
 3402SOL    HW221840   4.472   3.825   9.187  1.5653  0.6018 -2.5244
 3403SOL     OW21841   3.559   2.044   0.644  0.7107  0.2405 -0.0550
 3403SOL    HW121842   3.647   2.017   0.617 -0.6828 -2.7311 -1.6206
 3403SOL    HW221843   3.529   1.968   0.694 -0.6314  1.8170  1.5505
 3404SOL     OW21844   3.686   4.047   1.254 -0.4816  0.3445  0.0623
 3404SOL    HW121845   3.642   4.064   1.337 -1.2650 -2.3459  0.1793
 3404SOL    HW221846   3.723   4.133   1.234  3.2505 -1.2871  0.0199
 3405SOL     OW21847   3.670   0.871  10.572  0.5197  0.5840 -0.2086
 3405SOL    HW121848   3.687   0.956  10.612 -0.6500  0.0144  1.5068
 3405SOL    HW221849   3.629   0.825  10.646  2.1264 -2.2536 -1.0801
 3406SOL     OW21850   3.982   3.607  11.488  0.4210  0.1189 -0.0641
 3406SOL    HW121851   3.969   3.548  11.562  0.1756  1.1987  0.7548
 3406SOL    HW221852   4.050   3.668  11.516  1.6902 -1.0963 -0.4954
 3407SOL     OW21853   1.743   2.458   5.647  0.2496 -0.2400  0.2866
 3407SOL    HW121854   1.758   2.473   5.740  2.0009 -0.0284 -0.0228
 3407SOL    HW221855   1.790   2.535   5.615  0.3371 -0.0248  0.9334
 3408SOL     OW21856   2.887   0.054   8.546  0.5263  0.1742  0.6776
 3408SOL    HW121857   2.929   4.726   8.491  0.0034 -0.4751  1.0663
 3408SOL    HW221858   2.858   4.733   8.616 -1.6814 -0.4607 -0.7512
 3409SOL     OW21859   2.402   4.057   2.295  0.2281 -0.1309  0.3742
 3409SOL    HW121860   2.354   4.122   2.346  0.1589 -0.9545  1.3571
 3409SOL    HW221861   2.419   3.993   2.365  0.7259  0.7010  1.0194
 3410SOL     OW21862   4.671   2.295   4.778  0.2970 -0.0499 -0.1220
 3410SOL    HW121863   4.685   2.226   4.714 -1.3492 -0.0185 -0.5078
 3410SOL    HW221864   0.012   2.349   4.780  0.0347  0.3449 -0.2350
 3411SOL     OW21865   2.725   2.943   7.034  0.1337  0.6530 -0.0219
 3411SOL    HW121866   2.779   2.958   7.112  3.0869  0.4558 -2.0108
 3411SOL    HW221867   2.797   2.917   6.976 -1.5143 -0.8054 -1.3877
 3412SOL     OW21868   0.632   3.495   5.692  0.2748 -0.1324 -0.0449
 3412SOL    HW121869   0.554   3.443   5.712  0.3835 -0.8937 -1.6406
 3412SOL    HW221870   0.652   3.550   5.768 -0.3438  0.5019 -0.3326
 3413SOL     OW21871   4.538   3.413  11.096 -0.5589 -0.3673 -0.1270
 3413SOL    HW121872   4.508   3.470  11.167  1.9411  1.2512 -0.3556
 3413SOL    HW221873   4.579   3.345  11.150  0.9355 -0.1607 -1.0099
 3414SOL     OW21874   2.009   3.260  15.349  0.0592 -0.7269  0.3805
 3414SOL    HW121875   1.939   3.274  15.413 -0.7644 -0.8777 -0.4868
 3414SOL    HW221876   1.970   3.194  15.292 -0.0468 -0.8020  0.5381
 3415SOL     OW21877   0.569   0.117   4.882  0.7714  0.0068  0.4459
 3415SOL    HW121878   0.477   0.135   4.865  1.4578  1.6388 -1.4831
 3415SOL    HW221879   0.569   0.180   4.954 -2.5113 -0.3627  0.7571
 3416SOL     OW21880   3.162   3.317   4.182 -0.8565  0.3117 -0.2221
 3416SOL    HW121881   3.239   3.356   4.222 -0.3432 -0.5029 -0.4237
 3416SOL    HW221882   3.201   3.273   4.107 -0.0151  3.1490 -1.4092
 3417SOL     OW21883   0.643   2.893   4.694  0.6505  0.0482  0.5678
 3417SOL    HW121884   0.576   2.830   4.720  0.5544 -0.3145 -0.5532
 3417SOL    HW221885   0.719   2.866   4.745 -0.6079  1.4945  3.2282
 3418SOL     OW21886   3.428   3.516   1.869  0.9219 -0.5571  0.1460
 3418SOL    HW121887   3.457   3.594   1.916  1.0970 -1.1442  1.0055
 3418SOL    HW221888   3.422   3.452   1.940 -1.3899 -1.2980 -0.7313
 3419SOL     OW21889   3.431   1.180   2.506 -0.2958  0.7084 -0.4732
 3419SOL    HW121890   3.525   1.180   2.524 -0.4060 -0.6334  0.1523
 3419SOL    HW221891   3.433   1.156   2.414 -0.8803  3.5915 -1.2284
 3420SOL     OW21892   1.945   0.696   5.579  0.9558  0.1078 -0.0301
 3420SOL    HW121893   1.901   0.679   5.662  0.9064  1.5150  0.2307
 3420SOL    HW221894   1.870   0.700   5.520  0.7443 -1.2689  0.1307
 3421SOL     OW21895   0.027   0.052  15.378 -0.3998 -0.3455 -0.4551
 3421SOL    HW121896   0.078   4.711  15.360  0.4379 -0.3015  1.7318
 3421SOL    HW221897   0.062   0.120  15.320 -1.5421 -1.0959 -2.0413
 3422SOL     OW21898   1.645   3.283   1.161 -0.1912  0.9932  0.5788
 3422SOL    HW121899   1.675   3.373   1.161  2.2062  0.2024 -1.0564
 3422SOL    HW221900   1.680   3.250   1.078 -1.3609 -0.9495  0.8370
 3423SOL     OW21901   0.996   1.081   2.947 -0.4039  0.3914  0.2216
 3423SOL    HW121902   0.908   1.087   2.984  0.0270  1.3039  1.1162
 3423SOL    HW221903   0.979   1.147   2.881 -0.0681 -1.4232 -1.6766
 3424SOL     OW21904   1.364   1.174  15.365 -0.6357  0.3171 -0.4920
 3424SOL    HW121905   1.401   1.118  15.298  0.4508 -1.2188  1.3808
 3424SOL    HW221906   1.372   1.256  15.316 -0.0480  0.1880 -0.6090
 3425SOL     OW21907   3.841   0.434   5.759  0.5116  0.2206  0.0590
 3425SOL    HW121908   3.909   0.440   5.825 -0.1633  1.3861  0.6579
 3425SOL    HW221909   3.805   0.522   5.747  0.4244  0.1076 -0.5114
 3426SOL     OW21910   4.703   1.532   7.684  0.0501 -0.0524  0.0047
 3426SOL    HW121911   4.716   1.559   7.775 -0.1391  1.3050 -0.3694
 3426SOL    HW221912   4.614   1.564   7.670  1.1004  2.2374 -1.4802
 3427SOL     OW21913   1.594   1.572   8.067 -0.3156 -0.1745  0.4094
 3427SOL    HW121914   1.642   1.568   7.984 -2.2419  0.0654 -0.7143
 3427SOL    HW221915   1.506   1.588   8.033  0.6466  3.3849 -0.4210
 3428SOL     OW21916   4.730   4.724   6.708 -0.0716 -0.4578 -0.2536
 3428SOL    HW121917   0.048   4.728   6.630  2.8528 -0.3966  1.8733
 3428SOL    HW221918   0.018   4.640   6.747  1.3558  0.3198  0.4419
 3429SOL     OW21919   1.973   1.553  16.868  0.2873  0.1231 -0.5477
 3429SOL    HW121920   1.954   1.604  16.946 -1.4538 -0.2688 -0.7042
 3429SOL    HW221921   1.893   1.507  16.842 -0.8380  1.2175  1.0593
 3430SOL     OW21922   2.601   3.978  12.690 -0.1237 -0.5084  0.0548
 3430SOL    HW121923   2.679   3.958  12.639  0.9848  0.2433  1.4828
 3430SOL    HW221924   2.541   3.914  12.650 -0.0204 -0.6607  0.1459
 3431SOL     OW21925   4.243   2.291   1.265  0.3455  0.3175 -0.0282
 3431SOL    HW121926   4.243   2.376   1.310 -0.4213 -0.2816  1.1066
 3431SOL    HW221927   4.192   2.233   1.322  0.2289  0.2537 -0.1986
 3432SOL     OW21928   0.333   4.366   9.038  0.2503  0.3222 -0.4979
 3432SOL    HW121929   0.346   4.315   9.118  1.5795  0.5227 -0.5893
 3432SOL    HW221930   0.425   4.382   9.018  1.0574 -3.2742  0.4019
 3433SOL     OW21931   1.152   0.673   4.814 -0.1160 -0.2912 -0.1394
 3433SOL    HW121932   1.082   0.607   4.820 -0.5109  0.3592  2.4244
 3433SOL    HW221933   1.194   0.654   4.730 -1.4324 -2.7115 -0.2453
 3434SOL     OW21934   0.418   4.125   9.578  0.0109  0.9022 -0.1495
 3434SOL    HW121935   0.462   4.057   9.629 -1.3928 -1.9803 -2.7843
 3434SOL    HW221936   0.430   4.083   9.492  1.1491  1.9185 -0.4868
 3435SOL     OW21937   2.120   0.839  13.077  0.1922 -0.4808  0.0606
 3435SOL    HW121938   2.203   0.815  13.118  0.6285  2.2097  0.7749
 3435SOL    HW221939   2.131   0.785  12.999 -0.0650  0.2161 -0.4591
 3436SOL     OW21940   1.477   3.126   6.788 -0.1587  0.2221 -0.1771
 3436SOL    HW121941   1.468   3.091   6.877 -0.8215 -0.9386 -0.7035
 3436SOL    HW221942   1.522   3.053   6.747  1.2309  0.8353  0.2772
 3437SOL     OW21943   3.874   4.649  17.585 -0.1450 -0.1040  0.4644
 3437SOL    HW121944   3.949   4.684  17.536 -1.4720  1.3991 -0.4975
 3437SOL    HW221945   3.807   4.713  17.563  0.4438  0.9004  1.5689
 3438SOL     OW21946   3.306   4.478   1.897  0.0061 -0.3707  0.0871
 3438SOL    HW121947   3.298   4.386   1.924 -0.6011 -0.1923  0.5050
 3438SOL    HW221948   3.249   4.525   1.957 -0.4075 -0.5330 -0.1778
 3439SOL     OW21949   2.244   1.574   6.912  0.5319 -0.1008  0.1662
 3439SOL    HW121950   2.225   1.668   6.911  2.4409  0.2684 -1.8644
 3439SOL    HW221951   2.331   1.576   6.951  1.3538  1.0331 -1.7420
 3440SOL     OW21952   0.945   0.323   1.822  0.0760 -0.2687  0.3908
 3440SOL    HW121953   0.897   0.359   1.748  0.4127 -0.1849  0.2125
 3440SOL    HW221954   1.018   0.385   1.819  0.1439 -0.5005 -2.5669
 3441SOL     OW21955   2.623   1.480  15.180 -0.2458  0.2557  0.2723
 3441SOL    HW121956   2.644   1.405  15.236 -2.7916 -0.5789  0.1072
 3441SOL    HW221957   2.694   1.535  15.213  0.2683  0.5280 -1.2629
 3442SOL     OW21958   1.539   2.935  11.416  0.4128 -0.4014  0.3460
 3442SOL    HW121959   1.595   3.008  11.445 -0.4295  0.2999  0.1993
 3442SOL    HW221960   1.475   2.987  11.368  0.2242  0.1865  1.2284
 3443SOL     OW21961   3.511   4.394   9.758 -0.1096  0.2018 -0.4093
 3443SOL    HW121962   3.490   4.301   9.771  1.6013 -0.0273  0.7241
 3443SOL    HW221963   3.606   4.383   9.753 -0.2000 -0.5047 -0.6759
 3444SOL     OW21964   0.148   1.363   6.814 -0.2171  0.6291 -0.1519
 3444SOL    HW121965   0.171   1.333   6.902 -1.4093 -0.4688 -0.2176
 3444SOL    HW221966   0.097   1.286   6.791 -0.6892 -0.1810  3.6424
 3445SOL     OW21967   4.032   0.537  13.077  0.2153  0.2579 -0.2090
 3445SOL    HW121968   4.065   0.509  13.162 -2.4691 -3.1863 -0.3081
 3445SOL    HW221969   4.049   0.458  13.026 -1.8408 -2.1118  2.7388
 3446SOL     OW21970   1.373   2.102   1.604 -0.2330  0.5712  0.6348
 3446SOL    HW121971   1.344   2.192   1.619  4.5357  2.2303 -0.2332
 3446SOL    HW221972   1.313   2.063   1.668  1.0921 -0.8119  1.0440
 3447SOL     OW21973   4.550   2.926   3.168 -0.1705 -0.0492  0.0316
 3447SOL    HW121974   4.616   2.871   3.124 -0.3218 -0.3640  0.2005
 3447SOL    HW221975   4.540   2.880   3.251 -2.8001  0.5396  0.0181
 3448SOL     OW21976   2.571   1.580   7.597  0.0745 -0.5930  0.2805
 3448SOL    HW121977   2.576   1.495   7.641  0.2591 -0.2546  0.9307
 3448SOL    HW221978   2.607   1.556   7.512 -1.4628 -0.6919 -0.3401
 3449SOL     OW21979   0.284   0.730   5.368  0.0128 -0.0235  0.2495
 3449SOL    HW121980   0.213   0.667   5.376 -0.0945 -0.2463 -2.5256
 3449SOL    HW221981   0.323   0.726   5.455 -0.6060 -0.6685  0.4900
 3450SOL     OW21982   4.029   4.508   0.521  0.0958  0.1453 -0.2900
 3450SOL    HW121983   4.109   4.525   0.571 -1.3656  0.7955  1.8659
 3450SOL    HW221984   4.057   4.431   0.472 -0.5802  1.0186 -2.0424
 3451SOL     OW21985   4.279   0.973   8.679 -0.0149 -0.3901  0.0652
 3451SOL    HW121986   4.210   0.909   8.689 -3.6674  3.5738  0.2535
 3451SOL    HW221987   4.332   0.950   8.755  0.5347  2.8451  0.6820
 3452SOL     OW21988   2.736   1.940   5.865  0.1866 -0.3608 -0.2915
 3452SOL    HW121989   2.670   1.897   5.812 -1.3877 -0.1230  1.4824
 3452SOL    HW221990   2.751   2.022   5.818  1.6223 -1.3920 -1.6444
 3453SOL     OW21991   3.561   1.244   7.709  1.0289 -0.1770 -0.7876
 3453SOL    HW121992   3.589   1.300   7.636  2.6265  0.6201  0.4291
 3453SOL    HW221993   3.607   1.162   7.693  2.8266  0.5862  0.4262
 3454SOL     OW21994   1.664   4.549   6.183  0.0465 -0.2756 -0.3897
 3454SOL    HW121995   1.715   4.624   6.154 -0.9170  1.1120  1.5302
 3454SOL    HW221996   1.597   4.588   6.239  0.5652 -3.4004  2.4691
 3455SOL     OW21997   3.969   1.216   7.052 -0.2639  0.1132 -0.4461
 3455SOL    HW121998   3.981   1.210   7.146 -0.4308 -1.0261 -0.5060
 3455SOL    HW221999   4.044   1.274   7.039  1.1538 -1.7488 -0.6044
 3456SOL     OW22000   3.765   0.949   4.608 -0.4986 -0.4496  0.0221
 3456SOL    HW122001   3.749   0.953   4.703 -1.4274 -1.9830 -0.0770
 3456SOL    HW222002   3.684   0.916   4.569  1.0767 -2.3929 -1.5797
 3457SOL     OW22003   0.165   1.217   3.511 -0.3147 -0.3428  0.3528
 3457SOL    HW122004   0.186   1.127   3.536  2.4151  0.0266 -0.5673
 3457SOL    HW222005   0.201   1.225   3.423  0.1528  1.3410  0.7125
 3458SOL     OW22006   2.169   3.032   3.642 -0.3785 -0.2367 -0.3010
 3458SOL    HW122007   2.103   2.963   3.651  0.5240 -0.8803  1.5825
 3458SOL    HW222008   2.145   3.097   3.708  2.8649 -0.2462  0.8946
 3459SOL     OW22009   4.156   2.672   9.034 -0.4707  0.0495  0.1739
 3459SOL    HW122010   4.085   2.722   8.993 -0.3270 -0.8997 -1.2344
 3459SOL    HW222011   4.158   2.591   8.983  0.9120 -1.2890  2.3938
 3460SOL     OW22012   4.348   1.058   3.869 -1.2690 -0.0652  0.0858
 3460SOL    HW122013   4.346   1.038   3.962  0.8335 -0.7061  0.0038
 3460SOL    HW222014   4.413   1.127   3.859 -1.1667  0.0871  1.8950
 3461SOL     OW22015   3.780   0.945   2.358 -0.2989  0.2453  0.7509
 3461SOL    HW122016   3.826   0.869   2.322 -1.1817 -0.2968  0.7599
 3461SOL    HW222017   3.728   0.961   2.279  0.8188  0.6331  0.0877
 3462SOL     OW22018   2.636   3.734  11.414 -0.1129  0.3117 -0.0302
 3462SOL    HW122019   2.599   3.676  11.347  1.7495 -1.0668  0.1571
 3462SOL    HW222020   2.700   3.781  11.361  0.2946 -0.1225  0.0767
 3463SOL     OW22021   0.622   0.251   2.772 -0.1949 -0.0858 -0.3410
 3463SOL    HW122022   0.544   0.201   2.746 -1.6042  0.7884  2.1408
 3463SOL    HW222023   0.661   0.190   2.835 -0.5805 -1.4950 -1.4517
 3464SOL     OW22024   1.111   4.372  17.697  0.4122 -0.0678 -0.4788
 3464SOL    HW122025   1.133   4.339   0.034  0.3174 -0.8097 -0.7309
 3464SOL    HW222026   1.156   4.456  17.693  1.7436 -0.7240  0.5789
 3465SOL     OW22027   3.029   0.427   3.782 -0.4791 -0.1729  0.1133
 3465SOL    HW122028   3.014   0.382   3.700 -0.2966  2.6200 -1.4447
 3465SOL    HW222029   2.977   0.365   3.834 -0.4862 -0.2719 -0.0128
 3466SOL     OW22030   2.062   3.262   8.374 -0.0658  0.4109 -0.2609
 3466SOL    HW122031   2.069   3.222   8.461  0.7451 -1.0718 -1.0042
 3466SOL    HW222032   2.090   3.350   8.397 -0.0609  0.2423  0.3927
 3467SOL     OW22033   4.211   0.274  10.552 -0.0334  0.7493 -0.3038
 3467SOL    HW122034   4.301   0.266  10.586  0.8706  2.3680 -2.3458
 3467SOL    HW222035   4.162   0.311  10.626 -1.1883 -1.0109 -0.1986
 3468SOL     OW22036   1.705   4.391   3.362 -0.1453 -0.2538 -0.3609
 3468SOL    HW122037   1.690   4.469   3.308  1.7731  0.8703  0.7058
 3468SOL    HW222038   1.745   4.342   3.291 -1.4732 -0.2124 -1.1282
 3469SOL     OW22039   3.360   4.407   2.481 -0.0453 -1.3458 -0.5017
 3469SOL    HW122040   3.276   4.403   2.525  1.0181 -0.0801  1.6237
 3469SOL    HW222041   3.327   4.421   2.392  2.2050  1.6824 -0.8748
 3470SOL     OW22042   0.305   2.299   9.223  0.3456  0.0714 -0.3011
 3470SOL    HW122043   0.386   2.263   9.260  0.0847 -2.1435 -1.8841
 3470SOL    HW222044   0.281   2.220   9.175 -1.5883  0.6039 -0.2353
 3471SOL     OW22045   1.276   1.132  12.911  0.1761  0.0869  0.6450
 3471SOL    HW122046   1.233   1.171  12.986  1.7961  1.0345  1.0736
 3471SOL    HW222047   1.310   1.053  12.953  1.4643  1.6093  2.4153
 3472SOL     OW22048   3.651   4.328   6.272  0.3249  0.0921 -0.0041
 3472SOL    HW122049   3.594   4.253   6.255  0.3985  0.1830 -0.6273
 3472SOL    HW222050   3.588   4.401   6.278  1.0222  0.6088  1.2075
 3473SOL     OW22051   2.906   4.400   8.357 -0.1043 -0.3844 -0.2773
 3473SOL    HW122052   2.948   4.315   8.362  0.3970 -0.1986 -1.4143
 3473SOL    HW222053   2.949   4.442   8.282  0.3796 -0.1439  0.1333
 3474SOL     OW22054   3.500   4.632   9.613  0.0987  0.0155 -0.5139
 3474SOL    HW122055   3.476   4.695   9.680 -1.4058 -0.0077 -1.0386
 3474SOL    HW222056   3.482   4.552   9.663 -1.0367  0.4381 -0.2574
 3475SOL     OW22057   1.005   2.240   9.312 -0.3327  0.2464  0.3477
 3475SOL    HW122058   1.010   2.193   9.230 -2.6419  1.8083 -0.7019
 3475SOL    HW222059   0.911   2.258   9.315 -0.5206 -0.5301 -1.4218
 3476SOL     OW22060   2.888   1.240   8.392  0.3224 -0.8807 -0.1337
 3476SOL    HW122061   2.928   1.154   8.376  0.6359 -0.8891  0.6548
 3476SOL    HW222062   2.870   1.261   8.301 -0.1402  0.0613  0.1806
 3477SOL     OW22063   2.701   0.807   6.276 -0.2191 -0.3705  0.1288
 3477SOL    HW122064   2.617   0.762   6.264 -0.6863  0.7720 -0.8577
 3477SOL    HW222065   2.729   0.811   6.367 -0.8664  0.9598  0.2601
 3478SOL     OW22066   0.761   0.834   7.546 -0.9359  0.0018 -0.0669
 3478SOL    HW122067   0.699   0.774   7.589 -0.8663 -0.2688 -0.3466
 3478SOL    HW222068   0.812   0.772   7.494 -1.9328 -0.9618  0.0933
 3479SOL     OW22069   0.724   0.317   3.908 -0.3515 -0.3178 -0.4899
 3479SOL    HW122070   0.703   0.256   3.979  0.3092 -2.1379 -1.8482
 3479SOL    HW222071   0.809   0.356   3.926 -0.6614  0.0692  0.1072
 3480SOL     OW22072   0.669   1.579  13.030  0.1614 -0.0945  0.0323
 3480SOL    HW122073   0.583   1.563  12.991  0.2098  0.4684 -0.3019
 3480SOL    HW222074   0.732   1.539  12.969 -0.5829  1.2529 -1.6056
 3481SOL     OW22075   1.485   3.806   5.402 -0.0617  0.3711  0.0471
 3481SOL    HW122076   1.503   3.859   5.324 -2.4193 -0.1355 -0.8349
 3481SOL    HW222077   1.562   3.826   5.456  1.2721  0.7430 -1.9828
 3482SOL     OW22078   3.661   4.321   5.589  0.1842 -0.4772  0.6747
 3482SOL    HW122079   3.694   4.284   5.508  2.2764 -0.2233  1.4045
 3482SOL    HW222080   3.572   4.287   5.596 -0.3369  1.0883  1.8952
 3483SOL     OW22081   1.947   4.138  11.010  0.4937 -0.7198  0.4010
 3483SOL    HW122082   2.014   4.172  11.069  0.4693 -1.2352  0.7265
 3483SOL    HW222083   1.991   4.143  10.925 -0.0176 -0.3453  0.1563
 3484SOL     OW22084   0.627   2.951   4.447 -0.2411 -0.5110  0.7337
 3484SOL    HW122085   0.642   2.923   4.537  0.8088 -0.5864  0.5297
 3484SOL    HW222086   0.709   3.000   4.435 -0.0905 -0.7540  0.7791
 3485SOL     OW22087   3.725   2.401   3.201 -0.0405 -0.3652  0.0540
 3485SOL    HW122088   3.804   2.427   3.153  0.8559 -3.2852 -0.0566
 3485SOL    HW222089   3.715   2.309   3.178  1.0766  0.0152 -2.0187
 3486SOL     OW22090   2.760   0.169  13.471  0.6403  0.5024  0.7891
 3486SOL    HW122091   2.717   0.157  13.387  1.0944  1.3838  0.4286
 3486SOL    HW222092   2.802   0.086  13.496  0.2004  0.2202  0.5853
 3487SOL     OW22093   4.494   4.537   2.557  0.2259 -0.0541 -0.3055
 3487SOL    HW122094   4.461   4.609   2.504  0.3889  2.1254  2.5505
 3487SOL    HW222095   4.428   4.470   2.539  0.6047 -0.1643 -1.2644
 3488SOL     OW22096   2.196   4.000   7.535 -0.0280 -0.0089  0.3973
 3488SOL    HW122097   2.274   3.949   7.556 -0.4745 -0.7180  0.3066
 3488SOL    HW222098   2.147   3.980   7.614  0.1927  3.0207  1.3173
 3489SOL     OW22099   0.236   1.076  14.423  0.4686 -0.0938 -0.1243
 3489SOL    HW122100   0.159   1.133  14.421  0.7089  0.2246 -0.2857
 3489SOL    HW222101   0.239   1.049  14.331 -2.3876 -1.3649  0.1704
 3490SOL     OW22102   2.819   2.554   3.293 -0.1013  0.1402 -0.1938
 3490SOL    HW122103   2.853   2.627   3.242  1.1676  0.1260  0.6169
 3490SOL    HW222104   2.729   2.586   3.285 -0.4063 -0.6031  0.2286
 3491SOL     OW22105   4.036   3.247   2.368  0.0406 -0.0163  0.8754
 3491SOL    HW122106   4.000   3.309   2.305 -0.1035 -1.9682 -0.9673
 3491SOL    HW222107   4.131   3.243   2.360 -0.0752  3.0626 -1.7653
 3492SOL     OW22108   0.105   1.154  16.532 -0.2407  0.4308  0.1412
 3492SOL    HW122109   0.038   1.171  16.465 -1.9770 -1.0675  1.4908
 3492SOL    HW222110   0.128   1.246  16.541  0.5945  0.2789 -0.4962
 3493SOL     OW22111   2.538   2.323   1.723  0.6442 -0.4608  0.2589
 3493SOL    HW122112   2.497   2.361   1.645 -3.0175 -1.0796  1.8855
 3493SOL    HW222113   2.452   2.301   1.758  0.5774  0.4752  0.6920
 3494SOL     OW22114   4.713   2.045   2.393  0.5311 -0.1482 -0.3277
 3494SOL    HW122115   0.008   2.067   2.306 -0.9601 -1.6496 -1.2684
 3494SOL    HW222116   0.049   1.993   2.424 -1.4618 -3.6257 -1.3654
 3495SOL     OW22117   0.575   4.658  12.310 -0.0509 -0.1513  0.0834
 3495SOL    HW122118   0.574   4.577  12.259 -1.6446  0.6357 -1.1462
 3495SOL    HW222119   0.514   4.638  12.381  0.6120  2.0099  1.2428
 3496SOL     OW22120   1.825   3.926  11.353 -1.0145 -0.3043  0.0553
 3496SOL    HW122121   1.860   3.974  11.278 -0.6850 -1.1787 -0.3617
 3496SOL    HW222122   1.807   3.993  11.418  1.0513 -0.6648  1.0022
 3497SOL     OW22123   4.325   0.453  16.933  0.3137 -0.1184 -0.0344
 3497SOL    HW122124   4.418   0.438  16.914  0.4181  1.0436 -0.5003
 3497SOL    HW222125   4.328   0.512  17.009  0.0092  0.7868 -0.7165
 3498SOL     OW22126   4.522   2.773  15.935  0.8166 -0.2849 -0.3670
 3498SOL    HW122127   4.447   2.726  15.974 -0.7298  1.0767 -1.6983
 3498SOL    HW222128   4.574   2.804  16.010  0.3529 -0.9762  0.2436
 3499SOL     OW22129   4.022   0.043   8.488  0.6400  1.2202 -0.2120
 3499SOL    HW122130   4.088   0.090   8.539 -0.4196  0.9459  1.4163
 3499SOL    HW222131   3.964   0.114   8.461 -2.0985 -0.8759  0.1425
 3500SOL     OW22132   0.392   1.531   2.850 -0.0977 -0.2512 -0.7139
 3500SOL    HW122133   0.386   1.500   2.760  2.4800 -2.5056 -0.0825
 3500SOL    HW222134   0.394   1.446   2.893  0.1107 -0.9643 -2.1422
 3501SOL     OW22135   0.822   0.356   1.357  0.2050  0.2398 -0.1815
 3501SOL    HW122136   0.784   0.422   1.299 -1.4350 -0.1329  0.4767
 3501SOL    HW222137   0.823   0.287   1.290 -0.8005 -0.1523  0.2130
 3502SOL     OW22138   0.463   4.203   5.969  0.2365 -0.3693 -0.4462
 3502SOL    HW122139   0.490   4.260   6.041  0.3561  0.9728 -1.5520
 3502SOL    HW222140   0.552   4.206   5.935 -1.1034 -0.2131 -3.8712
 3503SOL     OW22141   1.696   4.007   7.547  0.1360  0.4671 -0.0186
 3503SOL    HW122142   1.639   4.032   7.474  0.0973  0.3142 -0.0428
 3503SOL    HW222143   1.781   4.024   7.506  0.2105 -0.1376 -0.1249
 3504SOL     OW22144   4.327   0.250   8.987  0.3707 -0.1700  0.2673
 3504SOL    HW122145   4.238   0.234   8.955  0.1431 -0.0218  0.8381
 3504SOL    HW222146   4.334   0.342   8.963  1.8102 -0.2671  0.3483
 3505SOL     OW22147   3.757   0.189   2.552 -0.2039 -0.3833  0.1184
 3505SOL    HW122148   3.725   0.206   2.640 -2.3563  1.0424 -0.9511
 3505SOL    HW222149   3.699   0.117   2.531 -1.4609  1.0212 -1.2597
 3506SOL     OW22150   1.846   1.942   5.774 -0.2287  0.6319 -0.4430
 3506SOL    HW122151   1.778   1.875   5.764 -1.4965  1.6542  1.3077
 3506SOL    HW222152   1.809   2.001   5.709  1.3387  0.7703 -1.2053
 3507SOL     OW22153   1.403   0.124   7.938 -0.3676  0.1541 -0.0395
 3507SOL    HW122154   1.377   0.211   7.968  1.6746  1.1133 -1.0664
 3507SOL    HW222155   1.449   0.085   8.013 -1.3715  0.2173  0.6159
 3508SOL     OW22156   2.175   2.076   3.816 -0.0204  0.6220  0.4884
 3508SOL    HW122157   2.134   2.001   3.774  0.0027  1.6182 -1.3339
 3508SOL    HW222158   2.198   2.126   3.737 -0.4893 -0.5438 -0.3905
 3509SOL     OW22159   1.842   4.514   2.167 -0.2691  0.8029  0.4190
 3509SOL    HW122160   1.884   4.566   2.099 -0.2215  1.8880  1.2652
 3509SOL    HW222161   1.806   4.586   2.219 -0.8208 -0.1044  1.2854
 3510SOL     OW22162   4.410   1.334  10.168  0.0592  0.4340  0.1155
 3510SOL    HW122163   4.433   1.388  10.243 -0.5435 -0.2943  0.8198
 3510SOL    HW222164   4.332   1.380  10.137 -1.2416 -2.1288 -0.4416
 3511SOL     OW22165   2.841   2.467   9.154  0.1252  0.1261  0.4252
 3511SOL    HW122166   2.917   2.496   9.103  1.2041  2.1191  3.1981
 3511SOL    HW222167   2.838   2.549   9.202  0.7793 -0.9330  2.2885
 3512SOL     OW22168   0.416   2.225   2.905  0.4836  0.0766  0.5668
 3512SOL    HW122169   0.436   2.254   2.816 -0.4780  1.8824  0.9382
 3512SOL    HW222170   0.477   2.274   2.960  0.8465 -0.9491  1.0714
 3513SOL     OW22171   4.735   1.689   7.082  0.3493 -0.2172  0.4574
 3513SOL    HW122172   0.072   1.694   7.140  0.5770 -1.6123  0.2923
 3513SOL    HW222173   4.677   1.752   7.124  0.2860 -1.0417  1.6270
 3514SOL     OW22174   2.572   1.270   4.461 -0.6737  0.4436 -0.4466
 3514SOL    HW122175   2.513   1.205   4.422  0.6955 -0.8013 -0.4903
 3514SOL    HW222176   2.510   1.334   4.495 -2.3148  0.1362 -2.8087
 3515SOL     OW22177   0.495   1.264   9.832  0.3382  0.0528  0.2879
 3515SOL    HW122178   0.414   1.241   9.788 -0.2532  0.7014  1.0494
 3515SOL    HW222179   0.474   1.231   9.919 -2.4307 -1.4745 -0.9548
 3516SOL     OW22180   0.340   0.511   8.003 -0.1295 -0.5181  0.4702
 3516SOL    HW122181   0.334   0.461   8.084  1.6667 -1.5178  0.0017
 3516SOL    HW222182   0.254   0.553   8.003  0.9621  1.7242  1.3115
 3517SOL     OW22183   0.327   3.248   8.551 -0.1483  0.1301 -0.8060
 3517SOL    HW122184   0.385   3.253   8.627  1.2123 -1.7056 -1.6993
 3517SOL    HW222185   0.275   3.327   8.560  1.1480  0.8320  0.5701
 3518SOL     OW22186   3.634   2.226   9.054  0.6324 -0.5259  0.4086
 3518SOL    HW122187   3.552   2.233   9.005  1.3286  2.0232 -0.3763
 3518SOL    HW222188   3.611   2.243   9.145  0.5874  0.9688  0.1034
 3519SOL     OW22189   2.849   2.714   6.018  0.1861  0.5974  0.4274
 3519SOL    HW122190   2.939   2.727   5.986  0.0086 -1.1615 -0.7406
 3519SOL    HW222191   2.873   2.687   6.107 -1.3884 -0.6885  0.4433
 3520SOL     OW22192   3.663   2.412   6.396 -0.1421  0.4079 -0.7820
 3520SOL    HW122193   3.676   2.454   6.481 -0.2964  1.1828 -1.1426
 3520SOL    HW222194   3.569   2.426   6.385 -0.2423  2.1227  2.4221
 3521SOL     OW22195   1.764   2.746   6.610  0.0250  0.2092 -0.4094
 3521SOL    HW122196   1.779   2.685   6.539 -1.6253 -0.4165 -0.2271
 3521SOL    HW222197   1.769   2.684   6.683  0.1052 -0.0808 -0.6627
 3522SOL     OW22198   3.611   1.742  11.949  0.3413 -0.0975  0.2992
 3522SOL    HW122199   3.682   1.772  12.005  1.3384 -0.1630 -0.9138
 3522SOL    HW222200   3.647   1.667  11.901  1.7419  0.6015  0.2430
 3523SOL     OW22201   2.370   0.422   3.439  0.0634  0.0804  0.5384
 3523SOL    HW122202   2.277   0.419   3.461 -0.5065  3.3320 -1.5307
 3523SOL    HW222203   2.385   0.515   3.451 -1.1524  0.2719  0.6253
 3524SOL     OW22204   2.421   4.613   4.004 -0.6579 -0.1134  0.3777
 3524SOL    HW122205   2.366   4.565   4.066  0.3005 -0.8872  0.6305
 3524SOL    HW222206   2.431   4.547   3.936  0.1873  1.1917 -0.7727
 3525SOL     OW22207   4.300   4.014   5.414 -0.2091 -0.0431 -0.2409
 3525SOL    HW122208   4.206   4.001   5.402 -0.2540  0.3346 -0.2941
 3525SOL    HW222209   4.333   3.936   5.370  0.3463 -1.5400  2.8118
 3526SOL     OW22210   0.854   3.238   7.296 -0.3024 -0.7779 -0.2112
 3526SOL    HW122211   0.774   3.201   7.256 -0.9253  1.6733 -1.2634
 3526SOL    HW222212   0.819   3.298   7.361  0.9428 -1.9688  1.5382
 3527SOL     OW22213   3.898   0.727   3.714  0.4153 -0.6211  1.0822
 3527SOL    HW122214   3.990   0.730   3.691  0.0786  1.4532 -0.0317
 3527SOL    HW222215   3.907   0.735   3.809 -2.1886  2.4955  1.0796
 3528SOL     OW22216   1.593   4.154  17.674 -0.3141  0.0645  0.3896
 3528SOL    HW122217   1.610   4.061  17.690 -0.1963 -0.0404 -0.3598
 3528SOL    HW222218   1.522   4.174  17.735  0.0558 -3.8810  2.1163
 3529SOL     OW22219   4.164   2.153   5.119  0.0175 -0.3786 -0.3186
 3529SOL    HW122220   4.230   2.135   5.186 -0.8833 -0.1185  0.6313
 3529SOL    HW222221   4.206   2.122   5.039  1.5607  0.0668  0.3075
 3530SOL     OW22222   1.644   0.059  17.542  0.4519 -0.3282  0.3258
 3530SOL    HW122223   1.663   0.024  17.455 -0.0884 -1.3677  0.6313
 3530SOL    HW222224   1.692   0.142  17.546  0.5272 -0.3269 -0.4616
 3531SOL     OW22225   0.467   0.076   0.825 -0.0167 -0.1574 -0.7686
 3531SOL    HW122226   0.410   0.123   0.764 -0.7925 -1.2581 -0.8922
 3531SOL    HW222227   0.417   4.733   0.818 -1.1802  0.5056 -0.2303
 3532SOL     OW22228   2.325   2.033   9.384  0.0619  0.5337  0.2548
 3532SOL    HW122229   2.275   1.952   9.376  0.1776  0.5320 -0.4871
 3532SOL    HW222230   2.293   2.079   9.306 -0.7376 -1.6455 -0.6956
 3533SOL     OW22231   2.480   2.881   6.326  0.0833 -0.6079 -0.0444
 3533SOL    HW122232   2.523   2.797   6.310  1.7821  0.0100  1.1987
 3533SOL    HW222233   2.551   2.933   6.288  1.5029 -1.8853  0.8640
 3534SOL     OW22234   2.117   3.345   2.502  0.3940  0.4930  0.2933
 3534SOL    HW122235   2.138   3.405   2.431  2.2012  2.9317  2.8755
 3534SOL    HW222236   2.100   3.266   2.451  1.8875  2.4830 -3.2399
 3535SOL     OW22237   4.476   1.201   5.347  0.2644  0.1364 -0.6172
 3535SOL    HW122238   4.463   1.294   5.327  0.3769  0.6236  1.5971
 3535SOL    HW222239   4.506   1.176   5.260  0.0485  0.6110 -0.8257
 3536SOL     OW22240   1.145   1.850   5.907  0.0187  0.5154  0.4931
 3536SOL    HW122241   1.094   1.928   5.885 -1.2135 -0.3197  0.3716
 3536SOL    HW222242   1.220   1.890   5.951 -0.4966  2.8940 -0.8141
 3537SOL     OW22243   1.562   0.458   3.849  0.7078 -0.0915  0.1756
 3537SOL    HW122244   1.591   0.536   3.897  0.6625  0.3500 -0.5159
 3537SOL    HW222245   1.494   0.431   3.910 -1.9913  1.2937 -2.2231
 3538SOL     OW22246   3.125   2.079   7.308  0.5309 -0.2321 -0.4292
 3538SOL    HW122247   3.094   1.993   7.336 -0.8036  1.2593  2.6430
 3538SOL    HW222248   3.042   2.121   7.283  0.9314 -0.8524 -2.8312
 3539SOL     OW22249   4.071   4.454   9.170  0.4340 -0.6196  1.3059
 3539SOL    HW122250   4.006   4.524   9.167 -1.9501 -3.0158 -3.0384
 3539SOL    HW222251   4.052   4.410   9.253  1.7953 -2.2921  0.7304
 3540SOL     OW22252   2.466   1.953   6.177 -0.5641  0.3750  0.4419
 3540SOL    HW122253   2.372   1.966   6.162 -1.0928 -0.9016  2.7441
 3540SOL    HW222254   2.477   1.859   6.170  1.0746  0.5468  0.8243
 3541SOL     OW22255   4.606   0.087   1.229 -0.2287  0.4150 -0.7725
 3541SOL    HW122256   4.657   0.153   1.182  1.9788 -0.3290  0.5689
 3541SOL    HW222257   4.520   0.080   1.188 -1.4550 -0.6852  1.9744
 3542SOL     OW22258   3.596   1.968   3.899 -0.2539  0.2702  0.8912
 3542SOL    HW122259   3.502   1.975   3.915 -0.1690 -0.0078  1.5186
 3542SOL    HW222260   3.638   2.041   3.946 -0.7903  1.5449 -0.6161
 3543SOL     OW22261   4.114   1.947   9.374  0.7544  0.6689 -0.3829
 3543SOL    HW122262   4.085   2.034   9.399  0.5169  0.8592 -1.3121
 3543SOL    HW222263   4.209   1.948   9.384  0.8192 -2.5304 -0.5761
 3544SOL     OW22264   4.119   3.765   3.540  0.6744 -0.0352 -0.1396
 3544SOL    HW122265   4.145   3.704   3.471  1.4654 -0.8655  0.8851
 3544SOL    HW222266   4.170   3.721   3.608  1.0510  1.0472  0.2687
 3545SOL     OW22267   1.114   2.237   6.136 -0.4358  0.1381 -0.4602
 3545SOL    HW122268   1.185   2.292   6.168  3.0234 -3.0370 -2.7631
 3545SOL    HW222269   1.059   2.307   6.101 -0.2696  0.8719  0.7638
 3546SOL     OW22270   1.593   3.934   6.160  0.3514  0.0239  0.2363
 3546SOL    HW122271   1.634   3.903   6.079 -0.9504 -2.1961  0.4191
 3546SOL    HW222272   1.635   4.020   6.163 -1.2860  0.7589  1.9702
 3547SOL     OW22273   4.646   4.532  13.608 -0.2431  0.0690  1.0053
 3547SOL    HW122274   4.656   4.552  13.515  0.4106 -1.5059  0.7319
 3547SOL    HW222275   4.661   4.438  13.610  3.7631  0.6803 -0.2827
 3548SOL     OW22276   3.375   1.407  13.074  0.0150 -0.6085  0.7258
 3548SOL    HW122277   3.316   1.481  13.057  0.7970 -0.1202  0.1437
 3548SOL    HW222278   3.433   1.439  13.143  1.8337 -1.4048 -0.4594
 3549SOL     OW22279   2.284   1.083   5.792  0.2503  0.5369 -0.0315
 3549SOL    HW122280   2.190   1.076   5.774 -0.2396  1.9352  1.9304
 3549SOL    HW222281   2.299   1.014   5.857 -0.9635 -0.3896 -0.7141
 3550SOL     OW22282   3.646   0.517  15.490 -0.2348 -0.6499 -0.2432
 3550SOL    HW122283   3.685   0.444  15.537  0.9063 -0.4006 -0.8018
 3550SOL    HW222284   3.569   0.542  15.541  1.0524  3.2434 -0.2479
 3551SOL     OW22285   0.523   3.123  10.526  0.3093 -0.2276  0.1251
 3551SOL    HW122286   0.479   3.103  10.444  0.5599  3.7364 -0.9775
 3551SOL    HW222287   0.497   3.055  10.588  0.7523 -0.8160 -0.3398
 3552SOL     OW22288   1.690   3.714   2.908  0.5209 -0.0023  0.1808
 3552SOL    HW122289   1.696   3.694   2.815  1.3173 -0.1559  0.2620
 3552SOL    HW222290   1.699   3.631   2.956 -0.1451 -0.4007 -0.3910
 3553SOL     OW22291   1.528   4.346   7.335  0.0765 -0.1624  0.8017
 3553SOL    HW122292   1.579   4.386   7.406 -1.9148  1.2604  1.4488
 3553SOL    HW222293   1.453   4.298   7.369 -1.1396  1.3458  0.3039
 3554SOL     OW22294   0.200   0.874   5.727 -0.1761 -0.1540 -0.0414
 3554SOL    HW122295   0.208   0.901   5.818  0.5985  1.1796 -0.5012
 3554SOL    HW222296   0.290   0.892   5.700  0.0456 -1.0093  0.1284
 3555SOL     OW22297   1.258   2.693   8.022  0.5399  0.9446  0.0322
 3555SOL    HW122298   1.176   2.714   8.067 -0.2425 -2.6517  0.2694
 3555SOL    HW222299   1.233   2.680   7.930 -0.3682  1.2051  0.2471
 3556SOL     OW22300   4.198   3.069  11.546 -0.1064  0.3486 -0.2640
 3556SOL    HW122301   4.184   3.023  11.628  0.8241 -0.0713 -0.3403
 3556SOL    HW222302   4.121   3.125  11.560  0.6359  1.0017  1.1566
 3557SOL     OW22303   0.630   2.766   6.304  0.0703 -0.5365  0.2222
 3557SOL    HW122304   0.719   2.733   6.313  1.2364  2.6297  0.3140
 3557SOL    HW222305   0.598   2.712   6.232 -1.2212  2.0466 -1.1628
 3558SOL     OW22306   2.453   1.657   8.049  1.0502  0.2681 -0.7564
 3558SOL    HW122307   2.394   1.583   8.034 -0.6314  1.4611 -0.1343
 3558SOL    HW222308   2.410   1.728   8.000 -0.8743 -0.0878  0.4022
 3559SOL     OW22309   3.683   3.329   3.601  0.3015 -0.4973  0.6133
 3559SOL    HW122310   3.615   3.295   3.543 -0.2362 -1.1764  1.6417
 3559SOL    HW222311   3.711   3.405   3.550  0.6592  0.9278  2.9237
 3560SOL     OW22312   3.338   1.275   4.438  0.1734  0.0298  0.4800
 3560SOL    HW122313   3.258   1.223   4.443  1.6716 -1.8436  4.5874
 3560SOL    HW222314   3.302   1.360   4.411  0.1339  0.3490  1.4931
 3561SOL     OW22315   2.173   1.926   5.558  0.3244  0.4882 -0.0984
 3561SOL    HW122316   2.262   1.952   5.535  0.6083 -0.8966 -0.5486
 3561SOL    HW222317   2.120   1.969   5.491 -1.9233 -1.2060  0.5944
 3562SOL     OW22318   2.850   1.224   6.058  0.1940  0.0569 -0.3846
 3562SOL    HW122319   2.769   1.274   6.073 -0.1428 -0.6627  0.1736
 3562SOL    HW222320   2.932   1.266   6.083 -2.1294  2.9314  2.4275
 3563SOL     OW22321   3.368   1.210   5.486  0.8453 -0.4434  0.3723
 3563SOL    HW122322   3.275   1.190   5.473  0.0670  1.8043  2.3572
 3563SOL    HW222323   3.388   1.273   5.417 -1.5035 -0.9788 -0.8070
 3564SOL     OW22324   2.846   2.672   5.748  0.0708 -0.1386  0.3223
 3564SOL    HW122325   2.830   2.660   5.841 -0.7610 -0.9816  0.0775
 3564SOL    HW222326   2.842   2.767   5.739 -1.3374  0.0254  2.8511
 3565SOL     OW22327   1.179   1.797   2.491  0.0712  0.7358 -0.1662
 3565SOL    HW122328   1.218   1.870   2.444  0.7805 -1.4361 -3.0027
 3565SOL    HW222329   1.190   1.727   2.426  0.8970  0.1977  0.5600
 3566SOL     OW22330   0.971   4.273   5.880 -0.2070  0.0654 -0.1323
 3566SOL    HW122331   0.987   4.355   5.926  0.2386 -0.1485  0.0965
 3566SOL    HW222332   1.053   4.227   5.898 -0.9625 -0.4347  1.9864
 3567SOL     OW22333   3.853   3.638  10.159 -0.0818 -0.2310  1.1445
 3567SOL    HW122334   3.813   3.685  10.086  2.0449  0.3104  0.3085
 3567SOL    HW222335   3.864   3.709  10.222  0.1797  1.5962 -0.9513
 3568SOL     OW22336   2.718   2.066   2.701 -0.4400 -0.3050  0.6548
 3568SOL    HW122337   2.693   2.107   2.784  0.3055 -2.5013  1.9469
 3568SOL    HW222338   2.760   2.143   2.662  0.2167 -1.5752 -1.1532
 3569SOL     OW22339   1.425   1.431   9.018  0.1037 -0.1827  0.0393
 3569SOL    HW122340   1.517   1.432   8.991  0.4142  0.5417  1.1054
 3569SOL    HW222341   1.421   1.485   9.097 -1.5694 -2.9579  1.8278
 3570SOL     OW22342   3.088   1.919   6.370 -0.8886  0.3978 -0.0361
 3570SOL    HW122343   3.003   1.876   6.380 -0.5143 -0.3339 -0.0719
 3570SOL    HW222344   3.082   2.001   6.420 -1.3358  0.2624  0.1372
 3571SOL     OW22345   1.884   1.555   9.170 -0.2619  0.4067  0.0569
 3571SOL    HW122346   1.942   1.624   9.137  1.9508 -1.8570 -0.7783
 3571SOL    HW222347   1.946   1.483   9.168  0.3144  0.9376 -1.3896
 3572SOL     OW22348   3.214   1.375  15.302  0.1602 -0.2972 -0.0334
 3572SOL    HW122349   3.154   1.312  15.262 -1.1509 -0.2024  1.7708
 3572SOL    HW222350   3.299   1.337  15.280 -0.2377 -0.2049 -1.7361
 3573SOL     OW22351   3.281   2.691   7.061  0.0083 -0.4307 -0.1647
 3573SOL    HW122352   3.308   2.717   7.150  2.0369 -1.3066 -0.5208
 3573SOL    HW222353   3.310   2.601   7.046  1.0043 -0.0898 -0.2833
 3574SOL     OW22354   3.100   0.530  10.157 -0.2849  0.1623  0.1525
 3574SOL    HW122355   3.096   0.450  10.209 -0.3366 -1.0226 -1.6829
 3574SOL    HW222356   3.053   0.505  10.077  1.1156 -0.4541 -0.4704
 3575SOL     OW22357   3.290   3.170   8.772 -0.4760  0.3407 -0.0593
 3575SOL    HW122358   3.315   3.078   8.779 -1.1276  0.2625  1.2539
 3575SOL    HW222359   3.258   3.175   8.681 -1.8319 -1.0418  0.3383
 3576SOL     OW22360   2.240   4.266   6.774  0.3618  0.6231  0.5394
 3576SOL    HW122361   2.180   4.294   6.704  0.1043  1.3872  1.0712
 3576SOL    HW222362   2.183   4.272   6.850 -0.8872 -1.3572 -0.2225
 3577SOL     OW22363   3.327   0.939   0.354 -0.2752 -0.2081  0.1253
 3577SOL    HW122364   3.333   0.991   0.274 -0.0154 -1.7163 -0.8440
 3577SOL    HW222365   3.343   0.856   0.309 -1.9750 -0.2380 -0.4479
 3578SOL     OW22366   1.081   3.207   9.918  0.1714 -0.2943  1.0204
 3578SOL    HW122367   1.168   3.179   9.891  0.1874 -1.1848  1.9737
 3578SOL    HW222368   1.067   3.131   9.975  0.3803  0.1776  1.7141
 3579SOL     OW22369   2.583   3.318   4.300 -0.4394 -0.4031 -0.2532
 3579SOL    HW122370   2.498   3.360   4.309 -0.4693 -0.5332  0.0441
 3579SOL    HW222371   2.591   3.318   4.204 -0.7753 -1.9110 -0.2894
 3580SOL     OW22372   4.197   2.988   6.998  0.3782 -0.3774 -0.3240
 3580SOL    HW122373   4.153   3.059   7.044  0.0460 -1.6752  1.3448
 3580SOL    HW222374   4.278   2.979   7.049  0.5384  2.1241 -0.1643
 3581SOL     OW22375   1.241   4.479   4.241  0.3298  0.0211 -0.0154
 3581SOL    HW122376   1.274   4.390   4.254 -1.2334 -0.6503 -0.5602
 3581SOL    HW222377   1.310   4.509   4.183  0.0485 -1.9533 -1.3696
 3582SOL     OW22378   3.009   4.074  11.695 -0.2553  0.4341  0.2735
 3582SOL    HW122379   3.024   4.123  11.777 -0.1659  0.1227  0.4426
 3582SOL    HW222380   2.960   4.139  11.643  1.0514 -0.7314 -2.3717
 3583SOL     OW22381   3.520   0.002   0.499  0.3566  0.4656  0.1564
 3583SOL    HW122382   3.591   0.033   0.556  2.1194  0.7677 -2.1577
 3583SOL    HW222383   3.553   0.043   0.419 -0.7542  2.3552  0.6716
 3584SOL     OW22384   4.555   1.787  11.760  0.3648  0.0178 -0.2854
 3584SOL    HW122385   4.540   1.881  11.752 -1.3455 -0.3279 -1.0720
 3584SOL    HW222386   4.650   1.801  11.767  0.3453 -1.2945  2.7781
 3585SOL     OW22387   3.010   4.727   1.822 -0.0402 -0.2311  0.1519
 3585SOL    HW122388   3.064   4.700   1.748 -2.0606 -2.4399 -0.5028
 3585SOL    HW222389   2.941   4.661   1.811 -2.2993  2.5205 -2.1629
 3586SOL     OW22390   3.066   1.557  15.149  0.1856  0.2699  0.4018
 3586SOL    HW122391   3.112   1.547  15.066  0.0838 -0.5818  0.4474
 3586SOL    HW222392   3.111   1.499  15.211 -1.3971  0.6214  1.8926
 3587SOL     OW22393   2.740   4.720  12.269 -0.4556 -0.4757 -0.4466
 3587SOL    HW122394   2.802   4.698  12.199 -0.4890 -2.9180  0.3014
 3587SOL    HW222395   2.721   0.072  12.245 -0.5196 -0.7309 -1.3759
 3588SOL     OW22396   3.788   2.001  16.646 -0.5904  0.0573 -0.2576
 3588SOL    HW122397   3.841   1.964  16.716  0.0024 -0.6592 -1.0955
 3588SOL    HW222398   3.843   2.078  16.627  1.3128 -1.4467 -0.8525
 3589SOL     OW22399   3.408   3.497   9.248 -0.2242  0.7438 -0.6372
 3589SOL    HW122400   3.358   3.484   9.329 -1.5258 -1.6666 -1.8387
 3589SOL    HW222401   3.351   3.462   9.180  1.3724 -1.4009 -0.9021
 3590SOL     OW22402   1.953   3.835  14.661 -0.1993  0.2126 -0.1872
 3590SOL    HW122403   1.866   3.834  14.621  0.1399 -1.2506 -0.8785
 3590SOL    HW222404   1.995   3.755  14.630 -1.1593 -0.9053  1.3745
 3591SOL     OW22405   4.579   3.511  11.752 -0.2552  0.5165 -0.3310
 3591SOL    HW122406   4.667   3.547  11.762 -0.0287  0.4262 -1.9532
 3591SOL    HW222407   4.523   3.558  11.814 -0.5814 -0.1985 -0.0819
 3592SOL     OW22408   0.781   2.354   7.218 -0.4391 -0.3783  0.1735
 3592SOL    HW122409   0.713   2.364   7.285 -0.3471 -0.3928  0.2682
 3592SOL    HW222410   0.744   2.276   7.175 -2.6908  1.1234 -0.6278
 3593SOL     OW22411   2.655   4.251   4.324 -0.3382 -0.2445 -0.0410
 3593SOL    HW122412   2.737   4.279   4.363 -0.4859  0.5310 -0.2832
 3593SOL    HW222413   2.644   4.164   4.363  0.5436 -0.9920 -1.4729
 3594SOL     OW22414   4.009   0.133   6.935  0.7180 -0.0848 -0.3351
 3594SOL    HW122415   4.098   0.099   6.943  0.6535 -0.3973 -0.9211
 3594SOL    HW222416   4.009   0.204   6.998  0.8081  1.5303 -2.1576
 3595SOL     OW22417   3.701   4.718  12.860  0.0434 -0.3091 -0.5881
 3595SOL    HW122418   3.714   4.687  12.771 -1.9982 -1.2726 -0.5447
 3595SOL    HW222419   3.617   4.680  12.887  0.2044 -0.4891 -0.3375
 3596SOL     OW22420   4.219   1.350   5.129 -0.4896  0.1042  0.2942
 3596SOL    HW122421   4.264   1.287   5.072 -0.2280  0.2724  0.3182
 3596SOL    HW222422   4.135   1.352   5.083 -0.4128 -2.2760  0.0163
 3597SOL     OW22423   1.115   3.506   7.964  0.4427 -0.2337  0.1722
 3597SOL    HW122424   1.090   3.599   7.964  0.9695 -0.0938 -0.8303
 3597SOL    HW222425   1.170   3.494   8.041 -1.7227 -1.9364  1.4420
 3598SOL     OW22426   3.899   1.703   7.645 -0.0258 -0.6279  0.7579
 3598SOL    HW122427   3.843   1.641   7.692  0.1533  0.0049  1.8146
 3598SOL    HW222428   3.929   1.644   7.575  3.1554  1.7324  0.1310
 3599SOL     OW22429   4.117   2.035   8.202  0.2752 -0.2766 -0.3581
 3599SOL    HW122430   4.075   2.083   8.273  0.5327  1.5865 -1.4760
 3599SOL    HW222431   4.080   2.084   8.129  0.4705  0.2160 -0.1243
 3600SOL     OW22432   1.607   3.429  12.079  0.3839  0.2762 -0.1994
 3600SOL    HW122433   1.626   3.448  12.171  1.9673  0.1657 -0.4993
 3600SOL    HW222434   1.512   3.442  12.077  0.5054  1.2328  0.1769
 3601SOL     OW22435   4.045   2.802  15.429 -0.4143  0.0005  0.0515
 3601SOL    HW122436   4.004   2.812  15.343  1.0461  1.5617 -0.4705
 3601SOL    HW222437   4.122   2.747  15.411  0.8141  1.2875  1.3223
 3602SOL     OW22438   1.618   2.736   7.304 -0.0087 -0.2683  0.1493
 3602SOL    HW122439   1.609   2.828   7.280 -0.6761 -0.1952  0.6642
 3602SOL    HW222440   1.685   2.756   7.368  1.5255 -1.6532 -1.0340
 3603SOL     OW22441   0.274   4.671  12.000  0.2297 -0.1667 -0.1734
 3603SOL    HW122442   0.325   4.719  12.065  3.2146 -2.0171 -1.1576
 3603SOL    HW222443   0.257   4.592  12.052  3.3293 -1.9966 -1.9194
 3604SOL     OW22444   1.311   0.628   7.484  0.0106 -0.0050  0.1492
 3604SOL    HW122445   1.255   0.629   7.406 -0.6980  1.9966  0.6849
 3604SOL    HW222446   1.281   0.550   7.529  0.0479 -0.3712 -0.4552
 3605SOL     OW22447   3.925   2.988   8.140  0.0067  0.9480  0.2517
 3605SOL    HW122448   3.937   3.082   8.125  1.4596  0.9989  1.7033
 3605SOL    HW222449   3.883   2.980   8.225  2.5745 -2.4842  1.2072
 3606SOL     OW22450   1.053   4.340  10.170 -0.1348  0.0897 -0.1647
 3606SOL    HW122451   0.985   4.407  10.161  0.9522  1.1702 -0.3968
 3606SOL    HW222452   1.006   4.262  10.141 -2.5827  1.7336 -0.6325
 3607SOL     OW22453   2.552   1.326  17.640  0.2872 -0.3226  0.0473
 3607SOL    HW122454   2.648   1.331  17.638  0.3517 -1.0606  1.0835
 3607SOL    HW222455   2.527   1.350  17.730  0.7811 -0.5061  0.2307
 3608SOL     OW22456   1.350   0.106   4.149  0.5360 -0.6267 -0.3984
 3608SOL    HW122457   1.335   0.012   4.143 -1.9275 -0.2374 -0.1965
 3608SOL    HW222458   1.402   0.109   4.229 -1.4297  0.3838  0.8536
 3609SOL     OW22459   3.348   4.002  10.847  0.7181 -0.2843 -0.2603
 3609SOL    HW122460   3.420   4.012  10.784  0.9383  1.4344  0.2781
 3609SOL    HW222461   3.382   3.930  10.901  0.3988 -1.2294 -1.3270
 3610SOL     OW22462   4.106   0.884   4.130 -0.5584  0.3188 -0.2419
 3610SOL    HW122463   4.073   0.862   4.217 -1.1925 -1.2262 -0.8714
 3610SOL    HW222464   4.201   0.876   4.143  0.0178  1.9688 -3.3066
 3611SOL     OW22465   2.135   2.486   8.347  0.2354 -0.1058  1.0395
 3611SOL    HW122466   2.138   2.561   8.407 -3.8525 -1.0631  2.4053
 3611SOL    HW222467   2.102   2.427   8.415 -2.0254 -0.8380 -0.7390
 3612SOL     OW22468   3.386   3.958   8.045 -0.4826 -0.3077 -0.5718
 3612SOL    HW122469   3.312   4.005   8.082 -0.4075 -1.6516  1.3245
 3612SOL    HW222470   3.350   3.898   7.980 -0.5160 -0.8968 -0.0178
 3613SOL     OW22471   2.541   0.520   6.988  0.1213 -0.9887  0.0838
 3613SOL    HW122472   2.508   0.457   6.925 -2.7616  1.2431 -0.6221
 3613SOL    HW222473   2.590   0.455   7.038 -1.1759 -1.8002  0.3116
 3614SOL     OW22474   4.167   2.448   0.737 -0.3855  0.4269  0.4285
 3614SOL    HW122475   4.073   2.445   0.720 -0.7532  0.8694  2.3584
 3614SOL    HW222476   4.173   2.498   0.819 -1.6416  1.2519  0.0243
 3615SOL     OW22477   0.233   0.890   2.443  0.2544 -0.6195 -0.4188
 3615SOL    HW122478   0.192   0.970   2.474  0.9134 -0.6084  0.4407
 3615SOL    HW222479   0.250   0.905   2.350  0.0793  0.6487 -0.2414
 3616SOL     OW22480   0.453   2.803  12.333 -0.5532 -0.2935 -0.0587
 3616SOL    HW122481   0.416   2.720  12.303 -2.3175  0.0461  1.1620
 3616SOL    HW222482   0.372   2.847  12.358  0.0586  0.0803  1.2796
 3617SOL     OW22483   0.004   2.698  14.978 -0.7151 -0.0611  0.2590
 3617SOL    HW122484   0.073   2.759  14.954  0.1690 -0.6964  1.1939
 3617SOL    HW222485   4.663   2.751  14.967 -0.6334  0.0539  0.2372
 3618SOL     OW22486   2.371   0.839   5.262 -0.3814 -0.4729  0.1918
 3618SOL    HW122487   2.339   0.879   5.342 -0.3046 -2.0468  1.0135
 3618SOL    HW222488   2.398   0.749   5.283  0.2950 -0.9531 -2.6567
 3619SOL     OW22489   1.131   2.464   6.444  0.2355 -0.1501  0.2805
 3619SOL    HW122490   1.172   2.471   6.357 -1.1431  1.2864 -0.2472
 3619SOL    HW222491   1.165   2.380   6.475  1.3093  0.9306  1.9979
 3620SOL     OW22492   4.335   4.125  17.441 -0.3127 -0.1022 -0.5529
 3620SOL    HW122493   4.258   4.152  17.490  0.7217 -0.3777  1.2357
 3620SOL    HW222494   4.362   4.039  17.474 -1.7285 -0.5647 -0.5887
 3621SOL     OW22495   0.151   3.590   4.115 -0.2071  0.1714 -0.5961
 3621SOL    HW122496   0.229   3.629   4.153 -0.2457 -1.0234  0.7067
 3621SOL    HW222497   0.188   3.553   4.035 -1.5455 -0.7592 -0.7853
 3622SOL     OW22498   2.371   0.757   6.551 -0.8046 -0.3053  0.7758
 3622SOL    HW122499   2.404   0.701   6.480 -0.4200  1.6380 -0.5901
 3622SOL    HW222500   2.451   0.765   6.602 -0.7601  0.4580  0.6000
 3623SOL     OW22501   2.089   4.548   8.592 -0.2126  0.5034 -0.5167
 3623SOL    HW122502   2.115   4.567   8.502 -3.0984  0.3207 -1.4008
 3623SOL    HW222503   2.085   4.453   8.592 -0.0752  0.4925  1.0723
 3624SOL     OW22504   0.967   3.589   8.204  0.0960 -0.7274 -0.1490
 3624SOL    HW122505   1.043   3.559   8.254  1.0208  1.2975 -0.3488
 3624SOL    HW222506   0.922   3.505   8.203  0.2224 -0.8107  1.3249
 3625SOL     OW22507   4.553   2.184   8.235 -0.6413  0.2232  0.1126
 3625SOL    HW122508   4.581   2.245   8.303 -2.2574  1.8200 -0.6565
 3625SOL    HW222509   4.478   2.146   8.281 -0.5920  0.8441  0.7061
 3626SOL     OW22510   1.844   0.139   7.044 -0.6944  0.2170 -0.2199
 3626SOL    HW122511   1.892   0.217   7.071 -0.3009 -0.4891  1.0663
 3626SOL    HW222512   1.778   0.168   6.980 -0.5532 -0.5374 -0.7072
 3627SOL     OW22513   0.389   0.191   0.523  0.3794  0.2246  0.3625
 3627SOL    HW122514   0.367   0.281   0.498  0.8122  0.5986  1.3079
 3627SOL    HW222515   0.461   0.160   0.469  0.4746  1.7993 -0.4202
 3628SOL     OW22516   1.216   2.525  17.027 -0.0321  0.1313  0.0098
 3628SOL    HW122517   1.306   2.506  17.055 -1.2694 -0.9447  3.2517
 3628SOL    HW222518   1.233   2.587  16.956 -0.5976 -1.5594 -1.6205
 3629SOL     OW22519   2.638   2.512   4.260 -0.3072  0.0569 -0.2389
 3629SOL    HW122520   2.627   2.552   4.346 -0.3666  0.0459 -0.2415
 3629SOL    HW222521   2.726   2.548   4.244 -0.0644  0.3473  1.7826
 3630SOL     OW22522   0.497   4.642   1.035  0.2300 -0.5060 -0.7027
 3630SOL    HW122523   0.437   4.689   1.093 -1.5152 -0.8565 -2.2159
 3630SOL    HW222524   0.504   4.701   0.961 -1.0374  0.8088  0.2309
 3631SOL     OW22525   2.340   1.275  11.191 -0.4009 -0.0986  0.3419
 3631SOL    HW122526   2.421   1.280  11.140 -0.2378 -0.1013  0.6002
 3631SOL    HW222527   2.368   1.195  11.235 -2.9206 -1.3895 -0.3859
 3632SOL     OW22528   3.417   0.273   6.292  0.0122  0.4715 -0.1445
 3632SOL    HW122529   3.469   0.275   6.211  2.6807  3.4739  1.6464
 3632SOL    HW222530   3.428   0.182   6.322  1.2849 -0.0272 -2.0875
 3633SOL     OW22531   4.689   4.611  13.360 -0.2549 -0.2170 -0.0896
 3633SOL    HW122532   4.671   4.670  13.287  0.9641 -0.0604 -0.2675
 3633SOL    HW222533   0.038   4.642  13.386 -0.5127  0.2122  0.2874
 3634SOL     OW22534   3.093   1.383  12.047 -0.7243  0.0804 -0.2434
 3634SOL    HW122535   3.155   1.390  11.975 -1.8841 -0.8480 -1.3326
 3634SOL    HW222536   3.069   1.475  12.058  1.8446  0.7932 -0.7358
 3635SOL     OW22537   0.843   1.074   5.053 -0.5411  0.1630 -0.0652
 3635SOL    HW122538   0.901   1.019   5.106 -2.9904 -0.4474  1.9717
 3635SOL    HW222539   0.900   1.096   4.980 -0.6459 -0.9029 -0.4757
 3636SOL     OW22540   0.478   2.874  10.660  0.2989  0.8362  0.2046
 3636SOL    HW122541   0.414   2.814  10.698 -0.2035  1.2556  0.0222
 3636SOL    HW222542   0.560   2.865  10.709 -1.0443  0.5626  2.4122
 3637SOL     OW22543   1.813   3.534   0.329 -0.5318  0.1230  0.0818
 3637SOL    HW122544   1.830   3.530   0.235 -0.6640  1.6836 -0.0094
 3637SOL    HW222545   1.773   3.448   0.344  2.6235 -1.0205  2.0165
 3638SOL     OW22546   4.596   4.723   5.236 -0.0649 -0.2588 -0.4845
 3638SOL    HW122547   4.633   0.023   5.315 -0.0557 -0.3999 -0.4209
 3638SOL    HW222548   4.529   4.676   5.286 -0.4425 -0.2585 -0.9883
 3639SOL     OW22549   0.003   1.410   5.480  0.2933  0.4687  0.5113
 3639SOL    HW122550   0.070   1.477   5.470  0.0150  0.5839 -0.6415
 3639SOL    HW222551   4.696   1.444   5.557  0.9977 -1.6000  1.8400
 3640SOL     OW22552   0.799   4.546  17.404  0.0998  0.5813 -0.1667
 3640SOL    HW122553   0.837   4.615  17.459  1.5562 -0.0977 -0.3005
 3640SOL    HW222554   0.856   4.558  17.328  1.6513  0.3772  0.9541
 3641SOL     OW22555   4.518   3.276   6.207 -0.5858 -0.1267  0.5221
 3641SOL    HW122556   4.430   3.311   6.223  0.5305  1.8011  2.4244
 3641SOL    HW222557   4.578   3.321   6.266  0.3632 -1.4802  0.6017
 3642SOL     OW22558   2.720   2.501   8.451  0.4105 -0.2914 -0.6418
 3642SOL    HW122559   2.667   2.423   8.434  0.4756 -0.6895  1.0203
 3642SOL    HW222560   2.761   2.483   8.535 -1.7244 -0.9878  0.2354
 3643SOL     OW22561   4.254   4.585  10.573 -0.0178  0.6548 -0.1259
 3643SOL    HW122562   4.254   4.518  10.641 -0.9041  0.5930 -0.1841
 3643SOL    HW222563   4.235   4.662  10.628  0.1287  0.3133  0.4047
 3644SOL     OW22564   3.236   1.539   4.388 -0.1839  0.4034 -0.3697
 3644SOL    HW122565   3.278   1.553   4.303 -2.3597  2.8920 -1.0444
 3644SOL    HW222566   3.150   1.578   4.370 -0.8875 -1.6386 -1.4403
 3645SOL     OW22567   0.173   4.301   4.697  0.3067  0.5295 -0.3956
 3645SOL    HW122568   0.197   4.260   4.780 -0.4341 -1.0744 -0.9826
 3645SOL    HW222569   0.186   4.395   4.709  0.7496  0.6353 -1.7475
 3646SOL     OW22570   0.612   1.611  13.527  0.2683  0.3034 -0.2295
 3646SOL    HW122571   0.545   1.582  13.589  1.6350 -0.5650  0.8142
 3646SOL    HW222572   0.585   1.597  13.436  0.0538 -1.3389  0.0799
 3647SOL     OW22573   0.749   3.775   8.140  0.0328  0.1289  0.6965
 3647SOL    HW122574   0.813   3.706   8.124  2.2237  2.1588  0.6442
 3647SOL    HW222575   0.730   3.761   8.233 -0.9640 -0.3762  0.4123
 3648SOL     OW22576   3.817   1.653   6.236  0.3411 -0.5000 -0.6631
 3648SOL    HW122577   3.812   1.691   6.324  1.9185 -0.4316 -0.5921
 3648SOL    HW222578   3.861   1.572   6.264  2.9715  1.3823  0.6611
 3649SOL     OW22579   1.528   3.242  13.617  0.5455 -0.1959 -0.4561
 3649SOL    HW122580   1.539   3.148  13.598  1.6688 -0.0416 -0.5983
 3649SOL    HW222581   1.615   3.268  13.587 -0.0377  0.8348 -1.2181
 3650SOL     OW22582   1.008   3.698   6.036  0.0657 -0.2683 -0.2880
 3650SOL    HW122583   0.928   3.702   6.089  0.2727  1.4761 -0.0824
 3650SOL    HW222584   0.968   3.705   5.949  2.8391  2.2216 -1.3486
 3651SOL     OW22585   3.674   3.615   8.148  0.3168 -0.1776 -0.4816
 3651SOL    HW122586   3.726   3.615   8.228  0.2658  0.3725 -0.4451
 3651SOL    HW222587   3.587   3.646   8.176  0.3191 -1.8334  1.3624
 3652SOL     OW22588   0.979   0.118   7.673 -0.0641  0.2296 -0.3032
 3652SOL    HW122589   1.036   0.150   7.743 -1.2925  1.0225  0.3320
 3652SOL    HW222590   1.046   0.105   7.606  0.8038 -4.0614  1.4085
 3653SOL     OW22591   1.370   0.157  14.885 -0.6402 -0.4678  0.1716
 3653SOL    HW122592   1.317   0.098  14.938 -3.5799  0.8736 -1.2743
 3653SOL    HW222593   1.407   0.095  14.821 -0.8442 -1.2536  0.8200
 3654SOL     OW22594   1.797   3.140   6.033  0.1164  0.2321 -0.0166
 3654SOL    HW122595   1.864   3.207   6.022 -0.0721  0.4910  0.4101
 3654SOL    HW222596   1.782   3.119   5.941  1.9426  0.2230 -0.3125
 3655SOL     OW22597   3.514   4.083   1.470 -0.5086 -0.2318  0.0114
 3655SOL    HW122598   3.434   4.135   1.461  0.7323  1.4568 -1.3871
 3655SOL    HW222599   3.487   3.993   1.450  0.5818 -0.7205  0.7401
 3656SOL     OW22600   1.083   4.052   0.414  0.0452 -0.8566 -0.7198
 3656SOL    HW122601   1.036   4.032   0.494  0.0362 -1.5995 -0.9043
 3656SOL    HW222602   1.173   4.044   0.446  0.8785  0.0231 -2.7862
 3657SOL     OW22603   0.963   3.890   6.289 -0.0458  0.2751 -0.2010
 3657SOL    HW122604   0.966   3.949   6.365  2.7483  0.9849 -0.8462
 3657SOL    HW222605   0.983   3.810   6.338 -0.6528  0.4583  0.3381
 3658SOL     OW22606   3.833   3.071   1.938  0.1264 -0.0702  0.1742
 3658SOL    HW122607   3.924   3.061   1.965  0.2375 -1.3372 -0.7159
 3658SOL    HW222608   3.842   3.093   1.845  0.3564 -2.4802 -0.3746
 3659SOL     OW22609   0.520   3.575   3.406  0.5294  0.3271  0.4336
 3659SOL    HW122610   0.580   3.591   3.479  0.1628 -1.6308  1.1512
 3659SOL    HW222611   0.583   3.586   3.335  0.2429  1.5354  0.3654
 3660SOL     OW22612   3.836   2.697   7.162  0.1232  0.0445  0.0673
 3660SOL    HW122613   3.851   2.604   7.147  1.5682  0.7489 -2.9134
 3660SOL    HW222614   3.914   2.713   7.215 -0.8022  0.3751  1.3313
 3661SOL     OW22615   0.493   2.028  17.462  0.2976 -0.0098 -0.1489
 3661SOL    HW122616   0.494   2.123  17.477  2.7174 -0.3467  1.6397
 3661SOL    HW222617   0.446   2.025  17.378  0.6235  1.4975 -0.3913
 3662SOL     OW22618   3.219   0.666   5.931  0.2268  0.2003  0.2939
 3662SOL    HW122619   3.260   0.642   6.014 -0.1316  1.0121  0.7070
 3662SOL    HW222620   3.196   0.576   5.906  0.1300 -0.1887  1.7977
 3663SOL     OW22621   3.634   4.413   9.170  0.3038  0.0309 -0.4352
 3663SOL    HW122622   3.653   4.325   9.202  3.2813  0.4404 -1.0863
 3663SOL    HW222623   3.560   4.391   9.114  1.2589  0.6721 -1.9306
 3664SOL     OW22624   0.410   4.097   3.354 -0.8330  0.4167 -0.1037
 3664SOL    HW122625   0.388   4.120   3.264  2.5658  1.1926 -0.7192
 3664SOL    HW222626   0.420   4.184   3.391  1.7756 -0.6654  1.7650
 3665SOL     OW22627   3.019   4.281   2.908 -0.7670 -0.1462  0.0893
 3665SOL    HW122628   3.081   4.301   2.978 -0.1542  0.3094 -0.5705
 3665SOL    HW222629   2.936   4.267   2.953 -0.8326 -1.4791 -0.4429
 3666SOL     OW22630   1.697   1.660   9.450  0.9057  0.4842  0.3043
 3666SOL    HW122631   1.685   1.620   9.363  0.2658  1.6936 -0.1667
 3666SOL    HW222632   1.736   1.593   9.506 -0.5588  0.1543  0.9028
 3667SOL     OW22633   3.645   0.052   8.405 -0.2323  0.7248 -0.1317
 3667SOL    HW122634   3.568   0.065   8.349 -2.2881 -1.8793  2.0488
 3667SOL    HW222635   3.637   4.695   8.412 -1.3677  0.7504 -1.0218
 3668SOL     OW22636   0.544   1.867   8.917  0.3728 -0.0456  0.0229
 3668SOL    HW122637   0.600   1.899   8.846  0.1307 -0.0455 -0.1679
 3668SOL    HW222638   0.468   1.921   8.897  0.2961 -0.0484  0.3158
 3669SOL     OW22639   0.146   1.462   3.149  0.1491  0.1713 -0.2669
 3669SOL    HW122640   0.191   1.544   3.130 -0.8881  0.3150 -2.1944
 3669SOL    HW222641   0.145   1.470   3.244 -0.8778  1.1636 -0.3562
 3670SOL     OW22642   1.984   3.449   5.459  0.9108  0.0191 -0.1152
 3670SOL    HW122643   2.034   3.373   5.485 -0.0733 -1.4203 -2.4422
 3670SOL    HW222644   1.996   3.435   5.365  1.5093 -1.6447  0.2243
 3671SOL     OW22645   4.320   0.893   2.572 -0.2154  0.3346 -0.0076
 3671SOL    HW122646   4.294   0.821   2.628  1.1472  0.2214  0.4686
 3671SOL    HW222647   4.235   0.910   2.532 -1.1139  2.1136  2.6710
 3672SOL     OW22648   0.616   2.011   9.122  0.4496 -0.2141 -0.3096
 3672SOL    HW122649   0.598   1.921   9.093 -0.9980  0.5295 -1.6864
 3672SOL    HW222650   0.574   2.056   9.049  0.2383 -2.4794 -1.5857
 3673SOL     OW22651   3.389   1.040   2.975 -0.4126 -0.0512  0.1570
 3673SOL    HW122652   3.360   1.071   2.889 -0.4367 -1.9033 -0.5153
 3673SOL    HW222653   3.391   1.121   3.025 -0.3630 -0.2738  0.5159
 3674SOL     OW22654   2.920   3.171   4.289 -0.4992  0.0837  0.4918
 3674SOL    HW122655   2.992   3.110   4.271  0.0007  0.8217  0.0231
 3674SOL    HW222656   2.970   3.252   4.281 -0.1520 -0.1749  0.0875
 3675SOL     OW22657   2.034   2.797   7.616 -0.9460  0.0778 -0.0037
 3675SOL    HW122658   2.119   2.752   7.622 -0.8273  0.5510  1.7989
 3675SOL    HW222659   2.042   2.890   7.635 -1.7190  0.4069 -1.2625
 3676SOL     OW22660   3.337   0.339   0.630  0.2497 -0.0702 -1.0455
 3676SOL    HW122661   3.430   0.358   0.616  0.9641 -1.5875  1.6093
 3676SOL    HW222662   3.334   0.283   0.708  1.8311  0.4524 -0.6116
 3677SOL     OW22663   1.953   1.040   6.027 -0.5045 -0.4580 -0.4771
 3677SOL    HW122664   2.009   0.968   6.053 -1.3329 -1.8560 -2.5543
 3677SOL    HW222665   1.882   1.043   6.091  1.4763 -0.9938  1.7446
 3678SOL     OW22666   1.290   0.749   8.101  0.2049  0.3556  0.2125
 3678SOL    HW122667   1.247   0.814   8.045  0.3520 -0.2464 -0.5887
 3678SOL    HW222668   1.221   0.684   8.098 -0.6809  1.3833 -1.6302
 3679SOL     OW22669   2.824   1.691   4.644 -0.1304 -0.4547 -0.2305
 3679SOL    HW122670   2.754   1.646   4.692  2.2323 -0.7605  2.9107
 3679SOL    HW222671   2.778   1.764   4.602 -0.8537 -0.7233  0.0839
 3680SOL     OW22672   4.696   1.113   5.483 -0.0664 -0.2582  0.0089
 3680SOL    HW122673   4.604   1.140   5.476 -0.9949 -3.3591  0.1349
 3680SOL    HW222674   4.736   1.188   5.527  0.9487 -0.8894  0.1361
 3681SOL     OW22675   1.640   4.734   3.444 -1.1216  0.3644 -0.3672
 3681SOL    HW122676   1.618   0.052   3.369 -1.7932 -1.5399 -1.5922
 3681SOL    HW222677   1.553   4.696   3.457 -2.1489  2.5564 -0.7469
 3682SOL     OW22678   3.072   0.694  15.636  0.4117 -0.2383  0.1877
 3682SOL    HW122679   3.083   0.734  15.722 -0.8647  1.1379 -0.2731
 3682SOL    HW222680   2.980   0.719  15.626  1.0633  1.3891 -1.6474
 3683SOL     OW22681   0.604   3.846  14.418  0.0600 -0.1074 -0.1621
 3683SOL    HW122682   0.593   3.863  14.324  1.3316 -0.1282 -0.3118
 3683SOL    HW222683   0.544   3.912  14.453 -0.6796 -0.6045 -0.4903
 3684SOL     OW22684   4.400   2.729   2.929 -0.3696 -0.1304 -0.0313
 3684SOL    HW122685   4.379   2.822   2.917 -0.5868 -0.4202 -1.9211
 3684SOL    HW222686   4.424   2.727   3.021 -1.7122  0.8532  0.3472
 3685SOL     OW22687   1.621   0.198  14.991  0.6018  0.1171 -0.3572
 3685SOL    HW122688   1.607   0.292  14.979 -0.8654 -0.1682 -0.9227
 3685SOL    HW222689   1.558   0.166  14.925 -0.3171 -1.5051  1.3085
 3686SOL     OW22690   3.732   3.535  16.732 -0.4187  0.6815  0.0277
 3686SOL    HW122691   3.768   3.599  16.794 -0.0928  1.5057 -1.0211
 3686SOL    HW222692   3.658   3.498  16.781  1.2759 -4.2540 -1.1327
 3687SOL     OW22693   2.670   0.258  16.500  0.5905  0.2917  0.1334
 3687SOL    HW122694   2.765   0.246  16.499  0.4964 -0.3985 -0.3090
 3687SOL    HW222695   2.631   0.176  16.470 -1.6324  0.5274  2.3810
 3688SOL     OW22696   4.252   4.284  16.078 -0.1707 -0.5113  0.6967
 3688SOL    HW122697   4.190   4.339  16.127  1.9794  0.5524  2.1992
 3688SOL    HW222698   4.243   4.326  15.992  1.9504 -1.4608  0.0209
 3689SOL     OW22699   1.595   2.675   4.649  0.1629  0.9003  0.3514
 3689SOL    HW122700   1.669   2.707   4.700  0.3178 -1.3843  1.5821
 3689SOL    HW222701   1.598   2.736   4.575  4.3256 -2.1719 -1.9644
 3690SOL     OW22702   0.904   0.182   6.181 -0.0710 -0.0320 -0.7920
 3690SOL    HW122703   0.917   0.138   6.265  1.2229 -1.0743 -1.5230
 3690SOL    HW222704   0.894   0.273   6.208  1.3063  0.4111 -1.7528
 3691SOL     OW22705   4.132   4.541  16.636  0.5552  0.3996  0.1760
 3691SOL    HW122706   4.092   4.617  16.679  1.1276 -0.0216  1.4453
 3691SOL    HW222707   4.214   4.537  16.684 -0.1594  1.1583  1.4581
 3692SOL     OW22708   1.464   2.884   4.754 -0.1817 -0.4748  0.0071
 3692SOL    HW122709   1.495   2.812   4.698  3.9599  2.3616 -1.3088
 3692SOL    HW222710   1.456   2.835   4.836  0.8023  2.4859  1.8642
 3693SOL     OW22711   2.515   4.330  13.028  0.0790 -0.1081  0.3937
 3693SOL    HW122712   2.502   4.321  12.933  1.6948  1.3839  0.0365
 3693SOL    HW222713   2.569   4.408  13.036  0.8167 -0.1411 -3.9914
 3694SOL     OW22714   1.372   3.702  12.147 -0.1744  0.5056  0.5050
 3694SOL    HW122715   1.376   3.697  12.052 -1.1637  0.2460  0.4718
 3694SOL    HW222716   1.440   3.760  12.181 -1.2674  1.7414  0.6249
 3695SOL     OW22717   2.016   3.037   7.728 -0.6976 -0.8242 -0.3280
 3695SOL    HW122718   2.098   3.084   7.712 -1.3279  0.2238 -0.4922
 3695SOL    HW222719   2.036   3.009   7.817  0.4722 -0.8019 -0.5764
 3696SOL     OW22720   0.771   2.455   3.745  0.2535  0.5485  0.0285
 3696SOL    HW122721   0.847   2.510   3.725  0.3660  1.0689  1.8724
 3696SOL    HW222722   0.791   2.379   3.691  0.0059 -0.1108  0.8687
 3697SOL     OW22723   0.470   2.116   7.629 -0.3145  0.8864 -0.6256
 3697SOL    HW122724   0.508   2.087   7.713 -1.1533  0.5729 -0.3571
 3697SOL    HW222725   0.421   2.037   7.606 -0.4194  0.9473 -0.6112
 3698SOL     OW22726   2.445   2.885   7.048 -0.0924 -0.7515  0.2061
 3698SOL    HW122727   2.536   2.914   7.058 -0.3869  0.3805 -0.3657
 3698SOL    HW222728   2.470   2.806   7.000 -0.1951 -0.5428 -0.1991
 3699SOL     OW22729   1.258   3.178  13.310 -0.4649 -0.0555 -0.0375
 3699SOL    HW122730   1.227   3.254  13.360  1.1298  0.4197  0.2463
 3699SOL    HW222731   1.249   3.205  13.219 -1.4013  1.3840  0.4777
 3700SOL     OW22732   1.788   0.818   7.324 -0.0808 -0.1458  0.0452
 3700SOL    HW122733   1.780   0.728   7.292 -0.8415  0.3440 -1.1179
 3700SOL    HW222734   1.789   0.811   7.420  0.9505 -1.9151 -0.0896
 3701SOL     OW22735   0.286   3.393   2.987 -0.2024 -0.0262  0.7054
 3701SOL    HW122736   0.226   3.467   2.983 -0.4585 -0.3846 -2.2233
 3701SOL    HW222737   0.294   3.405   3.081 -0.2316 -0.8019  0.8114
 3702SOL     OW22738   1.102   4.544   6.513  1.1018  0.2890 -0.0408
 3702SOL    HW122739   1.020   4.523   6.556  1.9500  0.4913  1.6697
 3702SOL    HW222740   1.094   4.522   6.420  2.4129  0.8921 -0.3092
 3703SOL     OW22741   3.307   1.523  11.218 -0.3230  0.6426  0.3185
 3703SOL    HW122742   3.275   1.491  11.134  1.4997 -1.5608  0.4938
 3703SOL    HW222743   3.294   1.448  11.275 -0.1967  0.1764 -0.2680
 3704SOL     OW22744   4.102   3.821   1.933 -0.8048  0.0233  0.0373
 3704SOL    HW122745   4.179   3.820   1.876 -1.0166  1.9905 -0.2889
 3704SOL    HW222746   4.035   3.842   1.869 -0.0125 -0.4645 -0.9540
 3705SOL     OW22747   4.420   0.783  10.774  0.1360  0.2015  0.4532
 3705SOL    HW122748   4.427   0.853  10.708  1.6200 -0.4978 -0.1210
 3705SOL    HW222749   4.394   0.710  10.718 -1.8240  1.7902 -0.7291
 3706SOL     OW22750   4.312   3.877   7.312  0.5107 -0.5619  0.2281
 3706SOL    HW122751   4.307   3.792   7.356 -1.2147 -1.2880 -1.3773
 3706SOL    HW222752   4.232   3.873   7.260 -0.5517 -0.0641  1.8550
 3707SOL     OW22753   1.741   1.763   4.306  0.3837  0.0983  0.0743
 3707SOL    HW122754   1.764   1.686   4.254  0.3963 -0.5598  1.0566
 3707SOL    HW222755   1.756   1.834   4.243 -0.6895 -0.4805 -0.8455
 3708SOL     OW22756   0.255   3.854   4.951 -0.0450  0.6023 -0.4521
 3708SOL    HW122757   0.252   3.820   4.861 -2.8607 -0.1176 -0.0858
 3708SOL    HW222758   0.163   3.874   4.968 -0.3091 -1.3764  0.4117
 3709SOL     OW22759   1.937   4.691  17.624  0.0986  0.1412  0.4620
 3709SOL    HW122760   1.870   4.644  17.674  0.7050  0.8443  1.9474
 3709SOL    HW222761   1.968   0.011  17.693  1.1012  1.8999 -1.4882
 3710SOL     OW22762   2.139   4.636   0.461 -0.2587 -0.3256 -0.3542
 3710SOL    HW122763   2.195   4.713   0.476  0.9000 -1.3136  0.4601
 3710SOL    HW222764   2.197   4.588   0.402 -0.0630 -0.8567  0.2699
 3711SOL     OW22765   1.109   3.054   4.992  0.6527  0.1547 -0.0406
 3711SOL    HW122766   1.140   3.025   4.906 -0.6869 -0.7924 -0.2176
 3711SOL    HW222767   1.015   3.071   4.979  0.5175  1.6678  3.0804
 3712SOL     OW22768   3.696   1.642  16.698  0.1592  0.2251 -0.5768
 3712SOL    HW122769   3.670   1.654  16.790  0.4234 -1.2599 -0.3047
 3712SOL    HW222770   3.791   1.648  16.704  0.2175 -0.1682 -1.1066
 3713SOL     OW22771   2.072   1.534   7.171  0.3817  0.0416 -0.0327
 3713SOL    HW122772   2.012   1.607   7.178 -0.0441 -0.1451 -1.6448
 3713SOL    HW222773   2.023   1.471   7.118 -2.3039  1.0171  1.3120
 3714SOL     OW22774   4.034   3.286   3.048 -0.2791 -0.1638  0.2204
 3714SOL    HW122775   4.109   3.343   3.029 -0.9048  0.1998 -1.1397
 3714SOL    HW222776   4.008   3.275   2.957  2.8526  0.0286 -0.7168
 3715SOL     OW22777   3.840   3.712   9.595 -0.3272  0.0611  0.1496
 3715SOL    HW122778   3.919   3.724   9.647 -0.3293 -0.3759  0.2566
 3715SOL    HW222779   3.878   3.653   9.530  1.4574 -0.2557  1.4733
 3716SOL     OW22780   1.334   1.727  16.113 -0.2770 -0.1312  0.4730
 3716SOL    HW122781   1.351   1.819  16.130 -0.3245 -0.3305  1.5635
 3716SOL    HW222782   1.425   1.699  16.117 -0.8208 -2.0519 -0.1114
 3717SOL     OW22783   2.336   1.741   7.363  0.1051  0.2086 -0.2070
 3717SOL    HW122784   2.361   1.649   7.349 -1.1176 -0.2889  0.9177
 3717SOL    HW222785   2.353   1.771   7.274 -1.3199  0.7339 -0.3006
 3718SOL     OW22786   3.622   3.637   3.739  0.7090  0.5365  0.2233
 3718SOL    HW122787   3.602   3.677   3.824 -1.0132 -1.3185  0.6971
 3718SOL    HW222788   3.681   3.704   3.704 -0.2152  0.3487 -1.7085
 3719SOL     OW22789   4.571   3.881   3.067 -0.1252 -0.1268 -0.2119
 3719SOL    HW122790   4.488   3.918   3.037  0.6709  2.1061  0.3777
 3719SOL    HW222791   4.622   3.868   2.987 -0.3581 -2.4676  0.0136
 3720SOL     OW22792   3.515   0.753   4.452 -0.2196 -0.1493 -0.1921
 3720SOL    HW122793   3.499   0.847   4.446 -2.0332 -0.5997 -2.4029
 3720SOL    HW222794   3.557   0.739   4.367 -0.5200  2.5482 -0.7662
 3721SOL     OW22795   4.691   3.435   9.324  0.0877  0.2303 -0.0100
 3721SOL    HW122796   4.656   3.370   9.263  3.5608 -1.6961  0.0486
 3721SOL    HW222797   0.046   3.418   9.317  0.3734  2.0859 -0.4872
 3722SOL     OW22798   1.259   0.247   0.179  0.0533  0.3707 -0.3962
 3722SOL    HW122799   1.167   0.241   0.154  0.0221  0.9635 -0.4169
 3722SOL    HW222800   1.301   0.229   0.095  1.8692 -2.0890  1.0302
 3723SOL     OW22801   3.473   2.542   4.366  0.7992  0.0944  0.3865
 3723SOL    HW122802   3.419   2.522   4.443 -0.1021 -0.2816 -0.3524
 3723SOL    HW222803   3.439   2.626   4.335 -0.3509 -0.9442 -1.0979
 3724SOL     OW22804   0.294   1.249  14.077  0.3557 -0.4434 -0.4228
 3724SOL    HW122805   0.383   1.253  14.042 -0.0270  1.0922 -1.2310
 3724SOL    HW222806   0.290   1.164  14.121  0.4303 -0.7157 -0.9328
 3725SOL     OW22807   1.032   0.808   6.692  0.0307  0.2163  0.4141
 3725SOL    HW122808   0.962   0.838   6.751  1.9537  0.0835  2.7728
 3725SOL    HW222809   1.103   0.869   6.713  0.2862 -0.7532  2.4137
 3726SOL     OW22810   4.524   0.676   7.339  0.5934  0.2833 -0.1283
 3726SOL    HW122811   4.529   0.772   7.343 -1.2960  0.3271  1.3165
 3726SOL    HW222812   4.528   0.676   7.434  0.7020  0.8299 -0.1323
 3727SOL     OW22813   2.626   0.179   7.508 -0.0122  0.7434  0.5082
 3727SOL    HW122814   2.567   0.229   7.452  0.1995 -0.4998 -0.8464
 3727SOL    HW222815   2.705   0.147   7.464  1.1530  1.5278  2.0229
 3728SOL     OW22816   4.138   3.211  10.133  0.4305 -0.0209  0.6068
 3728SOL    HW122817   4.189   3.252  10.064  0.9998 -0.1595  0.9407
 3728SOL    HW222818   4.056   3.259  10.127  0.7302 -0.0621 -3.8673
 3729SOL     OW22819   4.416   1.330   2.119 -0.2366  0.3360 -0.3536
 3729SOL    HW122820   4.409   1.400   2.054  1.4345 -0.4968 -1.4281
 3729SOL    HW222821   4.354   1.267   2.082 -0.6861  1.0698 -0.8599
 3730SOL     OW22822   4.721   4.345   2.036 -0.2760  0.2641  0.5477
 3730SOL    HW122823   4.641   4.395   2.023  0.1944  1.2155  1.3366
 3730SOL    HW222824   0.040   4.415   2.069  2.3506 -1.6216  0.0134
 3731SOL     OW22825   4.324   0.193   2.215  0.1842 -0.4503 -0.4090
 3731SOL    HW122826   4.352   0.246   2.140  1.2839  0.9233  0.9876
 3731SOL    HW222827   4.261   0.139   2.168 -0.6454 -0.5920  0.8825
 3732SOL     OW22828   0.745   1.728   7.902  0.6241  0.1731  1.1053
 3732SOL    HW122829   0.782   1.801   7.853 -0.1588  0.4328  0.8940
 3732SOL    HW222830   0.822   1.704   7.953 -0.6989 -0.4977  2.7912
 3733SOL     OW22831   3.446   2.567   2.262 -0.4291 -0.3027 -0.5686
 3733SOL    HW122832   3.496   2.514   2.324 -0.4904 -0.9515 -1.0847
 3733SOL    HW222833   3.515   2.626   2.231  0.4984 -1.1601 -0.1357
 3734SOL     OW22834   0.256   2.887   2.878  0.6020 -0.1588  0.0896
 3734SOL    HW122835   0.325   2.935   2.924 -1.2068 -0.0489  2.6501
 3734SOL    HW222836   0.307   2.868   2.798  0.9120 -2.7875  0.9181
 3735SOL     OW22837   3.824   2.881   8.412 -0.3098 -0.0781  0.2969
 3735SOL    HW122838   3.777   2.944   8.467 -4.0241 -2.2466 -0.4023
 3735SOL    HW222839   3.832   2.806   8.470  1.8170  0.7601  1.0618
 3736SOL     OW22840   3.098   4.349   8.613  0.4478  0.2448  0.2365
 3736SOL    HW122841   3.138   4.277   8.564 -0.9335 -1.7188  1.9336
 3736SOL    HW222842   3.009   4.325   8.640  0.8074 -0.4462  0.8072
 3737SOL     OW22843   3.278   3.822  15.082  0.1241 -0.0692 -0.1609
 3737SOL    HW122844   3.223   3.746  15.066 -2.3646  1.6701  0.1292
 3737SOL    HW222845   3.352   3.800  15.025 -0.7736 -0.9509 -0.9715
 3738SOL     OW22846   1.944   3.458   2.672 -0.1177 -0.1567  0.4780
 3738SOL    HW122847   1.981   3.546   2.683  2.8297 -1.4370  0.5305
 3738SOL    HW222848   1.992   3.427   2.596 -0.5316  1.5582 -0.4920
 3739SOL     OW22849   2.023   4.021   9.248 -0.4780 -0.4504  0.3279
 3739SOL    HW122850   1.974   4.021   9.330  0.2890 -1.5662  0.7813
 3739SOL    HW222851   2.012   4.114   9.226 -0.1108 -0.9642 -2.0768
 3740SOL     OW22852   1.500   3.080  13.928  0.1863 -0.0944  0.4152
 3740SOL    HW122853   1.568   3.137  13.964  1.5102 -1.3168 -0.1838
 3740SOL    HW222854   1.426   3.134  13.957  0.1495 -0.3465  0.7858
 3741SOL     OW22855   1.964   2.362   3.765  0.0876  0.3715 -0.8289
 3741SOL    HW122856   1.996   2.441   3.722  3.6432 -0.6309 -0.0384
 3741SOL    HW222857   1.902   2.396   3.830 -0.1296  0.4434 -1.0749
 3742SOL     OW22858   4.276   3.147  13.426 -0.3477  0.6940 -0.0553
 3742SOL    HW122859   4.322   3.081  13.374  1.0259  1.6206 -0.0113
 3742SOL    HW222860   4.209   3.101  13.476  0.0652 -1.7874 -1.7677
 3743SOL     OW22861   3.892   1.960   8.774 -0.3089  1.1808 -0.2262
 3743SOL    HW122862   3.922   1.883   8.823  0.3930  0.7569 -1.3284
 3743SOL    HW222863   3.889   2.018   8.850  1.6216  2.6425 -1.2790
 3744SOL     OW22864   2.242   2.026  12.638 -0.3193 -0.1292  0.0601
 3744SOL    HW122865   2.328   2.039  12.680 -0.6481  0.9250  0.4101
 3744SOL    HW222866   2.233   1.933  12.619  0.9625 -0.7317  2.3799
 3745SOL     OW22867   0.379   0.576   8.353 -0.0199 -0.0231  0.3917
 3745SOL    HW122868   0.300   0.524   8.370 -0.7185  1.2806  1.0998
 3745SOL    HW222869   0.433   0.548   8.428  1.5615  2.6464  0.2654
 3746SOL     OW22870   1.518   2.833   3.545 -0.0343  0.3606 -0.5639
 3746SOL    HW122871   1.606   2.800   3.562 -0.0895  0.3420 -0.3150
 3746SOL    HW222872   1.497   2.858   3.635 -3.3439 -1.7053 -0.7531
 3747SOL     OW22873   4.233   3.043   2.804  0.3474 -0.0797 -1.2528
 3747SOL    HW122874   4.319   3.047   2.847 -0.5483 -1.4675  0.7074
 3747SOL    HW222875   4.210   3.134   2.790  1.0530  0.1535 -0.8923
 3748SOL     OW22876   2.913   2.888   3.806  0.2067  0.2084 -0.1310
 3748SOL    HW122877   2.877   2.901   3.893 -0.5050 -2.4718 -0.0418
 3748SOL    HW222878   2.992   2.941   3.808  0.0079  0.4680  0.7860
 3749SOL     OW22879   0.938   1.355   4.655 -0.2009 -0.1903  0.1909
 3749SOL    HW122880   0.913   1.381   4.566 -0.1927 -2.1012 -0.3746
 3749SOL    HW222881   0.893   1.423   4.704 -0.1556  1.2671 -1.7681
 3750SOL     OW22882   4.719   3.803   2.858 -0.6265  0.5300  0.3833
 3750SOL    HW122883   4.684   3.800   2.769  2.7149 -0.7004 -0.8922
 3750SOL    HW222884   0.062   3.854   2.851 -1.6971  2.3161  0.8625
 3751SOL     OW22885   2.812   2.856   8.719  0.2756  0.2114  0.1938
 3751SOL    HW122886   2.735   2.857   8.663  0.5456 -0.9547 -0.1934
 3751SOL    HW222887   2.877   2.826   8.655 -2.2994 -2.0310 -1.3690
 3752SOL     OW22888   1.427   3.144  16.677 -0.5828 -0.4691  0.5768
 3752SOL    HW122889   1.506   3.114  16.720  1.2428 -0.2178 -2.5740
 3752SOL    HW222890   1.456   3.154  16.586 -0.1517  0.0071  0.7717
 3753SOL     OW22891   2.624   2.182  12.489  0.2298 -0.1262  0.3044
 3753SOL    HW122892   2.656   2.232  12.563  0.1442  0.6514 -0.1798
 3753SOL    HW222893   2.542   2.225  12.466  0.1355 -0.5352 -0.1417
 3754SOL     OW22894   3.097   3.910   7.688 -0.2554 -0.2445 -0.1820
 3754SOL    HW122895   3.106   3.856   7.609 -0.6107  0.4175 -0.6761
 3754SOL    HW222896   3.082   3.997   7.650  2.9931 -0.4888 -1.9940
 3755SOL     OW22897   3.065   0.445   2.827 -0.0036  0.1552 -0.0585
 3755SOL    HW122898   3.059   0.354   2.798 -0.5531 -0.3226  1.6065
 3755SOL    HW222899   3.023   0.439   2.913 -1.9177  2.3035 -0.8535
 3756SOL     OW22900   2.848   2.482   7.428  0.4206 -0.0320 -1.1219
 3756SOL    HW122901   2.880   2.472   7.338  1.1885 -1.8609 -0.6525
 3756SOL    HW222902   2.793   2.557   7.406  0.0032  0.3788  1.3917
 3757SOL     OW22903   3.340   0.699  10.797 -0.2113 -0.4730 -0.3367
 3757SOL    HW122904   3.336   0.722  10.890  1.7479 -2.2360  0.1786
 3757SOL    HW222905   3.432   0.723  10.785 -1.1136  2.4704 -1.4074
 3758SOL     OW22906   3.182   1.483   5.367  0.2240  0.0914 -0.1035
 3758SOL    HW122907   3.131   1.401   5.370 -1.6290  1.1930 -1.5705
 3758SOL    HW222908   3.173   1.497   5.273 -0.0311  0.8991  0.0493
 3759SOL     OW22909   2.011   3.955   5.851  0.3264  0.2155 -0.2738
 3759SOL    HW122910   1.929   3.917   5.820  0.3166  0.1451 -0.1627
 3759SOL    HW222911   2.021   4.038   5.804  2.3852  0.4885  0.6360
 3760SOL     OW22912   4.587   3.175   6.526 -0.7004  0.3793 -0.0442
 3760SOL    HW122913   4.504   3.167   6.574 -0.3429 -2.4268  0.1139
 3760SOL    HW222914   4.649   3.136   6.587 -0.8164  1.0172  0.4861
 3761SOL     OW22915   1.694   3.331  15.843 -0.0431 -0.7480 -0.0126
 3761SOL    HW122916   1.666   3.423  15.842  0.9025 -0.4566  0.7166
 3761SOL    HW222917   1.614   3.278  15.839  0.7840 -1.7047 -3.7840
 3762SOL     OW22918   3.962   1.889   5.055 -0.1984 -0.1333  0.5860
 3762SOL    HW122919   4.007   1.962   5.011 -0.5465 -0.0180  0.4239
 3762SOL    HW222920   4.017   1.818   5.023 -2.9679 -0.2990 -3.7818
 3763SOL     OW22921   2.443   0.587   8.674  0.3508 -0.1900  0.3065
 3763SOL    HW122922   2.455   0.504   8.628 -0.6331 -0.5968  0.7961
 3763SOL    HW222923   2.498   0.643   8.618 -1.1531  0.2819 -0.6839
 3764SOL     OW22924   3.368   1.259   1.753  0.0539  0.7064 -0.4257
 3764SOL    HW122925   3.422   1.329   1.717 -0.3714  1.1409 -0.2325
 3764SOL    HW222926   3.384   1.184   1.697  1.4803 -0.5742  1.7203
 3765SOL     OW22927   3.337   1.855  14.692  0.0574 -0.4480  0.3825
 3765SOL    HW122928   3.355   1.941  14.655 -2.7293  0.6906  1.6909
 3765SOL    HW222929   3.292   1.877  14.774 -0.0287 -0.5197  0.3550
 3766SOL     OW22930   0.178   0.878   1.199  0.1537 -0.3307  0.3896
 3766SOL    HW122931   0.140   0.791   1.188 -0.4916  0.1853 -1.4332
 3766SOL    HW222932   0.093   0.915   1.221  0.9441  0.8485  1.4685
 3767SOL     OW22933   3.126   1.137   3.951 -0.4570  0.0309  0.2926
 3767SOL    HW122934   3.216   1.160   3.930 -0.9822  0.8992 -1.0450
 3767SOL    HW222935   3.091   1.218   3.989 -1.2414  0.1086 -0.5722
 3768SOL     OW22936   2.760   0.957  16.676  0.2467  0.0705 -0.2207
 3768SOL    HW122937   2.755   0.874  16.628  0.1612 -0.1046  0.0930
 3768SOL    HW222938   2.720   1.006  16.603 -1.3595  0.4044  0.8854
 3769SOL     OW22939   2.077   0.039   7.001  0.5703  0.2471 -0.0015
 3769SOL    HW122940   2.061   4.709   6.936 -1.3042 -0.7655  1.4971
 3769SOL    HW222941   1.989   0.072   7.015 -0.6112 -1.9739 -2.2300
 3770SOL     OW22942   4.153   2.349   2.411  0.2088  0.0057  1.1196
 3770SOL    HW122943   4.069   2.306   2.428  0.8235 -1.6741 -0.0380
 3770SOL    HW222944   4.210   2.307   2.476 -2.2431 -0.5853  2.8507
 3771SOL     OW22945   2.224   0.064   5.067  0.0732 -0.2527  0.4542
 3771SOL    HW122946   2.295   0.034   5.010 -0.0268  1.1908 -0.4356
 3771SOL    HW222947   2.239   0.011   5.146  2.4048 -1.1979 -0.6136
 3772SOL     OW22948   2.296   2.133   5.204 -0.1183 -0.1983 -0.3656
 3772SOL    HW122949   2.316   2.203   5.141 -1.8134  0.5293 -0.0939
 3772SOL    HW222950   2.209   2.163   5.228 -0.4796 -2.1896  0.7347
 3773SOL     OW22951   1.521   1.454  16.601 -0.1153  0.1419  0.3946
 3773SOL    HW122952   1.449   1.449  16.664  0.0985  0.4876  0.6703
 3773SOL    HW222953   1.483   1.484  16.519  0.4733 -0.2311 -0.0110
 3774SOL     OW22954   4.623   0.714   5.245  0.4432 -0.0278  0.3607
 3774SOL    HW122955   4.529   0.722   5.261  0.2692  0.2306 -0.7677
 3774SOL    HW222956   4.645   0.803   5.219 -0.5923  0.9823  2.9842
 3775SOL     OW22957   4.261   4.143   9.997 -0.4998  0.3255 -0.3477
 3775SOL    HW122958   4.281   4.111  10.085 -0.3648 -1.7936 -1.1380
 3775SOL    HW222959   4.183   4.196  10.015 -1.1692 -0.1519 -1.8862
 3776SOL     OW22960   1.552   3.447   6.145 -0.2065  0.0082 -0.0361
 3776SOL    HW122961   1.478   3.437   6.206 -0.8920 -0.2663 -0.9144
 3776SOL    HW222962   1.518   3.508   6.079  0.2190  0.6534  0.3440
 3777SOL     OW22963   0.834   1.152   7.934 -0.4103  0.0589  0.3904
 3777SOL    HW122964   0.911   1.203   7.959 -0.9747  1.1761 -0.1732
 3777SOL    HW222965   0.837   1.145   7.839  0.5548  0.7142  0.3719
 3778SOL     OW22966   2.129   3.098   3.065 -0.0225 -0.1534  0.3982
 3778SOL    HW122967   2.208   3.147   3.044 -2.8014  2.8446 -2.9714
 3778SOL    HW222968   2.141   3.080   3.159  2.2119  0.1348  0.1606
 3779SOL     OW22969   3.570   4.308  11.678 -0.5395  0.1719  0.1157
 3779SOL    HW122970   3.569   4.327  11.772 -2.0674 -1.9123  0.5061
 3779SOL    HW222971   3.476   4.305  11.659 -0.4620 -2.8955  0.3347
 3780SOL     OW22972   2.703   1.934   3.768  0.2157 -0.4520  0.6227
 3780SOL    HW122973   2.660   1.897   3.691  1.2427  2.7070 -1.5016
 3780SOL    HW222974   2.639   1.904   3.832  1.0486 -1.5074  0.9562
 3781SOL     OW22975   2.856   4.420   1.372 -0.1712  0.5546  0.1808
 3781SOL    HW122976   2.891   4.339   1.411  1.4417  1.1413 -0.0515
 3781SOL    HW222977   2.770   4.395   1.338 -0.6258 -0.1891  1.8640
 3782SOL     OW22978   3.183   3.066   3.471 -0.3130  0.2397 -0.1866
 3782SOL    HW122979   3.251   3.017   3.517  0.0512 -0.4392 -1.4246
 3782SOL    HW222980   3.121   2.997   3.446 -0.2126  0.9630 -2.4849
 3783SOL     OW22981   3.258   0.462   4.214  0.3772  1.2820 -0.0918
 3783SOL    HW122982   3.240   0.556   4.217 -2.0752  0.7593  1.3913
 3783SOL    HW222983   3.265   0.449   4.120  0.3076  1.9565 -0.1921
 3784SOL     OW22984   2.957   3.603   1.997  0.0695  0.1332 -0.2303
 3784SOL    HW122985   3.028   3.653   2.037  0.1209  1.7186 -2.2603
 3784SOL    HW222986   3.004   3.528   1.961  0.9599  1.1495 -1.1991
 3785SOL     OW22987   4.692   2.421  12.521  0.8227 -0.1844  0.2212
 3785SOL    HW122988   0.027   2.370  12.555  0.9897  0.0264  0.1782
 3785SOL    HW222989   4.640   2.373  12.457 -0.3271  0.8593  0.3654
 3786SOL     OW22990   4.241   0.028   6.959 -0.1949  0.0758  0.1321
 3786SOL    HW122991   4.331   4.735   6.947 -0.0719  0.5351 -0.1539
 3786SOL    HW222992   4.259   0.095   7.025  0.1917 -0.5234  0.6336
 3787SOL     OW22993   3.827   0.049   4.559 -0.4419  0.4720 -0.4090
 3787SOL    HW122994   3.785   0.132   4.536 -1.1219  0.3029  0.2226
 3787SOL    HW222995   3.759   0.004   4.609 -0.3713 -0.6674 -1.3617
 3788SOL     OW22996   4.737   2.507   2.404  0.3222 -0.2258  0.1858
 3788SOL    HW122997   4.653   2.464   2.389  0.4906  0.3168 -2.3651
 3788SOL    HW222998   4.719   2.599   2.385  1.1309 -0.2308 -0.6496
 3789SOL     OW22999   1.870   3.685  13.920  0.1880 -0.3852  0.1759
 3789SOL    HW123000   1.964   3.703  13.907 -0.0078  1.8025  1.7144
 3789SOL    HW223001   1.838   3.772  13.896  0.3087 -0.4711 -0.2925
 3790SOL     OW23002   2.762   0.903  12.940  0.1537 -0.1700 -0.2211
 3790SOL    HW123003   2.745   0.915  13.033 -0.7767 -2.6828 -0.0867
 3790SOL    HW223004   2.679   0.860  12.919 -1.0228  1.1590  1.6579
 3791SOL     OW23005   3.706   1.288   7.117 -0.1200  0.2025 -0.3021
 3791SOL    HW123006   3.781   1.260   7.064 -0.1801  1.1756 -0.9128
 3791SOL    HW223007   3.735   1.283   7.208  0.1864 -0.2818 -0.4249
 3792SOL     OW23008   3.835   0.557  15.306 -0.4083  0.2676 -0.3849
 3792SOL    HW123009   3.760   0.554  15.366  0.0545 -4.0431 -0.0124
 3792SOL    HW223010   3.811   0.637  15.259  0.9880 -0.8122 -2.9074
 3793SOL     OW23011   1.558   0.983   7.057 -0.5775 -0.2854  0.1795
 3793SOL    HW123012   1.611   1.026   7.125  2.4957 -1.6357 -1.3635
 3793SOL    HW223013   1.617   0.979   6.982  0.5669 -0.7352  1.1087
 3794SOL     OW23014   1.500   2.643  14.897  0.1660 -0.0856 -0.2754
 3794SOL    HW123015   1.459   2.714  14.946 -1.8485 -0.2841 -1.6259
 3794SOL    HW223016   1.573   2.683  14.850 -1.4792  2.6715 -0.5003
 3795SOL     OW23017   3.414   4.611   2.720  0.0599 -0.1810  0.4054
 3795SOL    HW123018   3.353   4.553   2.766 -2.6662  1.6271 -0.9632
 3795SOL    HW223019   3.413   4.573   2.632  0.2078  0.8858 -0.0455
 3796SOL     OW23020   3.198   4.307   9.244  0.2779 -1.0142  0.8600
 3796SOL    HW123021   3.174   4.218   9.217 -1.9224 -0.9513  2.6378
 3796SOL    HW223022   3.231   4.306   9.333  1.7629 -0.6099  0.3056
 3797SOL     OW23023   0.328   1.408  13.384  0.0226  0.7087 -0.5529
 3797SOL    HW123024   0.322   1.316  13.410  1.9392  0.8656  0.3693
 3797SOL    HW223025   0.347   1.458  13.463  0.0193  0.5921 -0.4790
 3798SOL     OW23026   3.580   2.537   1.913  0.1646 -0.1061  0.9162
 3798SOL    HW123027   3.626   2.551   1.830  0.7646 -2.2475  0.8902
 3798SOL    HW223028   3.640   2.555   1.985  0.1158  0.5317  0.7955
 3799SOL     OW23029   2.053   3.453   4.599  0.0011 -0.0324  0.1159
 3799SOL    HW123030   1.997   3.431   4.525  0.2284 -0.3254  0.0300
 3799SOL    HW223031   2.011   3.430   4.682 -0.5850 -0.9203 -0.4312
 3800SOL     OW23032   2.067   3.508   8.254  0.2309 -0.9008 -0.1418
 3800SOL    HW123033   1.975   3.491   8.232  0.7052 -0.4675 -2.4416
 3800SOL    HW223034   2.076   3.603   8.257  0.4819 -0.9280 -0.0407
 3801SOL     OW23035   3.982   3.869   6.433 -0.1110 -0.4136 -0.3440
 3801SOL    HW123036   3.980   3.906   6.345  0.6301 -0.1978 -0.2632
 3801SOL    HW223037   3.904   3.903   6.476  0.7865 -0.4586  1.3046
 3802SOL     OW23038   2.161   0.895   6.444  0.5739  0.5138  0.5931
 3802SOL    HW123039   2.246   0.880   6.486  1.2681  2.1656 -0.2351
 3802SOL    HW223040   2.148   0.987   6.467 -0.4490  0.4206  0.3916
 3803SOL     OW23041   3.199   2.280   5.141  0.2530 -0.6676  0.5760
 3803SOL    HW123042   3.211   2.191   5.107 -0.1307 -0.6811  0.4782
 3803SOL    HW223043   3.124   2.252   5.193 -0.3395 -2.1580 -1.0790
 3804SOL     OW23044   3.092   2.705   7.403 -0.4507  0.0749  0.0665
 3804SOL    HW123045   3.046   2.691   7.320  0.1324  1.0396 -0.4144
 3804SOL    HW223046   3.023   2.689   7.467 -2.0486 -0.1934 -1.7277
 3805SOL     OW23047   2.096   1.338   4.436  0.1989  0.0941 -0.1478
 3805SOL    HW123048   2.062   1.426   4.419 -0.7224 -0.1402  0.5316
 3805SOL    HW223049   2.027   1.284   4.398  1.6034 -1.1591 -0.9163
 3806SOL     OW23050   0.769   0.754   6.510 -0.0418 -0.9057 -0.0979
 3806SOL    HW123051   0.816   0.673   6.494  0.0309 -0.8874  0.0193
 3806SOL    HW223052   0.825   0.781   6.583  1.6157 -1.1428 -1.3116
 3807SOL     OW23053   2.719   1.890   4.475  0.6929 -0.0362 -0.4398
 3807SOL    HW123054   2.741   1.915   4.385  0.3305 -0.5916 -0.6896
 3807SOL    HW223055   2.628   1.917   4.487  0.6886 -0.8911  1.4862
 3808SOL     OW23056   4.724   0.531   4.258 -0.0207  0.2432  0.1791
 3808SOL    HW123057   0.023   0.613   4.289 -1.7467  0.3447  1.9642
 3808SOL    HW223058   0.062   0.485   4.222 -0.0786  0.6189 -0.4192
 3809SOL     OW23059   4.705   3.984   0.673 -0.4195 -0.0709  0.6636
 3809SOL    HW123060   0.004   4.064   0.637 -3.3428  0.7428 -0.5478
 3809SOL    HW223061   0.041   3.951   0.723  1.4079  1.7549 -0.8904
 3810SOL     OW23062   1.475   2.051   2.677 -0.0170 -0.1434 -0.3049
 3810SOL    HW123063   1.500   2.138   2.709  1.6015 -0.3510 -1.0322
 3810SOL    HW223064   1.385   2.057   2.647 -0.7680  2.4231  2.3984
 3811SOL     OW23065   1.830   3.324   2.901  0.5927 -0.2728  0.0383
 3811SOL    HW123066   1.844   3.391   2.968  0.9502 -1.5126  1.2229
 3811SOL    HW223067   1.881   3.355   2.826  1.7574  2.4600  1.9373
 3812SOL     OW23068   1.893   1.135   4.460  0.3078  0.4107  0.4993
 3812SOL    HW123069   1.925   1.047   4.480 -0.5405  0.5543  2.5421
 3812SOL    HW223070   1.821   1.140   4.523  1.0593  0.3142  1.3606
 3813SOL     OW23071   4.052   3.681   3.958  0.5943 -0.2698  0.6186
 3813SOL    HW123072   3.971   3.726   3.980  0.2323 -0.9530  0.6794
 3813SOL    HW223073   4.062   3.606   4.015 -1.6102 -0.5971  0.5789
 3814SOL     OW23074   2.038   4.247  11.268 -0.4711 -0.3026 -0.6057
 3814SOL    HW123075   2.026   4.271  11.360 -0.8547 -0.5087 -0.6026
 3814SOL    HW223076   2.113   4.189  11.276  0.7369  1.2777 -0.4953
 3815SOL     OW23077   4.294   4.031  16.013  0.2396 -0.1911 -0.0621
 3815SOL    HW123078   4.255   4.114  16.042  0.7595 -0.4734  1.4763
 3815SOL    HW223079   4.386   4.048  16.034 -0.0633  0.8562  0.3933
 3816SOL     OW23080   2.035   1.680   8.751  0.6003  0.1052  0.3783
 3816SOL    HW123081   2.073   1.759   8.711 -0.2183  0.3330  0.0552
 3816SOL    HW223082   1.957   1.717   8.793 -1.1856 -2.4567 -0.7146
 3817SOL     OW23083   0.146   2.474  11.208  0.0631 -0.0974 -0.4388
 3817SOL    HW123084   0.217   2.419  11.175 -0.2064 -0.9443  0.3989
 3817SOL    HW223085   0.081   2.405  11.220 -0.0540 -0.1383 -1.2500
 3818SOL     OW23086   3.671   0.699   3.318  0.1135 -0.0743 -0.5305
 3818SOL    HW123087   3.664   0.657   3.233  0.8492  1.9360 -1.6045
 3818SOL    HW223088   3.615   0.777   3.310 -0.2768 -0.3555 -0.5144
 3819SOL     OW23089   0.329   2.094  14.669 -0.0830  0.0783  0.3020
 3819SOL    HW123090   0.388   2.052  14.732  0.4919 -0.5455 -0.6479
 3819SOL    HW223091   0.262   2.026  14.670  0.1013 -0.1019  0.3616
 3820SOL     OW23092   0.933   1.296   6.092 -0.1668 -0.1679 -0.2491
 3820SOL    HW123093   0.894   1.372   6.049  1.2970  0.0452 -1.1891
 3820SOL    HW223094   0.981   1.260   6.017 -0.7141  0.1634 -0.7598
 3821SOL     OW23095   0.659   2.988   7.363 -0.5813  0.3415  0.2944
 3821SOL    HW123096   0.735   2.954   7.411  0.1985  1.7151  0.0138
 3821SOL    HW223097   0.647   2.928   7.289  0.1099  1.3630 -0.6331
 3822SOL     OW23098   4.330   0.691  17.163 -0.4595 -0.5031 -0.2852
 3822SOL    HW123099   4.278   0.732  17.232  0.9224  2.5437 -1.0430
 3822SOL    HW223100   4.423   0.692  17.186 -0.4967 -2.2583 -0.0834
 3823SOL     OW23101   2.739   1.658   1.843  0.2560 -0.4350  0.0289
 3823SOL    HW123102   2.780   1.744   1.851  0.3881 -0.6638  1.9511
 3823SOL    HW223103   2.648   1.688   1.844  0.2167 -0.5597  0.4919
 3824SOL     OW23104   3.228   3.216  13.561  0.0247 -0.3736 -0.3256
 3824SOL    HW123105   3.143   3.177  13.579 -0.6471  0.5676 -1.4664
 3824SOL    HW223106   3.218   3.293  13.616  0.9341 -0.3965 -0.1179
 3825SOL     OW23107   3.751   4.408   8.713 -0.0479 -0.3832  0.4206
 3825SOL    HW123108   3.831   4.458   8.697 -0.2595 -0.5065 -1.0701
 3825SOL    HW223109   3.752   4.365   8.798  0.2442  3.0459  2.1543
 3826SOL     OW23110   3.483   0.545   5.155 -0.4026  0.0288  0.1500
 3826SOL    HW123111   3.548   0.576   5.092  0.4562  2.5721  2.2896
 3826SOL    HW223112   3.527   0.572   5.236  0.6535  0.0107 -0.4211
 3827SOL     OW23113   4.104   2.942   4.908 -0.6606  0.2120  0.8229
 3827SOL    HW123114   4.173   2.996   4.868 -0.5696  0.2095  0.9781
 3827SOL    HW223115   4.043   2.939   4.835  1.4316 -0.6819 -0.8889
 3828SOL     OW23116   4.447   3.570   2.477 -0.4010  0.1861  0.0721
 3828SOL    HW123117   4.462   3.526   2.393  1.7285  1.5100 -0.2565
 3828SOL    HW223118   4.518   3.537   2.532 -0.5833 -1.6490 -0.7813
 3829SOL     OW23119   0.656   2.359   1.735  0.4514 -0.2496  0.0215
 3829SOL    HW123120   0.691   2.293   1.795  1.2762  0.9435  0.8501
 3829SOL    HW223121   0.637   2.299   1.663 -2.2485  0.5694  0.0587
 3830SOL     OW23122   2.089   2.827  12.285 -0.2084 -0.3582  0.2773
 3830SOL    HW123123   2.000   2.795  12.272  0.4466 -3.1424  2.6619
 3830SOL    HW223124   2.060   2.896  12.346 -0.7437  0.3115 -0.7431
 3831SOL     OW23125   3.873   2.450   2.629  0.4499 -0.3958  0.0939
 3831SOL    HW123126   3.797   2.500   2.660 -0.1130 -0.1753 -1.6602
 3831SOL    HW223127   3.941   2.508   2.662 -2.8125  1.8251  2.9339
 3832SOL     OW23128   2.321   3.140   4.539  0.1480  0.2045  0.5239
 3832SOL    HW123129   2.233   3.123   4.505  0.1344  1.3010  0.0241
 3832SOL    HW223130   2.343   3.054   4.576 -0.2691 -0.6092 -1.1364
 3833SOL     OW23131   1.665   2.330   8.365 -0.6333 -0.0284 -0.1321
 3833SOL    HW123132   1.655   2.419   8.331  1.0637 -0.1089 -0.8298
 3833SOL    HW223133   1.717   2.291   8.295  0.2636 -0.2098  0.6283
 3834SOL     OW23134   2.291   0.340   4.307  0.2273 -0.1374 -0.2980
 3834SOL    HW123135   2.383   0.337   4.331 -0.3485  0.6561  2.0600
 3834SOL    HW223136   2.258   0.380   4.388 -0.5427 -2.1816  0.3993
 3835SOL     OW23137   2.700   1.467   3.907 -0.1245  0.2251  0.1935
 3835SOL    HW123138   2.617   1.515   3.914 -1.3452 -1.6865 -1.1789
 3835SOL    HW223139   2.679   1.425   3.823 -0.7684  0.2390  0.3507
 3836SOL     OW23140   1.565   0.004  15.155  0.4736  0.6304  0.4197
 3836SOL    HW123141   1.585   0.081  15.102 -0.1634  0.9669  0.6612
 3836SOL    HW223142   1.528   4.688  15.085 -0.7396 -0.9565  2.2644
 3837SOL     OW23143   1.750   2.223   4.589  0.0110  0.2269 -0.3162
 3837SOL    HW123144   1.821   2.243   4.651  1.2184  1.3078 -2.0537
 3837SOL    HW223145   1.783   2.145   4.545 -1.3446 -2.1320  2.8322
 3838SOL     OW23146   4.127   2.659   4.156  0.3302 -0.2490  0.2827
 3838SOL    HW123147   4.061   2.660   4.087  1.0205  0.6024 -0.3677
 3838SOL    HW223148   4.171   2.581   4.123 -1.0950  0.3191 -2.9623
 3839SOL     OW23149   0.938   3.578   7.193  0.2056 -0.0251  0.5511
 3839SOL    HW123150   0.900   3.568   7.106 -0.8449 -1.7465  1.2065
 3839SOL    HW223151   1.005   3.511   7.181  1.4138  1.1656  0.6008
 3840SOL     OW23152   2.169   2.360   6.911 -0.2651 -0.3418 -0.2037
 3840SOL    HW123153   2.134   2.278   6.948 -0.1017 -0.7509 -0.9734
 3840SOL    HW223154   2.112   2.423   6.956 -0.4205  0.2936 -1.3005
 3841SOL     OW23155   0.298   4.668   8.783  0.6357  0.2045 -0.1649
 3841SOL    HW123156   0.270   4.733   8.718 -0.0193  1.6050  1.5173
 3841SOL    HW223157   0.392   4.680   8.772  0.0972  2.8203 -1.7818
 3842SOL     OW23158   3.461   4.086   6.991 -0.6504  0.4580  0.4022
 3842SOL    HW123159   3.514   4.149   6.942  0.0870 -0.1968  0.3590
 3842SOL    HW223160   3.523   4.015   7.006 -2.1640 -0.6767  1.3516
 3843SOL     OW23161   4.116   2.359   6.024  0.3675 -0.5800 -0.1320
 3843SOL    HW123162   4.065   2.439   6.009  1.7771  0.4219  0.3283
 3843SOL    HW223163   4.084   2.291   5.965 -1.8252 -0.7666  1.2729
 3844SOL     OW23164   1.594   2.438   4.836 -0.1636  0.3372 -0.2556
 3844SOL    HW123165   1.654   2.513   4.840 -0.8655  0.8248  1.0917
 3844SOL    HW223166   1.582   2.421   4.929 -1.7325  1.3255 -0.2762
 3845SOL     OW23167   0.442   3.604   8.428  0.3604  0.2503  0.6677
 3845SOL    HW123168   0.348   3.595   8.412  0.6842 -2.5509  0.3126
 3845SOL    HW223169   0.443   3.699   8.438 -2.2784  0.2177  1.1199
 3846SOL     OW23170   1.648   2.177   1.913 -0.7373  0.2153  0.3690
 3846SOL    HW123171   1.616   2.246   1.855  1.8932  0.2944 -0.9840
 3846SOL    HW223172   1.621   2.097   1.867  2.6615 -0.3517 -0.5823
 3847SOL     OW23173   3.201   4.703   2.991  0.4859 -0.1162  0.9950
 3847SOL    HW123174   3.249   0.003   3.065  1.7024  1.9554 -0.8457
 3847SOL    HW223175   3.244   4.619   2.978  3.3977  1.4449  0.5126
 3848SOL     OW23176   0.547   3.352  12.108 -0.4179 -0.1108 -0.1624
 3848SOL    HW123177   0.594   3.433  12.088 -1.0964 -0.1714 -2.0026
 3848SOL    HW223178   0.582   3.343  12.197  1.6669 -0.8735 -1.0391
 3849SOL     OW23179   4.205   0.869   5.512 -0.0655 -0.1877 -0.3143
 3849SOL    HW123180   4.298   0.851   5.503 -0.6956 -3.6234  0.0698
 3849SOL    HW223181   4.199   0.933   5.442  0.5011  0.1693 -0.0362
 3850SOL     OW23182   1.324   3.628   2.375  0.1086 -0.3301 -0.3064
 3850SOL    HW123183   1.359   3.696   2.317 -1.4650  1.1055  0.4060
 3850SOL    HW223184   1.396   3.566   2.365 -0.3742 -0.7495 -1.0797
 3851SOL     OW23185   1.856   0.468  10.111 -0.3952  0.2930  0.4473
 3851SOL    HW123186   1.905   0.466  10.028 -1.5940  1.5835 -0.2817
 3851SOL    HW223187   1.767   0.450  10.080 -0.2748  0.1614  0.1736
 3852SOL     OW23188   4.326   0.842  17.629 -0.2530  0.5238 -0.0373
 3852SOL    HW123189   4.381   0.765  17.645  1.5452  1.9428  0.6013
 3852SOL    HW223190   4.387   0.916  17.640  0.4645 -0.2314  1.1083
 3853SOL     OW23191   2.748   0.077   4.101  0.1178  0.1385 -0.2539
 3853SOL    HW123192   2.719   4.725   4.114  0.0573  0.2279  0.2283
 3853SOL    HW223193   2.719   0.108   4.187  2.4671 -2.9276  1.6370
 3854SOL     OW23194   1.044   2.551   3.681 -0.4210 -0.4461 -0.6405
 3854SOL    HW123195   1.121   2.595   3.642  0.1885  0.5543  1.6854
 3854SOL    HW223196   1.089   2.501   3.749 -3.4888 -1.3813  0.6722
 3855SOL     OW23197   2.469   3.680   4.174 -0.1885 -0.5349 -0.6430
 3855SOL    HW123198   2.516   3.674   4.257 -0.8589  3.1600 -0.0187
 3855SOL    HW223199   2.386   3.640   4.199 -0.4393 -0.5924 -1.5727
 3856SOL     OW23200   2.646   2.262  16.236  0.3874  0.2058 -0.3787
 3856SOL    HW123201   2.671   2.235  16.324 -0.3604 -0.2110 -0.3006
 3856SOL    HW223202   2.704   2.213  16.178  2.4778  0.8801  1.1218
 3857SOL     OW23203   0.918   0.325  16.140  0.8303  0.7476 -0.3147
 3857SOL    HW123204   0.880   0.411  16.158  0.9914  1.0034 -1.2373
 3857SOL    HW223205   1.000   0.337  16.092  1.3620  0.1622  0.4227
 3858SOL     OW23206   3.689   1.431   3.701 -0.3729 -0.3215 -0.0096
 3858SOL    HW123207   3.662   1.340   3.691 -2.2350  0.1508  0.6795
 3858SOL    HW223208   3.754   1.428   3.771  0.5831 -0.7373 -0.9172
 3859SOL     OW23209   2.438   2.021   4.005 -0.5377  0.6971 -0.4796
 3859SOL    HW123210   2.366   2.035   3.943 -0.2328  1.0923 -0.7441
 3859SOL    HW223211   2.487   2.103   4.006  0.0883  0.3255 -1.0336
 3860SOL     OW23212   3.506   3.396   7.981  0.2397  0.0184  0.4378
 3860SOL    HW123213   3.590   3.432   7.953  0.5396 -0.6343  0.4998
 3860SOL    HW223214   3.522   3.302   7.974 -1.0101 -0.2170  0.6880
 3861SOL     OW23215   3.263   1.650  14.416  0.0066  0.2512  0.1760
 3861SOL    HW123216   3.292   1.573  14.368 -0.0762  2.6492 -3.7287
 3861SOL    HW223217   3.169   1.651  14.400 -0.0230  0.0306  0.3352
 3862SOL     OW23218   4.337   2.956   7.241 -0.7367 -0.1400  0.1278
 3862SOL    HW123219   4.290   2.984   7.320 -0.1865 -1.1129  0.7998
 3862SOL    HW223220   4.418   3.006   7.254 -0.3343 -0.7430 -0.0443
 3863SOL     OW23221   4.189   2.681   6.576  0.1250 -0.0291 -0.5373
 3863SOL    HW123222   4.268   2.725   6.542 -0.6091  1.1161 -0.7696
 3863SOL    HW223223   4.222   2.649   6.659 -0.2824 -2.5128 -1.3473
 3864SOL     OW23224   4.335   3.789   5.237 -0.2390  0.1393 -0.1674
 3864SOL    HW123225   4.407   3.835   5.194  0.1286  0.2710  0.5799
 3864SOL    HW223226   4.277   3.767   5.165  0.9244  0.0852 -1.0881
 3865SOL     OW23227   4.339   1.504   6.844 -0.0390  0.2070 -0.4193
 3865SOL    HW123228   4.267   1.472   6.897 -1.4113  0.1851 -2.2906
 3865SOL    HW223229   4.285   1.532   6.770 -1.3648 -1.7668 -0.1940
 3866SOL     OW23230   0.136   0.362   8.989 -0.2468 -0.7161 -0.1557
 3866SOL    HW123231   0.161   0.348   9.080  0.6517  1.0156 -0.1453
 3866SOL    HW223232   0.074   0.289   8.978  0.7100 -1.3376 -1.4742
 3867SOL     OW23233   2.359   4.505  15.728  0.1074  0.5552 -0.0073
 3867SOL    HW123234   2.447   4.541  15.727  0.6630 -0.7538  2.3471
 3867SOL    HW223235   2.375   4.415  15.701  0.1489  0.3886  0.5750
 3868SOL     OW23236   2.284   3.052   5.036 -0.0442 -0.3776  0.5190
 3868SOL    HW123237   2.376   3.060   5.059 -0.0674 -0.3095  0.5895
 3868SOL    HW223238   2.239   3.041   5.119  0.9603 -1.5336  0.8920
 3869SOL     OW23239   0.289   2.366   7.103 -0.3632 -0.2662  0.4523
 3869SOL    HW123240   0.313   2.458   7.118 -2.0696  0.2154  0.2084
 3869SOL    HW223241   0.235   2.376   7.025 -1.2002  1.4388  1.2493
 3870SOL     OW23242   3.141   2.544  15.315  0.0350 -0.1715  0.2433
 3870SOL    HW123243   3.192   2.583  15.244  0.6943  0.4112  1.0424
 3870SOL    HW223244   3.211   2.512  15.371 -1.3852 -0.1015  2.0669
 3871SOL     OW23245   3.180   3.035  13.069  0.2968  0.2319  0.0189
 3871SOL    HW123246   3.195   3.088  13.147  0.2453  2.6191 -1.6109
 3871SOL    HW223247   3.136   3.101  13.017  0.4170 -0.3633 -0.8386
 3872SOL     OW23248   2.559   2.376   4.815  0.1204 -0.3637  0.3273
 3872SOL    HW123249   2.498   2.334   4.754  1.0813  0.5986 -1.3007
 3872SOL    HW223250   2.619   2.301   4.820 -0.0535 -0.6337 -1.5504
 3873SOL     OW23251   2.037   3.264   6.987 -0.0043  0.2441  0.2497
 3873SOL    HW123252   1.970   3.319   7.029  1.6126  0.2585  2.8169
 3873SOL    HW223253   2.115   3.297   7.032  1.4985 -1.1096 -1.3822
 3874SOL     OW23254   4.455   1.039   4.553  0.7177 -0.1189  0.6457
 3874SOL    HW123255   4.513   1.064   4.626  0.3611 -2.0986  1.5948
 3874SOL    HW223256   4.523   1.011   4.493  0.8940 -2.8453  2.1117
 3875SOL     OW23257   4.680   2.710  17.719  0.0643  0.0085 -0.0244
 3875SOL    HW123258   4.707   2.793  17.681 -1.4110 -0.6102 -2.4811
 3875SOL    HW223259   4.605   2.745   0.016  1.0604  1.5984  0.3809
 3876SOL     OW23260   2.060   2.857  10.155 -0.0843 -0.1584  0.6915
 3876SOL    HW123261   1.971   2.839  10.185  0.6006  0.1743  2.9623
 3876SOL    HW223262   2.048   2.952  10.151  0.2608 -0.1496 -0.1337
 3877SOL     OW23263   4.429   3.278   0.896  0.4612  0.1355 -0.3610
 3877SOL    HW123264   4.474   3.218   0.836  0.4689 -1.9007  1.6915
 3877SOL    HW223265   4.474   3.361   0.878  0.4285  0.0995 -0.6137
 3878SOL     OW23266   4.257   3.235   0.671  0.4554 -0.2470  0.5121
 3878SOL    HW123267   4.324   3.169   0.656 -0.4218 -0.8679 -0.6551
 3878SOL    HW223268   4.250   3.239   0.767  0.6855  1.7483  0.4428
 3879SOL     OW23269   4.008   0.943   6.021 -0.1221  0.6284  0.0385
 3879SOL    HW123270   4.095   0.911   6.043 -0.2350 -0.3139 -0.8815
 3879SOL    HW223271   4.021   0.954   5.927 -0.0721  1.3535  0.1339
 3880SOL     OW23272   1.832   0.511   5.324  0.6272 -0.5901  0.8200
 3880SOL    HW123273   1.811   0.520   5.231 -0.8818 -0.4076  1.1812
 3880SOL    HW223274   1.771   0.576   5.359  1.5900 -0.7263  2.7861
 3881SOL     OW23275   2.028   4.509   9.275 -0.2846 -0.1608  0.0508
 3881SOL    HW123276   2.086   4.490   9.201  0.4068  0.0326  0.5414
 3881SOL    HW223277   1.982   4.590   9.249  0.5630  0.5481  0.7752
 3882SOL     OW23278   4.252   0.462  10.960  0.6121 -0.3710  0.5122
 3882SOL    HW123279   4.258   0.376  10.918 -2.9337 -0.3592  0.0414
 3882SOL    HW223280   4.325   0.448  11.021  0.5729 -2.0970  0.1703
 3883SOL     OW23281   2.788   0.080   3.072 -0.2177 -0.1611  0.1464
 3883SOL    HW123282   2.728   0.117   3.008  1.0415 -0.8438 -1.4279
 3883SOL    HW223283   2.746   0.101   3.155 -0.6168  1.3671 -0.4473
 3884SOL     OW23284   0.767   4.103   2.522 -0.3602 -0.0589  0.7110
 3884SOL    HW123285   0.716   4.070   2.448 -0.8883 -0.5675  1.3004
 3884SOL    HW223286   0.706   4.155   2.575  1.1174 -0.3050  2.6513
 3885SOL     OW23287   3.664   2.880   3.483 -0.5950 -0.2177  0.5862
 3885SOL    HW123288   3.655   2.932   3.403 -0.7837  0.1358  0.8365
 3885SOL    HW223289   3.605   2.923   3.545 -1.8646 -2.4905  0.9347
 3886SOL     OW23290   2.742   4.427   2.853 -0.0219  1.0323 -0.5662
 3886SOL    HW123291   2.812   4.479   2.891  0.4374  0.6761 -0.9199
 3886SOL    HW223292   2.687   4.424   2.931  0.9630  0.7147  0.1081
 3887SOL     OW23293   3.900   2.758   2.490  0.6223 -0.1279 -0.1661
 3887SOL    HW123294   3.980   2.809   2.487  1.3758 -1.2401  0.6950
 3887SOL    HW223295   3.941   2.675   2.463  2.1199  1.6077 -3.1652
 3888SOL     OW23296   2.917   2.187   8.550  0.5522 -0.2692  0.0574
 3888SOL    HW123297   2.824   2.171   8.562  0.4292  0.7448  0.4880
 3888SOL    HW223298   2.928   2.269   8.598 -0.2742  0.7100 -1.4080
 3889SOL     OW23299   0.992   1.739   6.807 -0.1423 -0.2873 -0.2791
 3889SOL    HW123300   0.996   1.807   6.874 -1.3646  0.0309 -0.5334
 3889SOL    HW223301   0.898   1.731   6.790 -0.1572  0.5156 -0.5636
 3890SOL     OW23302   1.418   4.297   7.745 -0.1886  0.2822 -0.2034
 3890SOL    HW123303   1.404   4.260   7.658 -2.4437  0.2156  0.1784
 3890SOL    HW223304   1.326   4.317   7.763 -0.0213 -0.1987  1.2197
 3891SOL     OW23305   4.590   1.488   6.134 -0.1917  0.2728 -0.0320
 3891SOL    HW123306   4.561   1.436   6.059 -0.5525 -0.6013  0.7091
 3891SOL    HW223307   4.516   1.501   6.194 -0.3403 -1.3273  0.1125
 3892SOL     OW23308   1.389   2.995   2.928  0.0675 -0.7272 -0.1070
 3892SOL    HW123309   1.376   3.079   2.883 -1.6164  0.0800  1.8634
 3892SOL    HW223310   1.478   3.003   2.962 -0.2488 -3.3160  1.3145
 3893SOL     OW23311   2.835   1.850   6.354  0.3534 -0.7658  0.3124
 3893SOL    HW123312   2.754   1.822   6.397  0.4735 -0.7819  0.5289
 3893SOL    HW223313   2.789   1.914   6.299 -0.5127  0.3362  2.3520
 3894SOL     OW23314   0.205   0.424   6.727  0.4475  0.0254  0.2071
 3894SOL    HW123315   0.224   0.473   6.807  1.6202  0.3654 -0.2770
 3894SOL    HW223316   0.219   0.339   6.769 -0.8552  0.3376  1.2785
 3895SOL     OW23317   4.360   1.496   4.107  0.1128  0.2667  0.7666
 3895SOL    HW123318   4.399   1.573   4.065 -2.2826  1.1431  0.1355
 3895SOL    HW223319   4.427   1.439   4.145 -0.2518 -1.6608 -1.4909
 3896SOL     OW23320   1.269   3.225   3.363 -0.0658  0.3165 -0.3146
 3896SOL    HW123321   1.243   3.245   3.273  0.4316  0.5734 -0.4032
 3896SOL    HW223322   1.320   3.146   3.348 -0.0355  0.2430  0.1838
 3897SOL     OW23323   2.536   2.328   6.310 -0.3169 -0.3796  0.0889
 3897SOL    HW123324   2.546   2.375   6.392 -0.4870  0.3777 -0.3248
 3897SOL    HW223325   2.610   2.267   6.316  0.0071 -0.0743 -0.7634
 3898SOL     OW23326   2.873   1.983  11.716 -0.4786 -0.4899 -0.1484
 3898SOL    HW123327   2.893   1.975  11.622  0.9745  0.3828  0.0750
 3898SOL    HW223328   2.852   2.077  11.714 -2.2549 -0.8984 -0.6612
 3899SOL     OW23329   1.191   3.454   6.541  0.0161  0.8622  0.2225
 3899SOL    HW123330   1.098   3.466   6.524 -0.3083  1.0477  2.0864
 3899SOL    HW223331   1.192   3.365   6.577  1.2617  0.2462 -1.3514
 3900SOL     OW23332   3.510   3.403  16.833 -0.1754 -0.2096 -0.3504
 3900SOL    HW123333   3.522   3.444  16.919 -0.8900 -1.3405  0.2912
 3900SOL    HW223334   3.424   3.436  16.807 -0.9657 -3.1273 -1.3859
 3901SOL     OW23335   3.875   0.899   0.660 -0.3673  0.2007 -0.4363
 3901SOL    HW123336   3.783   0.913   0.638  0.1876  0.9046 -2.2985
 3901SOL    HW223337   3.903   0.989   0.677  1.2737 -0.5567  0.9550
 3902SOL     OW23338   3.155   3.060   5.518 -0.2808  0.1139 -0.1394
 3902SOL    HW123339   3.117   3.067   5.605 -3.2942 -0.9179 -1.3712
 3902SOL    HW223340   3.165   3.150   5.486  2.4982 -0.1500  0.0148
 3903SOL     OW23341   2.905   2.595   4.281  0.3163 -0.1224 -0.1285
 3903SOL    HW123342   2.944   2.530   4.339  1.0563  1.3016  0.9745
 3903SOL    HW223343   2.959   2.590   4.203 -0.4699 -0.5164 -0.6420
 3904SOL     OW23344   4.263   3.683   3.220 -0.0042 -0.0643  0.4059
 3904SOL    HW123345   4.255   3.702   3.126  3.2195 -1.4746 -0.1868
 3904SOL    HW223346   4.345   3.635   3.209  1.4700  1.8777  2.9153
 3905SOL     OW23347   1.284   3.401  15.939  0.1098  0.0586  0.0830
 3905SOL    HW123348   1.284   3.411  16.034 -1.2391 -1.7905  0.2858
 3905SOL    HW223349   1.197   3.363  15.926 -0.5942  1.4696  0.5750
 3906SOL     OW23350   4.044   3.893  12.950 -0.0028 -0.0062  0.2226
 3906SOL    HW123351   3.959   3.869  12.913  0.6624 -2.0646 -0.0169
 3906SOL    HW223352   4.030   3.978  12.990 -0.4197  2.0544 -4.2450
 3907SOL     OW23353   3.154   3.483   8.152 -0.2916 -0.2862  0.3217
 3907SOL    HW123354   3.124   3.454   8.239 -0.9703 -0.1782  0.1243
 3907SOL    HW223355   3.087   3.550   8.135  1.2047  0.4594 -2.6011
 3908SOL     OW23356   2.573   0.899   7.303  0.2168  0.9030 -0.1539
 3908SOL    HW123357   2.608   0.810   7.301  1.4420  1.3580  1.0438
 3908SOL    HW223358   2.490   0.892   7.255  0.0002 -1.3683  0.5710
 3909SOL     OW23359   3.395   0.502   1.772 -0.2253  0.0934 -0.0410
 3909SOL    HW123360   3.307   0.531   1.795 -0.0538  0.0723  0.6451
 3909SOL    HW223361   3.404   0.419   1.819 -1.2174  2.7187  4.7804
 3910SOL     OW23362   3.808   2.252   9.285  0.4933  0.3711  0.3823
 3910SOL    HW123363   3.750   2.208   9.346 -0.3983 -2.8890 -2.8746
 3910SOL    HW223364   3.772   2.341   9.294 -1.3475 -0.5296  1.6949
 3911SOL     OW23365   2.010   3.515   6.516  0.0208  0.4200  0.3596
 3911SOL    HW123366   1.926   3.539   6.476 -0.5967 -1.4777  0.5081
 3911SOL    HW223367   2.017   3.582   6.584 -3.0170 -0.6559  1.7390
 3912SOL     OW23368   2.933   3.256  13.616  0.1571 -0.2912  0.0699
 3912SOL    HW123369   2.970   3.168  13.615  0.9482  0.0687 -2.4713
 3912SOL    HW223370   2.842   3.242  13.641  0.8595 -1.3453  1.9987
 3913SOL     OW23371   4.733   0.009   5.669 -0.3696  0.7002  0.1096
 3913SOL    HW123372   4.711   0.063   5.593  0.6072  0.3761 -0.3993
 3913SOL    HW223373   4.715   4.664   5.626  2.5488 -1.5364  3.2117
 3914SOL     OW23374   2.331   4.315   2.855 -0.1365  0.2101  0.0674
 3914SOL    HW123375   2.242   4.307   2.890  0.0855  0.0493  0.5933
 3914SOL    HW223376   2.371   4.346   2.936  0.9461  0.3750 -0.5280
 3915SOL     OW23377   3.293   4.274  11.732  0.8842 -0.6955  0.2477
 3915SOL    HW123378   3.267   4.221  11.657 -1.5328 -0.2973  0.8025
 3915SOL    HW223379   3.256   4.359  11.711  1.3002 -0.2104  1.4853
 3916SOL     OW23380   1.443   1.181   4.508 -0.2376  0.2572  0.1409
 3916SOL    HW123381   1.457   1.274   4.492  0.5900 -0.3736 -2.6484
 3916SOL    HW223382   1.529   1.155   4.540  0.4695  2.5089  0.0481
 3917SOL     OW23383   1.540   3.379   9.958 -0.0820  0.2752 -0.3651
 3917SOL    HW123384   1.556   3.471   9.979  0.5854  0.0934 -0.0841
 3917SOL    HW223385   1.499   3.353  10.040  1.4018 -1.1613 -0.0753
 3918SOL     OW23386   3.101   1.745   1.171  0.2028  0.4962  0.1555
 3918SOL    HW123387   3.128   1.727   1.081  1.6262 -1.3696  0.9473
 3918SOL    HW223388   3.008   1.727   1.155  0.5651 -0.2056 -1.1627
 3919SOL     OW23389   4.625   3.072   6.962  0.4512  0.2106 -0.4795
 3919SOL    HW123390   4.559   3.135   6.990 -3.0754 -2.6774 -2.2732
 3919SOL    HW223391   4.707   3.107   6.997  0.0256  1.7000 -0.9924
 3920SOL     OW23392   2.350   0.455  13.055  0.0389  0.3197 -0.0275
 3920SOL    HW123393   2.304   0.377  13.087  1.2054 -0.3692 -0.0327
 3920SOL    HW223394   2.436   0.418  13.035 -0.0053  0.7353 -0.9431
 3921SOL     OW23395   2.764   2.219   3.727 -0.7645 -0.0307  0.7092
 3921SOL    HW123396   2.795   2.226   3.636  0.5356 -0.1425  1.1359
 3921SOL    HW223397   2.754   2.124   3.735 -0.1704 -0.1664 -0.0512
 3922SOL     OW23398   3.289   4.138   8.532  0.1223  0.5460  0.4888
 3922SOL    HW123399   3.343   4.106   8.460 -2.7103  0.3895 -1.5769
 3922SOL    HW223400   3.363   4.168   8.585  0.8454 -0.7223  0.1841
 3923SOL     OW23401   3.925   3.040   9.281 -0.2744 -0.3194 -0.0315
 3923SOL    HW123402   3.987   3.070   9.214  0.9611 -0.1046  1.2048
 3923SOL    HW223403   3.982   3.049   9.358 -0.3265  1.3391 -0.1764
 3924SOL     OW23404   2.587   0.215   0.257  0.4213  0.5365  0.2824
 3924SOL    HW123405   2.633   0.189   0.337  0.8946  2.8938  0.7805
 3924SOL    HW223406   2.556   0.306   0.261  0.9905  0.7281  0.3391
 3925SOL     OW23407   2.921   2.733  15.316 -0.5787  0.0871  0.5318
 3925SOL    HW123408   2.898   2.748  15.224  1.0963  1.5455  0.3549
 3925SOL    HW223409   2.993   2.673  15.303 -0.1944  0.7454 -0.3490
 3926SOL     OW23410   2.891   3.849  11.590 -0.5374  0.7351  0.3711
 3926SOL    HW123411   2.799   3.873  11.578 -0.7547 -0.6703 -0.8053
 3926SOL    HW223412   2.918   3.928  11.637  0.7694  0.2759  0.3630
 3927SOL     OW23413   4.312   2.204   2.847  0.7998 -0.2119  0.3564
 3927SOL    HW123414   4.260   2.190   2.926  0.0768  0.2153 -0.0502
 3927SOL    HW223415   4.274   2.145   2.782  1.2691  2.2073 -2.1121
 3928SOL     OW23416   0.089   3.148   5.560  0.4981 -0.2112  0.1753
 3928SOL    HW123417   0.173   3.193   5.567  0.2062  0.2561  0.6830
 3928SOL    HW223418   0.074   3.122   5.651 -0.2513  0.7774  0.3340
 3929SOL     OW23419   4.735   4.350   7.225 -0.5231  0.1424  0.2205
 3929SOL    HW123420   4.716   4.262   7.194 -1.9208  0.5261  0.0063
 3929SOL    HW223421   0.066   4.335   7.289  0.0553 -1.1809 -0.7289
 3930SOL     OW23422   2.385   0.237   2.058  0.1506  0.6384  0.6364
 3930SOL    HW123423   2.347   0.163   2.105  0.8001  0.4570  0.8600
 3930SOL    HW223424   2.406   0.198   1.973  0.6424  0.6598  0.7495
 3931SOL     OW23425   1.159   1.244   3.968  0.7391  0.0957  0.2965
 3931SOL    HW123426   1.219   1.254   4.041  1.2525  0.3289 -0.1569
 3931SOL    HW223427   1.078   1.284   3.999  0.4572  0.2453 -0.6157
 3932SOL     OW23428   0.911   1.952  15.796 -0.2022  0.2397  0.3671
 3932SOL    HW123429   0.986   1.983  15.846  0.3254  1.1541 -0.9765
 3932SOL    HW223430   0.920   1.985  15.706 -1.0538  0.5521  0.3994
 3933SOL     OW23431   0.639   2.214   3.257 -0.0790  0.0611 -0.5501
 3933SOL    HW123432   0.619   2.281   3.192  0.4561 -0.7663 -1.5685
 3933SOL    HW223433   0.613   2.131   3.217 -2.1877  0.7915 -0.7069
 3934SOL     OW23434   2.395   2.259   4.634  0.0008 -0.5853 -0.4980
 3934SOL    HW123435   2.342   2.301   4.566  0.0562 -3.3928 -2.2644
 3934SOL    HW223436   2.376   2.166   4.638 -2.3955 -0.0566  0.6934
 3935SOL     OW23437   3.207   2.739  12.242 -0.4964 -0.2317 -0.2694
 3935SOL    HW123438   3.137   2.777  12.295 -0.1379  0.3662 -0.2259
 3935SOL    HW223439   3.273   2.806  12.259  1.1384 -1.4146 -1.9954
 3936SOL     OW23440   0.500   0.495   6.133 -0.1022  0.1159  0.0609
 3936SOL    HW123441   0.532   0.426   6.192  0.8167 -0.7177 -1.4176
 3936SOL    HW223442   0.501   0.571   6.191 -0.6839  0.0989  0.0942
 3937SOL     OW23443   2.423   1.024   6.879 -0.2258 -0.1845 -0.4989
 3937SOL    HW123444   2.447   1.004   6.788 -0.3702 -0.0104 -0.5743
 3937SOL    HW223445   2.504   1.003   6.925 -1.1027 -0.3201  0.9686
 3938SOL     OW23446   3.562   4.536   5.875 -0.1228 -0.1731  0.0908
 3938SOL    HW123447   3.592   4.621   5.907  2.1125 -0.4801 -1.2273
 3938SOL    HW223448   3.574   4.553   5.782  2.6039 -1.7593  0.1490
 3939SOL     OW23449   3.634   1.474   9.154  0.0589  0.1245  0.0592
 3939SOL    HW123450   3.674   1.540   9.097  1.3529 -0.9057 -0.2261
 3939SOL    HW223451   3.612   1.412   9.084 -0.1915  2.0231 -1.5538
 3940SOL     OW23452   1.160   0.307  16.035 -0.6841 -0.0178 -0.1781
 3940SOL    HW123453   1.135   0.321  15.944  1.4446  2.8194 -0.3280
 3940SOL    HW223454   1.203   0.221  16.028 -0.6014  0.1263 -1.4271
 3941SOL     OW23455   3.591   3.663   8.637  0.3100 -0.1708 -0.1607
 3941SOL    HW123456   3.527   3.718   8.680  0.0678  1.1608 -2.2230
 3941SOL    HW223457   3.660   3.659   8.703  1.8368  1.8592 -1.6171
 3942SOL     OW23458   3.112   1.122  12.777 -0.5823 -0.1020  0.3745
 3942SOL    HW123459   3.118   1.187  12.846  2.2520  1.4781 -1.3713
 3942SOL    HW223460   3.027   1.081  12.793 -0.9556  1.2671  1.8013
 3943SOL     OW23461   2.400   2.110  16.270 -0.0223 -0.2248  0.1120
 3943SOL    HW123462   2.474   2.164  16.243 -1.1387  0.8269 -0.8267
 3943SOL    HW223463   2.343   2.111  16.193  0.3549  0.9028 -0.1445
 3944SOL     OW23464   0.649   3.630  13.018 -0.0650 -0.0396 -0.4266
 3944SOL    HW123465   0.664   3.668  13.104  2.0481 -0.0300 -0.7905
 3944SOL    HW223466   0.562   3.663  12.997 -0.1949 -0.5969 -0.7710
 3945SOL     OW23467   0.530   4.530  16.346 -0.0935 -0.4543  0.4017
 3945SOL    HW123468   0.579   4.609  16.371  0.1075 -0.1948 -0.8178
 3945SOL    HW223469   0.574   4.477  16.413 -1.2018 -0.4923  1.0999
 3946SOL     OW23470   1.081   2.743   3.448 -0.4249 -0.0659 -0.1738
 3946SOL    HW123471   1.010   2.696   3.493  0.9293 -1.7394  0.2039
 3946SOL    HW223472   1.083   2.829   3.490 -1.2113 -1.5127  2.8225
 3947SOL     OW23473   3.686   0.277   6.862  0.4061 -0.7164  0.2898
 3947SOL    HW123474   3.688   0.339   6.790  1.8024 -0.3767  0.6050
 3947SOL    HW223475   3.708   0.327   6.941 -0.4170  0.5441 -0.2855
 3948SOL     OW23476   0.834   3.245   3.742 -0.2768  0.1083  0.2133
 3948SOL    HW123477   0.747   3.215   3.767 -0.1504  0.8844  1.5590
 3948SOL    HW223478   0.799   3.316   3.687 -1.3221 -1.2960 -0.9533
 3949SOL     OW23479   2.520   0.590   7.498 -0.5758  0.2639 -0.5256
 3949SOL    HW123480   2.453   0.570   7.432 -0.0856 -0.0595 -0.9305
 3949SOL    HW223481   2.603   0.599   7.451  0.9436  0.1547  2.1228
 3950SOL     OW23482   0.111   2.523   6.498  0.0543 -0.1041 -0.1127
 3950SOL    HW123483   0.016   2.530   6.487  0.0237 -0.7640 -0.3255
 3950SOL    HW223484   0.117   2.571   6.580 -0.3282 -0.8349  0.3428
 3951SOL     OW23485   2.423   2.352   8.488  0.2314 -0.4507  0.0864
 3951SOL    HW123486   2.386   2.385   8.405  2.2160  0.2718 -0.5131
 3951SOL    HW223487   2.512   2.340   8.454 -0.4544  0.7051 -2.1790
 3952SOL     OW23488   3.188   0.285  11.724  0.5076 -0.1477  0.2343
 3952SOL    HW123489   3.188   0.379  11.705 -0.3757 -0.5949 -2.0640
 3952SOL    HW223490   3.265   0.266  11.778 -0.3141  1.1343  1.8523
 3953SOL     OW23491   2.846   4.651   5.123  0.1803 -0.2929 -0.9256
 3953SOL    HW123492   2.763   4.694   5.141  1.4693  1.8949 -0.1771
 3953SOL    HW223493   2.918   4.714   5.120  0.6458 -0.7868 -0.1489
 3954SOL     OW23494   2.046   2.501   6.580  0.3196 -0.4827 -0.2572
 3954SOL    HW123495   2.072   2.592   6.596  1.9236 -0.9013 -0.4946
 3954SOL    HW223496   2.132   2.461   6.567  1.8324  2.1531  1.6723
 3955SOL     OW23497   2.909   2.398   8.723 -0.5962 -0.6371 -0.3757
 3955SOL    HW123498   2.930   2.383   8.815 -3.8580 -0.2926  0.4158
 3955SOL    HW223499   2.835   2.458   8.729  0.6971  0.8401  0.7757
 3956SOL     OW23500   3.847   3.370  10.021 -0.2450 -0.2404 -0.3204
 3956SOL    HW123501   3.906   3.418   9.962  0.0574 -1.1881 -0.7893
 3956SOL    HW223502   3.808   3.441  10.071 -1.2312 -0.0067 -1.4322
 3957SOL     OW23503   1.194   2.489  16.609  0.2047 -0.0547  0.8102
 3957SOL    HW123504   1.158   2.401  16.597 -0.1348  0.2693 -0.5407
 3957SOL    HW223505   1.222   2.520  16.523  2.0881  0.4841  1.6199
 3958SOL     OW23506   4.208   2.814   7.991 -0.4918  0.7920  0.4570
 3958SOL    HW123507   4.182   2.784   7.905 -1.8043  1.8527  0.4849
 3958SOL    HW223508   4.159   2.759   8.051 -0.8515  1.7829  1.0846
 3959SOL     OW23509   2.701   3.806   7.573  0.2754  0.3598  0.0922
 3959SOL    HW123510   2.784   3.770   7.603  1.3928  2.4203 -0.5441
 3959SOL    HW223511   2.735   3.888   7.536 -2.9367  1.5041 -0.3240
 3960SOL     OW23512   3.575   3.126   2.962  0.1389 -0.0561  0.1735
 3960SOL    HW123513   3.569   3.198   3.026 -1.6516 -0.6222  0.6508
 3960SOL    HW223514   3.640   3.071   3.005 -0.0189  0.9209  1.6941
 3961SOL     OW23515   0.163   2.413   7.647 -0.1425 -0.4264 -0.1135
 3961SOL    HW123516   0.169   2.387   7.739  1.6357 -1.0214 -0.3901
 3961SOL    HW223517   0.077   2.454   7.646 -0.7859 -1.7855  1.1976
 3962SOL     OW23518   2.973   1.723   4.409 -0.2356  0.2008 -0.2143
 3962SOL    HW123519   2.894   1.712   4.461 -0.1236  1.6897  0.2589
 3962SOL    HW223520   3.020   1.789   4.460 -3.7625  2.0557  0.5926
 3963SOL     OW23521   2.679   3.630   1.980 -0.1176  0.1958  0.4087
 3963SOL    HW123522   2.774   3.626   1.967 -0.2266  1.2401 -0.8317
 3963SOL    HW223523   2.648   3.625   1.889  0.6164 -0.5490  0.2026
 3964SOL     OW23524   0.347   3.090   1.425 -0.5776  0.6200  0.1621
 3964SOL    HW123525   0.288   3.015   1.415  1.2877 -0.7073 -0.8665
 3964SOL    HW223526   0.304   3.159   1.374 -1.7568 -1.0725 -1.1069
 3965SOL     OW23527   3.796   3.221   6.193 -0.1241 -0.1722 -0.1966
 3965SOL    HW123528   3.874   3.189   6.149 -0.4708  1.0267 -1.6812
 3965SOL    HW223529   3.779   3.309   6.159  0.0839  0.3958  1.1564
 3966SOL     OW23530   2.550   0.361   9.848 -0.5243  0.6074 -0.1137
 3966SOL    HW123531   2.529   0.381   9.939 -1.6100 -1.2945  0.0451
 3966SOL    HW223532   2.564   0.266   9.846  0.9259  0.8036  0.3941
 3967SOL     OW23533   1.984   1.045   0.394  0.2176  0.2210  0.2298
 3967SOL    HW123534   2.020   1.104   0.460 -1.0938 -0.6107  1.6847
 3967SOL    HW223535   1.931   1.100   0.336  0.5065  0.3811  0.1187
 3968SOL     OW23536   2.823   2.920   0.442 -0.0096  0.6298 -0.4505
 3968SOL    HW123537   2.869   3.002   0.426  2.4840  0.0049  3.4431
 3968SOL    HW223538   2.754   2.934   0.506 -1.5329 -0.4940 -1.8502
 3969SOL     OW23539   1.642   3.540  15.603 -0.4688  0.1054 -0.0929
 3969SOL    HW123540   1.649   3.541  15.699  2.6064  0.5729 -0.3210
 3969SOL    HW223541   1.721   3.588  15.579 -0.8419  1.5692  1.5653
 3970SOL     OW23542   4.123   1.192   4.785 -0.0210 -0.5373  0.0349
 3970SOL    HW123543   4.150   1.124   4.847  0.1156  0.6167  1.2434
 3970SOL    HW223544   4.150   1.150   4.703 -0.1355 -0.0121 -0.2732
 3971SOL     OW23545   2.997   3.781  16.604  0.3165  0.0455 -0.3155
 3971SOL    HW123546   2.965   3.832  16.678  1.6812  0.1390  0.2169
 3971SOL    HW223547   2.962   3.694  16.626  2.7497 -0.2164  2.5033
 3972SOL     OW23548   0.109   4.467   5.804 -0.8461 -0.6998 -0.2655
 3972SOL    HW123549   0.161   4.548   5.809  0.1516 -1.4874  1.7871
 3972SOL    HW223550   0.026   4.494   5.764 -0.5672 -1.0012 -1.0623
 3973SOL     OW23551   0.868   3.769   4.254 -0.2011  0.1481  0.3188
 3973SOL    HW123552   0.907   3.840   4.306  2.1578 -1.0712  0.1808
 3973SOL    HW223553   0.841   3.702   4.316 -0.2977 -0.2739 -0.1797
 3974SOL     OW23554   2.165   3.100   3.354 -0.3103  0.1213  0.6372
 3974SOL    HW123555   2.232   3.168   3.362  0.6710 -0.6775 -0.6689
 3974SOL    HW223556   2.195   3.027   3.409  2.2968  2.1002  1.8413
 3975SOL     OW23557   2.872   3.996  14.973  0.0357  0.2395 -0.0506
 3975SOL    HW123558   2.926   4.068  14.941 -0.3427  0.2872 -0.5822
 3975SOL    HW223559   2.801   3.994  14.909 -0.5142 -2.2494  0.6533
 3976SOL     OW23560   2.566   0.752   6.776  0.6193 -0.0038 -0.1232
 3976SOL    HW123561   2.632   0.782   6.838  0.3371 -1.6606  0.9570
 3976SOL    HW223562   2.559   0.662   6.807 -1.1121  0.5728  1.1755
 3977SOL     OW23563   1.108   3.945   4.559  0.3811 -0.4784  0.6414
 3977SOL    HW123564   1.026   3.979   4.522  1.2823 -1.0866 -1.8789
 3977SOL    HW223565   1.155   4.021   4.593 -0.5563 -0.1046  1.1178
 3978SOL     OW23566   4.314   2.579   4.355  0.6926 -0.0077 -0.9984
 3978SOL    HW123567   4.261   2.635   4.299  0.5314  0.5312 -0.3080
 3978SOL    HW223568   4.256   2.587   4.431  0.0978 -2.8460 -1.1457
 3979SOL     OW23569   1.974   2.277   7.524  0.4303  0.0650 -0.3197
 3979SOL    HW123570   1.889   2.318   7.542 -0.2186 -0.7036 -1.7075
 3979SOL    HW223571   1.977   2.297   7.431 -0.6061  0.2567 -0.3142
 3980SOL     OW23572   4.724   3.071   3.432 -0.0792  0.2767 -0.0591
 3980SOL    HW123573   0.016   3.026   3.511  0.5305 -2.3725 -1.7799
 3980SOL    HW223574   0.006   3.161   3.458  0.4002  0.6256 -1.6662
 3981SOL     OW23575   0.925   0.508   8.805  0.5283 -0.0075  0.8194
 3981SOL    HW123576   0.848   0.551   8.767  1.6016  3.8250  2.9973
 3981SOL    HW223577   0.939   0.562   8.883 -0.6335 -0.0244  1.0479
 3982SOL     OW23578   2.087   1.354   9.114  0.3649 -0.4482  0.2748
 3982SOL    HW123579   2.135   1.276   9.085  1.1780  0.9497 -2.1626
 3982SOL    HW223580   2.048   1.389   9.034 -0.9118 -0.1246  1.0366
 3983SOL     OW23581   3.815   4.617   4.257  0.0717 -0.1762 -0.4000
 3983SOL    HW123582   3.826   4.640   4.165 -0.4680 -0.0659 -0.4394
 3983SOL    HW223583   3.880   4.674   4.299 -1.1556  0.5720  0.5063
 3984SOL     OW23584   4.096   0.395  12.854  0.2915  0.1674  0.2006
 3984SOL    HW123585   4.053   0.355  12.778 -0.0511 -0.1802  0.5806
 3984SOL    HW223586   4.098   0.485  12.823  0.5902  0.6215  1.5646
 3985SOL     OW23587   2.347   3.113   6.027  0.3282 -0.8293 -0.4763
 3985SOL    HW123588   2.321   3.099   6.118  0.2914 -1.3535 -0.5707
 3985SOL    HW223589   2.442   3.122   6.038 -0.0377  1.5778  0.6587
 3986SOL     OW23590   0.237   2.968   4.645  0.1708 -0.4897  0.1269
 3986SOL    HW123591   0.266   3.004   4.561  0.0880 -0.4683  0.1076
 3986SOL    HW223592   0.185   2.899   4.605  1.2231 -1.4258  0.3587
 3987SOL     OW23593   4.023   3.243   9.711 -0.3610  0.2939 -0.1388
 3987SOL    HW123594   4.079   3.263   9.636  0.4364 -0.1389  0.3310
 3987SOL    HW223595   4.021   3.147   9.714 -1.0879  0.2578 -1.6192
 3988SOL     OW23596   0.496   4.035   1.949 -0.9672 -0.9166  0.5182
 3988SOL    HW123597   0.442   4.078   2.015 -2.9337 -0.9503 -1.0985
 3988SOL    HW223598   0.549   4.109   1.922  0.5654 -1.4166  2.1421
 3989SOL     OW23599   3.410   2.935   2.598 -0.4066 -0.1736 -0.1267
 3989SOL    HW123600   3.326   2.909   2.559 -0.2567  0.1464 -0.6653
 3989SOL    HW223601   3.470   2.930   2.523  1.4480 -1.2078  1.4022
 3990SOL     OW23602   1.676   0.510   1.177  0.5688  0.7278 -0.1779
 3990SOL    HW123603   1.760   0.511   1.131  0.5976 -3.8875 -0.1473
 3990SOL    HW223604   1.705   0.514   1.269  3.1423 -0.0200 -0.9492
 3991SOL     OW23605   3.950   1.701  11.520 -0.1788  0.4431  0.4208
 3991SOL    HW123606   3.934   1.793  11.541  0.8811  0.4586  1.1648
 3991SOL    HW223607   3.863   1.680  11.487 -0.3567  1.3227  0.3160
 3992SOL     OW23608   0.210   2.367   3.079 -0.2343 -0.6754  0.0625
 3992SOL    HW123609   0.254   2.447   3.108 -0.5185 -0.6378  0.3899
 3992SOL    HW223610   0.280   2.332   3.023 -0.8155  0.4886 -1.4055
 3993SOL     OW23611   0.873   1.429  16.868 -0.6776 -0.2640  0.2703
 3993SOL    HW123612   0.886   1.519  16.836  0.2271 -0.0520  1.2165
 3993SOL    HW223613   0.866   1.380  16.787 -1.4046 -0.4565  0.4516
 3994SOL     OW23614   3.670   4.305   1.949 -0.4253 -0.3923  0.5136
 3994SOL    HW123615   3.684   4.271   1.860  0.0149  1.1818 -0.0268
 3994SOL    HW223616   3.591   4.262   1.982 -1.0106  0.8993  0.7755
 3995SOL     OW23617   3.138   2.536   8.411  0.1522 -0.2370 -0.1991
 3995SOL    HW123618   3.132   2.492   8.496 -2.4341 -0.6721 -0.6083
 3995SOL    HW223619   3.144   2.460   8.353  2.6566 -1.0090  1.0674
 3996SOL     OW23620   0.778   0.116   4.166 -0.7640  0.1909  0.4859
 3996SOL    HW123621   0.711   0.069   4.215  0.2854 -1.8536 -0.0557
 3996SOL    HW223622   0.852   0.057   4.179 -1.1577 -0.4997 -0.4376
 3997SOL     OW23623   0.057   0.569   5.427  0.5300  0.1953  0.1504
 3997SOL    HW123624   0.020   0.494   5.380 -0.2469  1.0258 -0.5769
 3997SOL    HW223625   4.738   0.638   5.393  0.0980 -1.5271 -2.6330
 3998SOL     OW23626   3.229   1.793  16.123  0.0744  0.0880 -0.1268
 3998SOL    HW123627   3.269   1.808  16.209  3.1832  1.4751 -1.8333
 3998SOL    HW223628   3.208   1.880  16.090  0.9674  0.4207  0.1844
 3999SOL     OW23629   4.158   1.148   2.389  0.1507 -0.3256 -0.1649
 3999SOL    HW123630   4.105   1.079   2.429 -0.4728 -0.5869 -1.4523
 3999SOL    HW223631   4.095   1.187   2.329  1.7926  0.7246 -1.2337
 4000SOL     OW23632   4.228   1.942  13.282  0.3464  0.3092  0.4629
 4000SOL    HW123633   4.302   1.984  13.326  0.5802  0.5254 -0.1343
 4000SOL    HW223634   4.157   2.000  13.310  0.4420  1.2802 -1.3159
 4001SOL     OW23635   2.516   0.201   1.767  0.3680 -0.3016  0.3561
 4001SOL    HW123636   2.589   0.250   1.729  0.7612 -1.4107 -0.3374
 4001SOL    HW223637   2.443   0.242   1.721 -0.5860 -2.6754 -0.3001
 4002SOL     OW23638   2.850   3.113   8.751 -0.0174  0.5261 -0.7203
 4002SOL    HW123639   2.917   3.089   8.815  1.4149  0.8544 -2.1123
 4002SOL    HW223640   2.825   3.023   8.732  1.8959 -0.4485  1.3167
 4003SOL     OW23641   0.505   1.616   9.178  0.7978 -0.0698  1.0437
 4003SOL    HW123642   0.471   1.567   9.252 -0.9885 -1.8320 -0.9394
 4003SOL    HW223643   0.542   1.694   9.220  1.2468  0.7246 -0.8303
 4004SOL     OW23644   0.157   4.548   7.793  0.4827  0.2461 -0.0663
 4004SOL    HW123645   0.218   4.622   7.791  1.4711 -0.5781 -0.2296
 4004SOL    HW223646   0.208   4.467   7.791  1.6750  1.0356 -0.9324
 4005SOL     OW23647   1.700   4.178   6.261 -0.0402  0.1873 -0.9558
 4005SOL    HW123648   1.670   4.234   6.332 -1.6499 -0.2664 -1.2667
 4005SOL    HW223649   1.795   4.176   6.274 -0.4227  1.3170  1.9560
 4006SOL     OW23650   0.176   0.408  17.279  0.7019 -0.8385 -0.1840
 4006SOL    HW123651   0.109   0.471  17.305  1.0432 -0.1257 -1.0208
 4006SOL    HW223652   0.206   0.389  17.367  2.4515  0.0184 -0.6056
 4007SOL     OW23653   4.571   0.699   6.453  0.2326 -0.1677  0.5680
 4007SOL    HW123654   4.644   0.668   6.506  1.1028 -0.2944 -0.6997
 4007SOL    HW223655   4.595   0.693   6.360  2.1095 -3.7878  1.3099
 4008SOL     OW23656   3.686   3.178   9.226 -0.3887  0.1263 -0.2360
 4008SOL    HW123657   3.773   3.160   9.260 -1.3189 -0.4469  1.7975
 4008SOL    HW223658   3.632   3.144   9.297 -1.9931  0.3635 -1.3320
 4009SOL     OW23659   0.778   2.009  17.610  0.0189  0.0110  0.1363
 4009SOL    HW123660   0.799   2.101  17.596 -2.6048  1.0669  2.9819
 4009SOL    HW223661   0.841   1.970  17.550  1.5496  1.8433  0.5922
 4010SOL     OW23662   4.453   0.910   2.258  0.3975 -0.4906 -0.4365
 4010SOL    HW123663   4.366   0.910   2.218 -0.2696 -1.3073  1.0275
 4010SOL    HW223664   4.466   0.819   2.284 -2.9921 -1.1607 -1.1056
 4011SOL     OW23665   0.410   4.229   9.240  0.0434 -0.3685 -0.1658
 4011SOL    HW123666   0.490   4.179   9.224  2.3606  2.2223  3.2532
 4011SOL    HW223667   0.436   4.296   9.303 -1.1076  1.1525 -1.2833
 4012SOL     OW23668   1.985   3.808   9.555 -0.2265  0.3662 -0.0799
 4012SOL    HW123669   1.940   3.892   9.550 -0.7773  0.0917  0.2659
 4012SOL    HW223670   1.949   3.774   9.473 -0.9724  0.8810  0.0362
 4013SOL     OW23671   2.848   2.734   8.970  0.3235  0.1253  0.2073
 4013SOL    HW123672   2.928   2.692   8.939  0.2294  0.9867 -1.2074
 4013SOL    HW223673   2.809   2.774   8.893 -0.5048  1.6832  1.4458
 4014SOL     OW23674   2.784   4.690  17.211  0.5004 -0.8191 -0.4293
 4014SOL    HW123675   2.775   4.699  17.306  0.6845 -1.5707 -0.3390
 4014SOL    HW223676   2.741   0.027  17.171  2.4075  1.0638  1.0968
 4015SOL     OW23677   2.695   4.017  14.784 -0.3824 -0.2179 -0.1312
 4015SOL    HW123678   2.673   4.077  14.713 -2.1643 -1.4061 -0.5849
 4015SOL    HW223679   2.669   3.934  14.742 -1.0395  0.9307 -1.9899
 4016SOL     OW23680   0.618   4.266   1.903 -0.3947  0.0372  0.0785
 4016SOL    HW123681   0.555   4.338   1.911  0.1842  0.7040 -1.3152
 4016SOL    HW223682   0.686   4.315   1.856  0.2891 -0.6780  0.3193
 4017SOL     OW23683   0.156   3.915  17.366 -0.1675  0.3475  0.8840
 4017SOL    HW123684   0.075   3.927  17.317  0.6947 -0.0149 -0.6011
 4017SOL    HW223685   0.107   3.929  17.448 -0.6085  0.8582  0.5361
 4018SOL     OW23686   2.522   2.286  12.981 -0.3428 -0.1951  0.5561
 4018SOL    HW123687   2.565   2.310  12.899 -0.4153 -0.2570  0.4998
 4018SOL    HW223688   2.432   2.314  12.964 -0.7384 -2.1794 -0.6229
 4019SOL     OW23689   2.103   4.634   9.689  0.5407 -0.5001  0.4670
 4019SOL    HW123690   2.086   4.556   9.636  1.1789  0.1733 -0.7193
 4019SOL    HW223691   2.192   4.655   9.663 -0.1893  1.8397 -0.1861
 4020SOL     OW23692   3.260   4.220   6.140  0.1283  0.5889 -0.1805
 4020SOL    HW123693   3.347   4.179   6.141 -1.0716 -1.9362 -1.2520
 4020SOL    HW223694   3.234   4.180   6.222  1.3730  0.5195  0.1843
 4021SOL     OW23695   3.119   0.024   4.618  0.3259 -0.2732 -0.3629
 4021SOL    HW123696   3.065   4.690   4.650 -0.1051  0.8951  1.4917
 4021SOL    HW223697   3.163   4.720   4.544  1.8381 -0.6653  0.7562
 4022SOL     OW23698   4.071   3.829   7.217  0.5258  0.1496  0.2192
 4022SOL    HW123699   4.005   3.760   7.208  1.1524 -0.4346  0.0776
 4022SOL    HW223700   4.015   3.905   7.204  0.6265  0.0240 -0.9962
 4023SOL     OW23701   3.431   0.977  15.092 -0.1606  0.2574  0.4386
 4023SOL    HW123702   3.490   0.929  15.034 -1.6196 -0.1195 -0.7314
 4023SOL    HW223703   3.464   0.955  15.179  1.9832  0.9347 -0.2061
 4024SOL     OW23704   1.448   2.322   1.280  0.0929  0.0625  0.3393
 4024SOL    HW123705   1.410   2.238   1.303 -1.0222  0.5001  0.1067
 4024SOL    HW223706   1.525   2.288   1.234 -0.3289 -0.3006 -0.0969
 4025SOL     OW23707   2.135   2.740   5.435  0.2415 -0.2387  0.2862
 4025SOL    HW123708   2.173   2.692   5.509 -0.4869  0.7759  1.3235
 4025SOL    HW223709   2.056   2.776   5.475  0.4451  0.2007  0.2964
 4026SOL     OW23710   0.125   2.817   5.136  0.2519  0.2007 -0.0741
 4026SOL    HW123711   0.131   2.902   5.179 -2.9869  1.1439 -1.5007
 4026SOL    HW223712   0.052   2.820   5.074 -1.0593 -0.4955  1.4253
 4027SOL     OW23713   1.972   0.275   2.143 -0.1294 -0.7267  0.3824
 4027SOL    HW123714   2.019   0.242   2.219  1.4306 -2.4140 -1.3226
 4027SOL    HW223715   1.979   0.369   2.161 -0.0194 -0.3221 -1.8589
 4028SOL     OW23716   2.442   1.619   4.264 -0.0582 -0.2676  0.2099
 4028SOL    HW123717   2.396   1.700   4.288  1.1234  0.0778  1.2981
 4028SOL    HW223718   2.505   1.650   4.199  0.7793 -0.1501  1.0812
 4029SOL     OW23719   0.897   0.009  17.548 -0.3580 -0.3719 -0.0485
 4029SOL    HW123720   0.979   0.021  17.501  0.4019  1.6921  1.7755
 4029SOL    HW223721   0.852   0.092  17.530 -0.3176 -0.1467  0.8843
 4030SOL     OW23722   3.183   0.879   3.919  0.0444  0.2855 -0.0597
 4030SOL    HW123723   3.104   0.831   3.897 -0.3598  0.6235  0.6436
 4030SOL    HW223724   3.147   0.949   3.974 -2.1684 -1.4721  0.7134
 4031SOL     OW23725   1.595   1.691  16.469 -0.3959  0.3136 -0.5975
 4031SOL    HW123726   1.623   1.733  16.551 -0.6762 -1.8802  0.6240
 4031SOL    HW223727   1.503   1.678  16.491  0.4568 -2.8796  1.0059
 4032SOL     OW23728   3.097   3.965   5.882  0.2803 -0.2754 -0.2927
 4032SOL    HW123729   3.183   3.940   5.848 -0.3564 -0.9830 -1.3562
 4032SOL    HW223730   3.104   4.060   5.876 -1.0685 -0.3227 -2.7245
 4033SOL     OW23731   0.421   1.580   8.926 -0.9064 -0.3674  0.4055
 4033SOL    HW123732   0.433   1.661   8.877 -0.1574 -1.7176 -1.6404
 4033SOL    HW223733   0.453   1.594   9.015  2.3249 -0.6592 -0.7104
 4034SOL     OW23734   1.597   3.199   3.721 -0.0000 -0.3635  0.0805
 4034SOL    HW123735   1.545   3.258   3.775  1.1051  1.0940 -0.4392
 4034SOL    HW223736   1.552   3.116   3.737 -1.0172 -0.1666 -1.7092
 4035SOL     OW23737   2.096   1.414   4.029 -0.3978  0.3376  0.0748
 4035SOL    HW123738   2.008   1.450   4.040 -0.3867 -0.8143  3.8641
 4035SOL    HW223739   2.150   1.472   4.082  0.7105  2.3751 -3.3245
 4036SOL     OW23740   2.755   3.792  16.000  0.4066 -0.4313  0.5055
 4036SOL    HW123741   2.783   3.724  16.062 -0.4665 -2.2628 -1.0927
 4036SOL    HW223742   2.796   3.760  15.920  0.1254 -1.2391  0.6858
 4037SOL     OW23743   2.326   2.350   8.209  0.6345  0.1366  0.1247
 4037SOL    HW123744   2.390   2.420   8.197  2.4806 -0.9780  3.4337
 4037SOL    HW223745   2.253   2.411   8.217  1.0494  0.6724 -0.2045
 4038SOL     OW23746   0.994   4.679   4.199 -0.5560  0.6897  0.0537
 4038SOL    HW123747   0.985   4.704   4.291  3.0071 -1.6311  1.0292
 4038SOL    HW223748   1.077   4.631   4.199 -0.8411  0.1868 -3.4211
 4039SOL     OW23749   1.084   0.734   9.812  0.2964 -0.1728  0.0287
 4039SOL    HW123750   1.125   0.673   9.874  0.8716  0.2971  0.1180
 4039SOL    HW223751   1.018   0.687   9.761 -0.1030  0.1362  0.2746
 4040SOL     OW23752   0.031   2.487   9.459  0.2316 -0.1137  0.4160
 4040SOL    HW123753   0.045   2.439   9.377  1.6563  2.8268 -1.0640
 4040SOL    HW223754   4.687   2.532   9.440  0.7126  0.6742  0.2247
 4041SOL     OW23755   4.210   1.680   2.104  0.4082  0.2128  0.6391
 4041SOL    HW123756   4.259   1.721   2.175 -0.8988 -0.7734  2.1101
 4041SOL    HW223757   4.126   1.724   2.116 -0.1419 -0.3107 -1.3173
 4042SOL     OW23758   2.760   0.549   8.719  0.5209  0.1177  0.7468
 4042SOL    HW123759   2.754   0.468   8.670  1.3667  0.4242  0.1508
 4042SOL    HW223760   2.685   0.534   8.777 -0.4386 -0.2795 -0.6067
 4043SOL     OW23761   0.884   2.805   7.385 -0.0870 -0.1801 -0.2177
 4043SOL    HW123762   0.958   2.751   7.412  1.1001  1.4834 -0.1202
 4043SOL    HW223763   0.847   2.758   7.310 -1.0104  2.9329 -1.7429
 4044SOL     OW23764   2.601   2.633  13.998 -0.2383  0.7131 -0.6445
 4044SOL    HW123765   2.657   2.677  14.062 -0.0407  1.2859 -1.2125
 4044SOL    HW223766   2.573   2.553  14.043 -0.7865  0.2720 -1.7803
 4045SOL     OW23767   3.524   4.090  13.410  0.0186 -0.0827 -0.4519
 4045SOL    HW123768   3.483   4.023  13.464  1.1458 -1.7926 -1.6918
 4045SOL    HW223769   3.512   4.162  13.472 -2.4177  0.2809 -1.3355
 4046SOL     OW23770   3.978   0.564   7.587  0.1989  0.8916  0.3170
 4046SOL    HW123771   4.009   0.524   7.506 -1.6635  0.4731 -0.1813
 4046SOL    HW223772   4.041   0.545   7.657 -1.3869  1.1193  1.7951
 4047SOL     OW23773   4.445   1.034  15.082 -0.2724 -0.5496 -0.1519
 4047SOL    HW123774   4.517   0.981  15.049  0.1296  1.1019 -1.8900
 4047SOL    HW223775   4.491   1.094  15.141  1.0917 -0.2190 -1.5663
 4048SOL     OW23776   2.597   4.640   7.215 -0.3959 -0.3629  0.3675
 4048SOL    HW123777   2.673   4.604   7.262  1.2657  1.0996 -1.1939
 4048SOL    HW223778   2.615   4.627   7.122 -1.2136  0.3030  0.1180
 4049SOL     OW23779   0.105   2.547  13.451  0.1398  0.2335  0.0695
 4049SOL    HW123780   0.151   2.483  13.396  1.2186 -0.4626  1.7993
 4049SOL    HW223781   0.048   2.579  13.381 -0.5415 -2.2197 -0.4881
 4050SOL     OW23782   4.440   3.935   4.036 -0.5564  0.3406  0.6404
 4050SOL    HW123783   4.422   3.885   4.116 -0.2403  1.8055  1.6356
 4050SOL    HW223784   4.354   3.935   3.994  0.2115 -1.7813 -0.9150
 4051SOL     OW23785   1.032   2.820   6.193 -0.0914  0.4209  0.6503
 4051SOL    HW123786   1.120   2.807   6.157 -0.9972 -1.9308 -0.7056
 4051SOL    HW223787   1.010   2.913   6.184  2.6436  0.8518 -1.5917
 4052SOL     OW23788   1.329   4.077   3.900  0.4281 -0.5402  0.6598
 4052SOL    HW123789   1.308   3.985   3.880  3.5365 -0.8540 -1.1537
 4052SOL    HW223790   1.343   4.115   3.813 -0.3887 -2.1972 -0.2046
 4053SOL     OW23791   1.613   1.048   7.337 -0.0653  0.3072  1.3636
 4053SOL    HW123792   1.670   0.972   7.350  0.4744  0.3684 -0.6765
 4053SOL    HW223793   1.674   1.119   7.314 -0.0257  0.7320  2.7916
 4054SOL     OW23794   0.248   3.311   4.551  0.1291  0.2674 -0.5753
 4054SOL    HW123795   0.303   3.242   4.514 -0.2448 -0.1836 -0.2909
 4054SOL    HW223796   0.172   3.253   4.543 -0.6606  1.5956 -2.7248
 4055SOL     OW23797   3.902   0.683   4.572 -0.0596  0.1554 -0.9583
 4055SOL    HW123798   3.864   0.768   4.594  0.2946 -0.1887  0.9826
 4055SOL    HW223799   3.880   0.636   4.653 -0.9216  0.4321 -1.0259
 4056SOL     OW23800   2.867   2.638   2.093 -0.4082 -0.5628  0.2429
 4056SOL    HW123801   2.778   2.638   2.128 -1.6771  1.0272 -3.0460
 4056SOL    HW223802   2.904   2.720   2.127 -0.8996 -0.4529  0.5243
 4057SOL     OW23803   1.833   1.392   1.778  0.2890 -0.2502 -0.3498
 4057SOL    HW123804   1.810   1.466   1.833  2.5635 -1.1956  1.8713
 4057SOL    HW223805   1.918   1.411   1.738  0.8615 -2.5265 -0.2258
 4058SOL     OW23806   2.999   2.845  12.399  0.1146  0.0551  0.0113
 4058SOL    HW123807   2.915   2.801  12.406  0.4646 -0.7262 -0.6034
 4058SOL    HW223808   2.990   2.937  12.373  1.5108  0.0706 -0.4270
 4059SOL     OW23809   3.904   0.001   5.715 -0.2841  0.2361  0.0865
 4059SOL    HW123810   3.965   4.728   5.788  0.4126 -0.9659 -0.6792
 4059SOL    HW223811   3.878   4.652   5.686 -1.1009  0.3787  0.3986
 4060SOL     OW23812   3.861   4.638  16.915  0.0084 -0.0359 -0.0594
 4060SOL    HW123813   3.928   4.569  16.915  1.3726  1.2976 -2.8395
 4060SOL    HW223814   3.898   4.686  16.841 -2.6108 -1.6248 -2.3961
 4061SOL     OW23815   2.920   0.225  13.195  0.6182 -0.8503  0.0555
 4061SOL    HW123816   2.979   0.268  13.134 -2.3264  0.4286 -1.8982
 4061SOL    HW223817   2.973   0.222  13.275 -1.0579 -0.7534  1.1730
 4062SOL     OW23818   0.400   3.423  12.381 -0.1232  0.4282  0.0710
 4062SOL    HW123819   0.419   3.451  12.470 -1.8313  2.7455 -0.2828
 4062SOL    HW223820   0.467   3.357  12.364 -1.1963 -0.3303 -1.2540
 4063SOL     OW23821   0.527   3.675   6.624  0.0660  0.9027  0.1033
 4063SOL    HW123822   0.454   3.735   6.606 -0.9066 -0.1881  0.4631
 4063SOL    HW223823   0.502   3.624   6.701 -1.2873 -0.2201 -1.0804
 4064SOL     OW23824   0.089   3.137  17.447  0.2859 -0.4512 -0.0605
 4064SOL    HW123825   0.130   3.197  17.385  0.2546  1.9002  2.2211
 4064SOL    HW223826   0.002   3.174  17.461  0.9469  1.3347 -0.7178
 4065SOL     OW23827   1.904   0.770   4.457  0.3251  0.3138  0.6008
 4065SOL    HW123828   1.894   0.692   4.511  0.4384 -1.3978 -1.8331
 4065SOL    HW223829   1.815   0.805   4.454 -0.4529 -1.5605  2.0656
 4066SOL     OW23830   1.650   3.493   6.650 -0.0771 -0.1793  0.0203
 4066SOL    HW123831   1.612   3.482   6.737  0.2984  3.0141  0.5893
 4066SOL    HW223832   1.634   3.406   6.613 -0.6196 -0.7098  1.5152
 4067SOL     OW23833   0.911   3.259   7.904  0.4083  0.5635 -0.2557
 4067SOL    HW123834   0.982   3.260   7.968  1.3993  2.0095 -1.3614
 4067SOL    HW223835   0.946   3.330   7.850  0.7691 -0.0587 -0.8463
 4068SOL     OW23836   1.320   4.694  10.016 -0.0305  0.2383  0.1413
 4068SOL    HW123837   1.366   4.688   9.932 -1.7197 -1.7196 -0.6444
 4068SOL    HW223838   1.230   4.680   9.987  0.9941 -2.2004 -1.8780
 4069SOL     OW23839   0.036   3.584   1.716  0.2207  0.2911  0.2670
 4069SOL    HW123840   0.124   3.615   1.692  0.5338 -1.1390 -0.4341
 4069SOL    HW223841   0.051   3.490   1.703 -0.4777  0.1383  0.5989
 4070SOL     OW23842   4.251   3.095   1.015 -0.4033  0.1218 -0.2657
 4070SOL    HW123843   4.292   3.169   0.969 -0.2404  0.5583  0.5846
 4070SOL    HW223844   4.165   3.135   1.023  0.0953  1.9723 -3.6335
 4071SOL     OW23845   1.010   3.662   0.242 -0.0919 -0.5228 -0.2402
 4071SOL    HW123846   1.090   3.712   0.221  0.6622 -1.6225  0.0213
 4071SOL    HW223847   0.990   3.625   0.156 -0.9817 -1.4579  0.3859
 4072SOL     OW23848   1.983   4.562   7.993 -0.1385 -0.6676 -0.5077
 4072SOL    HW123849   2.035   4.535   8.069 -0.4724  0.1048 -0.0050
 4072SOL    HW223850   2.008   4.501   7.924  2.7693 -0.9780  0.8138
 4073SOL     OW23851   4.072   4.198   5.338  0.4004 -0.0314  0.8560
 4073SOL    HW123852   4.030   4.115   5.313 -1.7343  1.6219 -1.1853
 4073SOL    HW223853   4.082   4.230   5.248 -0.6962  0.7258  1.0047
 4074SOL     OW23854   1.094   3.460  16.701 -0.1425 -0.1645 -0.4338
 4074SOL    HW123855   1.001   3.453  16.725 -0.1911  0.4258 -0.4450
 4074SOL    HW223856   1.126   3.372  16.716  0.2390  0.2708  1.2028
 4075SOL     OW23857   0.966   1.293   2.263 -0.2904  0.2630 -0.0545
 4075SOL    HW123858   0.964   1.373   2.211 -1.3757  0.4279  0.2356
 4075SOL    HW223859   0.875   1.262   2.262 -0.5426  1.0061  0.5155
 4076SOL     OW23860   2.750   4.405   4.929 -0.2255 -0.2976 -0.4403
 4076SOL    HW123861   2.708   4.423   4.844  0.5031  0.7490 -0.5839
 4076SOL    HW223862   2.745   4.490   4.974 -1.1762 -0.5973  0.0193
 4077SOL     OW23863   3.439   2.067   8.907  0.2498 -0.2044  0.0071
 4077SOL    HW123864   3.394   2.021   8.978 -1.4362 -0.3786 -1.1853
 4077SOL    HW223865   3.518   2.013   8.903 -0.0145 -0.5745 -0.2605
 4078SOL     OW23866   2.792   3.703   3.528  0.0048  0.2635  0.2457
 4078SOL    HW123867   2.821   3.680   3.439 -0.4592  0.4771  0.0414
 4078SOL    HW223868   2.862   3.764   3.552  0.4082 -1.2837  3.0106
 4079SOL     OW23869   2.440   2.908  12.491  0.1897  0.4374  0.4056
 4079SOL    HW123870   2.455   2.991  12.446 -0.3126  0.4139  0.1904
 4079SOL    HW223871   2.397   2.928  12.574  1.8230 -0.3287  1.4320
 4080SOL     OW23872   1.056   2.178   2.233 -0.1060 -0.0316  0.3064
 4080SOL    HW123873   1.134   2.124   2.226 -0.6411 -0.7590  0.0094
 4080SOL    HW223874   0.981   2.119   2.241 -0.6812  0.3584 -2.2527
 4081SOL     OW23875   3.260   4.410  15.182 -0.1175  0.5657  0.2068
 4081SOL    HW123876   3.321   4.339  15.204  0.1482  0.5950 -0.4196
 4081SOL    HW223877   3.313   4.453  15.114 -1.2273  0.2996 -0.8280
 4082SOL     OW23878   4.657   2.721  11.578  0.4618 -0.2895 -0.4431
 4082SOL    HW123879   4.577   2.671  11.562 -0.1089  0.0003  1.5094
 4082SOL    HW223880   4.709   2.669  11.517 -0.9115  0.1461 -1.9833
 4083SOL     OW23881   2.674   0.957  12.340 -0.0704 -0.0093  0.0337
 4083SOL    HW123882   2.608   0.965  12.409 -0.0713 -2.1286  0.3020
 4083SOL    HW223883   2.728   1.036  12.347 -0.2597  0.0611  0.6740
 4084SOL     OW23884   1.199   1.987   9.740  0.1824 -0.3136 -0.7448
 4084SOL    HW123885   1.197   1.912   9.682 -1.7645  0.7914 -2.1092
 4084SOL    HW223886   1.139   2.041   9.689  0.5514  1.7705  1.0099
 4085SOL     OW23887   3.092   2.433   0.594 -0.0414 -0.4322  0.3026
 4085SOL    HW123888   3.157   2.407   0.659 -1.2864 -1.9825  0.9420
 4085SOL    HW223889   3.062   2.519   0.624 -0.0649  0.5208 -2.4629
 4086SOL     OW23890   4.222   0.693   2.735  0.0249  0.5161  0.2483
 4086SOL    HW123891   4.134   0.656   2.723 -1.1191  3.1795  0.5634
 4086SOL    HW223892   4.238   0.658   2.822 -1.5846  1.9205  1.0951
 4087SOL     OW23893   1.353   0.912  13.036  0.2771  0.4792  1.1564
 4087SOL    HW123894   1.422   0.872  12.982 -0.9877  2.0328 -1.6042
 4087SOL    HW223895   1.375   0.870  13.119  2.1032  1.8027  1.3416
 4088SOL     OW23896   0.952   4.638   3.598 -0.4546 -0.2182 -0.2624
 4088SOL    HW123897   0.902   4.717   3.581  1.9853  1.4725  0.4819
 4088SOL    HW223898   0.942   4.624   3.692  1.0241 -1.6673 -0.3046
 4089SOL     OW23899   2.550   3.041   5.128 -0.0761 -0.3884  0.1692
 4089SOL    HW123900   2.582   3.069   5.214 -1.6261  3.4493 -0.5432
 4089SOL    HW223901   2.614   3.080   5.069  1.0804 -0.7604  1.1623
 4090SOL     OW23902   4.004   3.443  11.728  0.0833 -0.4718  0.0254
 4090SOL    HW123903   4.077   3.454  11.790  0.4724  0.8170 -0.6524
 4090SOL    HW223904   3.980   3.352  11.745  0.2640 -0.3950  0.6991
 4091SOL     OW23905   4.274   3.303  16.455 -0.6831  0.1359 -0.1277
 4091SOL    HW123906   4.195   3.248  16.457 -0.7102  0.2583  1.7515
 4091SOL    HW223907   4.279   3.321  16.361  2.5166  0.9599  0.1944
 4092SOL     OW23908   0.803   4.266   4.471 -0.0641 -0.1304  0.6129
 4092SOL    HW123909   0.730   4.328   4.469 -1.4621 -1.8046 -0.9730
 4092SOL    HW223910   0.820   4.250   4.564  1.5018 -0.6069  0.2330
 4093SOL     OW23911   4.610   3.287  11.312  0.2646 -0.6308  0.4150
 4093SOL    HW123912   4.534   3.235  11.334 -1.3629  1.6870  0.2701
 4093SOL    HW223913   4.668   3.276  11.387  0.3470  0.7435  0.5630
 4094SOL     OW23914   1.776   4.490   0.064  0.4859 -0.5099 -0.6650
 4094SOL    HW123915   1.840   4.484   0.134  0.3170 -2.0858 -0.6467
 4094SOL    HW223916   1.802   4.416   0.010 -1.2729 -1.6672  0.0892
 4095SOL     OW23917   4.592   2.004   3.183 -0.1636  0.1242  0.0455
 4095SOL    HW123918   4.601   1.997   3.088 -0.2078 -0.7043  0.1054
 4095SOL    HW223919   4.657   2.075   3.192  0.7579 -0.6679 -0.3778
 4096SOL     OW23920   3.386   2.058   5.343  0.1412 -0.0658 -0.0109
 4096SOL    HW123921   3.441   2.032   5.416  0.1299 -0.8700 -0.2846
 4096SOL    HW223922   3.373   1.976   5.295  1.7150 -0.0461 -0.4745
 4097SOL     OW23923   1.760   3.891  13.810  0.5692 -0.7202 -0.2714
 4097SOL    HW123924   1.737   3.925  13.724 -2.1832 -0.2475  0.6199
 4097SOL    HW223925   1.753   3.974  13.858  0.2679 -1.5949  1.2019
 4098SOL     OW23926   0.509   0.380   2.103 -0.0731 -0.6796 -0.0700
 4098SOL    HW123927   0.590   0.378   2.153 -0.6247  2.2891  0.9540
 4098SOL    HW223928   0.513   0.468   2.066  1.0966 -0.6373  0.1571
 4099SOL     OW23929   2.963   3.719  14.940  0.2714  0.2539  0.4463
 4099SOL    HW123930   2.893   3.688  14.882 -1.2992  0.3364  2.2706
 4099SOL    HW223931   2.939   3.811  14.953 -1.1757 -0.2320  1.2767
 4100SOL     OW23932   2.819   1.392  17.610  0.0929 -0.2185 -0.3020
 4100SOL    HW123933   2.858   1.479  17.606  1.1979 -0.7408 -0.7289
 4100SOL    HW223934   2.810   1.368  17.518  1.9960 -0.5767 -0.4069
 4101SOL     OW23935   3.591   0.608   7.183  0.1755 -0.1209 -0.7089
 4101SOL    HW123936   3.526   0.676   7.167 -0.2216 -0.2997  0.1202
 4101SOL    HW223937   3.663   0.656   7.222  1.3111 -1.3073 -1.3406
 4102SOL     OW23938   2.591   2.166  11.639 -0.2129  0.0485  0.4548
 4102SOL    HW123939   2.498   2.188  11.641 -0.0347  0.8666 -0.2037
 4102SOL    HW223940   2.618   2.234  11.577 -1.2077 -0.2358 -0.2981
 4103SOL     OW23941   3.600   2.671   5.844 -0.4953 -0.8916 -0.0153
 4103SOL    HW123942   3.651   2.591   5.858 -0.3357 -0.6356  0.8362
 4103SOL    HW223943   3.512   2.636   5.833  0.5799 -3.6116 -0.1808
 4104SOL     OW23944   2.812   0.697  13.499 -0.2884  0.7650 -0.1001
 4104SOL    HW123945   2.830   0.653  13.582 -1.6869  0.2386 -0.0693
 4104SOL    HW223946   2.828   0.621  13.442  0.6940  1.7612 -1.1384
 4105SOL     OW23947   0.709   0.629   4.808  0.1863 -0.0684 -0.5504
 4105SOL    HW123948   0.706   0.693   4.880  0.8126 -0.1531 -0.4482
 4105SOL    HW223949   0.706   0.683   4.729 -0.0701 -0.2717 -0.6784
 4106SOL     OW23950   1.007   0.850  12.451  0.1510 -0.1938 -0.1948
 4106SOL    HW123951   0.946   0.778  12.467 -1.3814  1.4886  1.4219
 4106SOL    HW223952   0.937   0.915  12.451  0.7360  0.4335 -1.4219
 4107SOL     OW23953   4.426   0.227   4.693  0.2940  0.3815  0.1611
 4107SOL    HW123954   4.448   0.135   4.682 -2.7241 -0.5491  1.8345
 4107SOL    HW223955   4.422   0.224   4.788  1.1066 -1.6638  0.1262
 4108SOL     OW23956   2.299   2.603   9.343 -0.5040 -0.1582 -0.1306
 4108SOL    HW123957   2.392   2.622   9.328 -0.3802 -0.8090 -0.1635
 4108SOL    HW223958   2.303   2.511   9.368 -0.3331 -0.0267  0.3241
 4109SOL     OW23959   3.879   0.175   1.203 -0.2634 -0.1534 -0.0834
 4109SOL    HW123960   3.920   0.124   1.273 -2.5174  2.1645  2.9820
 4109SOL    HW223961   3.799   0.214   1.239  0.9028  2.0430  0.1496
 4110SOL     OW23962   1.653   3.236   3.259  0.0927 -0.0179  0.5683
 4110SOL    HW123963   1.736   3.225   3.306  0.4923 -1.5625 -0.4958
 4110SOL    HW223964   1.682   3.195   3.177  1.1814 -2.6084  2.2654
 4111SOL     OW23965   4.099   0.434   7.379 -0.4432 -0.0431 -0.3830
 4111SOL    HW123966   4.117   0.376   7.453 -1.0802 -0.4303 -0.5347
 4111SOL    HW223967   4.185   0.432   7.338 -0.4578  0.0390 -0.4187
 4112SOL     OW23968   4.469   3.534   7.111 -0.1953  0.1640  0.1713
 4112SOL    HW123969   4.474   3.451   7.063 -0.0974  0.4376 -0.2874
 4112SOL    HW223970   4.374   3.535   7.126  0.0856 -1.7006  2.2014
 4113SOL     OW23971   2.158   2.546   7.746 -0.3160 -0.0516  0.0375
 4113SOL    HW123972   2.243   2.549   7.791 -0.1274 -0.5152 -0.2918
 4113SOL    HW223973   2.175   2.528   7.654 -0.9645  1.3823 -0.3584
 4114SOL     OW23974   2.746   1.670   6.877 -0.2907  0.1682  0.4164
 4114SOL    HW123975   2.717   1.759   6.858 -0.7103  0.6485  3.3274
 4114SOL    HW223976   2.840   1.674   6.860 -0.0948  3.8109  2.2495
 4115SOL     OW23977   2.851   2.566   6.913 -0.4655 -0.1001  0.0829
 4115SOL    HW123978   2.912   2.581   6.841  1.2595 -0.1369  1.5529
 4115SOL    HW223979   2.804   2.489   6.881  1.7875 -0.5358 -2.2224
 4116SOL     OW23980   3.063   3.359   1.932  0.2390 -0.2482 -0.2231
 4116SOL    HW123981   3.156   3.342   1.947  0.3631 -1.1051 -1.9674
 4116SOL    HW223982   3.039   3.291   1.870  1.3452 -1.4359  0.6641
 4117SOL     OW23983   3.763   0.209   5.632 -0.1084  0.5121 -0.1818
 4117SOL    HW123984   3.796   0.286   5.677  0.7518 -0.7468  1.3302
 4117SOL    HW223985   3.832   0.146   5.651 -0.9840 -1.1933 -2.5634
 4118SOL     OW23986   0.688   2.393   8.123  0.6014 -0.6172  0.6080
 4118SOL    HW123987   0.594   2.390   8.108  0.5094  0.9034  0.9035
 4118SOL    HW223988   0.705   2.434   8.208  1.3786  0.3529 -0.0253
 4119SOL     OW23989   4.110   2.361   3.532  0.7059  0.0840  0.1098
 4119SOL    HW123990   4.033   2.407   3.564  0.0002 -0.4937 -0.7400
 4119SOL    HW223991   4.105   2.386   3.440  2.4472 -0.0681 -0.0263
 4120SOL     OW23992   4.663   1.574  15.480  0.2936  0.4272 -0.0172
 4120SOL    HW123993   0.008   1.613  15.453  1.6244 -2.0690  0.5796
 4120SOL    HW223994   4.643   1.513  15.409 -0.0031  0.1588  0.3007
 4121SOL     OW23995   0.518   3.067   5.009  0.1821 -0.0006  0.0723
 4121SOL    HW123996   0.502   3.104   4.922 -0.6731 -1.2240 -0.2907
 4121SOL    HW223997   0.484   2.979   4.992  2.5748 -0.6475 -1.3722
 4122SOL     OW23998   1.527   2.665   5.416 -0.4354  0.5548 -0.2663
 4122SOL    HW123999   1.537   2.665   5.321  0.1711  3.5361 -0.2156
 4122SOL    HW224000   1.550   2.574   5.434 -1.8353  0.3813  0.6594
 4123SOL     OW24001   1.416   4.477  14.486 -0.2453 -0.2385 -0.6184
 4123SOL    HW124002   1.509   4.498  14.477  0.7462 -5.1047 -1.6139
 4123SOL    HW224003   1.361   4.554  14.473  1.1945  1.0345  0.8537
 4124SOL     OW24004   2.702   3.335   8.860 -0.4233 -0.3419 -0.4024
 4124SOL    HW124005   2.679   3.412   8.809 -0.1830  0.8234  1.2759
 4124SOL    HW224006   2.704   3.271   8.788  0.7167  0.2468 -0.8988
 4125SOL     OW24007   0.319   4.340   7.163  0.2341  0.3955  0.2546
 4125SOL    HW124008   0.392   4.376   7.214  0.7796  0.2644 -0.4181
 4125SOL    HW224009   0.353   4.252   7.146  0.8755  1.1774 -2.5698
 4126SOL     OW24010   3.644   1.843   5.024  0.7833 -0.1369  0.1143
 4126SOL    HW124011   3.698   1.843   5.103  0.6346 -0.2306  0.2147
 4126SOL    HW224012   3.680   1.910   4.965  2.2978 -1.2414 -0.2273
 4127SOL     OW24013   3.689   0.258   4.474 -0.4786  0.0654  0.3645
 4127SOL    HW124014   3.624   0.240   4.406  1.8849  1.8634 -2.3581
 4127SOL    HW224015   3.733   0.338   4.444 -1.0471 -0.6398 -2.3535
 4128SOL     OW24016   0.176   4.351  14.310  0.3202  0.3935  0.0189
 4128SOL    HW124017   0.248   4.346  14.246 -0.3383 -2.6229 -0.4707
 4128SOL    HW224018   0.159   4.262  14.340 -0.0528  0.3121 -0.4391
 4129SOL     OW24019   2.492   4.383   7.405 -0.3312 -0.1414 -0.4284
 4129SOL    HW124020   2.577   4.425   7.418 -1.2376  0.7778  2.4593
 4129SOL    HW224021   2.442   4.432   7.470 -0.1093 -1.4638  0.7312
 4130SOL     OW24022   1.298   2.543   0.655 -0.1352  0.2495  0.6310
 4130SOL    HW124023   1.388   2.551   0.624 -0.1344 -0.8282  0.3406
 4130SOL    HW224024   1.307   2.516   0.746  0.6723 -0.3055  0.3898
 4131SOL     OW24025   1.872   4.613  15.233  0.1129  0.0192 -0.1056
 4131SOL    HW124026   1.884   4.527  15.192 -3.2123 -1.2875  1.5696
 4131SOL    HW224027   1.893   4.606  15.326  1.5335  0.3329 -0.4048
 4132SOL     OW24028   4.602   0.431   2.503 -0.0663 -0.0366 -0.5243
 4132SOL    HW124029   4.508   0.433   2.521  0.2782 -0.3323  1.2772
 4132SOL    HW224030   4.624   0.524   2.507  0.2195 -0.2019  1.5289
 4133SOL     OW24031   0.181   1.859   0.988  0.0555 -0.1421  0.2549
 4133SOL    HW124032   0.222   1.776   1.010 -0.4379  0.0770  2.0191
 4133SOL    HW224033   0.242   1.931   1.008 -1.3268  0.0301  3.8065
 4134SOL     OW24034   2.153   1.854   3.652 -0.3783 -0.2877  0.4361
 4134SOL    HW124035   2.083   1.843   3.588  1.4201  0.1257 -1.6009
 4134SOL    HW224036   2.231   1.855   3.597  0.2638 -0.7978  1.3446
 4135SOL     OW24037   3.081   4.533   7.250  0.7261 -0.3336  0.0951
 4135SOL    HW124038   3.072   4.450   7.204 -2.7891  1.1930 -2.0026
 4135SOL    HW224039   3.145   4.582   7.199  0.6141  1.2111  1.3986
 4136SOL     OW24040   1.052   1.255   8.739 -0.1128 -0.0839  0.1134
 4136SOL    HW124041   1.144   1.261   8.767 -0.0818  3.0351 -0.6792
 4136SOL    HW224042   1.055   1.308   8.659  2.1472  0.4002  0.5199
 4137SOL     OW24043   3.050   4.118   8.357  0.2315 -0.2000  0.4673
 4137SOL    HW124044   3.133   4.109   8.404 -1.1835 -0.8271  2.8418
 4137SOL    HW224045   3.060   4.046   8.294 -0.3510 -1.9219  2.3351
 4138SOL     OW24046   1.433   0.479   1.420 -0.5734  0.2355  0.3398
 4138SOL    HW124047   1.528   0.489   1.429 -0.4978  2.6642 -3.0196
 4138SOL    HW224048   1.410   0.408   1.480 -1.1895  0.6624  0.6020
 4139SOL     OW24049   1.027   2.523   1.998 -0.1084  0.2491 -0.0743
 4139SOL    HW124050   1.062   2.502   2.084  0.4506 -0.1797 -0.3991
 4139SOL    HW224051   0.940   2.551   2.025  0.4191  1.6064  0.1862
 4140SOL     OW24052   2.867   1.767   3.872 -0.3707 -0.1400  0.4824
 4140SOL    HW124053   2.808   1.842   3.856 -1.2306 -0.7688  0.6972
 4140SOL    HW224054   2.860   1.737   3.963  0.7743  0.0962  0.6476
 4141SOL     OW24055   3.321   0.046   8.334 -0.1334  0.8230 -0.0679
 4141SOL    HW124056   3.319   0.089   8.249 -0.3773  0.3759 -0.2866
 4141SOL    HW224057   3.278   4.701   8.315 -1.6213  1.2759  1.3481
 4142SOL     OW24058   0.619   2.660   4.366 -0.5392 -0.1383  0.0937
 4142SOL    HW124059   0.705   2.678   4.403 -0.7129 -1.9842  1.3321
 4142SOL    HW224060   0.568   2.741   4.379 -0.3236  0.1404 -0.7929
 4143SOL     OW24061   2.862   2.110   9.075 -0.0905 -0.0533  0.0797
 4143SOL    HW124062   2.914   2.072   9.146  3.2971  1.9048 -1.3184
 4143SOL    HW224063   2.798   2.163   9.122  0.1161  0.7227 -0.5176
 4144SOL     OW24064   3.571   4.669   5.193 -0.2527 -0.0698  0.0298
 4144SOL    HW124065   3.500   4.618   5.154  1.6161 -1.6163 -1.3971
 4144SOL    HW224066   3.582   0.005   5.134  2.1808 -0.1621  0.3561
 4145SOL     OW24067   4.360   1.088   7.021  0.6801  0.4468  0.3088
 4145SOL    HW124068   4.447   1.050   7.031  1.5128  2.5829  1.2024
 4145SOL    HW224069   4.396   1.168   6.982  0.9404  0.3791  0.4124
 4146SOL     OW24070   3.806   2.687  16.729 -0.3572 -0.2748 -0.3895
 4146SOL    HW124071   3.832   2.623  16.796  1.2673  1.2915  0.4871
 4146SOL    HW224072   3.726   2.717  16.772 -1.1770  1.0035 -2.8013
 4147SOL     OW24073   4.501   4.327   3.576  0.9353  0.2319 -0.2319
 4147SOL    HW124074   4.569   4.333   3.644  2.3447 -1.8439 -1.4908
 4147SOL    HW224075   4.540   4.372   3.500  1.0109 -0.7834 -0.7860
 4148SOL     OW24076   2.261   0.783  15.607  0.2294 -0.4372 -0.1991
 4148SOL    HW124077   2.255   0.762  15.514  1.5663 -2.7701  0.2279
 4148SOL    HW224078   2.333   0.846  15.606 -0.7518  0.7217  5.0150
 4149SOL     OW24079   0.881   4.140   4.224 -0.4006  0.3510 -0.2029
 4149SOL    HW124080   0.839   4.211   4.271 -1.2449  1.0629 -2.0194
 4149SOL    HW224081   0.961   4.181   4.190 -0.4923 -0.8530 -1.9072
 4150SOL     OW24082   2.047   1.805   7.991  0.2964  0.5891 -0.1320
 4150SOL    HW124083   2.113   1.870   7.966  0.4388  0.2762 -0.5728
 4150SOL    HW224084   2.090   1.728   7.954 -1.8023  0.1854 -1.7460
 4151SOL     OW24085   0.784   4.031   1.337 -0.2054  0.2007 -0.3469
 4151SOL    HW124086   0.720   3.983   1.389  0.6102 -0.4788  0.0147
 4151SOL    HW224087   0.863   3.979   1.349 -0.8495 -0.5038  0.8243
 4152SOL     OW24088   0.586   1.164   0.352  0.4086 -0.0500  0.2702
 4152SOL    HW124089   0.546   1.224   0.414  3.2697  0.9154  1.1656
 4152SOL    HW224090   0.668   1.151   0.399  0.3499 -0.2184  0.3294
 4153SOL     OW24091   3.376   1.017   1.597 -0.3195  0.3257  0.0715
 4153SOL    HW124092   3.432   1.028   1.520  2.6201  0.2010  2.2050
 4153SOL    HW224093   3.434   0.956   1.641 -0.8306 -0.1593  0.0655
 4154SOL     OW24094   4.457   1.153   0.838  0.2104 -0.2529  0.0006
 4154SOL    HW124095   4.380   1.096   0.843 -1.4190  2.1545  2.2679
 4154SOL    HW224096   4.459   1.176   0.745 -0.1856 -0.9217 -0.1806
 4155SOL     OW24097   3.451   1.511   3.754  0.2396 -0.1135  0.0146
 4155SOL    HW124098   3.540   1.503   3.720  0.6875 -3.6291  2.0284
 4155SOL    HW224099   3.439   1.445   3.823  0.2975  1.5188  1.5940
 4156SOL     OW24100   2.636   0.201   5.601 -0.7734  0.2512  0.9525
 4156SOL    HW124101   2.582   0.252   5.540 -1.5435  1.4487  2.6671
 4156SOL    HW224102   2.725   0.225   5.577 -0.5743  0.2709  1.7162
 4157SOL     OW24103   3.413   4.700  15.115 -0.2215  0.7583 -0.2303
 4157SOL    HW124104   3.487   0.021  15.097  0.7496 -0.9144 -1.8145
 4157SOL    HW224105   3.462   4.625  15.148  0.0265  1.1257  0.2408
 4158SOL     OW24106   2.035   3.907  10.029  0.3904  0.0118  0.3265
 4158SOL    HW124107   2.075   3.945   9.951  1.6752 -1.7614  0.1146
 4158SOL    HW224108   2.045   3.978  10.092 -0.7670  0.9753 -0.5809
 4159SOL     OW24109   2.335   0.708   4.753  0.3431  0.3060  0.3843
 4159SOL    HW124110   2.262   0.770   4.752 -0.3531 -0.5543 -1.0450
 4159SOL    HW224111   2.361   0.707   4.661 -0.5186  1.7034  0.1378
 4160SOL     OW24112   4.071   0.391   3.894 -0.2436 -0.1069  0.6264
 4160SOL    HW124113   3.986   0.432   3.914  0.4590  1.4366  0.4969
 4160SOL    HW224114   4.039   0.308   3.860  1.8475 -0.9239  0.7016
 4161SOL     OW24115   3.410   4.106   6.622 -0.3981 -0.3122  0.1188
 4161SOL    HW124116   3.501   4.097   6.652 -0.2906 -3.6863 -1.2159
 4161SOL    HW224117   3.413   4.048   6.546  1.3674  0.7066 -0.5967
 4162SOL     OW24118   0.785   3.309   1.465 -0.3361  0.1333 -0.3336
 4162SOL    HW124119   0.725   3.335   1.395  1.5005  2.2501 -1.1293
 4162SOL    HW224120   0.785   3.216   1.443 -0.4539  0.5881 -2.3094
 4163SOL     OW24121   0.302   1.752  16.532 -0.6090 -0.0414  0.0589
 4163SOL    HW124122   0.251   1.700  16.594  1.7837 -2.9249 -0.3686
 4163SOL    HW224123   0.391   1.732  16.562  0.2903 -0.3895 -2.7792
 4164SOL     OW24124   4.255   2.389  16.704  0.0357 -0.1730  0.4408
 4164SOL    HW124125   4.310   2.329  16.754  1.8896  1.0879 -0.0979
 4164SOL    HW224126   4.247   2.470  16.754 -0.6423 -1.3868  2.3186
 4165SOL     OW24127   0.973   1.669   4.510 -0.4755 -0.3247  0.3358
 4165SOL    HW124128   1.037   1.722   4.559  0.0126 -1.8502  1.3381
 4165SOL    HW224129   0.893   1.722   4.511 -0.0452  0.3046  1.5835
 4166SOL     OW24130   3.972   1.828   3.924  0.2400 -0.1787  0.6479
 4166SOL    HW124131   3.996   1.760   3.987 -2.1505 -1.7080 -0.0934
 4166SOL    HW224132   3.893   1.786   3.891 -0.0582 -0.3572  1.5981
 4167SOL     OW24133   3.966   4.572   2.857 -0.9344 -0.3472  0.6233
 4167SOL    HW124134   4.009   4.577   2.772  0.9275 -1.5211  1.4958
 4167SOL    HW224135   3.978   4.478   2.873 -0.5982 -0.0422  2.1189
 4168SOL     OW24136   3.593   2.320   2.135  0.2796  0.0897 -0.1308
 4168SOL    HW124137   3.539   2.330   2.214  2.7684 -0.2953  1.6304
 4168SOL    HW224138   3.545   2.378   2.075 -0.9604 -0.8658 -0.0602
 4169SOL     OW24139   1.357   1.086   2.106 -0.1066  0.0746 -0.5213
 4169SOL    HW124140   1.306   1.008   2.127  0.2472  0.3159  1.2822
 4169SOL    HW224141   1.325   1.111   2.020  0.0224 -0.9518 -0.8729
 4170SOL     OW24142   1.731   1.579   6.916  0.2701 -0.7312 -0.4822
 4170SOL    HW124143   1.779   1.662   6.919 -0.0365 -0.5707  0.0912
 4170SOL    HW224144   1.798   1.511   6.919 -0.1782 -1.1559 -0.1391
 4171SOL     OW24145   4.705   0.983   3.743  0.0977  0.1724  0.4588
 4171SOL    HW124146   4.690   0.942   3.658  0.0519 -0.6780  0.8728
 4171SOL    HW224147   4.639   1.050   3.728 -0.7856 -0.3397  2.0237
 4172SOL     OW24148   3.048   3.948   8.082 -0.5475 -0.3097  0.4870
 4172SOL    HW124149   3.106   3.899   8.140  1.1370  1.2565  0.1169
 4172SOL    HW224150   3.003   3.879   8.033  1.4881 -0.7973 -0.6881
 4173SOL     OW24151   1.143   3.908   0.185 -0.3489 -0.2133  0.0529
 4173SOL    HW124152   1.061   3.895   0.138  0.7622 -2.2726 -1.3019
 4173SOL    HW224153   1.105   3.960   0.255  2.1909  1.4493  0.2103
 4174SOL     OW24154   0.901   4.641   7.018 -0.5605 -0.1408 -0.1658
 4174SOL    HW124155   0.960   4.579   7.061  2.0027  2.0096 -0.5815
 4174SOL    HW224156   0.891   4.717   7.075 -2.1427 -0.6854  0.2635
 4175SOL     OW24157   3.066   2.825  13.217 -0.1793 -0.3099  0.4602
 4175SOL    HW124158   2.977   2.845  13.191  1.5235  2.7835 -2.9396
 4175SOL    HW224159   3.114   2.902  13.185 -3.3405  1.5357  0.2127
 4176SOL     OW24160   3.971   4.119   0.708 -0.0899  0.2046  0.4641
 4176SOL    HW124161   3.948   4.036   0.750  0.1315 -0.5103 -0.8113
 4176SOL    HW224162   3.889   4.165   0.727 -0.4646 -0.3497  0.1878
 4177SOL     OW24163   3.979   1.374   4.993 -0.1875  0.6035 -0.3022
 4177SOL    HW124164   3.944   1.447   4.941  0.4799  2.1347  1.4214
 4177SOL    HW224165   3.994   1.314   4.920 -0.6629 -0.2163  0.2806
 4178SOL     OW24166   3.547   4.160   3.303 -0.3456  0.2237 -0.8792
 4178SOL    HW124167   3.640   4.140   3.307 -0.3988  0.2921  0.7761
 4178SOL    HW224168   3.511   4.089   3.250 -1.8115  0.2566  0.0656
 4179SOL     OW24169   0.892   0.829   3.095 -0.9024  0.1026 -0.6673
 4179SOL    HW124170   0.878   0.880   3.016 -1.8512 -0.4119 -0.8283
 4179SOL    HW224171   0.987   0.837   3.107 -1.2131 -0.3740  2.1321
 4180SOL     OW24172   0.707   1.357  17.468  0.1111 -0.0867  0.3587
 4180SOL    HW124173   0.635   1.419  17.459  1.4712  1.1274 -2.0887
 4180SOL    HW224174   0.673   1.273  17.436  0.1880  1.0636 -2.7680
 4181SOL     OW24175   3.340   2.778   4.374 -0.0530 -0.2867  0.0713
 4181SOL    HW124176   3.245   2.791   4.366  0.0166  1.3834  2.2116
 4181SOL    HW224177   3.360   2.767   4.466  1.5414  0.1735 -0.2242
 4182SOL     OW24178   0.714   3.584  12.057 -0.1102 -0.0296  0.0364
 4182SOL    HW124179   0.740   3.614  12.144 -0.7824  1.8668 -0.4302
 4182SOL    HW224180   0.802   3.570  12.022  1.2574  0.4874  3.2643
 4183SOL     OW24181   4.117   0.440   4.547  0.1840  0.3551 -0.5084
 4183SOL    HW124182   4.022   0.452   4.543  0.2094  0.1088 -2.1186
 4183SOL    HW224183   4.132   0.483   4.631 -0.2348 -0.3473 -0.0730
 4184SOL     OW24184   0.445   0.643   8.734 -0.1829  0.2837  0.1435
 4184SOL    HW124185   0.527   0.675   8.771 -0.1740  1.8380 -1.2238
 4184SOL    HW224186   0.479   0.576   8.674  2.2994  1.1621  0.5758
 4185SOL     OW24187   0.520   4.535   1.946 -0.4359 -0.0586 -0.0921
 4185SOL    HW124188   0.495   4.553   1.856  2.8197  1.0554 -0.7502
 4185SOL    HW224189   0.454   4.592   1.987 -0.6637  0.6545 -1.4821
 4186SOL     OW24190   2.445   0.059   4.260  0.0143 -0.5455  0.4769
 4186SOL    HW124191   2.465   0.010   4.180 -0.0124  1.7365 -0.9314
 4186SOL    HW224192   2.381   0.124   4.231  0.0546 -0.1000  1.3909
 4187SOL     OW24193   4.509   4.581   3.061 -0.2102 -0.3633 -0.1468
 4187SOL    HW124194   4.553   4.596   2.977  1.4626 -1.0029  0.6152
 4187SOL    HW224195   4.503   4.486   3.062 -1.0537 -0.2841  1.8212
 4188SOL     OW24196   1.244   3.450   6.081 -0.8273  1.2470  0.1718
 4188SOL    HW124197   1.189   3.420   6.008 -0.8319  2.2075 -0.2167
 4188SOL    HW224198   1.241   3.371   6.135  0.0052 -0.1344 -1.8452
 4189SOL     OW24199   0.835   3.304   5.303 -0.1577 -0.3136 -0.3786
 4189SOL    HW124200   0.896   3.248   5.351  0.1773  2.9524  3.0073
 4189SOL    HW224201   0.788   3.236   5.254 -0.7996 -1.2048  1.4473
 4190SOL     OW24202   2.917   0.660   8.083  0.4274  0.3958 -0.5345
 4190SOL    HW124203   3.011   0.644   8.089  0.7250  2.1327 -0.6235
 4190SOL    HW224204   2.896   0.572   8.051 -0.2130  0.9731 -1.6909
 4191SOL     OW24205   3.129   4.700  14.711  0.1136 -0.1894  0.1803
 4191SOL    HW124206   3.224   4.712  14.707 -0.2733  1.7283 -3.9925
 4191SOL    HW224207   3.102   4.713  14.802 -1.9050 -0.2246 -0.4030
 4192SOL     OW24208   3.205   4.732   6.454  0.3658  0.3291  0.0126
 4192SOL    HW124209   3.289   4.705   6.491 -0.9940  0.0785  2.8623
 4192SOL    HW224210   3.147   4.666   6.490  2.3613 -2.6825 -2.3425
 4193SOL     OW24211   1.265   0.040   6.568 -0.0130  0.2701 -0.3849
 4193SOL    HW124212   1.218   4.695   6.564  0.5474 -0.0166 -1.0491
 4193SOL    HW224213   1.205   0.109   6.539 -2.7459 -0.9662  2.2956
 4194SOL     OW24214   2.164   2.593   2.432  0.0136  0.5113  0.2601
 4194SOL    HW124215   2.116   2.514   2.408  1.5422  0.1316 -1.5339
 4194SOL    HW224216   2.103   2.616   2.503 -1.0334 -0.4023 -0.3453
 4195SOL     OW24217   3.902   1.414   1.423 -0.3532  0.4311  0.2999
 4195SOL    HW124218   3.988   1.385   1.456 -2.8206 -3.1891  3.5596
 4195SOL    HW224219   3.866   1.459   1.499  1.7007 -0.9010  2.0721
 4196SOL     OW24220   0.678   3.282   7.502  0.2926 -0.7182 -0.8507
 4196SOL    HW124221   0.691   3.248   7.591  0.7940  0.7930 -0.3518
 4196SOL    HW224222   0.675   3.207   7.442 -0.8362 -0.3806 -1.2184
 4197SOL     OW24223   3.976   4.582   0.147 -0.1784  0.1476  0.6682
 4197SOL    HW124224   3.905   4.582   0.084  0.2548 -0.5959  0.1754
 4197SOL    HW224225   4.011   4.671   0.157 -1.4836  0.5919  1.2129
 4198SOL     OW24226   2.026   1.431   8.881  0.3282  0.0772  0.4441
 4198SOL    HW124227   2.062   1.514   8.849  0.7440 -0.1841  0.2273
 4198SOL    HW224228   1.959   1.407   8.817  1.9544 -1.2588 -0.7762
 4199SOL     OW24229   2.281   2.160   5.912  0.4366 -0.2414 -0.9202
 4199SOL    HW124230   2.291   2.071   5.878  0.2831 -0.7786  0.4560
 4199SOL    HW224231   2.196   2.148   5.955  1.5292  1.1237  1.5926
 4200SOL     OW24232   2.598   1.339  11.090 -0.6867 -0.8391  0.1879
 4200SOL    HW124233   2.639   1.273  11.034  1.2142 -0.7260  1.4465
 4200SOL    HW224234   2.670   1.397  11.115  1.0606 -2.0844 -1.9846
 4201SOL     OW24235   4.693   0.897   7.687 -0.1505 -0.6124  0.3465
 4201SOL    HW124236   4.722   0.897   7.778 -0.1016 -0.0260  0.3290
 4201SOL    HW224237   0.034   0.925   7.641  0.0547 -2.2943 -0.3571
 4202SOL     OW24238   1.124   3.466  11.428  0.5482  0.2953 -0.0694
 4202SOL    HW124239   1.091   3.376  11.432 -0.8333  0.8021 -0.0806
 4202SOL    HW224240   1.084   3.501  11.507  0.2064  1.3363 -0.6955
 4203SOL     OW24241   3.551   1.065   8.967 -0.2629  0.3581  0.7568
 4203SOL    HW124242   3.504   1.147   8.975  0.0315  0.5151  0.8953
 4203SOL    HW224243   3.641   1.098   8.960 -0.3347  0.5801  0.9015
 4204SOL     OW24244   4.673   0.888   2.937 -0.3321 -0.1514 -0.2606
 4204SOL    HW124245   4.584   0.923   2.929 -0.3914  0.4122  2.6680
 4204SOL    HW224246   4.655   0.795   2.948  0.4800 -0.2815 -0.0246
 4205SOL     OW24247   0.115   1.634   6.090 -0.4962  0.1104 -0.0457
 4205SOL    HW124248   0.039   1.579   6.110  0.5248 -1.8672 -1.5286
 4205SOL    HW224249   0.101   1.708   6.149  0.8765 -0.8385  1.4689
 4206SOL     OW24250   2.200   4.540   1.766 -0.7132  0.6590  0.2494
 4206SOL    HW124251   2.267   4.589   1.719 -0.5054  0.3563  0.2338
 4206SOL    HW224252   2.139   4.526   1.693  1.2192  2.5689 -1.7290
 4207SOL     OW24253   0.607   3.928   6.130  0.2625 -0.5634  0.1900
 4207SOL    HW124254   0.674   3.970   6.075 -0.9416  2.1543  0.8133
 4207SOL    HW224255   0.583   3.998   6.190  1.5325  0.6803 -0.7540
 4208SOL     OW24256   0.575   3.115   9.079  0.3900  0.3209 -0.2476
 4208SOL    HW124257   0.662   3.075   9.087  1.3937  2.9873  1.8698
 4208SOL    HW224258   0.581   3.184   9.144 -2.2295  0.3916 -0.0806
 4209SOL     OW24259   1.508   3.109   5.092  0.1089  0.5402 -0.2866
 4209SOL    HW124260   1.480   3.136   5.005 -2.7731  0.0718  0.4846
 4209SOL    HW224261   1.431   3.131   5.145 -0.8334  3.0820 -2.6930
 4210SOL     OW24262   0.995   0.397   0.953 -0.2945 -0.3360 -0.0503
 4210SOL    HW124263   0.948   0.343   1.016 -0.9123 -0.8031 -0.9113
 4210SOL    HW224264   1.063   0.432   1.011  0.4866 -1.8654 -0.0478
 4211SOL     OW24265   2.536   0.956   6.065 -0.0595 -0.2967  0.0072
 4211SOL    HW124266   2.455   0.930   6.022 -0.3728  0.0545  0.3856
 4211SOL    HW224267   2.569   1.035   6.021  0.0327  1.0967  2.5559
 4212SOL     OW24268   4.576   3.227  13.535 -0.3339 -0.5445  0.3511
 4212SOL    HW124269   4.500   3.192  13.581 -1.6140 -0.6814 -1.8913
 4212SOL    HW224270   4.627   3.152  13.505  0.4128 -0.2486  0.8809
 4213SOL     OW24271   3.133   1.139   7.157  0.0724  0.0521  0.4273
 4213SOL    HW124272   3.206   1.162   7.214 -0.2874 -0.4197  1.0882
 4213SOL    HW224273   3.055   1.156   7.210  0.2032  2.0656 -0.0437
 4214SOL     OW24274   3.144   0.825   5.067  0.0450 -0.8318  0.6458
 4214SOL    HW124275   3.128   0.741   5.026  0.0143 -0.8456  0.6859
 4214SOL    HW224276   3.061   0.839   5.112  0.3983 -0.2119  1.1209
 4215SOL     OW24277   4.000   1.676   5.310  0.1088 -0.4357 -0.3676
 4215SOL    HW124278   3.958   1.590   5.303  0.6137 -0.6738 -0.4878
 4215SOL    HW224279   4.057   1.668   5.233 -0.1139  4.3964 -1.0002
 4216SOL     OW24280   4.658   2.342   3.334  0.4782 -0.6521 -0.0342
 4216SOL    HW124281   4.689   2.394   3.407  0.9516  0.5300 -1.0706
 4216SOL    HW224282   4.563   2.353   3.343  1.0222  1.1325  3.1677
 4217SOL     OW24283   3.398   1.652   6.581 -0.4290 -0.5424  0.2580
 4217SOL    HW124284   3.481   1.611   6.557  0.8626  0.6327  2.7063
 4217SOL    HW224285   3.349   1.608   6.512 -0.7425  0.7829 -0.3602
 4218SOL     OW24286   1.711   2.901   5.754  0.4368 -0.1990 -0.2296
 4218SOL    HW124287   1.786   2.870   5.805  0.4710 -0.6385 -0.5519
 4218SOL    HW224288   1.734   2.991   5.731 -0.2918 -0.2388 -1.1108
 4219SOL     OW24289   0.780   4.413   1.738 -0.3849  0.0356  0.6809
 4219SOL    HW124290   0.714   4.449   1.679  0.8380  1.9331  0.4605
 4219SOL    HW224291   0.830   4.365   1.672 -1.9241 -0.8412  0.1697
 4220SOL     OW24292   4.287   3.788  17.358 -0.4842  0.3161  0.2509
 4220SOL    HW124293   4.197   3.818  17.365 -1.8340 -3.9715  1.0833
 4220SOL    HW224294   4.330   3.826  17.434 -3.0682  4.0921 -0.1920
 4221SOL     OW24295   0.056   2.913   0.519  0.2699  0.3161  0.0325
 4221SOL    HW124296   0.112   2.836   0.509 -0.4222 -0.2474  0.4622
 4221SOL    HW224297   4.710   2.877   0.492  2.1004 -1.8805 -2.7612
 4222SOL     OW24298   3.287   2.074   3.471  0.3886 -0.2578  0.3324
 4222SOL    HW124299   3.333   2.035   3.397 -0.6898 -0.0707 -0.4503
 4222SOL    HW224300   3.319   2.164   3.473 -2.7697  0.9238 -1.9923
 4223SOL     OW24301   0.547   4.095   7.888 -0.2975  0.4048  0.6029
 4223SOL    HW124302   0.460   4.068   7.860 -1.1862  1.1272  2.6442
 4223SOL    HW224303   0.563   4.044   7.967 -0.1734  0.7581  0.8063
 4224SOL     OW24304   1.655   2.020   3.444  0.6115  0.3515  0.2207
 4224SOL    HW124305   1.700   2.045   3.524 -1.1878  1.3176  0.9324
 4224SOL    HW224306   1.701   2.056   3.368 -1.1845 -0.9903 -1.4844
 4225SOL     OW24307   1.478   4.365  11.784  0.6945 -0.6186 -0.4300
 4225SOL    HW124308   1.387   4.353  11.812  0.8267 -1.5534 -0.3846
 4225SOL    HW224309   1.503   4.429  11.851  0.1598  0.9814 -1.7714
 4226SOL     OW24310   2.637   0.841   4.064  0.2663 -0.1843  0.1809
 4226SOL    HW124311   2.704   0.908   4.052 -1.1175  0.8270 -1.8911
 4226SOL    HW224312   2.556   0.869   4.021 -0.3209  0.4455  1.7153
 4227SOL     OW24313   4.704   0.045   5.940 -0.2792  0.7324  0.3788
 4227SOL    HW124314   4.635   0.109   5.926  0.2693  1.2332 -0.0669
 4227SOL    HW224315   4.733   0.046   5.849 -1.0985 -2.1130  0.0917
 4228SOL     OW24316   2.660   3.604   2.581 -0.0870 -0.6186 -0.2105
 4228SOL    HW124317   2.659   3.612   2.677  1.0163 -1.0360 -0.1573
 4228SOL    HW224318   2.752   3.578   2.571  0.9061  2.3954  1.1392
 4229SOL     OW24319   3.902   2.368  12.572 -0.0128 -0.3210 -0.5852
 4229SOL    HW124320   3.817   2.347  12.533 -0.1211 -2.1198  0.6161
 4229SOL    HW224321   3.895   2.463  12.569 -0.0650 -0.2519  1.8309
 4230SOL     OW24322   2.631   3.407   0.742 -0.4421 -0.7332  0.6090
 4230SOL    HW124323   2.641   3.486   0.796  0.7140 -1.0018  0.7873
 4230SOL    HW224324   2.627   3.342   0.812  1.9373  1.1508  2.4990
 4231SOL     OW24325   2.741   3.832   4.643  0.2759  0.1899  0.5506
 4231SOL    HW124326   2.836   3.846   4.641  0.2508 -0.0157 -2.4958
 4231SOL    HW224327   2.720   3.828   4.736 -3.3287  1.8644 -0.1609
 4232SOL     OW24328   3.861   0.570  13.932  0.2021 -0.1375 -0.5562
 4232SOL    HW124329   3.912   0.649  13.951 -1.2457  0.8975 -1.0346
 4232SOL    HW224330   3.886   0.552  13.842  0.5275 -1.9514 -0.1110
 4233SOL     OW24331   0.236   3.635   5.806 -0.2665 -0.8234 -0.0466
 4233SOL    HW124332   0.219   3.542   5.824 -1.7192 -0.3819  0.8666
 4233SOL    HW224333   0.156   3.677   5.836  0.4539 -1.0446  2.2375
 4234SOL     OW24334   2.530   3.563   3.421  0.0151 -0.0061 -0.4874
 4234SOL    HW124335   2.608   3.590   3.470 -0.2743  1.7726 -1.0165
 4234SOL    HW224336   2.468   3.518   3.478 -0.7572  0.0498 -1.2851
 4235SOL     OW24337   3.231   3.320   1.317  0.1671 -0.9147 -0.0158
 4235SOL    HW124338   3.150   3.275   1.342  0.7055 -0.4470  2.4989
 4235SOL    HW224339   3.256   3.288   1.230  1.3530 -2.2836  0.8287
 4236SOL     OW24340   1.695   1.076   4.642  0.2454  0.0487 -0.1640
 4236SOL    HW124341   1.732   1.095   4.728  0.1083 -0.7581  0.0760
 4236SOL    HW224342   1.643   0.997   4.659 -1.2057  0.1768 -4.1067
 4237SOL     OW24343   3.292   1.697   6.828  0.8564  0.3339  0.2396
 4237SOL    HW124344   3.318   1.703   6.736 -1.4701  1.4253 -0.3478
 4237SOL    HW224345   3.276   1.790   6.843  1.3939  0.7370 -1.6147
 4238SOL     OW24346   1.322   1.161   1.078 -0.7880 -0.3281  0.7990
 4238SOL    HW124347   1.406   1.125   1.050  0.7567  2.8747  1.3868
 4238SOL    HW224348   1.287   1.078   1.111 -1.0659  0.6174  2.8537
 4239SOL     OW24349   1.364   2.460   4.668 -0.1885 -0.5389  0.3303
 4239SOL    HW124350   1.441   2.487   4.719  0.2026  0.2569 -0.6744
 4239SOL    HW224351   1.346   2.540   4.619  1.3307 -0.9890 -0.9262
 4240SOL     OW24352   1.935   0.917   3.944 -0.1258 -0.1205 -0.0097
 4240SOL    HW124353   1.967   0.925   4.034  0.2883 -2.7146  0.0750
 4240SOL    HW224354   1.937   1.010   3.922  2.0447 -0.4025 -0.9571
 4241SOL     OW24355   0.234   3.660   1.463  0.3599 -0.2704 -0.1943
 4241SOL    HW124356   0.291   3.727   1.424  0.1387  0.1592  0.2218
 4241SOL    HW224357   0.299   3.615   1.517  1.1245 -1.0641 -1.7680
 4242SOL     OW24358   0.301   3.338   2.524  0.6710 -0.1486 -0.4513
 4242SOL    HW124359   0.262   3.371   2.605  1.4774  0.1277 -0.1773
 4242SOL    HW224360   0.331   3.259   2.568 -3.6680 -0.5621  1.7828
 4243SOL     OW24361   0.619   4.052   4.533 -0.2177  0.0560  0.6649
 4243SOL    HW124362   0.606   4.147   4.529  0.4787  0.0998 -0.8365
 4243SOL    HW224363   0.542   4.018   4.578  0.7467 -1.8940  0.8519
 4244SOL     OW24364   3.024   0.195   6.475  0.3576  0.1332  0.2983
 4244SOL    HW124365   3.095   0.130   6.474  0.5113  0.2810  1.4225
 4244SOL    HW224366   3.031   0.228   6.385  0.7689 -1.4891 -0.2626
 4245SOL     OW24367   1.967   1.674   6.773  0.6709  0.4597  0.0406
 4245SOL    HW124368   1.996   1.606   6.712 -2.1065 -1.3361  0.7344
 4245SOL    HW224369   2.032   1.662   6.842  0.4151  2.8213  0.6931
 4246SOL     OW24370   1.394   3.072  11.227  0.0438  0.0797 -0.3372
 4246SOL    HW124371   1.343   3.148  11.256 -0.6105 -0.0492 -1.1362
 4246SOL    HW224372   1.419   3.089  11.136 -0.4203 -0.3940 -0.5535
 4247SOL     OW24373   2.166   2.977   5.291 -0.0026 -0.2374 -0.3327
 4247SOL    HW124374   2.151   2.894   5.335  1.3700 -1.1645 -1.6447
 4247SOL    HW224375   2.083   3.023   5.303 -0.1515 -0.5492 -0.1878
 4248SOL     OW24376   0.606   4.079   7.050  0.2772 -0.2575  0.0807
 4248SOL    HW124377   0.642   4.092   7.137 -0.5911  0.6542  0.3051
 4248SOL    HW224378   0.679   4.024   7.020  0.5935  0.1628  0.0940
 4249SOL     OW24379   2.172   1.972   6.134 -0.0243  0.1260 -0.4614
 4249SOL    HW124380   2.100   2.035   6.128 -0.7195 -0.6820 -0.6607
 4249SOL    HW224381   2.161   1.927   6.050  1.5207 -3.7530  1.4112
 4250SOL     OW24382   1.638   2.651  14.665 -0.3470  0.1437  0.9320
 4250SOL    HW124383   1.646   2.642  14.570  0.1457 -0.2779  1.0151
 4250SOL    HW224384   1.694   2.729  14.670 -0.7568  0.5254 -0.3567
 4251SOL     OW24385   4.417   1.021   8.238 -0.2157 -0.5121  0.0695
 4251SOL    HW124386   4.424   0.937   8.285  1.1159  0.9050  2.4368
 4251SOL    HW224387   4.360   1.065   8.301 -2.5987 -1.7397 -1.2643
 4252SOL     OW24388   1.798   3.456  10.698 -0.1171 -0.0805  0.3153
 4252SOL    HW124389   1.858   3.514  10.744  2.5936 -0.6054 -2.5582
 4252SOL    HW224390   1.848   3.398  10.640  1.5504  1.2292  0.4417
 4253SOL     OW24391   0.164   0.029   0.494  0.2760  0.5846 -0.6726
 4253SOL    HW124392   0.241   0.086   0.488  0.9614 -0.1559  1.3313
 4253SOL    HW224393   0.204   4.706   0.554 -0.7350 -1.0903 -1.7087
 4254SOL     OW24394   1.389   4.612   9.120  0.2201  0.3053 -0.1269
 4254SOL    HW124395   1.455   4.553   9.084  0.6164  1.4100 -1.2333
 4254SOL    HW224396   1.394   4.680   9.053 -0.1120  1.2930  0.8539
 4255SOL     OW24397   2.114   0.136   1.641  0.0973  0.0678  0.0895
 4255SOL    HW124398   2.042   0.135   1.704 -0.4912 -1.2656 -0.6119
 4255SOL    HW224399   2.132   0.044   1.619 -0.5450 -0.3516  1.3464
 4256SOL     OW24400   4.258   3.312   2.688  0.2726 -0.5057  0.1346
 4256SOL    HW124401   4.186   3.366   2.653  0.5041  0.1611  0.6913
 4256SOL    HW224402   4.293   3.275   2.607 -0.2676  0.8250 -0.7204
 4257SOL     OW24403   0.397   3.377  12.846 -0.0675 -0.4151  0.2467
 4257SOL    HW124404   0.379   3.465  12.880 -0.8326 -0.6994  0.5854
 4257SOL    HW224405   0.452   3.402  12.772  0.2091 -0.1975  0.5237
 4258SOL     OW24406   3.153   4.144   4.399  0.3759  0.2668 -0.2679
 4258SOL    HW124407   3.150   4.053   4.368  2.8384 -0.5719  1.9120
 4258SOL    HW224408   3.214   4.140   4.473 -0.8113 -3.1806  0.5549
 4259SOL     OW24409   3.963   4.479   6.083  0.1237  0.7664  0.6885
 4259SOL    HW124410   3.970   4.392   6.122  0.4752  0.6314  0.3268
 4259SOL    HW224411   3.917   4.525   6.153  2.0090  0.5079  2.1030
 4260SOL     OW24412   0.389   4.640  17.608 -0.1881 -0.2072 -0.2704
 4260SOL    HW124413   0.467   4.657  17.660 -0.4088  0.8494 -0.2711
 4260SOL    HW224414   0.392   4.545  17.604  0.9248 -0.1294 -1.1726
 4261SOL     OW24415   2.906   1.455   8.636 -0.1401  0.0188 -0.0299
 4261SOL    HW124416   2.914   1.414   8.723 -1.5493 -1.4957 -0.6035
 4261SOL    HW224417   2.868   1.387   8.581  0.5502  0.3586 -0.9189
 4262SOL     OW24418   2.904   4.737  16.097 -0.0346 -0.2064  0.0798
 4262SOL    HW124419   2.936   0.069  16.040  2.3139 -1.5531 -0.2710
 4262SOL    HW224420   2.809   0.007  16.089  0.0870 -0.1838 -1.4733
 4263SOL     OW24421   2.166   1.709   4.882 -0.8602  0.2462 -0.1030
 4263SOL    HW124422   2.194   1.740   4.968  1.0334 -0.9314 -0.3015
 4263SOL    HW224423   2.233   1.646   4.855 -0.8948 -0.5665  1.7143
 4264SOL     OW24424   2.749   3.077   6.645 -0.0165 -0.0246 -0.1091
 4264SOL    HW124425   2.810   3.047   6.712 -0.4461 -2.8096 -0.9737
 4264SOL    HW224426   2.664   3.038   6.663  0.3936 -0.9154 -0.1421
 4265SOL     OW24427   3.507   4.259  15.369 -0.4339 -0.3480  0.2962
 4265SOL    HW124428   3.589   4.209  15.373  0.4613  1.0771 -0.3498
 4265SOL    HW224429   3.448   4.216  15.430 -0.8299 -0.7888 -0.3947
 4266SOL     OW24430   2.513   2.598   1.847 -0.2740  0.6517  0.3726
 4266SOL    HW124431   2.503   2.669   1.784  1.8095  0.0037 -0.6925
 4266SOL    HW224432   2.426   2.563   1.830 -0.0362  0.1208  0.2531
 4267SOL     OW24433   1.340   1.056  14.795  0.2619 -0.0154  0.4389
 4267SOL    HW124434   1.421   1.006  14.798 -0.1016 -0.6918 -1.1635
 4267SOL    HW224435   1.280   0.997  14.748  1.3838  1.2042 -2.4931
 4268SOL     OW24436   3.445   3.448   8.505  0.3568  0.7005 -0.2216
 4268SOL    HW124437   3.483   3.519   8.556  2.9158 -1.6534  1.0901
 4268SOL    HW224438   3.456   3.487   8.418  1.7160  1.1679  0.1551
 4269SOL     OW24439   1.861   3.897   5.603 -0.5070  0.0539  0.2084
 4269SOL    HW124440   1.907   3.980   5.618 -2.1767  0.7672  1.4052
 4269SOL    HW224441   1.932   3.836   5.580 -0.4624  0.6211 -1.1350
 4270SOL     OW24442   3.968   4.716   1.819 -0.3285  0.0333 -0.2059
 4270SOL    HW124443   3.939   4.631   1.851  0.7748 -0.3432 -0.1924
 4270SOL    HW224444   4.014   4.697   1.737  0.9346  3.5090 -0.3102
 4271SOL     OW24445   3.842   3.293   6.436  0.1267 -0.0822 -0.3815
 4271SOL    HW124446   3.806   3.250   6.358 -0.8562  0.3736 -0.1823
 4271SOL    HW224447   3.933   3.313   6.415  0.2972 -0.3350  0.1252
 4272SOL     OW24448   2.775   3.111   7.589 -0.2385  0.0489  0.4506
 4272SOL    HW124449   2.711   3.058   7.637 -1.6146 -1.7726 -3.3243
 4272SOL    HW224450   2.855   3.091   7.636 -0.9149 -0.1565  1.5195
 4273SOL     OW24451   1.246   3.354  11.772 -0.1131 -0.1622  0.3533
 4273SOL    HW124452   1.292   3.326  11.851 -0.1164  0.4201  0.5617
 4273SOL    HW224453   1.171   3.296  11.785 -0.4955  0.8331  2.5858
 4274SOL     OW24454   4.708   1.346   5.212 -0.9577  0.0221 -0.1970
 4274SOL    HW124455   4.649   1.416   5.239 -0.5273  0.5396 -0.5921
 4274SOL    HW224456   4.731   1.326   5.303  0.4979  0.7548 -0.4011
 4275SOL     OW24457   4.245   2.081  17.622  0.0439  0.5470 -0.6220
 4275SOL    HW124458   4.159   2.121  17.632  0.5725  1.0238  2.2159
 4275SOL    HW224459   4.247   2.005  17.681  1.1697  1.0189 -0.0534
 4276SOL     OW24460   2.912   3.303   1.686  0.5474 -0.2993 -0.1303
 4276SOL    HW124461   2.933   3.396   1.697 -1.8159  0.5515 -2.8653
 4276SOL    HW224462   3.003   3.273   1.686  0.4930 -0.4582  0.7906
 4277SOL     OW24463   3.643   1.552   4.116  0.5658  0.3914 -0.5883
 4277SOL    HW124464   3.649   1.538   4.210 -1.4184 -2.2979 -0.8487
 4277SOL    HW224465   3.553   1.523   4.102  1.0125 -0.8876 -0.8885
 4278SOL     OW24466   4.466   2.130   8.909  0.2988  0.1672 -0.1998
 4278SOL    HW124467   4.374   2.135   8.935  1.2031  1.1406  2.7524
 4278SOL    HW224468   4.475   2.191   8.835 -0.6759  1.2522  0.5763
 4279SOL     OW24469   1.505   2.352   1.756  0.2436  0.1700  0.1007
 4279SOL    HW124470   1.498   2.381   1.665  2.9762 -1.6114 -0.6873
 4279SOL    HW224471   1.473   2.430   1.801 -2.3236 -0.7019 -0.2058
 4280SOL     OW24472   3.068   2.009   7.917  0.1878  0.6777  0.5635
 4280SOL    HW124473   3.127   1.939   7.946 -1.8774 -1.3717 -0.2165
 4280SOL    HW224474   3.054   1.990   7.824 -0.8526  1.2635  0.6068
 4281SOL     OW24475   0.551   3.422   1.324 -0.3102 -0.3147  0.3898
 4281SOL    HW124476   0.519   3.457   1.407  0.6599 -3.5718  2.1349
 4281SOL    HW224477   0.557   3.505   1.276 -0.2866 -0.1544  0.6676
 4282SOL     OW24478   3.944   1.397   6.288 -0.0109  0.0164  0.1375
 4282SOL    HW124479   3.997   1.321   6.314  0.3311  1.0898  2.5601
 4282SOL    HW224480   3.936   1.389   6.193 -1.4331  1.0307  0.1774
 4283SOL     OW24481   1.986   4.459   5.162 -0.3991  0.1108 -0.4062
 4283SOL    HW124482   2.061   4.512   5.189 -0.2746  0.0471 -0.6324
 4283SOL    HW224483   2.017   4.370   5.181 -0.2089  0.1239 -0.6522
 4284SOL     OW24484   3.522   0.278   3.985  0.0145  0.3133  0.4040
 4284SOL    HW124485   3.439   0.322   3.965  0.5373  0.8195 -0.6571
 4284SOL    HW224486   3.572   0.340   3.931  0.4642 -1.4203 -1.1668
 4285SOL     OW24487   4.702   1.507   0.446  0.3540  0.2047 -0.2998
 4285SOL    HW124488   0.026   1.451   0.401  0.1013 -0.6825  0.4631
 4285SOL    HW224489   4.679   1.568   0.376 -4.1972 -1.6516 -0.4105
 4286SOL     OW24490   1.311   2.499   8.382  0.0871  0.0696 -0.5425
 4286SOL    HW124491   1.393   2.546   8.373 -0.6394  1.3536 -0.5168
 4286SOL    HW224492   1.333   2.425   8.439  0.0815  0.4519 -0.0394
 4287SOL     OW24493   1.412   3.575  11.661 -0.1203  0.1269 -0.0260
 4287SOL    HW124494   1.368   3.490  11.668 -0.3365  0.1379 -1.2241
 4287SOL    HW224495   1.491   3.549  11.613 -1.8067 -2.7608 -1.2800
 4288SOL     OW24496   2.455   4.728   8.411 -0.4719  0.1894 -0.1124
 4288SOL    HW124497   2.446   4.658   8.476 -0.9187  0.2248 -0.1354
 4288SOL    HW224498   2.548   4.719   8.389 -0.7617  0.8979 -1.6125
 4289SOL     OW24499   2.374   0.499   2.192  0.2882  0.4258 -0.3833
 4289SOL    HW124500   2.389   0.419   2.141 -0.0052  0.5361 -0.6416
 4289SOL    HW224501   2.390   0.568   2.128  0.4663  1.2581  0.5568
 4290SOL     OW24502   4.079   0.929   3.474 -0.4848 -0.5396 -0.5872
 4290SOL    HW124503   4.096   0.855   3.532  0.1363 -0.0456 -0.1388
 4290SOL    HW224504   4.097   0.886   3.391 -0.3951 -1.0965 -0.2788
 4291SOL     OW24505   2.789   4.076   3.440 -0.8639 -0.0892 -0.1947
 4291SOL    HW124506   2.744   4.134   3.502  1.8260  1.6827  0.0777
 4291SOL    HW224507   2.716   4.063   3.380 -1.1886 -0.4488  0.2743
 4292SOL     OW24508   4.209   4.496   7.240  0.0131 -0.2095 -0.5804
 4292SOL    HW124509   4.241   4.485   7.150 -1.0057 -1.5519 -0.7714
 4292SOL    HW224510   4.229   4.407   7.268  0.6509 -0.0797 -0.6357
 4293SOL     OW24511   0.057   0.865   8.824  0.1940 -0.0814  0.4585
 4293SOL    HW124512   0.140   0.848   8.780 -1.0718  1.9682 -2.7327
 4293SOL    HW224513   4.735   0.852   8.751  1.5084  0.4865 -0.7225
 4294SOL     OW24514   3.862   1.872   2.131  0.7083  0.2345  0.2123
 4294SOL    HW124515   3.791   1.900   2.073 -0.4415 -1.3971  0.8357
 4294SOL    HW224516   3.892   1.957   2.163 -0.3009  0.4116  0.6870
 4295SOL     OW24517   0.777   0.435   0.145  0.9149  0.0191  0.0321
 4295SOL    HW124518   0.735   0.450   0.060  1.9373  1.3470 -0.2451
 4295SOL    HW224519   0.697   0.419   0.195 -0.7068  1.6336 -1.9911
 4296SOL     OW24520   0.206   1.072   6.682  0.6712  0.6393  0.7893
 4296SOL    HW124521   0.201   0.986   6.723 -0.0580  0.6430  0.7055
 4296SOL    HW224522   0.124   1.115   6.708  0.0969  0.9111 -1.4490
 4297SOL     OW24523   4.647   2.474   7.244  0.7869  0.0755  0.3640
 4297SOL    HW124524   4.572   2.490   7.301  1.0670 -2.7982  1.5771
 4297SOL    HW224525   4.706   2.429   7.304 -1.2545 -3.1146 -0.0171
 4298SOL     OW24526   2.921   0.216   7.190  0.1927  0.0079 -0.6647
 4298SOL    HW124527   2.975   0.266   7.129  0.9802 -0.4567 -0.3566
 4298SOL    HW224528   2.909   0.136   7.139  2.6778  0.0275 -1.2888
 4299SOL     OW24529   3.223   3.057   9.158 -0.0108 -0.4465 -0.3633
 4299SOL    HW124530   3.128   3.060   9.172 -0.1514 -0.2849 -1.3776
 4299SOL    HW224531   3.244   3.089   9.246 -0.6598 -1.4543  0.1680
 4300SOL     OW24532   3.763   2.877   6.514 -0.5542 -0.2738  0.0340
 4300SOL    HW124533   3.721   2.898   6.597 -0.9911 -0.2921 -0.1851
 4300SOL    HW224534   3.715   2.937   6.457 -1.3364  0.8335  1.8385
 4301SOL     OW24535   2.658   3.689   5.983 -0.6813 -0.0930  0.1597
 4301SOL    HW124536   2.746   3.726   5.982 -1.2098  1.1677  0.6272
 4301SOL    HW224537   2.609   3.752   6.036  1.0480 -1.0822  2.9002
 4302SOL     OW24538   4.168   2.605   6.266 -0.1841 -0.1821  0.8354
 4302SOL    HW124539   4.098   2.624   6.329 -0.6067  0.5047  0.1470
 4302SOL    HW224540   4.218   2.687   6.270 -0.2157 -0.1245  0.0170
 4303SOL     OW24541   3.448   3.540  12.036 -0.0771 -0.2498  0.2722
 4303SOL    HW124542   3.417   3.486  12.108  0.3540 -0.8828 -0.0226
 4303SOL    HW224543   3.411   3.487  11.965  0.1645 -2.5194  1.8585
 4304SOL     OW24544   0.718   0.741  15.760  0.3871 -0.3765  0.5489
 4304SOL    HW124545   0.654   0.808  15.736  2.6574  0.9112 -1.8970
 4304SOL    HW224546   0.767   0.790  15.826 -1.8554  1.7374  0.6457
 4305SOL     OW24547   1.282   1.260   1.403 -0.3756 -0.1792  0.4483
 4305SOL    HW124548   1.193   1.291   1.385 -0.4632 -0.2137  0.8219
 4305SOL    HW224549   1.337   1.279   1.326 -0.2610 -1.7124  0.1640
 4306SOL     OW24550   0.764   1.881   9.523  0.0663  0.8995 -0.3273
 4306SOL    HW124551   0.800   1.839   9.601  0.7736  2.3474  0.1275
 4306SOL    HW224552   0.730   1.956   9.573  2.0071  0.9407  0.9154
 4307SOL     OW24553   1.092   0.141   5.304 -0.2006  0.2715 -0.1912
 4307SOL    HW124554   1.103   0.235   5.314  1.4877  0.5626 -4.4699
 4307SOL    HW224555   1.151   0.129   5.229  0.9916  3.4415  0.2601
 4308SOL     OW24556   1.446   4.568   4.097 -0.2516  0.2695  0.2399
 4308SOL    HW124557   1.463   4.517   4.018 -3.2297 -0.1552 -0.1434
 4308SOL    HW224558   1.535   4.588   4.125 -0.1389 -0.6114  0.5236
 4309SOL     OW24559   0.860   0.939   3.802 -0.3748  0.4045 -0.1406
 4309SOL    HW124560   0.835   1.019   3.757 -0.1091  0.4932 -0.1276
 4309SOL    HW224561   0.842   0.975   3.889  1.6115 -0.5572  0.6701
 4310SOL     OW24562   4.556   2.131   5.578 -0.1633 -0.0740 -0.3220
 4310SOL    HW124563   4.640   2.125   5.624 -1.5604 -0.1292  2.2015
 4310SOL    HW224564   4.577   2.165   5.490 -0.0574 -2.3196 -1.1594
 4311SOL     OW24565   1.367   0.285   3.553 -0.1605 -0.1729 -0.3017
 4311SOL    HW124566   1.318   0.203   3.565 -1.7901  0.9007  0.3459
 4311SOL    HW224567   1.316   0.351   3.601 -3.7928 -0.5466 -3.6679
 4312SOL     OW24568   2.399   2.366   5.041 -0.3533  0.5770 -0.0976
 4312SOL    HW124569   2.455   2.377   4.964 -1.0351  1.4544 -0.4584
 4312SOL    HW224570   2.320   2.410   5.013 -0.7524 -0.4264 -0.5421
 4313SOL     OW24571   2.955   4.239   5.704  0.0611 -1.2910 -0.1050
 4313SOL    HW124572   2.923   4.329   5.704  3.3828 -0.1114  0.7875
 4313SOL    HW224573   3.026   4.242   5.768 -0.4136 -2.1489  0.4701
 4314SOL     OW24574   4.635   0.747   4.734 -0.2726 -0.5644  0.0166
 4314SOL    HW124575   4.684   0.693   4.795  1.0467 -2.2655 -2.5337
 4314SOL    HW224576   4.641   0.699   4.651 -1.5633  0.4819 -0.6761
 4315SOL     OW24577   3.116   1.456   7.151  0.1134 -0.3887 -0.5907
 4315SOL    HW124578   3.028   1.453   7.113 -0.6145  1.3038  0.9836
 4315SOL    HW224579   3.162   1.455   7.067  0.8923 -0.6294 -0.1602
 4316SOL     OW24580   1.837   3.415   2.102 -0.1253 -0.2291 -0.1870
 4316SOL    HW124581   1.858   3.357   2.029 -0.5233 -1.9087  1.0340
 4316SOL    HW224582   1.784   3.356   2.156  0.4517 -0.2942  0.3060
 4317SOL     OW24583   2.613   2.091  17.102 -0.5091 -0.0522 -0.3679
 4317SOL    HW124584   2.682   2.025  17.105  0.4658  0.9499 -1.1590
 4317SOL    HW224585   2.582   2.096  17.193 -1.0640 -1.4902 -0.4785
 4318SOL     OW24586   2.730   0.447   0.117 -0.3817  0.4877  0.4422
 4318SOL    HW124587   2.668   0.446   0.190  0.1723  1.7180  0.9395
 4318SOL    HW224588   2.811   0.425   0.164 -0.8535  2.5369  2.2605
 4319SOL     OW24589   2.930   4.599   2.975  0.1201  0.1324  0.5436
 4319SOL    HW124590   3.005   4.652   2.949 -0.8474  0.5851 -1.3272
 4319SOL    HW224591   2.873   4.664   3.014 -1.7095 -2.8580  2.8641
 4320SOL     OW24592   1.423   3.033   7.618  0.5184  0.1013  0.4645
 4320SOL    HW124593   1.498   2.973   7.611  0.3054 -0.2176  0.9031
 4320SOL    HW224594   1.461   3.121   7.615  0.0076  0.2984 -0.2589
 4321SOL     OW24595   1.753   4.155   2.194  0.5811 -0.0506  0.5479
 4321SOL    HW124596   1.818   4.099   2.151  1.6986  1.5148  0.2286
 4321SOL    HW224597   1.677   4.097   2.189  0.1384  0.5910 -0.1201
 4322SOL     OW24598   3.974   2.976  15.645  0.4692 -0.5836  0.6910
 4322SOL    HW124599   4.035   3.021  15.586  0.2457 -2.5479 -1.0395
 4322SOL    HW224600   3.896   2.984  15.590  0.0844 -0.8782  1.1942
 4323SOL     OW24601   2.158   1.172   2.853  0.1451  0.3043 -0.7948
 4323SOL    HW124602   2.206   1.096   2.886  0.5861  0.2959 -1.4474
 4323SOL    HW224603   2.099   1.133   2.790  2.3134 -3.2393 -0.6083
 4324SOL     OW24604   4.268   2.120   3.122 -0.3146 -0.3117  0.6189
 4324SOL    HW124605   4.350   2.157   3.155  0.2740 -1.1009  0.0372
 4324SOL    HW224606   4.288   2.027   3.123  3.4001  0.5335  4.3795
 4325SOL     OW24607   2.595   2.069   3.249 -0.0129  0.6193  0.2081
 4325SOL    HW124608   2.537   1.994   3.235  1.4986 -0.1119 -1.9474
 4325SOL    HW224609   2.664   2.046   3.188  0.9020  1.3477  0.9711
 4326SOL     OW24610   0.491   3.460   6.075 -0.2502  0.2723 -0.0237
 4326SOL    HW124611   0.489   3.365   6.083 -0.3313  0.4319  1.7838
 4326SOL    HW224612   0.400   3.483   6.093 -0.3911  1.2889 -2.0717
 4327SOL     OW24613   2.391   0.445  13.904 -0.6311 -0.0891 -0.6749
 4327SOL    HW124614   2.464   0.437  13.965 -0.5739  1.6539 -0.5177
 4327SOL    HW224615   2.339   0.522  13.929  0.5518  0.7185 -0.7103
 4328SOL     OW24616   3.185   2.014   8.253  0.1423 -0.2387 -0.4254
 4328SOL    HW124617   3.262   2.054   8.213 -1.1464  0.7501 -1.8873
 4328SOL    HW224618   3.198   1.923   8.224  0.6625 -1.0291  2.2429
 4329SOL     OW24619   0.688   2.045  10.158  0.6658  0.6731 -0.4321
 4329SOL    HW124620   0.673   2.110  10.089  1.0682  0.8582 -0.3478
 4329SOL    HW224621   0.602   2.037  10.198  2.0761  0.3794  2.5267
 4330SOL     OW24622   4.482   2.038  11.712  0.2596 -0.2357  0.2498
 4330SOL    HW124623   4.440   2.043  11.626 -0.2933 -0.3413  0.5140
 4330SOL    HW224624   4.522   2.125  11.705  0.3825 -0.4832 -2.3701
 4331SOL     OW24625   2.346   0.907   2.080 -0.6632  0.1334  0.3102
 4331SOL    HW124626   2.325   0.815   2.062  0.4769 -0.5086  2.2677
 4331SOL    HW224627   2.411   0.923   2.011  1.2160  1.0857  2.3240
 4332SOL     OW24628   2.506   1.981   6.660 -0.3165  0.1280  0.2947
 4332SOL    HW124629   2.449   2.057   6.664 -2.0574 -1.0756 -1.9552
 4332SOL    HW224630   2.591   2.023   6.643  0.4655 -2.2929 -1.7384
 4333SOL     OW24631   2.675   2.214   2.946  0.9165  0.5509 -0.0288
 4333SOL    HW124632   2.636   2.292   2.906 -0.6735 -0.1319  0.2029
 4333SOL    HW224633   2.745   2.254   2.997 -0.8640  0.7665  2.2215
 4334SOL     OW24634   1.892   2.245   2.915 -0.1154  0.1905  0.3716
 4334SOL    HW124635   1.870   2.217   2.826 -0.6367 -1.8638  1.1312
 4334SOL    HW224636   1.978   2.204   2.923 -0.3003  0.2004  2.4608
 4335SOL     OW24637   2.695   3.194  13.734  0.1412  0.3370  0.2821
 4335SOL    HW124638   2.605   3.214  13.709  0.7093 -0.0726 -2.1558
 4335SOL    HW224639   2.688   3.115  13.787  1.1593  0.2057  0.2225
 4336SOL     OW24640   3.804   3.806   1.337 -0.1602  0.2231  0.0013
 4336SOL    HW124641   3.785   3.732   1.279 -1.5270 -0.3436  1.1760
 4336SOL    HW224642   3.750   3.879   1.304  0.6077  1.4544  1.4907
 4337SOL     OW24643   0.243   4.268   8.043 -0.1747 -0.1587 -0.0249
 4337SOL    HW124644   0.280   4.255   7.956  0.9881  0.9425  0.3119
 4337SOL    HW224645   0.254   4.363   8.045  1.2534 -0.3985  2.4971
 4338SOL     OW24646   4.300   0.594   2.995 -0.4522 -0.3550 -0.0515
 4338SOL    HW124647   4.393   0.572   2.996 -0.2132  0.5663 -3.9376
 4338SOL    HW224648   4.268   0.537   3.065 -0.4040  0.5916  0.7515
 4339SOL     OW24649   3.729   2.591   5.600  0.3361  0.7916 -0.0054
 4339SOL    HW124650   3.691   2.512   5.639  0.7249 -0.6436 -2.4998
 4339SOL    HW224651   3.724   2.563   5.509  0.7374  1.9131 -0.3697
 4340SOL     OW24652   3.234   0.039  14.072  0.2847 -0.1479  0.4871
 4340SOL    HW124653   3.174   0.068  14.140 -0.1749 -0.1456  0.0881
 4340SOL    HW224654   3.243   0.123  14.026 -2.0293  0.5093  1.2574
 4341SOL     OW24655   0.298   4.632   0.727  0.1580 -0.1498  0.0753
 4341SOL    HW124656   0.353   4.587   0.663  1.7043  2.8747 -0.6815
 4341SOL    HW224657   0.268   4.562   0.785 -0.4012 -1.6257 -1.9743
 4342SOL     OW24658   0.147   3.977   6.090  0.7930 -0.0828  0.3582
 4342SOL    HW124659   0.120   3.994   6.180 -0.6309 -0.8486  0.0616
 4342SOL    HW224660   0.194   3.896   6.107 -1.0793 -1.2080  0.1590
 4343SOL     OW24661   3.611   2.420   2.408 -0.0501 -1.0453 -0.2648
 4343SOL    HW124662   3.704   2.408   2.389 -0.2386 -0.4258 -1.5756
 4343SOL    HW224663   3.590   2.346   2.465 -0.9765  0.7264  1.6966
 4344SOL     OW24664   4.479   4.504  15.330 -0.0325  0.0584  0.6840
 4344SOL    HW124665   4.530   4.480  15.407  0.7952  0.0495  0.1320
 4344SOL    HW224666   4.430   4.580  15.362  0.1038 -0.0859  1.2192
 4345SOL     OW24667   2.303   1.117  10.236 -0.6019 -0.0090  0.1467
 4345SOL    HW124668   2.323   1.105  10.329  0.3906 -0.9130 -0.1815
 4345SOL    HW224669   2.249   1.040  10.219  0.8870 -1.0147 -0.0077
 4346SOL     OW24670   3.336   2.898   5.670  0.8365 -0.0901  0.5012
 4346SOL    HW124671   3.274   2.951   5.620 -0.3445 -2.9350 -1.0516
 4346SOL    HW224672   3.333   2.813   5.628 -3.8437 -0.4315  1.5124
 4347SOL     OW24673   0.290   4.605   5.542 -0.0361  0.0085 -0.4124
 4347SOL    HW124674   0.298   4.662   5.618  1.0995  0.0947 -0.5911
 4347SOL    HW224675   0.309   4.678   5.482 -0.4835  0.4138 -0.0627
 4348SOL     OW24676   3.500   3.632   3.250 -0.0518 -0.6529 -0.3455
 4348SOL    HW124677   3.511   3.540   3.272  1.4562 -0.8224 -1.9048
 4348SOL    HW224678   3.453   3.653   3.331  2.0416 -0.9551  0.9398
 4349SOL     OW24679   1.553   0.906   4.837  0.0902  0.8448 -0.0701
 4349SOL    HW124680   1.581   0.937   4.923  1.4606  0.5696 -0.4251
 4349SOL    HW224681   1.457   0.909   4.836  0.0908  0.8902  0.0451
 4350SOL     OW24682   1.229   2.421   4.064 -0.5729  0.3996  0.1491
 4350SOL    HW124683   1.163   2.459   4.121 -2.2457 -1.2884 -0.6924
 4350SOL    HW224684   1.174   2.389   3.993  0.7921  2.0271 -1.6445
 4351SOL     OW24685   3.231   0.517  15.857 -0.2620  0.5187  0.1811
 4351SOL    HW124686   3.171   0.582  15.821  1.0860  0.6671 -1.8162
 4351SOL    HW224687   3.204   0.514  15.949  1.0586 -0.7188  0.5371
 4352SOL     OW24688   2.479   1.692   4.574 -0.3913 -0.0474 -0.0086
 4352SOL    HW124689   2.525   1.611   4.596  1.2638  1.1511  0.9316
 4352SOL    HW224690   2.502   1.735   4.656 -2.3720  2.5513 -0.8101
 4353SOL     OW24691   1.025   3.848   7.219 -0.3523 -0.4317 -0.1222
 4353SOL    HW124692   0.946   3.799   7.241 -0.3218 -1.2804 -1.8756
 4353SOL    HW224693   1.079   3.802   7.154 -2.8892 -0.0367 -2.4875
 4354SOL     OW24694   1.451   3.525   6.855 -0.6473 -0.0146  0.1351
 4354SOL    HW124695   1.454   3.620   6.847  1.2731 -0.0973  0.0019
 4354SOL    HW224696   1.446   3.526   6.951  1.8562  0.3423  0.2389
 4355SOL     OW24697   3.442   2.921  17.390  0.2948 -0.2804 -0.3693
 4355SOL    HW124698   3.380   2.994  17.394  2.1356  0.9980  4.3589
 4355SOL    HW224699   3.494   2.926  17.470 -0.7521 -1.5227  0.3800
 4356SOL     OW24700   0.564   2.116  16.633 -0.3458  0.2703  0.1161
 4356SOL    HW124701   0.648   2.161  16.642  0.2656 -0.8814  0.2565
 4356SOL    HW224702   0.531   2.153  16.552  1.2911  0.8166 -0.3009
 4357SOL     OW24703   1.890   3.192   4.697  0.5314 -0.3665 -0.8221
 4357SOL    HW124704   1.935   3.152   4.772  1.2081  1.3612 -0.3172
 4357SOL    HW224705   1.799   3.169   4.713  0.8047 -1.3642 -0.6608
 4358SOL     OW24706   4.539   3.290  15.089  0.7408 -0.4178  0.2595
 4358SOL    HW124707   4.451   3.257  15.072  0.1382  1.7817 -0.8791
 4358SOL    HW224708   4.526   3.376  15.051  0.9008 -1.1844 -1.5500
 4359SOL     OW24709   1.748   1.653   6.558  0.8772 -0.4426 -0.1822
 4359SOL    HW124710   1.678   1.703   6.599 -1.2791 -1.1945 -2.9113
 4359SOL    HW224711   1.821   1.667   6.618 -1.1690  0.6679  2.0511
 4360SOL     OW24712   2.665   3.440   4.824  0.3847 -0.1841  0.4878
 4360SOL    HW124713   2.624   3.422   4.739  0.2345  0.2635  0.4662
 4360SOL    HW224714   2.589   3.474   4.872  2.1100 -0.2190  3.2475
 4361SOL     OW24715   0.106   2.505   4.823 -0.1818 -0.6724  0.5248
 4361SOL    HW124716   0.187   2.494   4.874  1.7845 -0.1810 -2.4823
 4361SOL    HW224717   0.041   2.533   4.887 -0.1859 -2.5679  1.3506
 4362SOL     OW24718   3.444   3.845  12.883  0.0088  0.0367  0.6341
 4362SOL    HW124719   3.485   3.893  12.811 -1.8282 -0.5831 -0.7954
 4362SOL    HW224720   3.405   3.915  12.937 -1.1807 -0.2917  0.1902
 4363SOL     OW24721   0.600   0.343   4.474 -0.4326  0.1949 -0.1993
 4363SOL    HW124722   0.583   0.339   4.568 -0.9307  0.9462 -0.2570
 4363SOL    HW224723   0.509   0.332   4.446 -0.2197  1.3359 -1.3454
 4364SOL     OW24724   1.361   1.222  17.705  0.0647 -0.1777  0.3068
 4364SOL    HW124725   1.313   1.152  17.750 -0.5525 -1.9489 -3.0494
 4364SOL    HW224726   1.339   1.290   0.017  0.7731  0.2538  0.0866
 4365SOL     OW24727   1.164   2.949  10.019  0.0754 -0.1658 -0.4243
 4365SOL    HW124728   1.140   2.858  10.034 -1.3458 -0.0674 -2.0763
 4365SOL    HW224729   1.222   2.942   9.943 -1.6418 -1.7314 -1.6066
 4366SOL     OW24730   2.501   3.094   5.681  0.5825  0.0038  0.5674
 4366SOL    HW124731   2.549   3.172   5.708  0.4289  0.3693 -0.2185
 4366SOL    HW224732   2.437   3.125   5.617  0.0721  0.1525  1.1586
 4367SOL     OW24733   4.026   0.392   7.071 -0.1490  0.1582 -0.4698
 4367SOL    HW124734   4.098   0.387   7.008  0.6453  0.3235  0.4291
 4367SOL    HW224735   4.073   0.442   7.138  1.1316 -0.7173 -0.7248
 4368SOL     OW24736   0.632   1.492   0.894  0.2412  0.3705 -0.0652
 4368SOL    HW124737   0.555   1.532   0.852 -2.1381 -4.0815 -0.0156
 4368SOL    HW224738   0.675   1.454   0.818 -1.4520 -0.0214 -0.8439
 4369SOL     OW24739   3.423   0.497  15.643  0.1623 -0.2339 -0.5426
 4369SOL    HW124740   3.409   0.422  15.585 -0.6069 -0.1013 -0.5395
 4369SOL    HW224741   3.358   0.474  15.711  0.5975 -0.7473 -0.3040
 4370SOL     OW24742   1.744   1.443   7.556  0.2613 -0.3060  0.2615
 4370SOL    HW124743   1.656   1.430   7.591  0.8835  1.2363  2.4086
 4370SOL    HW224744   1.798   1.429   7.634 -1.3938 -0.2690  1.4074
 4371SOL     OW24745   0.117   0.762  11.019  0.6091  0.2713 -0.1289
 4371SOL    HW124746   0.063   0.817  10.963 -0.1094 -1.0810 -0.7335
 4371SOL    HW224747   0.059   0.719  11.081  2.6917  0.2434  1.8346
 4372SOL     OW24748   0.789   2.235   6.366 -0.4728  0.0850 -0.5314
 4372SOL    HW124749   0.730   2.310   6.372 -0.6991 -0.2298  1.0857
 4372SOL    HW224750   0.870   2.276   6.335  0.0686 -0.5627  0.0393
 4373SOL     OW24751   3.867   3.785   3.618 -0.1296  0.7762 -0.7590
 4373SOL    HW124752   3.860   3.878   3.643  0.0285  0.2374  1.2854
 4373SOL    HW224753   3.956   3.780   3.582  0.8446  2.6324  1.3487
 4374SOL     OW24754   4.539   4.501  10.543  0.4279  0.2431  0.4710
 4374SOL    HW124755   4.538   4.406  10.531 -0.5149  0.4826 -1.3513
 4374SOL    HW224756   4.447   4.515  10.566  0.6543  2.6027 -0.0879
 4375SOL     OW24757   2.882   4.376   3.608  0.4552  0.2405  0.0584
 4375SOL    HW124758   2.881   4.449   3.546  1.8045 -0.7023 -1.0720
 4375SOL    HW224759   2.803   4.326   3.588  0.0177  0.4393  1.2881
 4376SOL     OW24760   3.584   1.377   9.436  0.1506  0.2052  0.0687
 4376SOL    HW124761   3.636   1.310   9.480  2.2743  1.7377 -0.1020
 4376SOL    HW224762   3.633   1.390   9.355  0.6728 -1.9676  0.0543
 4377SOL     OW24763   1.218   2.921  16.637 -0.3824  0.1488 -0.2267
 4377SOL    HW124764   1.218   3.015  16.660  2.2309 -0.5824  2.7464
 4377SOL    HW224765   1.249   2.918  16.547  1.4317 -0.5437  0.4460
 4378SOL     OW24766   0.862   4.318   2.742  0.3420 -0.0445 -0.0448
 4378SOL    HW124767   0.777   4.274   2.750  0.2277  0.1414 -0.2457
 4378SOL    HW224768   0.921   4.244   2.753 -0.7817 -0.4403  3.3473
 4379SOL     OW24769   0.562   4.255   4.896 -0.3942 -0.3059 -0.5283
 4379SOL    HW124770   0.474   4.220   4.886 -0.8644  0.5462  0.6867
 4379SOL    HW224771   0.560   4.311   4.973 -1.6310  0.1032 -0.8578
 4380SOL     OW24772   3.221   3.907   5.285  0.4804  0.0162  0.3339
 4380SOL    HW124773   3.151   3.876   5.343 -0.5994  0.6151 -0.6434
 4380SOL    HW224774   3.261   3.827   5.251  0.6212 -0.2704  1.1777
 4381SOL     OW24775   0.537   4.707   7.675 -0.0059  0.8152 -0.7528
 4381SOL    HW124776   0.521   4.615   7.655 -2.1022  0.9844  0.1225
 4381SOL    HW224777   0.463   4.737   7.730  1.7760  0.1074  2.0255
 4382SOL     OW24778   0.164   0.876   7.124 -0.0925 -0.4081 -0.4059
 4382SOL    HW124779   0.164   0.928   7.205 -1.9497 -1.1739  0.0919
 4382SOL    HW224780   0.090   0.819   7.142 -0.4003 -0.4288 -1.7167
 4383SOL     OW24781   0.966   2.595   7.790  0.1559 -0.0661 -0.0020
 4383SOL    HW124782   0.985   2.570   7.880 -0.5314 -0.8199 -0.0639
 4383SOL    HW224783   0.899   2.662   7.799 -1.1102 -1.5134  1.3503
 4384SOL     OW24784   3.929   4.481  17.166 -0.4128 -0.0778  0.0771
 4384SOL    HW124785   3.967   4.430  17.094 -0.0037  1.7680 -0.9941
 4384SOL    HW224786   3.844   4.508  17.132  0.0863  0.5637 -0.6475
 4385SOL     OW24787   2.711   2.854   4.687 -0.7015  0.6473  0.4864
 4385SOL    HW124788   2.615   2.852   4.685 -0.6832 -0.3432  1.0325
 4385SOL    HW224789   2.738   2.766   4.712  0.5646  1.0248  0.4353
 4386SOL     OW24790   1.598   1.157  15.830  0.3270 -0.6431 -1.0002
 4386SOL    HW124791   1.633   1.243  15.806 -1.9422  0.5900  0.1156
 4386SOL    HW224792   1.574   1.136  15.740 -1.0724  2.6673 -1.4073
 4387SOL     OW24793   0.818   1.260  16.274 -0.1530  0.2736 -0.2794
 4387SOL    HW124794   0.830   1.168  16.298 -1.3520  0.0475 -0.5232
 4387SOL    HW224795   0.906   1.282  16.243  0.4082 -0.6645  0.6485
 4388SOL     OW24796   3.513   4.100   2.094  0.0358  0.1981  0.8816
 4388SOL    HW124797   3.462   4.090   2.175 -1.8680 -0.4576 -0.4099
 4388SOL    HW224798   3.575   4.027   2.103  0.0127  0.4500  3.1982
 4389SOL     OW24799   4.722   3.958   6.328 -0.8735 -0.9038  0.3797
 4389SOL    HW124800   4.707   3.999   6.414  1.4336  0.6004  0.0780
 4389SOL    HW224801   0.024   3.879   6.365 -1.5299 -0.9777  0.9427
 4390SOL     OW24802   3.285   3.437   2.224 -0.3810 -0.0127  0.0441
 4390SOL    HW124803   3.359   3.408   2.278  0.3110  1.2771 -0.2083
 4390SOL    HW224804   3.327   3.428   2.138 -0.0947  0.8700  0.0950
 4391SOL     OW24805   1.612   2.023   1.687 -0.2696 -0.2373  0.2086
 4391SOL    HW124806   1.533   2.071   1.665 -0.0017 -0.2587 -0.8011
 4391SOL    HW224807   1.644   1.995   1.601  2.7224  1.1172  0.8739
 4392SOL     OW24808   2.012   3.344   4.058 -0.0890 -0.7103 -0.1572
 4392SOL    HW124809   1.931   3.296   4.045  0.0785 -0.6055 -1.6039
 4392SOL    HW224810   2.009   3.405   3.984 -1.9017  0.1682  0.6482
 4393SOL     OW24811   3.381   4.622   1.670  0.1897 -0.2260 -0.0211
 4393SOL    HW124812   3.370   4.561   1.743  0.1510 -1.7241 -1.2759
 4393SOL    HW224813   3.468   4.595   1.640  0.3266  0.4510 -0.2148
 4394SOL     OW24814   2.638   4.707   6.134 -0.0934 -0.7220 -0.2137
 4394SOL    HW124815   2.706   4.662   6.184  1.9946  2.1826 -0.4732
 4394SOL    HW224816   2.558   4.665   6.165  0.4112 -1.4962  0.0505
 4395SOL     OW24817   3.784   4.121  10.133  0.0451  0.0159  0.0285
 4395SOL    HW124818   3.742   4.059  10.072 -0.0774  0.3979 -0.2737
 4395SOL    HW224819   3.853   4.062  10.164  1.2803  1.9046  0.8544
 4396SOL     OW24820   1.409   3.713   8.486 -0.0994  0.8033 -0.1596
 4396SOL    HW124821   1.494   3.675   8.502 -0.5531  0.8425  2.3471
 4396SOL    HW224822   1.420   3.805   8.512  0.6003  0.7907 -0.4182
 4397SOL     OW24823   4.351   4.707   9.470  0.4172  0.0084 -0.1210
 4397SOL    HW124824   4.414   4.660   9.416 -1.6353 -0.4372 -2.1538
 4397SOL    HW224825   4.337   0.036   9.403  0.7664 -0.7052 -0.9039
 4398SOL     OW24826   2.523   4.291   1.648  0.3665  1.0260 -0.0540
 4398SOL    HW124827   2.448   4.350   1.650 -0.5310 -0.1145 -0.0422
 4398SOL    HW224828   2.569   4.318   1.727 -1.8323  2.4180  0.7281
 4399SOL     OW24829   2.393   2.865   2.630  0.4712  0.5139 -0.3986
 4399SOL    HW124830   2.337   2.822   2.695  1.5323 -3.4402 -2.0969
 4399SOL    HW224831   2.461   2.798   2.620 -0.9186 -0.6036 -2.6204
 4400SOL     OW24832   0.933   2.575   9.445 -0.2945  0.4177 -0.0298
 4400SOL    HW124833   0.990   2.508   9.482  1.7216  1.7918 -0.6654
 4400SOL    HW224834   0.946   2.553   9.353  0.3788  1.4721 -0.1845
 4401SOL     OW24835   2.509   0.479  13.430 -0.6808 -0.2821 -0.6889
 4401SOL    HW124836   2.419   0.486  13.464 -0.8061 -0.2603 -1.0200
 4401SOL    HW224837   2.537   0.570  13.431  0.0259 -0.5097 -0.2659
 4402SOL     OW24838   2.232   0.068  13.820  0.3855  0.3816  0.2090
 4402SOL    HW124839   2.326   0.080  13.808  0.4278 -0.9587 -0.7379
 4402SOL    HW224840   2.211   0.000  13.756 -1.6505  1.9092 -0.7320
 4403SOL     OW24841   2.558   3.386   7.158 -0.1212  0.4077  0.1125
 4403SOL    HW124842   2.584   3.437   7.234  2.2301 -3.3237  1.7930
 4403SOL    HW224843   2.635   3.332   7.145  0.7567  1.6343  0.2164
 4404SOL     OW24844   3.986   3.169   7.611 -0.0807  0.3608  0.2784
 4404SOL    HW124845   3.972   3.089   7.662 -1.4640  1.6190  1.8939
 4404SOL    HW224846   4.066   3.156   7.560  0.1785  1.3363  0.4365
 4405SOL     OW24847   4.211   0.396  10.063 -0.6005 -0.0226  0.0165
 4405SOL    HW124848   4.203   0.460   9.992  0.5422  0.4345  0.3013
 4405SOL    HW224849   4.288   0.343  10.041  0.6043  0.3552  3.3397
 4406SOL     OW24850   3.138   0.318   6.206 -0.2098 -0.4928  0.3916
 4406SOL    HW124851   3.212   0.272   6.246 -0.5238 -0.6482  0.8033
 4406SOL    HW224852   3.164   0.410   6.205 -0.0829 -0.5658 -3.2319
 4407SOL     OW24853   1.945   3.568   7.833  0.5633 -0.2552 -0.4488
 4407SOL    HW124854   2.007   3.531   7.770 -0.8913 -3.1627 -0.1670
 4407SOL    HW224855   1.901   3.489   7.865  1.3082  0.1731  1.6026
 4408SOL     OW24856   2.745   0.823   6.555 -0.3159  0.4259 -0.7520
 4408SOL    HW124857   2.832   0.831   6.594 -0.5778  0.2396 -0.1159
 4408SOL    HW224858   2.707   0.763   6.620 -4.4991 -0.0383 -3.5845
 4409SOL     OW24859   2.379   1.097   7.141 -0.2773 -0.5005  0.1492
 4409SOL    HW124860   2.405   1.072   7.052 -1.0443  2.5070 -0.9057
 4409SOL    HW224861   2.335   1.017   7.169 -1.5158 -0.2072 -0.9842
 4410SOL     OW24862   3.308   1.911   9.118 -0.0504 -0.1776 -0.7231
 4410SOL    HW124863   3.324   1.876   9.206 -2.7893  1.8506  0.6000
 4410SOL    HW224864   3.348   1.838   9.072  0.0190 -0.2000 -0.6274
 4411SOL     OW24865   3.358   1.510   4.996  1.1553  0.1826 -0.2774
 4411SOL    HW124866   3.318   1.469   4.919  0.5011  0.7200 -0.2257
 4411SOL    HW224867   3.444   1.469   4.986  0.2078 -1.4971 -1.5154
 4412SOL     OW24868   2.413   1.437   8.598 -0.7851  0.6130 -0.9172
 4412SOL    HW124869   2.399   1.397   8.684  2.2118 -0.6226 -0.9934
 4412SOL    HW224870   2.413   1.527   8.630  1.4701  0.7146 -1.2393
 4413SOL     OW24871   2.616   3.949  10.915 -0.1869  0.7500  0.3016
 4413SOL    HW124872   2.612   4.042  10.940  1.0507  1.4146 -2.0063
 4413SOL    HW224873   2.528   3.919  10.893  0.3729  0.3876 -1.4541
 4414SOL     OW24874   3.342   3.146  16.659 -0.0652  0.5024 -0.4213
 4414SOL    HW124875   3.359   3.108  16.573  0.2044 -2.2499  0.8251
 4414SOL    HW224876   3.295   3.227  16.641 -0.8889  0.0895 -0.1600
 4415SOL     OW24877   1.784   2.351   3.150 -0.3529  0.1765  0.0364
 4415SOL    HW124878   1.711   2.377   3.095  1.1235  1.4422 -1.3251
 4415SOL    HW224879   1.842   2.315   3.082  3.2148 -1.5840  4.0249
 4416SOL     OW24880   0.487   0.748   2.385 -0.3018 -0.6922  0.2581
 4416SOL    HW124881   0.503   0.824   2.330 -1.4723  0.2099  1.1628
 4416SOL    HW224882   0.394   0.762   2.404  0.3593  3.1276  0.6935
 4417SOL     OW24883   4.524   2.121   6.061  0.1567 -0.3476 -0.4824
 4417SOL    HW124884   4.504   2.202   6.107  2.2697  0.1714 -0.4630
 4417SOL    HW224885   4.541   2.158   5.974  0.6872  0.4110 -0.0502
 4418SOL     OW24886   0.334   0.675  17.294  0.7085  0.5376 -0.1616
 4418SOL    HW124887   0.351   0.683  17.388  1.4125 -0.9469 -0.1606
 4418SOL    HW224888   0.351   0.586  17.262  2.8692  1.2002 -0.9056
 4419SOL     OW24889   1.912   4.546   8.802  0.0538  0.2952  0.0563
 4419SOL    HW124890   1.957   4.539   8.718  0.0077  1.6255 -0.0773
 4419SOL    HW224891   1.941   4.633   8.828  0.1026  0.4523 -0.5159
 4420SOL     OW24892   4.624   2.310   8.479  0.0217 -0.2790 -0.6552
 4420SOL    HW124893   4.699   2.287   8.533 -1.6812 -1.7418  1.1199
 4420SOL    HW224894   4.556   2.329   8.544 -0.3506 -0.2040 -1.0637
 4421SOL     OW24895   2.927   3.615   8.371  0.4195  0.0701  0.0627
 4421SOL    HW124896   2.839   3.640   8.343  0.8094  0.2180 -1.0597
 4421SOL    HW224897   2.910   3.636   8.462 -1.8275 -1.4079 -0.0223
 4422SOL     OW24898   0.880   2.676   2.261  0.0118 -0.0554 -0.3070
 4422SOL    HW124899   0.811   2.718   2.210  0.7373  1.6242  0.1142
 4422SOL    HW224900   0.956   2.734   2.256 -0.6947  0.8679 -0.3285
 4423SOL     OW24901   4.159   2.428   5.159  0.1962 -0.0888  0.4795
 4423SOL    HW124902   4.129   2.337   5.163 -2.6194  0.9389  2.3042
 4423SOL    HW224903   4.245   2.429   5.201 -0.5349 -1.7758  1.9792
 4424SOL     OW24904   2.706   0.934  12.031 -0.1336  0.4496  0.2965
 4424SOL    HW124905   2.710   0.972  11.944 -0.8469 -2.5800 -1.0620
 4424SOL    HW224906   2.669   1.001  12.089 -0.8939  2.9665 -3.1469
 4425SOL     OW24907   1.257   3.712   7.578  0.3735 -0.7537 -0.5602
 4425SOL    HW124908   1.273   3.652   7.506  0.7625 -0.3651 -0.7970
 4425SOL    HW224909   1.341   3.746   7.608 -1.2545  1.8941  0.9997
 4426SOL     OW24910   0.452   2.770   6.511  0.1806  0.1330  0.2391
 4426SOL    HW124911   0.423   2.679   6.519 -1.0256  0.3497 -1.5108
 4426SOL    HW224912   0.522   2.762   6.447 -0.8646  0.2253 -0.9178
 4427SOL     OW24913   1.100   0.091  17.099  0.9023  0.3034 -0.1338
 4427SOL    HW124914   1.096   0.098  17.004 -0.5003 -1.0582 -0.1725
 4427SOL    HW224915   1.051   0.171  17.117  1.1008  0.6311 -1.0638
 4428SOL     OW24916   2.749   4.219   5.889  0.3172  0.0933  0.1569
 4428SOL    HW124917   2.826   4.241   5.838  1.7274 -4.1699  0.4424
 4428SOL    HW224918   2.680   4.199   5.826 -0.6988  3.3977  0.1822
 4429SOL     OW24919   2.190   1.169   0.600  0.1576 -0.0648 -0.0105
 4429SOL    HW124920   2.266   1.153   0.656  0.2651  2.1401  0.4657
 4429SOL    HW224921   2.217   1.127   0.519 -0.5979 -2.4778  0.9844
 4430SOL     OW24922   4.506   3.476  17.446  0.2367  0.1255 -0.3121
 4430SOL    HW124923   4.419   3.437  17.442 -0.8792  2.4773  1.4263
 4430SOL    HW224924   4.545   3.422  17.377  0.6427 -1.2526  0.9932
 4431SOL     OW24925   4.207   3.566   4.851 -0.2858  0.0447  0.2547
 4431SOL    HW124926   4.228   3.473   4.844 -2.5767 -0.2865 -2.2788
 4431SOL    HW224927   4.244   3.598   4.769  0.4825  1.1243  1.0173
 4432SOL     OW24928   4.491   3.465   7.726  0.1696 -0.3694  0.4753
 4432SOL    HW124929   4.402   3.436   7.705 -0.9332  1.1304  3.1258
 4432SOL    HW224930   4.488   3.489   7.818  2.5783  0.3676  0.3821
 4433SOL     OW24931   2.414   1.318   8.846  0.3225  0.3116 -0.3999
 4433SOL    HW124932   2.369   1.357   8.921  0.7916  0.1526 -0.0342
 4433SOL    HW224933   2.379   1.229   8.850  0.9053 -0.0590 -3.3194
 4434SOL     OW24934   1.541   1.744  17.227 -0.2455  0.3084  0.1589
 4434SOL    HW124935   1.492   1.770  17.148 -0.7833 -0.7966  0.1309
 4434SOL    HW224936   1.470   1.742  17.292  0.9974  1.1232  1.5413
 4435SOL     OW24937   2.052   0.292   0.871  0.1165 -0.0499  0.6704
 4435SOL    HW124938   2.079   0.380   0.843 -1.1257 -0.1361 -0.7616
 4435SOL    HW224939   2.041   0.299   0.966  0.3510  2.2526  0.5281
 4436SOL     OW24940   4.136   1.441   4.597  0.0760 -0.4012 -0.4892
 4436SOL    HW124941   4.154   1.351   4.621  0.0238  0.5606  3.1815
 4436SOL    HW224942   4.041   1.440   4.580 -0.0856  0.9409  0.3403
 4437SOL     OW24943   2.543   2.419   3.458  0.0759 -0.6753 -0.1914
 4437SOL    HW124944   2.616   2.362   3.434 -0.8095 -1.3756 -1.2131
 4437SOL    HW224945   2.546   2.473   3.379 -1.2150  0.7698  0.7528
 4438SOL     OW24946   2.896   3.760   9.464 -0.2875 -0.3110 -0.4467
 4438SOL    HW124947   2.868   3.668   9.468  1.5293 -0.9046 -1.4726
 4438SOL    HW224948   2.851   3.800   9.390 -0.3650 -2.2031 -1.4128
 4439SOL     OW24949   2.740   2.224   3.409 -0.8822 -0.6404  0.1097
 4439SOL    HW124950   2.687   2.175   3.347  3.1091  0.3380 -4.0090
 4439SOL    HW224951   2.829   2.191   3.397 -0.2474  0.3874  1.8912
 4440SOL     OW24952   3.143   0.507   5.496 -0.6015  0.8944 -0.3765
 4440SOL    HW124953   3.111   0.583   5.544 -0.3781  0.3252  0.6804
 4440SOL    HW224954   3.096   0.510   5.413  1.7816 -1.2675 -1.7883
 4441SOL     OW24955   2.548   0.443   3.084  0.1986  0.2021  0.4372
 4441SOL    HW124956   2.461   0.418   3.114  0.2472  0.8509  1.1012
 4441SOL    HW224957   2.598   0.363   3.101 -1.9748 -0.3335  4.2076
 4442SOL     OW24958   0.129   4.508  16.046  0.4183  0.3309  0.6875
 4442SOL    HW124959   0.186   4.501  16.123 -0.1328 -3.3514  0.7586
 4442SOL    HW224960   0.042   4.508  16.086 -0.0416 -1.5915 -0.2978
 4443SOL     OW24961   3.815   1.869   5.282 -0.5976 -0.4591 -0.5519
 4443SOL    HW124962   3.878   1.818   5.332 -1.7559 -0.6057  0.7519
 4443SOL    HW224963   3.866   1.883   5.202 -0.9427  0.6160 -0.5893
 4444SOL     OW24964   0.257   0.948   4.250  0.5957  0.2333 -0.1812
 4444SOL    HW124965   0.335   0.915   4.294  0.4300 -2.2055 -1.7081
 4444SOL    HW224966   0.289   0.964   4.161  0.2798  0.4641 -0.2551
 4445SOL     OW24967   0.182   2.358  14.759 -0.0793 -0.0632 -0.1361
 4445SOL    HW124968   0.125   2.412  14.703 -1.6041 -0.5890  0.8997
 4445SOL    HW224969   0.150   2.269  14.747 -2.6483  0.8364 -0.1100
 4446SOL     OW24970   2.190   1.459   5.104 -0.5668  0.8760 -0.6571
 4446SOL    HW124971   2.257   1.477   5.170 -2.8790  0.0470  1.9254
 4446SOL    HW224972   2.244   1.441   5.027  0.9902  1.8311  0.2069
 4447SOL     OW24973   4.122   2.839  11.399 -0.3213  0.6768 -0.0789
 4447SOL    HW124974   4.063   2.795  11.460  1.9614  0.1957  1.7396
 4447SOL    HW224975   4.166   2.912  11.443 -1.5245  1.2184  0.2423
 4448SOL     OW24976   2.155   0.218   5.349  0.1130 -0.6414  0.7092
 4448SOL    HW124977   2.127   0.301   5.387 -0.3314 -0.8241  0.7736
 4448SOL    HW224978   2.216   0.182   5.414 -0.3530 -1.7916  0.5165
 4449SOL     OW24979   1.283   4.655   8.428  0.0308  0.5070 -0.0531
 4449SOL    HW124980   1.252   4.713   8.497 -0.8449 -1.1794  0.9635
 4449SOL    HW224981   1.202   4.630   8.384 -0.4307  1.3687  0.3249
 4450SOL     OW24982   4.486   0.354  13.066  0.5092 -0.2524  0.5709
 4450SOL    HW124983   4.572   0.335  13.027 -0.0864  0.4889 -1.1369
 4450SOL    HW224984   4.489   0.450  13.060 -0.7414 -0.1510  1.7725
 4451SOL     OW24985   0.272   3.678   8.769  0.6533 -0.0821 -0.4904
 4451SOL    HW124986   0.289   3.595   8.724  0.9168 -0.8213  0.9963
 4451SOL    HW224987   0.187   3.658   8.808  0.8819  0.9438  0.5242
 4452SOL     OW24988   4.024   2.015   1.002 -0.2500  0.0807 -0.3804
 4452SOL    HW124989   4.089   1.946   1.016  0.7247  0.2502 -4.0137
 4452SOL    HW224990   3.952   1.961   0.968 -1.3804  1.1004  0.3889
 4453SOL     OW24991   2.975   3.312   8.639  0.0696  0.9334  0.3916
 4453SOL    HW124992   2.930   3.238   8.679 -0.3177  1.3141  0.6629
 4453SOL    HW224993   2.975   3.362   8.721  1.1696 -0.4298  1.2251
 4454SOL     OW24994   2.780   3.310   7.954 -0.2776 -0.1743 -0.9060
 4454SOL    HW124995   2.836   3.262   8.015 -1.9119 -1.9826 -0.8263
 4454SOL    HW224996   2.691   3.309   7.989 -0.0311 -2.2697 -0.3622
 4455SOL     OW24997   3.595   1.652   2.884 -0.0459  0.8511  0.2951
 4455SOL    HW124998   3.520   1.640   2.826  0.0523 -0.0105  0.3544
 4455SOL    HW224999   3.638   1.568   2.869 -0.9162  0.2593  1.0773
 4456SOL     OW25000   3.032   2.741   0.422 -0.2727  0.8171  0.0129
 4456SOL    HW125001   3.016   2.703   0.509  1.9334  1.3940  0.6854
 4456SOL    HW225002   2.964   2.807   0.427 -1.5605 -0.5264  0.3211
 4457SOL     OW25003   2.203   4.271   5.461 -0.2782  0.8113 -0.4849
 4457SOL    HW125004   2.235   4.188   5.497  2.5161  1.7120 -0.8670
 4457SOL    HW225005   2.236   4.337   5.522  0.1775 -0.5303  0.7161
 4458SOL     OW25006   3.276   2.432   2.102 -0.0478  0.0692  0.1833
 4458SOL    HW125007   3.193   2.422   2.148 -0.0021 -0.8176  0.0678
 4458SOL    HW225008   3.319   2.491   2.164  0.9021  0.5020 -0.8783
 4459SOL     OW25009   2.127   1.080   1.276 -0.0924  0.1808 -0.0233
 4459SOL    HW125010   2.093   1.016   1.339  0.2072  0.6458  0.6128
 4459SOL    HW225011   2.217   1.053   1.261  0.1456  2.0452 -1.8450
 4460SOL     OW25012   1.203   3.407   1.509 -0.1600  0.4899  0.3544
 4460SOL    HW125013   1.114   3.374   1.522  0.4222 -1.5828 -0.9555
 4460SOL    HW225014   1.195   3.441   1.420 -2.0671  0.0119  0.3595
 4461SOL     OW25015   3.547   0.839  14.232  0.0767 -0.1458 -0.1484
 4461SOL    HW125016   3.481   0.908  14.226  1.4934  1.1706 -0.8384
 4461SOL    HW225017   3.519   0.782  14.303 -0.8108  0.4210 -0.0493
 4462SOL     OW25018   0.329   2.207   0.359 -0.0593  0.6489  0.1108
 4462SOL    HW125019   0.276   2.281   0.328 -0.3123  0.2074 -0.5082
 4462SOL    HW225020   0.386   2.192   0.284 -1.0604  1.1671 -0.7616
 4463SOL     OW25021   4.148   0.259  17.618 -0.1645 -0.6457 -0.3925
 4463SOL    HW125022   4.243   0.263  17.630 -0.1717 -0.9864 -0.2030
 4463SOL    HW225023   4.146   0.183  17.559  0.0682  0.4754 -1.8291
 4464SOL     OW25024   2.472   3.752  15.320 -0.4870 -0.8050 -0.0515
 4464SOL    HW125025   2.559   3.716  15.302  0.6527  1.1426  1.5791
 4464SOL    HW225026   2.431   3.667  15.338  0.5631 -1.0022  1.4297
 4465SOL     OW25027   0.871   2.673   6.560  0.0472 -0.4575 -0.1375
 4465SOL    HW125028   0.793   2.633   6.599 -0.2458 -0.7441 -1.0004
 4465SOL    HW225029   0.914   2.722   6.629  0.8445 -2.7008  0.9729
 4466SOL     OW25030   1.221   1.381   9.578  0.2012  0.1872 -0.0135
 4466SOL    HW125031   1.295   1.320   9.583 -1.1686 -1.5115 -0.2436
 4466SOL    HW225032   1.170   1.342   9.649  0.5570  0.3692  0.3384
 4467SOL     OW25033   4.323   3.472   6.125 -0.2020 -0.0042 -0.1445
 4467SOL    HW125034   4.329   3.540   6.192 -1.7820 -1.0913  1.1103
 4467SOL    HW225035   4.254   3.502   6.067 -2.1535 -0.7924  1.7572
 4468SOL     OW25036   2.016   2.199   4.544 -0.1922  0.1394 -0.2825
 4468SOL    HW125037   2.066   2.213   4.624 -0.2484  0.2076 -0.2590
 4468SOL    HW225038   2.066   2.128   4.504 -0.9760  0.2320 -1.4207
 4469SOL     OW25039   1.260   3.838   3.739 -0.0219 -0.0192 -0.4784
 4469SOL    HW125040   1.187   3.810   3.684  1.3043 -0.6859 -1.9421
 4469SOL    HW225041   1.317   3.761   3.743  1.7794  1.3228 -0.0215
 4470SOL     OW25042   2.981   0.240   3.579 -0.1914 -0.1167  0.4464
 4470SOL    HW125043   3.057   0.188   3.605  1.0681  1.2415 -0.5482
 4470SOL    HW225044   2.915   0.173   3.559  0.8926 -0.6276 -1.3764
 4471SOL     OW25045   3.480   1.483  12.080 -0.4599 -0.0610  0.6751
 4471SOL    HW125046   3.566   1.507  12.116 -1.1954  1.1682  1.6374
 4471SOL    HW225047   3.423   1.546  12.126 -0.8977 -0.8936  1.2707
 4472SOL     OW25048   2.495   1.679   8.310 -0.0204 -0.5361  0.0797
 4472SOL    HW125049   2.419   1.721   8.350 -0.2007 -1.1309  0.3718
 4472SOL    HW225050   2.482   1.709   8.220  1.2264  1.7172  0.6629
 4473SOL     OW25051   0.665   1.313  16.482  0.1711  0.0604 -0.2120
 4473SOL    HW125052   0.616   1.392  16.459 -1.1626 -0.8594 -0.5234
 4473SOL    HW225053   0.703   1.287  16.398  1.3493 -0.5568  0.5172
 4474SOL     OW25054   1.747   3.815   5.949 -0.1090 -0.5701  0.1245
 4474SOL    HW125055   1.809   3.742   5.949  0.0372 -0.4260  1.7532
 4474SOL    HW225056   1.659   3.778   5.949 -0.9767  1.4979  2.0700
 4475SOL     OW25057   0.738   2.523   9.650  0.2459 -0.8419  0.2126
 4475SOL    HW125058   0.669   2.466   9.616 -1.1868 -0.2035  2.0571
 4475SOL    HW225059   0.800   2.509   9.578 -0.3098  0.8152 -0.5891
 4476SOL     OW25060   1.891   3.678   2.200 -0.2425  0.1487 -0.1492
 4476SOL    HW125061   1.874   3.602   2.143  1.2279 -0.9954  0.9628
 4476SOL    HW225062   1.972   3.710   2.162 -0.7517  2.8141  1.0302
 4477SOL     OW25063   4.128   1.997  16.462 -0.7309  0.7056 -0.4751
 4477SOL    HW125064   4.211   2.042  16.449 -0.4723 -0.2983 -2.2335
 4477SOL    HW225065   4.087   2.056  16.525  0.0315 -0.0449  0.7260
 4478SOL     OW25066   0.693   1.536   4.212  0.4028  0.2223 -0.2659
 4478SOL    HW125067   0.684   1.493   4.127  3.2636  1.2700 -1.0930
 4478SOL    HW225068   0.766   1.596   4.195 -1.3740  2.6411  0.6788
 4479SOL     OW25069   2.501   3.342   4.580 -1.0632 -0.0200  0.1416
 4479SOL    HW125070   2.433   3.274   4.572  2.1498 -2.9438 -2.4434
 4479SOL    HW225071   2.562   3.313   4.511 -1.0769  2.1310 -0.7646
 4480SOL     OW25072   3.401   0.114  17.683  0.3977  0.6489  0.2131
 4480SOL    HW125073   3.466   0.044  17.687 -1.1557 -0.9447 -2.0202
 4480SOL    HW225074   3.370   0.101  17.593 -1.1349  1.0660  0.6695
 4481SOL     OW25075   3.431   3.976   3.117 -0.3871  0.0303 -0.4237
 4481SOL    HW125076   3.389   3.892   3.134 -0.3612 -0.2911 -1.9781
 4481SOL    HW225077   3.364   4.026   3.071 -0.7800 -0.6403 -0.5841
 4482SOL     OW25078   0.497   4.029  15.228  0.4613 -0.9249 -0.2245
 4482SOL    HW125079   0.450   3.981  15.159  0.0802  2.5949 -2.4417
 4482SOL    HW225080   0.562   4.074  15.174  0.1757  0.2373  0.3962
 4483SOL     OW25081   2.066   3.024   4.838 -0.2437 -0.0790  0.3627
 4483SOL    HW125082   2.110   3.070   4.909  1.5159  0.1604 -0.8922
 4483SOL    HW225083   2.105   2.940   4.862 -0.1643  0.2194  1.2827
 4484SOL     OW25084   3.102   4.056   1.635  0.1679  0.2057 -0.2312
 4484SOL    HW125085   3.087   4.147   1.608 -1.3962 -0.4164 -1.4794
 4484SOL    HW225086   3.096   4.008   1.553 -2.7043  0.4193 -0.1488
 4485SOL     OW25087   1.494   3.493   7.111 -0.1881 -0.1001  0.4998
 4485SOL    HW125088   1.499   3.417   7.168  1.4161 -0.5955 -0.3094
 4485SOL    HW225089   1.524   3.561   7.171  1.4826 -0.2882 -0.1120
 4486SOL     OW25090   0.954   0.181  10.121  0.4283  0.0880 -0.3178
 4486SOL    HW125091   1.029   0.192  10.179  0.4535 -1.4070 -0.0652
 4486SOL    HW225092   0.950   0.261  10.069  2.5055 -0.4846 -1.3841
 4487SOL     OW25093   0.708   3.307   8.624 -0.0066  0.0079 -0.3437
 4487SOL    HW125094   0.791   3.308   8.673 -0.4108 -0.0549  0.3453
 4487SOL    HW225095   0.734   3.326   8.534 -0.3567  1.1379 -0.2119
 4488SOL     OW25096   0.846   3.577   4.700  0.4183  0.0644  0.0584
 4488SOL    HW125097   0.885   3.588   4.787 -0.0059  0.4318  0.2073
 4488SOL    HW225098   0.766   3.629   4.715  1.3152  1.3689  0.3276
 4489SOL     OW25099   4.279   3.472  16.688  0.4486  0.3456  0.1640
 4489SOL    HW125100   4.198   3.505  16.726 -0.5309 -1.1339 -0.6657
 4489SOL    HW225101   4.250   3.421  16.612  0.2141 -0.3611  0.7343
 4490SOL     OW25102   0.332   4.601  17.252 -0.6500  0.3489 -0.0678
 4490SOL    HW125103   0.397   4.548  17.298  0.3767  0.8318 -0.9711
 4490SOL    HW225104   0.293   4.533  17.197 -1.5195  1.8884 -1.3474
 4491SOL     OW25105   0.777   2.357  10.157 -0.9003  0.1239 -0.0899
 4491SOL    HW125106   0.863   2.323  10.132 -0.8091  0.9570 -0.9431
 4491SOL    HW225107   0.776   2.447  10.123  1.1466  0.1961  0.0473
 4492SOL     OW25108   0.923   3.482   1.625  0.0732 -0.5176 -0.1129
 4492SOL    HW125109   0.855   3.491   1.691  0.9907 -0.1026  0.7802
 4492SOL    HW225110   0.875   3.444   1.551  0.1091 -2.6281  0.9535
 4493SOL     OW25111   2.022   3.708  12.938 -0.1598  0.5569 -0.1154
 4493SOL    HW125112   2.094   3.646  12.943 -0.2725  0.3908 -0.5840
 4493SOL    HW225113   1.995   3.713  13.030 -0.4208  1.1823 -0.2248
 4494SOL     OW25114   0.270   0.085   5.136  0.0293 -0.7238 -0.0661
 4494SOL    HW125115   0.215   0.152   5.097 -1.2290 -1.6613  0.1247
 4494SOL    HW225116   0.330   0.065   5.064  0.1260 -1.7332  0.2828
 4495SOL     OW25117   3.233   2.887  14.365 -0.3728  0.3852 -0.0852
 4495SOL    HW125118   3.301   2.947  14.335 -0.3213  0.7696  0.7965
 4495SOL    HW225119   3.249   2.810  14.311 -0.8804  0.2064  0.0196
 4496SOL     OW25120   3.074   1.315   8.906  0.0329 -0.6805  0.0556
 4496SOL    HW125121   3.117   1.249   8.851  0.3869  1.1295 -1.8364
 4496SOL    HW225122   3.138   1.385   8.919 -1.0301 -0.0304  1.8072
 4497SOL     OW25123   2.571   0.124   0.749 -0.1021 -0.3834 -0.0451
 4497SOL    HW125124   2.575   0.074   0.831  0.7617  1.1505  0.8471
 4497SOL    HW225125   2.486   0.166   0.744 -1.0983 -2.4215 -0.2654
 4498SOL     OW25126   0.847   0.036   0.497 -0.2274  0.0548  0.1241
 4498SOL    HW125127   0.896   0.047   0.416  0.5185  1.0585  0.7079
 4498SOL    HW225128   0.906   4.736   0.562 -1.4620  0.3195  1.3964
 4499SOL     OW25129   1.358   3.448   3.124 -0.3489  0.3704  0.5705
 4499SOL    HW125130   1.336   3.513   3.058 -2.8098 -2.5005 -1.4252
 4499SOL    HW225131   1.332   3.369   3.076 -1.7722  1.2692 -0.1288
 4500SOL     OW25132   1.370   1.070   5.361 -0.3839 -0.0679 -0.5874
 4500SOL    HW125133   1.361   1.117   5.444 -1.4629  0.4574 -1.0102
 4500SOL    HW225134   1.454   1.097   5.323 -2.2714  4.7715 -1.3351
 4501SOL     OW25135   0.113   4.443   4.415 -0.4739 -0.3719  0.4393
 4501SOL    HW125136   0.074   4.422   4.330  0.9051 -1.5933  0.0892
 4501SOL    HW225137   0.192   4.389   4.424  0.5357  0.5936 -2.4095
 4502SOL     OW25138   2.180   4.141   9.514 -0.2236 -0.6521 -0.1093
 4502SOL    HW125139   2.226   4.147   9.430  0.3189 -0.5403  0.1965
 4502SOL    HW225140   2.227   4.065   9.550  1.6208  0.1819 -0.7608
 4503SOL     OW25141   3.950   0.752   2.248 -0.4280  0.1895  0.0411
 4503SOL    HW125142   4.008   0.733   2.323 -0.2876 -0.3158 -0.2013
 4503SOL    HW225143   3.952   0.675   2.193 -1.6104 -1.1395  1.8751
 4504SOL     OW25144   3.704   0.114  17.482  0.4083  0.1115  0.2225
 4504SOL    HW125145   3.632   0.073  17.433 -0.9682  2.2771  0.4588
 4504SOL    HW225146   3.723   0.191  17.429  0.2440 -0.2938 -0.4344
 4505SOL     OW25147   3.496   1.706  11.239 -0.5344 -0.2575  0.3350
 4505SOL    HW125148   3.420   1.650  11.223 -0.4122 -0.3929  0.2358
 4505SOL    HW225149   3.436   1.778  11.256  0.1324  0.2519  0.5309
 4506SOL     OW25150   0.905   2.132   3.256  0.1238 -0.6325  0.6927
 4506SOL    HW125151   0.863   2.047   3.271  0.2504 -0.7124  0.5959
 4506SOL    HW225152   0.829   2.185   3.231  0.7519  0.3484  0.8877
 4507SOL     OW25153   3.467   3.039  13.266 -0.0248  0.4076  0.0419
 4507SOL    HW125154   3.397   3.105  13.266  0.3892  0.8564 -2.6096
 4507SOL    HW225155   3.527   3.064  13.195 -0.7047  1.3064 -0.2255
 4508SOL     OW25156   0.316   1.284   2.974 -0.3317 -0.5228  0.0024
 4508SOL    HW125157   0.233   1.251   2.940  0.2129  0.0241 -1.8955
 4508SOL    HW225158   0.288   1.346   3.042 -0.1547 -0.6353  0.1781
 4509SOL     OW25159   4.706   0.589   3.811  0.4074  0.2944  0.4133
 4509SOL    HW125160   4.642   0.593   3.740  0.5582  1.6447  0.3518
 4509SOL    HW225161   0.049   0.561   3.770  1.0678  0.9007  1.3001
 4510SOL     OW25162   3.253   4.539   7.806 -0.1859 -0.0849 -0.1933
 4510SOL    HW125163   3.222   4.590   7.730  0.7360  2.6640  1.2787
 4510SOL    HW225164   3.319   4.489   7.758  0.9915 -0.1103  1.4926
 4511SOL     OW25165   1.029   3.074   5.710  0.2903 -0.6171  0.0412
 4511SOL    HW125166   1.041   2.980   5.702  2.0136 -0.2093 -2.3944
 4511SOL    HW225167   0.947   3.082   5.662 -0.6047 -0.3466  1.6196
 4512SOL     OW25168   1.628   0.441   2.219  0.1032  0.5247  0.6182
 4512SOL    HW125169   1.644   0.487   2.301  2.8782 -0.3033  0.5298
 4512SOL    HW225170   1.661   0.353   2.238  0.1175  0.5018  0.4862
 4513SOL     OW25171   1.854   1.948   0.721  0.2617 -0.1245 -0.5720
 4513SOL    HW125172   1.886   2.019   0.666 -0.0299  0.4767  0.0362
 4513SOL    HW225173   1.765   1.934   0.688 -1.7696  0.4508  4.6562
 4514SOL     OW25174   2.581   3.311   1.107  0.3040  0.1802 -0.3622
 4514SOL    HW125175   2.564   3.247   1.176  3.5591  0.6638  0.8907
 4514SOL    HW225176   2.621   3.263   1.034  2.1624  0.6207  0.3624
 4515SOL     OW25177   4.394   2.338   3.385  0.2553  0.0678  0.5491
 4515SOL    HW125178   4.302   2.361   3.402  0.0652 -0.9175  0.8482
 4515SOL    HW225179   4.423   2.327   3.476 -0.1613 -0.4926  0.6178
 4516SOL     OW25180   3.744   4.276   0.695 -0.0486 -0.0966  0.3857
 4516SOL    HW125181   3.738   4.370   0.680  1.0606  0.0074  0.5860
 4516SOL    HW225182   3.747   4.241   0.606  0.5449  3.3948 -0.9641
 4517SOL     OW25183   4.309   2.730  14.168 -0.0793 -0.3768 -0.2225
 4517SOL    HW125184   4.233   2.776  14.204 -0.5746  0.1745 -1.9863
 4517SOL    HW225185   4.278   2.719  14.078 -0.2586  2.6678 -0.5179
 4518SOL     OW25186   0.631   2.381  15.341 -0.1718 -0.9321 -0.2072
 4518SOL    HW125187   0.714   2.429  15.328 -1.2447  0.7730 -0.7656
 4518SOL    HW225188   0.604   2.372  15.249 -2.4590  0.6538  0.3207
 4519SOL     OW25189   0.428   3.843  10.621 -0.2482 -0.1605  0.6089
 4519SOL    HW125190   0.365   3.914  10.609 -0.7758 -0.8089 -0.4148
 4519SOL    HW225191   0.365   3.774  10.645 -1.9493  1.0039 -0.5242
 4520SOL     OW25192   3.854   2.639   9.501  0.1993  0.0489  0.2116
 4520SOL    HW125193   3.866   2.715   9.557  0.0392 -1.3402  2.1301
 4520SOL    HW225194   3.919   2.652   9.432 -1.7851  1.4870 -1.3957
 4521SOL     OW25195   4.473   1.962  13.943 -0.2070 -0.6366  0.0164
 4521SOL    HW125196   4.492   2.007  14.026 -0.2847 -3.8680  1.7956
 4521SOL    HW225197   4.396   1.907  13.961 -2.1515  2.4322  0.9750
 4522SOL     OW25198   0.713   4.105  13.694  0.1369 -0.4061 -0.1781
 4522SOL    HW125199   0.787   4.165  13.682  1.5727 -1.7852  1.6118
 4522SOL    HW225200   0.707   4.107  13.790 -3.0618 -1.0815 -0.3860
 4523SOL     OW25201   2.093   2.606   4.678 -0.7883 -0.5339 -0.5915
 4523SOL    HW125202   2.048   2.551   4.742 -1.3471 -0.4805 -0.9430
 4523SOL    HW225203   2.133   2.540   4.621 -2.0326 -1.9615  0.1657
 4524SOL     OW25204   0.900   4.048   8.914 -0.2105  0.2321 -0.8532
 4524SOL    HW125205   0.991   4.043   8.885 -0.0335  2.9815 -0.7749
 4524SOL    HW225206   0.866   4.050   8.824  2.9703  2.3602 -1.9962
 4525SOL     OW25207   3.467   4.069  17.683 -0.5379 -0.1488  0.1521
 4525SOL    HW125208   3.444   4.092   0.022  0.9432  0.0537  0.4735
 4525SOL    HW225209   3.453   3.975  17.688 -0.5635 -0.2510 -2.0611
 4526SOL     OW25210   3.437   2.173   0.279 -0.5304  0.0096 -0.1128
 4526SOL    HW125211   3.343   2.163   0.268 -0.0670 -1.7207 -2.4788
 4526SOL    HW225212   3.452   2.254   0.230 -0.4068 -1.1549 -1.9623
 4527SOL     OW25213   1.783   3.282  10.932 -0.4873  0.5114  0.2190
 4527SOL    HW125214   1.791   3.193  10.897  1.0355  1.2196 -1.2051
 4527SOL    HW225215   1.872   3.314  10.950  0.7314 -1.8439 -1.4598
 4528SOL     OW25216   1.578   3.939   2.293  0.3041  0.1333  1.0041
 4528SOL    HW125217   1.490   3.945   2.329 -1.0005  2.0455 -2.4954
 4528SOL    HW225218   1.568   3.889   2.212  1.3473 -1.2713  1.7348
 4529SOL     OW25219   2.125   4.201   4.468 -0.1182 -0.6819 -0.3494
 4529SOL    HW125220   2.203   4.256   4.457 -0.2409 -0.7217 -1.4155
 4529SOL    HW225221   2.166   4.121   4.500 -1.7232 -2.0412 -1.6818
 4530SOL     OW25222   2.929   3.046   7.230 -0.2144 -0.5346  0.0720
 4530SOL    HW125223   2.972   3.094   7.301  1.2562 -0.4469 -0.8716
 4530SOL    HW225224   3.008   3.004   7.196 -1.0389 -0.8094 -1.4675
 4531SOL     OW25225   0.409   1.600   7.803  0.0815  0.1229 -0.1211
 4531SOL    HW125226   0.320   1.590   7.838  1.6826 -0.3453  3.7212
 4531SOL    HW225227   0.447   1.649   7.876 -1.2055 -0.0231  0.6426
 4532SOL     OW25228   1.620   1.940  10.486 -0.1596 -0.0396  0.5615
 4532SOL    HW125229   1.597   1.946  10.393  1.0599 -1.0747  0.1815
 4532SOL    HW225230   1.538   1.975  10.520 -0.3605  0.1735 -0.1320
 4533SOL     OW25231   0.767   0.037   7.502  0.2201 -0.0482  0.1160
 4533SOL    HW125232   0.839   0.075   7.551 -0.2299  0.5586  0.2981
 4533SOL    HW225233   0.691   0.042   7.559  0.1887  0.5419  0.0203
 4534SOL     OW25234   1.345   0.415   6.803 -0.1600  0.1690  0.1862
 4534SOL    HW125235   1.327   0.454   6.889  1.8988  0.7070  0.3710
 4534SOL    HW225236   1.294   0.469   6.742 -1.6720 -0.8470  0.5487
 4535SOL     OW25237   0.666   3.847  11.294 -0.5113 -0.4041  0.1306
 4535SOL    HW125238   0.724   3.778  11.265  0.5325  0.1021  1.0297
 4535SOL    HW225239   0.708   3.918  11.245 -3.0074  0.1964 -1.1648
 4536SOL     OW25240   0.692   0.126   1.750 -0.1485 -0.7710 -0.0356
 4536SOL    HW125241   0.600   0.122   1.726  0.0427  0.0317 -0.8788
 4536SOL    HW225242   0.715   0.212   1.716 -0.5782 -0.2089  1.1245
 4537SOL     OW25243   4.321   2.525   8.167 -0.2302  0.1654  0.0031
 4537SOL    HW125244   4.339   2.447   8.220  3.2271 -0.6546 -2.3993
 4537SOL    HW225245   4.311   2.593   8.235 -1.6329  0.8225 -0.8614
 4538SOL     OW25246   3.687   0.595   6.045  0.0340 -0.6175 -0.3003
 4538SOL    HW125247   3.649   0.634   5.966  2.1187  2.2306  0.1074
 4538SOL    HW225248   3.779   0.599   6.019  0.4594  2.8284  1.6369
 4539SOL     OW25249   4.623   1.230  17.207  0.2544 -0.0562  0.3212
 4539SOL    HW125250   4.716   1.245  17.190  0.2381  0.1824  0.4404
 4539SOL    HW225251   4.607   1.225  17.302 -1.3639 -2.4824 -0.0780
 4540SOL     OW25252   0.372   3.994   4.651 -0.1373 -0.6793  0.1391
 4540SOL    HW125253   0.377   4.044   4.732  0.1009  2.6552 -1.9279
 4540SOL    HW225254   0.336   3.908   4.671 -3.3982  0.8388  0.7738
 4541SOL     OW25255   3.972   3.983   5.024 -0.1930  0.0266 -0.0552
 4541SOL    HW125256   3.884   3.993   4.988 -0.0935  0.2998 -0.2253
 4541SOL    HW225257   4.021   3.991   4.943  1.2392  0.4197  0.8534
 4542SOL     OW25258   3.698   4.318  17.410  0.0888 -0.8012 -0.4284
 4542SOL    HW125259   3.685   4.390  17.350 -1.5920  0.7874  1.8397
 4542SOL    HW225260   3.611   4.307  17.450 -0.2592  1.0722 -0.7126
 4543SOL     OW25261   0.580   2.606   4.888 -0.0021  0.5453 -0.3269
 4543SOL    HW125262   0.497   2.653   4.881  0.5474  1.3907 -1.2578
 4543SOL    HW225263   0.544   2.517   4.894 -0.2778  0.9034  2.9221
 4544SOL     OW25264   2.341   1.156   0.976  0.6437  0.0892 -0.4040
 4544SOL    HW125265   2.382   1.177   0.893  0.2876  1.3813 -0.2473
 4544SOL    HW225266   2.268   1.218   0.986  0.7281 -0.1987  1.9848
 4545SOL     OW25267   1.002   1.759  17.747 -0.4335 -0.2137  0.1196
 4545SOL    HW125268   1.006   1.681   0.052 -0.6512  0.1275  0.6030
 4545SOL    HW225269   1.048   1.826   0.046 -2.3906  1.4708 -0.3756
 4546SOL     OW25270   3.974   1.178   9.311  0.4255  0.3441  0.0342
 4546SOL    HW125271   4.002   1.232   9.237 -2.1416 -0.8507 -1.7943
 4546SOL    HW225272   4.037   1.181   9.383  1.7229 -0.6567 -1.0450
 4547SOL     OW25273   1.212   2.941   6.488  0.3493  0.6541  0.1372
 4547SOL    HW125274   1.292   2.929   6.437 -0.3833 -3.4386 -0.1035
 4547SOL    HW225275   1.221   2.856   6.532 -0.6248  1.2192  1.4244
 4548SOL     OW25276   0.373   4.346   2.718  0.0727  0.0256  0.0646
 4548SOL    HW125277   0.376   4.411   2.648  0.7550  1.5965  1.5590
 4548SOL    HW225278   0.305   4.375   2.779 -0.2337  2.3692 -1.3734
 4549SOL     OW25279   2.324   1.244   7.370  0.6052  0.2561  0.3629
 4549SOL    HW125280   2.339   1.327   7.325  1.0211  1.0436  1.9265
 4549SOL    HW225281   2.326   1.176   7.303  1.7563  0.9388 -0.2955
 4550SOL     OW25282   4.512   4.485  11.726 -0.1982  0.2799  0.4525
 4550SOL    HW125283   4.425   4.500  11.688 -0.2657  2.0472  1.2861
 4550SOL    HW225284   4.500   4.469  11.820 -1.3430 -1.4066  0.0105
 4551SOL     OW25285   4.449   4.674   6.575 -0.1203  0.6096  0.1911
 4551SOL    HW125286   4.424   4.696   6.485 -0.9113 -1.9957 -0.2247
 4551SOL    HW225287   4.541   4.648   6.567  0.1597  1.6323  0.1505
 4552SOL     OW25288   2.775   0.405   7.961  0.1858  0.7146 -0.2313
 4552SOL    HW125289   2.769   0.335   8.026  0.2302  0.8306 -0.1028
 4552SOL    HW225290   2.749   0.348   7.889 -0.2181 -0.6151  0.9578
 4553SOL     OW25291   1.150   1.935  12.935  0.0652 -0.2061  0.5069
 4553SOL    HW125292   1.126   1.906  13.024  1.1941  0.5023  1.0402
 4553SOL    HW225293   1.085   2.001  12.912  0.1118 -0.2603  0.2286
 4554SOL     OW25294   1.548   3.904   3.192 -0.0667 -0.4451  0.0725
 4554SOL    HW125295   1.484   3.971   3.167  0.7313  1.0177  1.9487
 4554SOL    HW225296   1.546   3.845   3.117  1.6856 -0.6365  0.1820
 4555SOL     OW25297   1.754   2.687   8.075 -0.2305  0.0052 -0.2763
 4555SOL    HW125298   1.820   2.686   8.006 -0.7946  0.7178 -0.8264
 4555SOL    HW225299   1.813   2.675   8.149  1.0990 -1.6217 -1.6097
 4556SOL     OW25300   2.807   4.215   9.291 -0.8720 -0.6376  0.3975
 4556SOL    HW125301   2.729   4.239   9.341 -0.0555  0.8643  0.9547
 4556SOL    HW225302   2.872   4.216   9.361 -1.5445  0.6265  1.0018
 4557SOL     OW25303   4.560   4.483   3.337 -0.3006 -0.2901  0.5050
 4557SOL    HW125304   4.538   4.505   3.246 -1.1139 -0.4687  0.6546
 4557SOL    HW225305   4.554   4.560   3.393  0.6492  0.1088  0.0553
 4558SOL     OW25306   0.600   0.479   5.317  0.4079  0.9299  0.4712
 4558SOL    HW125307   0.676   0.433   5.353 -0.8062 -1.5134 -0.0900
 4558SOL    HW225308   0.616   0.558   5.369  0.4518  0.1653  1.6021
 4559SOL     OW25309   0.023   3.091   2.480  0.2581 -0.1926  0.3644
 4559SOL    HW125310   0.083   3.084   2.554 -0.6576 -0.2801  1.0824
 4559SOL    HW225311   4.699   3.024   2.507 -1.7527  1.7393  0.5119
 4560SOL     OW25312   3.807   0.819  14.144  0.0436 -0.1222  0.0702
 4560SOL    HW125313   3.803   0.879  14.069 -1.3320  0.4407  0.5841
 4560SOL    HW225314   3.715   0.829  14.168  0.6654 -0.6192  2.6261
 4561SOL     OW25315   2.961   2.705   9.984 -0.0255 -0.3364 -0.4908
 4561SOL    HW125316   3.056   2.704   9.970 -0.1795  0.7973 -1.6158
 4561SOL    HW225317   2.946   2.610   9.980 -0.1388 -0.3949  1.6901
 4562SOL     OW25318   0.803   0.066   1.442  0.1454 -0.4153 -0.3941
 4562SOL    HW125319   0.817   0.158   1.466 -0.2427  0.0418 -1.9144
 4562SOL    HW225320   0.800   0.075   1.347 -0.4043  2.1585 -0.1440
 4563SOL     OW25321   0.063   1.269   1.470 -0.7025 -0.0473 -0.1829
 4563SOL    HW125322   4.710   1.290   1.487 -0.1258  1.8348  0.6297
 4563SOL    HW225323   0.043   1.193   1.416  2.9994 -0.6370 -0.7205
 4564SOL     OW25324   4.425   2.730  13.352  0.2155 -0.0249 -0.5090
 4564SOL    HW125325   4.483   2.674  13.300  0.5017 -0.8717  0.7020
 4564SOL    HW225326   4.417   2.671  13.427 -0.1708  1.4900  0.6355
 4565SOL     OW25327   0.621   3.064   3.192  0.5219  1.0421  0.7296
 4565SOL    HW125328   0.700   3.010   3.184 -1.2250 -1.3905  0.0694
 4565SOL    HW225329   0.585   3.048   3.280 -0.6887 -2.4280 -0.4124
 4566SOL     OW25330   2.440   1.332   6.412  0.1999 -1.0378 -0.6741
 4566SOL    HW125331   2.437   1.239   6.389 -0.7064 -0.6502 -2.0837
 4566SOL    HW225332   2.363   1.356   6.463  1.1338  2.2130 -0.7469
 4567SOL     OW25333   1.155   4.631  13.087 -0.6330  0.2260  0.1869
 4567SOL    HW125334   1.171   4.717  13.049  0.2085 -0.0154  0.0110
 4567SOL    HW225335   1.153   4.646  13.181 -2.2992 -1.1379  0.3823
 4568SOL     OW25336   0.860   4.210  12.208  0.0106  0.3097  0.1031
 4568SOL    HW125337   0.935   4.157  12.236 -0.5966 -0.1905  0.7748
 4568SOL    HW225338   0.915   4.268  12.155 -0.0140 -0.7556 -1.0927
 4569SOL     OW25339   3.378   3.561   1.074 -0.0840 -0.1798 -0.0360
 4569SOL    HW125340   3.396   3.566   1.168 -0.8700 -1.2213  0.1632
 4569SOL    HW225341   3.282   3.562   1.069 -0.1307  0.9414  0.9546
 4570SOL     OW25342   0.924   4.604  16.171  1.0052 -0.1028 -0.8484
 4570SOL    HW125343   0.912   4.676  16.234  1.4716 -1.2829  0.5888
 4570SOL    HW225344   0.945   4.529  16.227  0.2752  0.8135  0.6542
 4571SOL     OW25345   3.633   4.204   4.713 -0.0396 -0.0272 -0.6031
 4571SOL    HW125346   3.699   4.260   4.674 -1.9797  0.7630 -2.7848
 4571SOL    HW225347   3.575   4.186   4.638  1.7489 -1.6619 -1.6160
 4572SOL     OW25348   1.112   0.472   4.278 -0.2524  0.4398 -0.1354
 4572SOL    HW125349   1.145   0.561   4.270  0.8542  0.2267  1.9544
 4572SOL    HW225350   1.029   0.481   4.232  0.6078 -0.3016 -1.8056
 4573SOL     OW25351   2.506   1.304  17.379  0.1192 -0.1949  0.2681
 4573SOL    HW125352   2.554   1.384  17.356  0.6073 -0.6442 -0.2868
 4573SOL    HW225353   2.519   1.304  17.474  1.7846  2.8997  0.0463
 4574SOL     OW25354   4.701   1.150   6.786  0.3810  0.3963  0.1935
 4574SOL    HW125355   4.642   1.145   6.861 -0.6066  0.8311 -0.5506
 4574SOL    HW225356   4.633   1.165   6.720  1.3827 -1.5227 -1.2585
 4575SOL     OW25357   0.077   3.836   8.969  0.2109 -0.0318 -0.0013
 4575SOL    HW125358   0.012   3.784   9.016  1.7096  0.4715  2.6522
 4575SOL    HW225359   0.017   3.888   8.916 -0.2381 -0.4296  0.1242
 4576SOL     OW25360   2.163   3.204   1.093  0.2373 -0.4091  0.3609
 4576SOL    HW125361   2.219   3.262   1.145  0.7359 -1.1875  0.6829
 4576SOL    HW225362   2.094   3.266   1.069  0.5091 -0.2508 -0.0049
 4577SOL     OW25363   2.395   3.848  15.572  0.0518 -0.3502  0.8163
 4577SOL    HW125364   2.428   3.772  15.620 -1.8193 -2.7625 -1.7579
 4577SOL    HW225365   2.433   3.835  15.486 -0.1318 -0.2018  0.7126
 4578SOL     OW25366   4.658   0.275   7.351 -0.5544 -0.1381 -0.1121
 4578SOL    HW125367   4.629   0.252   7.440 -1.3655  0.5854 -0.1843
 4578SOL    HW225368   4.628   0.199   7.301  0.5630 -0.3285 -0.4809
 4579SOL     OW25369   1.441   1.839   3.429 -0.2899 -0.2883 -0.1510
 4579SOL    HW125370   1.440   1.787   3.509  0.6724  1.4506  0.9950
 4579SOL    HW225371   1.515   1.900   3.434 -1.1103  0.7445 -0.4809
 4580SOL     OW25372   1.168   4.621   8.773  0.2272 -0.2240  0.1593
 4580SOL    HW125373   1.247   4.667   8.801 -0.4830  0.2076  1.4279
 4580SOL    HW225374   1.116   4.699   8.759  0.5476 -0.3201 -1.5377
 4581SOL     OW25375   1.874   1.704  17.355 -0.1811 -0.0181 -0.2642
 4581SOL    HW125376   1.903   1.775  17.412 -0.3454 -0.1153 -0.0610
 4581SOL    HW225377   1.794   1.677  17.401  0.2625  0.3804  0.7364
 4582SOL     OW25378   3.062   0.882   4.197 -0.2002  0.0031 -0.2529
 4582SOL    HW125379   2.990   0.825   4.172  1.7683 -2.4442 -0.3042
 4582SOL    HW225380   3.130   0.821   4.224 -0.1290 -0.0792 -0.6323
 4583SOL     OW25381   2.625   4.425  17.393  0.1507 -0.0211  0.4358
 4583SOL    HW125382   2.565   4.363  17.350  3.1211 -2.4758 -0.1502
 4583SOL    HW225383   2.564   4.499  17.394 -0.2208 -0.3251  0.7774
 4584SOL     OW25384   2.392   3.301  10.099  0.5586 -0.1292  0.0470
 4584SOL    HW125385   2.334   3.288  10.023  0.0319  0.0340  0.4242
 4584SOL    HW225386   2.386   3.396  10.093 -0.1834 -0.2338 -0.8994
 4585SOL     OW25387   2.041   0.525   8.596  0.4366  0.0550 -0.4321
 4585SOL    HW125388   2.066   0.437   8.568  1.8311  1.1061 -2.4927
 4585SOL    HW225389   2.115   0.530   8.656 -1.8857 -0.3662  2.4879
 4586SOL     OW25390   3.541   4.024   8.767  0.5567  0.0637  0.0878
 4586SOL    HW125391   3.494   3.942   8.751  1.8665 -0.6479 -0.1690
 4586SOL    HW225392   3.631   3.991   8.756  1.1807  0.6641  3.5229
 4587SOL     OW25393   0.583   3.614  15.384 -1.0512  0.3607  0.0197
 4587SOL    HW125394   0.490   3.617  15.361 -0.5379 -1.0557 -2.2872
 4587SOL    HW225395   0.618   3.594  15.297 -0.7645 -0.9688  0.4358
 4588SOL     OW25396   4.448   1.601   2.419 -0.0110 -0.7693  0.3196
 4588SOL    HW125397   4.381   1.659   2.456 -0.8463 -1.6400  0.1799
 4588SOL    HW225398   4.404   1.517   2.429 -0.3913 -0.7406 -1.0834
 4589SOL     OW25399   1.602   0.463   4.217  0.2575 -0.1449  0.1508
 4589SOL    HW125400   1.644   0.389   4.262 -0.0128  0.2128  0.9979
 4589SOL    HW225401   1.571   0.419   4.138 -1.7388 -1.0061  1.4079
 4590SOL     OW25402   4.636   4.495   4.886 -0.3480  0.1037  0.5643
 4590SOL    HW125403   4.657   4.485   4.793  0.7301  3.1744  0.4758
 4590SOL    HW225404   4.728   4.505   4.913 -0.3380 -0.3378  0.6818
 4591SOL     OW25405   2.698   0.481  11.291 -0.2448  0.2968  0.1797
 4591SOL    HW125406   2.779   0.531  11.303 -0.4708  1.0370 -1.3830
 4591SOL    HW225407   2.730   0.392  11.304  0.5643  0.4855 -0.5288
 4592SOL     OW25408   2.971   2.891  17.424 -0.6544 -0.3772 -0.0975
 4592SOL    HW125409   2.967   2.957  17.493 -0.5443 -0.4686 -0.0040
 4592SOL    HW225410   3.016   2.937  17.353 -1.4843  0.0158 -0.3721
 4593SOL     OW25411   2.301   1.492   4.783  0.3008 -0.4789  0.6960
 4593SOL    HW125412   2.381   1.444   4.806  0.7854  0.5068  1.0810
 4593SOL    HW225413   2.296   1.455   4.695  0.1288  2.4481 -0.5308
 4594SOL     OW25414   2.620   4.170   2.178 -0.4977 -0.1578 -0.1491
 4594SOL    HW125415   2.629   4.244   2.239  0.6674 -0.8139  0.4736
 4594SOL    HW225416   2.554   4.114   2.218  0.9655 -0.0469  2.4607
 4595SOL     OW25417   3.693   0.808  10.243  0.2064  0.0605  0.0937
 4595SOL    HW125418   3.670   0.840  10.331  0.6025  0.1711  0.1554
 4595SOL    HW225419   3.690   0.887  10.189 -1.0790  0.9970  1.5041
 4596SOL     OW25420   3.085   0.754   5.598 -0.0161 -0.0264 -0.1574
 4596SOL    HW125421   3.043   0.831   5.634  0.2887 -0.0381  0.2233
 4596SOL    HW225422   3.140   0.791   5.529 -0.1117  0.5304  0.0677
 4597SOL     OW25423   0.224   2.086   6.273  0.0581  0.3391 -0.2041
 4597SOL    HW125424   0.178   2.052   6.196 -0.8879 -0.1621  0.5911
 4597SOL    HW225425   0.166   2.158   6.296 -0.2246 -0.2516  0.9265
 4598SOL     OW25426   0.776   0.818   6.833 -0.0364 -0.0774 -0.0342
 4598SOL    HW125427   0.742   0.804   6.922 -0.3707 -1.2503 -0.3350
 4598SOL    HW225428   0.695   0.832   6.783  0.1602 -0.6152 -0.5087
 4599SOL     OW25429   1.913   1.252   6.339  0.0181  0.4892 -0.5687
 4599SOL    HW125430   1.871   1.173   6.304 -0.2209 -0.2265  1.3869
 4599SOL    HW225431   1.992   1.255   6.285  0.4287  0.6144  0.0503
 4600SOL     OW25432   3.597   4.579  17.540 -0.1834 -0.1748 -0.2730
 4600SOL    HW125433   3.685   4.546  17.555 -0.3601 -0.4439  0.2090
 4600SOL    HW225434   3.578   4.601  17.632  3.3393  1.7726 -0.0149
 4601SOL     OW25435   4.224   3.421  11.496 -0.6072  0.1560 -0.0592
 4601SOL    HW125436   4.292   3.354  11.503 -0.3682  0.0212 -4.1717
 4601SOL    HW225437   4.218   3.446  11.589 -0.7961 -2.0313  0.5293
 4602SOL     OW25438   3.128   2.383   7.668  0.3070  0.4522 -0.1990
 4602SOL    HW125439   3.118   2.356   7.576  0.9402  0.2597 -0.2096
 4602SOL    HW225440   3.173   2.464   7.646  1.5713 -0.9909 -2.9378
 4603SOL     OW25441   0.866   0.834   7.235 -0.3643  0.1521 -0.3772
 4603SOL    HW125442   0.868   0.740   7.256  0.4401  0.4547  0.9020
 4603SOL    HW225443   0.779   0.825   7.195 -0.1013  0.5516 -1.0332
 4604SOL     OW25444   1.413   4.190   9.449  0.1342  0.8417 -0.9507
 4604SOL    HW125445   1.492   4.244   9.448  0.1229  0.8569 -1.0150
 4604SOL    HW225446   1.379   4.207   9.361 -2.4461 -0.9925 -0.2918
 4605SOL     OW25447   1.764   4.708  16.870  0.1683  0.9774 -0.1305
 4605SOL    HW125448   1.697   4.685  16.805  0.0213 -0.6435  0.5924
 4605SOL    HW225449   1.817   0.028  16.817 -0.8977  0.3639 -1.8543
 4606SOL     OW25450   2.030   3.616   3.566  0.4775  0.1097  0.1829
 4606SOL    HW125451   2.044   3.647   3.477 -3.1318  1.9027  0.2571
 4606SOL    HW225452   1.946   3.659   3.580  0.4058 -0.3651  1.2228
 4607SOL     OW25453   0.280   3.902   5.296 -0.0514  0.3032  0.2666
 4607SOL    HW125454   0.253   3.878   5.384 -0.6860  1.3340  0.3499
 4607SOL    HW225455   0.283   3.818   5.251 -1.7917 -0.9627  2.5644
 4608SOL     OW25456   3.800   1.833   0.871  0.0509  0.3050  0.0396
 4608SOL    HW125457   3.735   1.893   0.910 -1.0062 -1.0683  0.4055
 4608SOL    HW225458   3.770   1.818   0.782 -0.3183  1.2534 -0.0034
 4609SOL     OW25459   1.475   4.676   6.989  0.4450 -0.2408  0.7630
 4609SOL    HW125460   1.546   4.717   7.039 -0.5254  2.4502 -0.0640
 4609SOL    HW225461   1.420   0.011   6.959 -1.2764 -1.3574  1.1885
 4610SOL     OW25462   2.036   1.902   4.419  0.2303 -0.0909  0.0447
 4610SOL    HW125463   2.077   1.868   4.498 -0.9052 -0.1810  0.5992
 4610SOL    HW225464   1.945   1.904   4.450  0.0055 -1.0567 -0.5472
 4611SOL     OW25465   0.347   2.612  12.152 -0.1847  0.7863  0.4094
 4611SOL    HW125466   0.262   2.578  12.127  0.5705 -0.2448 -0.7424
 4611SOL    HW225467   0.401   2.579  12.081 -4.1368 -1.1150 -1.6661
 4612SOL     OW25468   4.371   0.407  10.356  1.2602 -0.2695  0.2838
 4612SOL    HW125469   4.286   0.372  10.385  1.8329 -0.8940  1.2040
 4612SOL    HW225470   4.415   0.325  10.337  1.0751 -0.4717  0.7138
 4613SOL     OW25471   3.833   2.988   2.955 -0.2126 -0.2109  0.0182
 4613SOL    HW125472   3.797   2.911   2.998  2.8530 -0.9299  1.2943
 4613SOL    HW225473   3.919   2.949   2.941  0.4419  1.1237  0.2889
 4614SOL     OW25474   0.752   1.119  12.863 -0.5516  0.2674 -0.2093
 4614SOL    HW125475   0.847   1.109  12.852 -0.7501  0.2670 -1.9640
 4614SOL    HW225476   0.732   1.032  12.898  1.8403  0.0108  0.5011
 4615SOL     OW25477   2.314   1.825  16.134  0.0947  0.0351  0.1471
 4615SOL    HW125478   2.373   1.766  16.086 -2.2269 -0.2019 -2.3930
 4615SOL    HW225479   2.298   1.892  16.069 -0.8538  0.3938  0.7530
 4616SOL     OW25480   0.477   0.771  15.417  0.4820  0.6146  0.0506
 4616SOL    HW125481   0.485   0.785  15.512  0.0102 -0.5590  0.2698
 4616SOL    HW225482   0.431   0.687  15.409 -0.4108  1.2125 -1.0871
 4617SOL     OW25483   1.110   4.343  12.811 -0.1046 -0.2255  0.2924
 4617SOL    HW125484   1.047   4.358  12.881 -1.3350 -0.0021 -0.8703
 4617SOL    HW225485   1.063   4.364  12.730 -0.3792 -2.4428 -0.1099
 4618SOL     OW25486   4.699   2.971   2.107  1.1307 -0.4863 -0.5170
 4618SOL    HW125487   4.637   2.984   2.178  0.3704  0.8197 -1.4116
 4618SOL    HW225488   4.633   2.993   2.042  0.2700  0.2908  0.6314
 4619SOL     OW25489   1.039   0.781   3.942  0.7625 -0.7993  0.2184
 4619SOL    HW125490   0.989   0.763   4.022  0.8022 -0.1643  0.3817
 4619SOL    HW225491   1.017   0.868   3.909  0.5556 -0.7797  0.4108
 4620SOL     OW25492   2.507   2.892   3.110 -0.0707  0.7616  0.0534
 4620SOL    HW125493   2.572   2.843   3.060 -0.2649  1.0387 -0.4726
 4620SOL    HW225494   2.543   2.979   3.127 -0.5037  0.4918  2.3897
 4621SOL     OW25495   4.283   4.213   0.986 -0.0836 -0.4738 -0.1157
 4621SOL    HW125496   4.260   4.296   1.027  1.5651  0.6938 -1.5204
 4621SOL    HW225497   4.202   4.203   0.936  0.8645  1.2935 -2.0299
 4622SOL     OW25498   1.557   3.926   7.763 -0.1669 -0.3148 -0.1782
 4622SOL    HW125499   1.608   3.966   7.693  1.6494  0.8005  1.7992
 4622SOL    HW225500   1.560   3.836   7.730 -2.3576 -0.4851  0.0511
 4623SOL     OW25501   0.078   2.675  11.355 -0.4341 -0.3758  0.6403
 4623SOL    HW125502   0.107   2.618  11.284 -0.3518 -0.2018  0.5337
 4623SOL    HW225503   0.072   2.759  11.311  1.5262 -1.8274 -2.3707
 4624SOL     OW25504   2.798   0.030  15.150 -0.1881 -0.2705 -0.4012
 4624SOL    HW125505   2.799   4.738  15.059  1.4309  0.5202 -0.6579
 4624SOL    HW225506   2.883   4.732  15.177 -0.6104 -1.2948 -0.4537
 4625SOL     OW25507   1.855   2.864   4.350 -0.0480 -0.0034  0.5751
 4625SOL    HW125508   1.928   2.855   4.411  0.4268  1.4859  0.2097
 4625SOL    HW225509   1.777   2.856   4.406  0.4213  1.1802  1.4000
 4626SOL     OW25510   2.763   4.449   3.284 -0.7307 -0.0022 -0.1244
 4626SOL    HW125511   2.791   4.523   3.337 -0.8998  0.7919 -1.1619
 4626SOL    HW225512   2.669   4.440   3.303 -0.4044  2.7759  2.8217
 4627SOL     OW25513   2.432   0.109  14.438  0.1297 -0.3019 -0.6155
 4627SOL    HW125514   2.369   0.078  14.503  2.8004  0.1697  2.1908
 4627SOL    HW225515   2.507   0.051  14.455  0.6337  0.8020  0.9117
 4628SOL     OW25516   3.708   2.898  12.438 -0.3776  0.3104 -0.1020
 4628SOL    HW125517   3.723   2.965  12.505  0.0850 -1.5430  1.6799
 4628SOL    HW225518   3.644   2.851  12.491 -0.8342  0.7850 -0.2390
 4629SOL     OW25519   4.457   2.862  11.378 -0.4783 -0.3512  0.1635
 4629SOL    HW125520   4.533   2.855  11.319 -1.3243  0.5757 -1.0422
 4629SOL    HW225521   4.436   2.772  11.402  1.2208 -1.1147 -1.2209
 4630SOL     OW25522   2.414   1.657  13.108 -0.3667 -0.6114  0.5160
 4630SOL    HW125523   2.466   1.595  13.158  2.4348  1.1376 -0.2309
 4630SOL    HW225524   2.336   1.667  13.162  0.5761 -2.0566  2.1310
 4631SOL     OW25525   0.141   1.740   6.375  0.1078 -0.0554 -0.2916
 4631SOL    HW125526   0.054   1.780   6.375 -1.4491 -3.4716  1.1593
 4631SOL    HW225527   0.153   1.722   6.468  0.6092  3.1347  0.2639
 4632SOL     OW25528   2.378   0.722  13.168  0.2810 -0.3331  0.2999
 4632SOL    HW125529   2.464   0.726  13.209  0.1785  2.5977  0.2626
 4632SOL    HW225530   2.370   0.628  13.157 -2.0661 -0.1845  0.7380
 4633SOL     OW25531   1.819   2.858   4.778  0.3573  0.2090  0.0867
 4633SOL    HW125532   1.845   2.772   4.813  0.7504 -0.1645 -1.1346
 4633SOL    HW225533   1.896   2.911   4.797  0.6628  1.1597 -3.9304
 4634SOL     OW25534   4.112   4.457   4.361 -0.1702  0.0230 -0.0261
 4634SOL    HW125535   4.199   4.477   4.326  0.2296  1.3552  1.7466
 4634SOL    HW225536   4.085   4.530   4.416 -1.6661 -1.8856  1.8066
 4635SOL     OW25537   4.106   0.226   7.554 -0.9967 -0.4648 -0.1074
 4635SOL    HW125538   4.026   0.279   7.559 -1.5387 -1.1758 -1.1117
 4635SOL    HW225539   4.070   0.144   7.520 -1.7159  0.6122 -1.9839
 4636SOL     OW25540   0.681   3.285   3.390  0.0069  0.3189 -0.7480
 4636SOL    HW125541   0.764   3.241   3.372  1.2221  0.8138  3.7712
 4636SOL    HW225542   0.711   3.359   3.442 -0.1940 -0.3536  0.3285
 4637SOL     OW25543   2.921   1.560   2.033 -0.1569  0.4740 -0.1440
 4637SOL    HW125544   2.878   1.599   1.957 -0.3521  0.8815  0.1803
 4637SOL    HW225545   2.902   1.621   2.104  0.4087 -0.7963  1.0875
 4638SOL     OW25546   2.024   4.082   4.845 -0.4605 -0.5261 -0.3844
 4638SOL    HW125547   2.006   4.019   4.915  1.7212 -2.0518 -1.1950
 4638SOL    HW225548   2.082   4.036   4.784  0.6602  0.0868  0.2276
 4639SOL     OW25549   0.099   1.088  10.024 -0.0442 -0.0482 -0.5648
 4639SOL    HW125550   0.159   1.064   9.954  0.2432  0.8379 -0.6154
 4639SOL    HW225551   0.153   1.145  10.078  2.0867 -0.9866 -1.7185
 4640SOL     OW25552   0.370   4.647  11.426  0.0730  0.4539 -0.3099
 4640SOL    HW125553   0.458   4.624  11.396  0.2324  0.5815  0.0647
 4640SOL    HW225554   0.331   4.698  11.355 -0.1258  1.2179  0.3415
 4641SOL     OW25555   3.947   0.573  10.301  0.2487  0.2518  0.0681
 4641SOL    HW125556   3.956   0.646  10.363 -0.1625 -0.7725  1.3282
 4641SOL    HW225557   3.896   0.606  10.227  1.2690  0.4314 -0.5644
 4642SOL     OW25558   2.561   2.157   7.003  0.1646  0.0056 -0.4748
 4642SOL    HW125559   2.584   2.163   7.095 -2.9626  0.9760  0.2478
 4642SOL    HW225560   2.468   2.140   7.018  0.3937 -1.9388 -1.2746
 4643SOL     OW25561   1.665   4.705   2.316 -0.1047 -0.2097  0.2234
 4643SOL    HW125562   1.629   4.698   2.404 -0.6002  1.5185  0.1548
 4643SOL    HW225563   1.683   0.061   2.311 -2.5014  0.2386  0.0964
 4644SOL     OW25564   4.222   3.674  14.278  0.3624  0.2903 -0.8052
 4644SOL    HW125565   4.168   3.595  14.272  1.4134 -0.6685  2.5681
 4644SOL    HW225566   4.302   3.652  14.230  0.4365  1.2248 -1.1114
 4645SOL     OW25567   2.746   3.644   4.072  0.1746 -0.0300  0.2122
 4645SOL    HW125568   2.653   3.643   4.049  0.1515  2.5388  0.1269
 4645SOL    HW225569   2.763   3.552   4.054 -0.0162 -0.2717  1.2730
 4646SOL     OW25570   1.993   2.179   3.264 -0.0172  0.0870  0.4824
 4646SOL    HW125571   1.980   2.270   3.237 -1.2706 -0.0782  0.5544
 4646SOL    HW225572   1.958   2.181   3.353 -1.7851  0.2866 -0.2246
 4647SOL     OW25573   0.674   1.266   8.676 -0.8319  0.5838 -0.4843
 4647SOL    HW125574   0.648   1.358   8.684  0.7820  0.6912  3.9522
 4647SOL    HW225575   0.697   1.263   8.584  0.7392 -0.9020 -0.0536
 4648SOL     OW25576   4.520   0.207   5.861  0.1453 -0.3801  0.1980
 4648SOL    HW125577   4.470   0.146   5.807 -1.2835  1.0463 -0.0894
 4648SOL    HW225578   4.457   0.243   5.922  0.1433 -0.5475  0.2965
 4649SOL     OW25579   1.876   3.027   8.790  0.2308 -0.1662 -0.0189
 4649SOL    HW125580   1.791   3.032   8.746 -0.3516 -3.3477  0.7067
 4649SOL    HW225581   1.866   3.101   8.849  2.4580  1.2293 -1.4107
 4650SOL     OW25582   3.796   0.488  13.244  0.0319  0.5815  0.1108
 4650SOL    HW125583   3.873   0.449  13.203  0.6006  0.4698  1.2733
 4650SOL    HW225584   3.742   0.493  13.166 -2.0859 -0.2391  1.5142
 4651SOL     OW25585   3.737   1.921   3.664  0.1113 -0.0816  0.2451
 4651SOL    HW125586   3.767   2.000   3.619  2.3597 -3.0740 -3.4358
 4651SOL    HW225587   3.698   1.953   3.745  0.0638  0.0453  0.1721
 4652SOL     OW25588   1.155   0.807   1.837  0.3132 -0.3682 -0.2005
 4652SOL    HW125589   1.235   0.764   1.867  1.6477  0.4071 -2.6344
 4652SOL    HW225590   1.102   0.791   1.915 -1.1901 -0.6601 -1.2856
 4653SOL     OW25591   4.253   3.600   3.781 -0.1651  0.1784 -0.6585
 4653SOL    HW125592   4.242   3.505   3.782 -1.8092  0.3752  0.1233
 4653SOL    HW225593   4.182   3.638   3.833 -0.2645  0.2836 -0.8702
 4654SOL     OW25594   4.531   4.668   6.135 -0.6592 -0.0433 -0.7028
 4654SOL    HW125595   4.490   4.596   6.087 -0.6213 -0.6987  0.2441
 4654SOL    HW225596   4.605   4.669   6.074  0.0771 -2.0896  0.1470
 4655SOL     OW25597   1.418   1.439   2.686 -0.0375 -0.6569  0.6254
 4655SOL    HW125598   1.494   1.389   2.658 -0.7638 -1.8160  0.7295
 4655SOL    HW225599   1.459   1.503   2.744 -0.7337 -0.3269  0.7567
 4656SOL     OW25600   4.456   2.127   1.382  0.0644  0.2440 -0.4435
 4656SOL    HW125601   4.433   2.220   1.384 -0.0317  0.1691  2.0755
 4656SOL    HW225602   4.551   2.132   1.376  0.2680 -0.4997  2.4938
 4657SOL     OW25603   4.198   3.693   5.468 -0.3666 -0.0731  0.6211
 4657SOL    HW125604   4.225   3.746   5.393  0.6401 -0.0794  0.9895
 4657SOL    HW225605   4.155   3.624   5.417  1.0783  0.9502 -1.9569
 4658SOL     OW25606   3.845   4.609   3.085 -0.1331  0.1445  0.0716
 4658SOL    HW125607   3.933   4.599   3.119 -0.9364  0.4019  2.2696
 4658SOL    HW225608   3.869   4.608   2.993 -0.9085 -0.5314 -0.1197
 4659SOL     OW25609   3.064   0.521  16.141 -0.3435  0.4829 -0.3423
 4659SOL    HW125610   3.157   0.545  16.141 -1.1055  3.4559 -1.2125
 4659SOL    HW225611   3.067   0.437  16.187 -1.5961  0.0805 -0.9925
 4660SOL     OW25612   0.753   0.135   3.005 -0.4685  0.5484 -0.2701
 4660SOL    HW125613   0.794   0.209   3.049  0.3804 -0.4647  0.6521
 4660SOL    HW225614   0.823   0.079   2.970 -0.0227  0.3358  0.9571
 4661SOL     OW25615   4.174   2.516   7.712  0.0854  0.3368  0.3792
 4661SOL    HW125616   4.109   2.462   7.669  0.2887  1.4125 -1.2836
 4661SOL    HW225617   4.112   2.581   7.745 -1.0014 -0.0476 -0.9284
 4662SOL     OW25618   0.911   0.704   8.999 -0.3182  0.3331 -0.1079
 4662SOL    HW125619   0.866   0.704   9.083 -1.6693  0.4635 -0.8289
 4662SOL    HW225620   0.991   0.745   9.032 -1.6164  1.9986  0.9511
 4663SOL     OW25621   3.780   2.673   4.812 -0.1545  0.1710 -0.1187
 4663SOL    HW125622   3.737   2.588   4.804  0.8533 -0.3511  0.0520
 4663SOL    HW225623   3.870   2.645   4.798  0.1193  1.3437 -0.7239
 4664SOL     OW25624   3.312   0.970   4.394 -0.1043  0.5509  0.4037
 4664SOL    HW125625   3.257   1.037   4.353 -2.1459 -0.4808  1.4553
 4664SOL    HW225626   3.265   0.973   4.477  1.5990  0.6341  1.3615
 4665SOL     OW25627   2.136   1.786  11.624  0.0089 -0.0704 -0.0820
 4665SOL    HW125628   2.125   1.707  11.571  1.3753  0.3096 -0.9672
 4665SOL    HW225629   2.065   1.787  11.687  0.6987 -1.7109  0.7024
 4666SOL     OW25630   3.214   3.483   6.980 -0.0244 -0.2861 -0.1315
 4666SOL    HW125631   3.134   3.443   7.015  0.2352  0.5707  1.4441
 4666SOL    HW225632   3.211   3.476   6.885 -2.9054  2.5012 -0.2432
 4667SOL     OW25633   0.306   0.891   8.682  0.3875 -0.1483 -0.7936
 4667SOL    HW125634   0.349   0.806   8.679 -1.7815 -1.2118 -1.0229
 4667SOL    HW225635   0.373   0.937   8.734  0.6536 -0.7060 -0.6413
 4668SOL     OW25636   1.464   1.874   6.272 -0.1054  0.0971 -0.1940
 4668SOL    HW125637   1.400   1.918   6.217  0.6933 -0.6095 -1.6950
 4668SOL    HW225638   1.483   1.791   6.227 -0.8884 -0.5741  0.7046
 4669SOL     OW25639   3.195   3.090   3.093  0.6343 -0.0162  0.3069
 4669SOL    HW125640   3.214   3.099   2.999 -0.8876 -1.1089 -0.1249
 4669SOL    HW225641   3.260   3.031   3.131 -0.1653 -1.7688 -1.0288
 4670SOL     OW25642   3.995   0.452   8.430  0.5060  0.4024 -0.3527
 4670SOL    HW125643   4.058   0.455   8.502  1.4299 -0.3559 -1.1308
 4670SOL    HW225644   3.921   0.506   8.455  0.4304 -0.0476  0.3933
 4671SOL     OW25645   0.612   1.542   8.648  0.8033  0.4101  0.0834
 4671SOL    HW125646   0.557   1.608   8.607 -2.4657 -1.3513  1.5858
 4671SOL    HW225647   0.644   1.592   8.723  3.1990 -0.0553 -0.6428
 4672SOL     OW25648   4.607   4.624  12.619 -0.5922 -0.3064  0.4856
 4672SOL    HW125649   4.650   4.541  12.634 -0.1306  0.4833  3.5843
 4672SOL    HW225650   4.632   4.635  12.527  1.4289 -2.9674  0.7432
 4673SOL     OW25651   1.273   3.012  13.754  0.5005 -0.0153 -0.3094
 4673SOL    HW125652   1.306   3.000  13.665 -1.1911 -0.3052 -0.8897
 4673SOL    HW225653   1.348   3.027  13.811  0.0776  0.2535  0.1739
 4674SOL     OW25654   3.686   0.869   7.079 -0.2398 -0.2872  0.2498
 4674SOL    HW125655   3.597   0.863   7.043  0.4098 -1.1140 -1.2058
 4674SOL    HW225656   3.743   0.842   7.007 -0.8020  1.4575 -0.8465
 4675SOL     OW25657   2.845   1.451   8.955 -0.0164 -0.2735 -0.1357
 4675SOL    HW125658   2.780   1.399   8.907  0.5972 -3.3582  2.3999
 4675SOL    HW225659   2.928   1.409   8.928  0.5319  0.5710  0.2590
 4676SOL     OW25660   0.790   2.987   3.966  0.5689  0.0275 -0.0915
 4676SOL    HW125661   0.753   2.930   3.898 -0.1218  0.3958 -0.0254
 4676SOL    HW225662   0.757   2.945   4.046  0.2912  1.7692  0.7150
 4677SOL     OW25663   1.352   3.422  13.755 -0.5818 -0.4172  0.0255
 4677SOL    HW125664   1.377   3.345  13.703 -3.4045  0.4054 -2.5507
 4677SOL    HW225665   1.436   3.464  13.771 -0.7721 -0.0420  0.0393
 4678SOL     OW25666   1.592   2.611   9.131  0.2695  0.1321 -0.8149
 4678SOL    HW125667   1.551   2.680   9.078 -0.7860 -0.7012 -1.0786
 4678SOL    HW225668   1.516   2.560   9.157  0.8207 -0.9474 -1.3124
 4679SOL     OW25669   4.350   0.437   0.255 -0.0995  0.0162  0.0604
 4679SOL    HW125670   4.292   0.382   0.307  2.4622  0.0937  3.0105
 4679SOL    HW225671   4.415   0.372   0.230 -0.2120 -0.6573  1.5502
 4680SOL     OW25672   1.034   3.033   7.339 -0.1603 -0.1863  0.1599
 4680SOL    HW125673   0.974   2.959   7.341 -1.0882  0.5872  1.8967
 4680SOL    HW225674   0.978   3.110   7.350  1.5438  1.2920 -1.6688
 4681SOL     OW25675   1.499   1.510   7.644  0.6255  0.3598 -0.3065
 4681SOL    HW125676   1.456   1.587   7.681 -0.9313  0.2024 -1.7640
 4681SOL    HW225677   1.461   1.507   7.556  1.6395  1.1107 -0.7617
 4682SOL     OW25678   1.575   1.364   4.067 -0.2138  0.2916 -0.2584
 4682SOL    HW125679   1.511   1.398   4.005 -0.7286  2.1707  1.2774
 4682SOL    HW225680   1.528   1.286   4.096  0.3665  0.5366  1.3531
 4683SOL     OW25681   0.683   4.120   3.200 -0.6548  0.7279 -0.1598
 4683SOL    HW125682   0.636   4.084   3.274 -0.1445 -2.8561 -1.6060
 4683SOL    HW225683   0.630   4.092   3.125  1.9928 -1.6795 -1.1228
 4684SOL     OW25684   0.560   0.925  12.671 -0.2620 -0.4146 -0.3101
 4684SOL    HW125685   0.609   0.986  12.617  2.1407 -1.8861  0.1987
 4684SOL    HW225686   0.613   0.937  12.750  1.1875 -0.3038 -1.2941
 4685SOL     OW25687   1.041   3.388   5.871 -0.2221  0.3499 -0.6441
 4685SOL    HW125688   0.996   3.334   5.807 -0.9449 -0.8201  0.8723
 4685SOL    HW225689   1.005   3.368   5.957  0.1905 -0.2232 -0.6063
 4686SOL     OW25690   3.326   4.004   1.782 -0.2415 -0.3256 -0.1913
 4686SOL    HW125691   3.255   4.023   1.720 -2.2571  0.4630  2.3584
 4686SOL    HW225692   3.332   3.908   1.776  1.7877 -0.2363  0.5278
 4687SOL     OW25693   3.364   1.182   3.814 -0.1175  0.0084  0.3836
 4687SOL    HW125694   3.447   1.147   3.782 -0.7204 -1.3599  0.2967
 4687SOL    HW225695   3.348   1.239   3.739 -0.2169  1.0479  1.2029
 4688SOL     OW25696   4.113   4.564   4.774  0.5348 -0.9580  0.1607
 4688SOL    HW125697   4.109   4.477   4.735 -1.3875 -0.3022 -1.1173
 4688SOL    HW225698   4.100   4.614   4.694  0.4346 -0.7586  0.3014
 4689SOL     OW25699   3.500   1.580   7.688 -0.4446  0.2068  0.6896
 4689SOL    HW125700   3.444   1.509   7.655  0.5852  0.7050 -2.0588
 4689SOL    HW225701   3.570   1.530   7.730 -1.0757  0.0525  1.5746
 4690SOL     OW25702   2.489   0.859  12.918 -0.3213  0.2626 -0.5696
 4690SOL    HW125703   2.411   0.911  12.901  0.3975  1.4499 -0.1881
 4690SOL    HW225704   2.465   0.808  12.996  3.6891 -0.9028 -0.0904
 4691SOL     OW25705   0.448   1.411   1.676  0.7002  0.0276  0.0141
 4691SOL    HW125706   0.386   1.439   1.743  0.2203 -0.3335 -0.2809
 4691SOL    HW225707   0.383   1.363   1.625  0.6719  0.4002 -0.3007
 4692SOL     OW25708   3.507   1.832   1.145  0.1373  0.4925  0.4243
 4692SOL    HW125709   3.448   1.854   1.217  0.4012  1.3867  0.3741
 4692SOL    HW225710   3.554   1.914   1.126 -2.3017  2.0155  0.9791
 4693SOL     OW25711   3.294   0.767   4.815 -0.4183 -0.4868  0.2338
 4693SOL    HW125712   3.382   0.732   4.829  0.5667  2.1948  0.7253
 4693SOL    HW225713   3.301   0.845   4.869  0.7931  0.6161 -1.4940
 4694SOL     OW25714   0.222   3.340   7.279 -0.1969  0.1832  0.1499
 4694SOL    HW125715   0.306   3.342   7.325 -0.0868  1.5808 -0.1245
 4694SOL    HW225716   0.174   3.396   7.340  1.2966  1.8244 -0.1846
 4695SOL     OW25717   0.061   4.326  11.731 -0.2716  1.0533  0.3924
 4695SOL    HW125718   0.017   4.321  11.647  0.4671  0.2369  0.0578
 4695SOL    HW225719   0.133   4.389  11.720  0.8702 -0.3967 -0.3160
 4696SOL     OW25720   4.530   0.371   7.972  0.6229  0.3910 -0.4400
 4696SOL    HW125721   4.491   0.295   7.928 -0.0401  0.8049 -0.5786
 4696SOL    HW225722   4.487   0.442   7.924  0.6578  0.9727  0.3815
 4697SOL     OW25723   3.345   2.741  11.977  0.1840  0.1547  0.0004
 4697SOL    HW125724   3.283   2.751  12.050 -0.8355 -3.0577 -0.4196
 4697SOL    HW225725   3.376   2.651  11.976  0.6106  0.2708  2.5313
 4698SOL     OW25726   3.237   3.117   7.657  0.1024  0.2177  0.3884
 4698SOL    HW125727   3.286   3.191   7.692 -2.4329  2.1933 -0.2182
 4698SOL    HW225728   3.301   3.068   7.605  0.7536  0.9496  0.5192
 4699SOL     OW25729   2.536   3.556   9.048  0.2262 -0.3584 -0.0281
 4699SOL    HW125730   2.442   3.561   9.067  0.3877 -0.5164  0.8153
 4699SOL    HW225731   2.545   3.548   8.953 -2.3452  2.1703 -0.5200
 4700SOL     OW25732   2.645   2.378  14.922 -0.1739  0.1213  0.2727
 4700SOL    HW125733   2.687   2.458  14.888 -0.7382  0.4522  0.3437
 4700SOL    HW225734   2.593   2.411  14.995  0.5080  0.9017  0.4092
 4701SOL     OW25735   1.467   3.628   3.680  0.1290  0.0133  0.4369
 4701SOL    HW125736   1.473   3.535   3.660 -1.7362 -0.2721  1.1914
 4701SOL    HW225737   1.463   3.664   3.592 -1.5616  0.5951  0.7400
 4702SOL     OW25738   0.889   0.151  13.761 -0.1708  0.1074  0.0166
 4702SOL    HW125739   0.980   0.162  13.735 -0.5140  1.3089 -0.6659
 4702SOL    HW225740   0.843   0.221  13.714 -2.0087 -1.2903 -0.2339
 4703SOL     OW25741   3.749   0.307  15.649 -0.6747  0.5304 -0.1013
 4703SOL    HW125742   3.740   0.343  15.737  1.0077 -0.4072  0.4467
 4703SOL    HW225743   3.674   0.247  15.651  0.6277 -1.0414  0.7728
 4704SOL     OW25744   3.214   3.630   7.253  0.5221 -0.3915 -0.7436
 4704SOL    HW125745   3.219   3.539   7.223  1.3539 -0.8885  0.8922
 4704SOL    HW225746   3.255   3.683   7.185  0.8322  1.5090  0.9248
 4705SOL     OW25747   2.316   0.681   3.816  0.1153 -0.9558 -0.5656
 4705SOL    HW125748   2.241   0.711   3.764  0.8316 -0.1233 -1.0940
 4705SOL    HW225749   2.271   0.634   3.887  0.2688 -1.1040 -0.5669
 4706SOL     OW25750   4.439   0.046  16.104  0.5563 -0.1647 -0.2145
 4706SOL    HW125751   4.410   0.105  16.034 -0.8666  0.0463  0.5550
 4706SOL    HW225752   4.444   4.706  16.050  1.3283 -0.5197  0.3698
 4707SOL     OW25753   2.226   4.597   5.284  0.3018 -0.2466 -0.3289
 4707SOL    HW125754   2.190   4.609   5.372  0.0896 -0.4087 -0.3953
 4707SOL    HW225755   2.321   4.597   5.297  0.1889  1.5911  0.5362
 4708SOL     OW25756   2.438   2.635   4.868  0.0271  0.4175 -0.3685
 4708SOL    HW125757   2.503   2.565   4.861  2.9081  2.9700  1.0202
 4708SOL    HW225758   2.466   2.692   4.939  0.1280 -0.2053  0.0950
 4709SOL     OW25759   4.394   2.503  13.573  0.1000 -0.1658  0.1265
 4709SOL    HW125760   4.322   2.529  13.630 -0.9152  2.6555 -2.4295
 4709SOL    HW225761   4.357   2.428  13.526  0.4703 -0.3755  0.1733
 4710SOL     OW25762   2.272   3.756   1.860 -0.7245 -0.3789  0.0099
 4710SOL    HW125763   2.341   3.769   1.926  0.4219  1.4072 -1.5333
 4710SOL    HW225764   2.215   3.820   1.904  0.6603  0.0318  1.2379
 4711SOL     OW25765   3.632   1.389   3.129 -0.2581 -0.2370 -0.1277
 4711SOL    HW125766   3.562   1.327   3.147  0.6513 -1.0096  0.7664
 4711SOL    HW225767   3.610   1.439   3.208  2.1187 -0.5251  0.7129
 4712SOL     OW25768   1.192   0.274  10.325 -0.4204  0.4162  0.1891
 4712SOL    HW125769   1.164   0.297  10.413 -0.5661 -1.8777  0.7395
 4712SOL    HW225770   1.285   0.257  10.341 -1.0044 -0.4208  2.6552
 4713SOL     OW25771   2.805   0.865   1.358 -0.2876  0.0111 -0.0023
 4713SOL    HW125772   2.888   0.829   1.391 -0.0486 -1.0846 -1.8069
 4713SOL    HW225773   2.754   0.785   1.350 -0.9519  0.3555  0.8242
 4714SOL     OW25774   1.153   4.086   5.945 -0.4047  0.0009  0.0528
 4714SOL    HW125775   1.195   4.013   5.990 -1.0012 -1.2148 -1.3416
 4714SOL    HW225776   1.149   4.054   5.854  1.9878  1.3581 -0.5399
 4715SOL     OW25777   1.599   2.111   4.073  0.0590 -0.0979 -0.0515
 4715SOL    HW125778   1.536   2.082   4.007 -2.0198  1.5506  1.2359
 4715SOL    HW225779   1.560   2.195   4.094  1.4767  0.8228 -1.0485
 4716SOL     OW25780   4.622   4.582   8.077 -0.0848 -0.1430  0.1397
 4716SOL    HW125781   4.581   4.496   8.070  0.7882 -0.5626  0.3140
 4716SOL    HW225782   4.646   4.579   8.169  1.5166 -0.2900 -0.2894
 4717SOL     OW25783   1.408   4.256   8.850  0.2958  0.0626 -0.0765
 4717SOL    HW125784   1.467   4.326   8.823 -0.2448  1.2739  1.8812
 4717SOL    HW225785   1.319   4.292   8.841 -0.2917 -1.2900  0.3557
 4718SOL     OW25786   0.516   0.563  15.860 -0.0738 -0.8355 -0.7645
 4718SOL    HW125787   0.590   0.621  15.842 -0.7564  0.0331 -0.7595
 4718SOL    HW225788   0.527   0.552  15.954 -2.2710  1.7111 -0.1994
 4719SOL     OW25789   2.044   4.100   2.629 -0.2097 -0.4117 -0.0959
 4719SOL    HW125790   1.965   4.154   2.627 -1.4083 -2.1094  1.0206
 4719SOL    HW225791   2.025   4.038   2.559 -0.6890  1.0101 -1.2269
 4720SOL     OW25792   3.377   3.831   9.576  0.2998  0.3884 -0.3118
 4720SOL    HW125793   3.466   3.863   9.570  0.5042 -0.1137  0.0173
 4720SOL    HW225794   3.379   3.764   9.644 -2.0694  0.2272 -0.3704
 4721SOL     OW25795   0.704   3.758   0.210  0.0464 -1.0493  0.0913
 4721SOL    HW125796   0.757   3.771   0.289  0.4152  2.0891 -0.6400
 4721SOL    HW225797   0.663   3.843   0.194  0.6738 -0.8337 -0.3848
 4722SOL     OW25798   3.268   1.409   9.809  0.1421 -0.1767 -0.1871
 4722SOL    HW125799   3.272   1.360   9.727 -2.2753 -2.6273  1.1256
 4722SOL    HW225800   3.273   1.335   9.869  1.2213  0.1506  0.1282
 4723SOL     OW25801   2.444   1.514   0.913  0.3947  0.2630  0.2910
 4723SOL    HW125802   2.377   1.569   0.872  0.1487 -1.1900 -1.2426
 4723SOL    HW225803   2.506   1.505   0.841 -1.2457  0.0052 -1.0945
 4724SOL     OW25804   0.352   4.420   8.660  0.1785 -0.3185  0.5073
 4724SOL    HW125805   0.287   4.373   8.712 -0.7316  1.3706  0.8770
 4724SOL    HW225806   0.314   4.506   8.677  2.0117  0.3617  1.1562
 4725SOL     OW25807   1.522   0.093   3.874  0.5686 -0.4020 -0.2768
 4725SOL    HW125808   1.470   0.086   3.954  0.2721  0.7552 -0.3693
 4725SOL    HW225809   1.504   0.006   3.837 -1.8623  0.2834 -0.7373
 4726SOL     OW25810   3.961   2.644   5.731 -0.3911  0.5569  0.0926
 4726SOL    HW125811   4.012   2.563   5.735 -0.8093  0.2600 -0.5850
 4726SOL    HW225812   3.880   2.623   5.683 -0.0312  2.3732 -1.2863
 4727SOL     OW25813   1.116   3.153   0.411  0.0782  0.3587 -0.0780
 4727SOL    HW125814   1.127   3.248   0.423  0.0456  0.4010 -0.4002
 4727SOL    HW225815   1.119   3.153   0.316  1.3692  1.7183 -0.0461
 4728SOL     OW25816   3.995   3.761   6.803 -0.0298 -0.0791 -0.1197
 4728SOL    HW125817   4.070   3.818   6.790 -0.1261 -0.4658 -2.4745
 4728SOL    HW225818   3.926   3.828   6.804  1.6096  1.5883  0.3817
 4729SOL     OW25819   1.348   3.461  15.652  0.4335  0.3208 -0.0175
 4729SOL    HW125820   1.312   3.497  15.733  0.2445  0.9769 -0.3872
 4729SOL    HW225821   1.432   3.503  15.635  0.4227  0.7936  1.1546
 4730SOL     OW25822   2.455   3.999   5.856  0.0639  0.0684  0.1475
 4730SOL    HW125823   2.384   3.935   5.847  0.1138 -0.0209  0.3735
 4730SOL    HW225824   2.503   3.990   5.774  2.8457 -2.5146  2.0523
 4731SOL     OW25825   2.446   0.547  11.332  0.5382  0.1286  0.7088
 4731SOL    HW125826   2.540   0.534  11.315  0.6248  0.3982  0.9878
 4731SOL    HW225827   2.413   0.458  11.345  2.5174 -0.6842  0.1696
 4732SOL     OW25828   2.263   2.213   9.174 -0.0146 -0.1996  0.7818
 4732SOL    HW125829   2.171   2.235   9.159  0.6350  0.2941 -2.4457
 4732SOL    HW225830   2.307   2.269   9.110  0.5233 -2.5646 -0.9671
 4733SOL     OW25831   3.537   0.206   9.437  0.2685 -0.0302 -0.2331
 4733SOL    HW125832   3.492   0.124   9.457  0.0366  0.6693  2.0433
 4733SOL    HW225833   3.597   0.210   9.511 -1.2314  1.5774  0.8931
 4734SOL     OW25834   4.582   4.670  16.650 -0.0964  0.5137 -0.0771
 4734SOL    HW125835   4.505   4.669  16.594  1.1097  0.7051 -1.7330
 4734SOL    HW225836   4.641   4.728  16.602  0.2286  1.1366  1.0750
 4735SOL     OW25837   2.705   3.168   1.737  0.0625 -0.0914 -0.1007
 4735SOL    HW125838   2.788   3.214   1.728 -0.7315  1.4915  0.7002
 4735SOL    HW225839   2.684   3.193   1.827 -0.5443  0.4090 -0.3838
 4736SOL     OW25840   1.367   4.603   4.921 -0.0208 -0.4085  0.1453
 4736SOL    HW125841   1.324   4.658   4.856 -0.6814 -0.0196  0.9187
 4736SOL    HW225842   1.444   4.657   4.940  1.0415 -1.6755 -0.4952
 4737SOL     OW25843   0.125   3.081   2.724 -0.6454 -0.7423  0.2125
 4737SOL    HW125844   0.119   3.010   2.787  1.5404 -0.4943  0.6786
 4737SOL    HW225845   0.216   3.110   2.729 -0.8818  0.3821 -1.8694
 4738SOL     OW25846   1.161   0.300  13.575  0.0816  0.4614  0.4151
 4738SOL    HW125847   1.163   0.205  13.575 -1.4114  0.4283  0.3572
 4738SOL    HW225848   1.252   0.310  13.549  0.2325 -1.1769  0.3420
 4739SOL     OW25849   3.454   2.201   7.558  0.7524 -0.3960 -0.1408
 4739SOL    HW125850   3.427   2.236   7.474 -1.2193 -0.7048  0.3618
 4739SOL    HW225851   3.373   2.156   7.582  1.1626 -1.7942 -1.3413
 4740SOL     OW25852   4.150   2.381   2.141 -0.0402 -0.1566 -0.2027
 4740SOL    HW125853   4.081   2.316   2.137  2.9962 -3.3910 -0.2371
 4740SOL    HW225854   4.156   2.388   2.236 -0.8165  0.5654 -0.2070
 4741SOL     OW25855   0.558   1.068   5.395  0.0111 -0.0000  0.3292
 4741SOL    HW125856   0.636   1.118   5.369  0.3503 -0.1663  1.0044
 4741SOL    HW225857   0.564   1.062   5.491 -2.6954 -0.4929  0.4433
 4742SOL     OW25858   2.928   4.648   0.233  0.2242 -0.2048 -0.2903
 4742SOL    HW125859   2.928   4.564   0.186 -1.9863 -0.1245 -0.4368
 4742SOL    HW225860   2.988   4.703   0.183  0.2548 -1.0930 -1.2466
 4743SOL     OW25861   1.827   2.611   6.878 -0.4985  0.2600 -0.5273
 4743SOL    HW125862   1.749   2.609   6.934  1.0387  0.4011  1.6308
 4743SOL    HW225863   1.848   2.518   6.877 -0.0188  0.3515  0.7302
 4744SOL     OW25864   2.573   4.048  15.434 -0.1868  0.2668  0.0835
 4744SOL    HW125865   2.615   4.010  15.356 -1.7929 -2.2388  0.4326
 4744SOL    HW225866   2.627   4.012  15.504  0.7243  1.5301  0.0302
 4745SOL     OW25867   2.625   2.715   6.178 -0.1351  0.6501  0.2123
 4745SOL    HW125868   2.636   2.777   6.106  2.6741 -2.1638 -1.7973
 4745SOL    HW225869   2.710   2.710   6.223  0.7460  0.5691 -1.4727
 4746SOL     OW25870   1.621   0.365   9.092 -0.4319  0.1552  0.0780
 4746SOL    HW125871   1.696   0.389   9.037 -0.0389  1.0463  0.9920
 4746SOL    HW225872   1.584   0.453   9.090  0.6908  0.6475  0.7779
 4747SOL     OW25873   4.710   3.561   2.010 -0.4997 -0.1047  0.2798
 4747SOL    HW125874   4.700   3.650   2.042  0.1346  0.5704 -1.4121
 4747SOL    HW225875   4.734   3.573   1.918 -1.0930  0.1725  0.1648
 4748SOL     OW25876   0.280   1.965   2.488 -0.3455  0.0055 -0.0158
 4748SOL    HW125877   0.275   1.881   2.442  3.9669  0.0437 -0.6276
 4748SOL    HW225878   0.349   2.010   2.439  0.5207 -2.3547 -0.9544
 4749SOL     OW25879   3.752   4.553   2.576  0.0813  0.5459 -0.0684
 4749SOL    HW125880   3.711   4.471   2.548 -1.2590  1.7552 -1.6940
 4749SOL    HW225881   3.685   4.619   2.557 -1.2344 -1.4935 -2.5904
 4750SOL     OW25882   1.817   2.199   5.554 -0.5080 -0.2818 -0.4490
 4750SOL    HW125883   1.757   2.268   5.579 -1.2678 -0.6286 -1.2985
 4750SOL    HW225884   1.903   2.241   5.551  0.4140 -2.0794  0.7634
 4751SOL     OW25885   2.197   4.716   2.511  0.7078 -0.5008 -0.1665
 4751SOL    HW125886   2.234   4.675   2.589  3.3444  0.4894 -0.9031
 4751SOL    HW225887   2.162   0.063   2.537 -0.9122 -1.3591  0.4218
 4752SOL     OW25888   2.890   3.549  14.384 -0.0047  0.8664 -0.3804
 4752SOL    HW125889   2.803   3.559  14.345 -0.2726  0.6955  0.1684
 4752SOL    HW225890   2.910   3.634  14.421 -2.5313  0.4398  2.0020
 4753SOL     OW25891   1.037   3.201  11.790 -0.4413  0.2257  0.4875
 4753SOL    HW125892   0.964   3.191  11.729  2.0151  0.3874 -2.5077
 4753SOL    HW225893   1.002   3.156  11.867 -0.0309 -0.7418  0.1135
 4754SOL     OW25894   3.572   4.147   1.730 -0.0986 -0.3949  0.1172
 4754SOL    HW125895   3.478   4.133   1.742 -0.2504  0.8234  0.4075
 4754SOL    HW225896   3.579   4.132   1.636  0.9349 -1.7472  0.4121
 4755SOL     OW25897   3.183   0.310   1.947 -0.0409  0.0225 -0.2806
 4755SOL    HW125898   3.159   0.398   1.918  0.4831  0.3398  0.2291
 4755SOL    HW225899   3.136   0.312   2.030  0.6815  0.5034  0.1234
 4756SOL     OW25900   4.532   3.260   2.588  0.0591  0.2624 -0.1537
 4756SOL    HW125901   4.601   3.232   2.528 -0.0060  0.1936 -0.1977
 4756SOL    HW225902   4.503   3.169   2.596 -0.2947  0.3862 -0.0177
 4757SOL     OW25903   0.499   3.341  15.514 -0.8158 -0.0069  0.0105
 4757SOL    HW125904   0.520   3.424  15.471 -0.0849 -0.0589  0.2653
 4757SOL    HW225905   0.567   3.287  15.474  0.3976  2.7118 -1.6193
 4758SOL     OW25906   3.414   0.440  10.750 -0.1903 -0.3882  0.4847
 4758SOL    HW125907   3.464   0.472  10.675  1.7040  0.5707  2.1618
 4758SOL    HW225908   3.352   0.513  10.751 -1.5876 -1.5790  0.8770
 4759SOL     OW25909   4.476   0.336  10.695 -0.4127  0.4350 -0.6078
 4759SOL    HW125910   4.510   0.322  10.783 -0.7382 -1.9437 -0.8703
 4759SOL    HW225911   4.555   0.303  10.653 -2.1197 -3.4649 -0.7399
 4760SOL     OW25912   0.971   0.052   2.211 -0.3352 -0.0742  0.2587
 4760SOL    HW125913   1.056   0.073   2.172 -0.2542 -1.7615 -0.4515
 4760SOL    HW225914   0.912   0.047   2.135 -0.5503 -0.0850  0.4265
 4761SOL     OW25915   4.209   2.964   6.711 -0.1608  0.4836  0.3245
 4761SOL    HW125916   4.293   2.927   6.736 -0.1377 -0.1272 -0.6535
 4761SOL    HW225917   4.180   2.979   6.801 -1.7527  1.5332 -0.3512
 4762SOL     OW25918   4.361   2.267   2.553 -0.2802 -0.0903 -0.3651
 4762SOL    HW125919   4.350   2.319   2.633  1.2050 -0.3782  0.0277
 4762SOL    HW225920   4.424   2.201   2.581 -0.4335 -0.9689 -2.0854
 4763SOL     OW25921   0.012   2.105   9.391 -0.1522 -0.5898 -0.2030
 4763SOL    HW125922   0.002   2.161   9.313 -2.6080  0.7753  1.0715
 4763SOL    HW225923   0.020   2.165   9.466  2.2112 -1.3336  0.1272
 4764SOL     OW25924   4.592   2.460  14.923 -0.1106 -1.2902  0.0724
 4764SOL    HW125925   4.643   2.532  14.959  0.8325 -2.3691  0.8915
 4764SOL    HW225926   4.616   2.459  14.830  1.8922 -1.0794  0.5949
 4765SOL     OW25927   0.781   2.107   5.658  0.7266  0.1295  0.2050
 4765SOL    HW125928   0.762   2.099   5.752 -0.8666  0.1291 -0.1126
 4765SOL    HW225929   0.790   2.016   5.631 -0.7131  0.1126 -0.1895
 4766SOL     OW25930   3.261   1.019   9.220  0.3869 -0.3797  0.2471
 4766SOL    HW125931   3.242   1.101   9.264  0.4734 -0.6065  0.7154
 4766SOL    HW225932   3.200   1.017   9.147  0.3344 -1.5612  0.3239
 4767SOL     OW25933   0.069   1.621   4.152 -0.9765  0.0197  0.1065
 4767SOL    HW125934   0.137   1.562   4.119  0.5828  1.4054  0.8223
 4767SOL    HW225935   0.111   1.693   4.199 -1.9508  0.0535  0.9227
 4768SOL     OW25936   0.174   3.187   0.174  0.6936 -0.5836  0.5050
 4768SOL    HW125937   0.224   3.188   0.092  1.6562 -3.4456  1.0419
 4768SOL    HW225938   0.207   3.267   0.215  0.1748 -1.4648  2.6735
 4769SOL     OW25939   1.547   2.625  12.262 -0.6619  0.4500 -0.0906
 4769SOL    HW125940   1.564   2.640  12.355  1.4545  2.9329 -0.8795
 4769SOL    HW225941   1.515   2.708  12.227  0.8640  0.9997 -0.1596
 4770SOL     OW25942   4.434   3.809  15.246  0.2903  0.0434 -0.4930
 4770SOL    HW125943   4.472   3.748  15.310 -0.2545 -0.1291 -0.3307
 4770SOL    HW225944   4.516   3.849  15.217  1.5789 -1.5428  0.9330
 4771SOL     OW25945   4.365   4.307   8.950 -0.1446  0.0453 -0.4926
 4771SOL    HW125946   4.382   4.213   8.948 -0.9528 -0.1174  0.1526
 4771SOL    HW225947   4.456   4.338   8.952  0.0249 -0.5286  1.2807
 4772SOL     OW25948   2.071   3.140  10.088  0.5799  0.3484 -0.2735
 4772SOL    HW125949   1.987   3.186  10.087 -0.1421 -0.9440  3.5147
 4772SOL    HW225950   2.071   3.123   9.993  0.0502 -0.2166 -0.1754
 4773SOL     OW25951   1.453   2.910   3.803  0.1637  0.1469 -0.4271
 4773SOL    HW125952   1.428   2.843   3.867  2.8688  0.2078  0.7295
 4773SOL    HW225953   1.370   2.956   3.812 -1.4080 -2.9869  0.9937
 4774SOL     OW25954   4.196   1.055   0.961  0.1618 -0.3741  0.3996
 4774SOL    HW125955   4.186   1.149   0.947 -1.9525 -0.5257  0.8910
 4774SOL    HW225956   4.105   1.026   0.956 -0.6946  2.3903  0.0502
 4775SOL     OW25957   3.348   0.105  17.402  0.1495  0.5227  0.2111
 4775SOL    HW125958   3.366   0.011  17.413 -1.5581  0.0283 -1.0675
 4775SOL    HW225959   3.413   0.126  17.335  0.0043 -1.4905 -0.5807
 4776SOL     OW25960   0.816   3.214  16.016 -0.5438  0.8996 -0.5012
 4776SOL    HW125961   0.793   3.212  16.109 -1.2441 -0.9289 -0.7228
 4776SOL    HW225962   0.727   3.207  15.981 -0.9817  1.3874  0.5221
 4777SOL     OW25963   1.387   4.254   4.320 -0.1238 -0.0926  0.0548
 4777SOL    HW125964   1.404   4.203   4.400 -0.2302  1.6755  1.1893
 4777SOL    HW225965   1.450   4.214   4.260 -0.0038  0.1375  0.0272
 4778SOL     OW25966   0.369   2.178   3.928 -0.0703 -0.2546  0.7047
 4778SOL    HW125967   0.437   2.118   3.958  0.5769 -0.1468 -0.5364
 4778SOL    HW225968   0.414   2.228   3.859 -0.2767 -1.7758 -0.5208
 4779SOL     OW25969   0.600   0.645   7.679  0.0173 -0.1601 -0.1934
 4779SOL    HW125970   0.536   0.573   7.675  0.5033 -0.5248 -1.3592
 4779SOL    HW225971   0.656   0.625   7.753 -1.3618  0.6500  1.0733
 4780SOL     OW25972   2.773   0.473   6.780 -0.0951  0.0233  0.6441
 4780SOL    HW125973   2.699   0.488   6.721  1.3507  1.4331 -0.8098
 4780SOL    HW225974   2.851   0.459   6.726  0.4222 -0.0915  1.4314
 4781SOL     OW25975   4.077   4.433   5.471 -0.2097  0.1098  0.3559
 4781SOL    HW125976   4.064   4.352   5.422  2.1077  1.4775 -2.5785
 4781SOL    HW225977   4.022   4.494   5.422 -0.8489 -2.0726 -1.6265
 4782SOL     OW25978   1.289   4.439   2.965 -0.1806  0.0354  0.2326
 4782SOL    HW125979   1.195   4.444   2.946  0.1306  2.0260 -0.7324
 4782SOL    HW225980   1.294   4.355   2.918  1.9815  0.4951 -0.3486
 4783SOL     OW25981   0.593   3.549   0.876  0.1929  0.1237  0.5586
 4783SOL    HW125982   0.557   3.466   0.907  0.6444 -0.1056  0.4700
 4783SOL    HW225983   0.514   3.586   0.837  0.5097 -0.9841 -1.1369
 4784SOL     OW25984   3.584   0.634   6.302  0.4085  0.1533 -0.6025
 4784SOL    HW125985   3.630   0.561   6.343  0.8908  1.1826  0.7021
 4784SOL    HW225986   3.624   0.636   6.215 -1.2390 -2.0276 -1.4021
 4785SOL     OW25987   3.732   2.041   6.130  0.0039 -0.4077 -0.1308
 4785SOL    HW125988   3.726   1.988   6.051 -3.1053  0.6668 -0.6267
 4785SOL    HW225989   3.722   1.982   6.205 -0.1121 -1.1057 -0.7002
 4786SOL     OW25990   2.270   3.496   9.092  0.4082  0.5733  0.4568
 4786SOL    HW125991   2.262   3.566   9.156  0.5840  0.1403  0.9532
 4786SOL    HW225992   2.219   3.427   9.135  0.8799 -0.3852 -0.5143
 4787SOL     OW25993   1.874   1.899   3.588  0.8729  0.5859  0.2493
 4787SOL    HW125994   1.909   1.988   3.582 -1.9078  1.8308  2.3426
 4787SOL    HW225995   1.855   1.888   3.681 -1.9876 -0.3774 -0.4659
 4788SOL     OW25996   2.341   2.829  12.237 -0.3221  0.1106 -0.2982
 4788SOL    HW125997   2.249   2.828  12.264 -0.7486 -0.7315 -1.8023
 4788SOL    HW225998   2.386   2.830  12.322 -0.1444 -1.3324 -0.3830
 4789SOL     OW25999   4.165   0.096   3.090  0.3835  0.5864 -0.1442
 4789SOL    HW126000   4.137   0.006   3.074 -0.4978  0.4309  2.2230
 4789SOL    HW226001   4.110   0.113   3.166 -0.0328  2.1980 -0.8079
 4790SOL     OW26002   1.718   2.641  10.084 -0.3463  0.2708  0.0873
 4790SOL    HW126003   1.772   2.678  10.154 -0.2471 -1.0583  0.7098
 4790SOL    HW226004   1.678   2.565  10.127 -0.0473 -1.1225 -2.1024
 4791SOL     OW26005   1.481   2.352   5.082 -0.1702  0.2231 -0.0722
 4791SOL    HW126006   1.431   2.368   5.162  0.6915  0.7595  0.3584
 4791SOL    HW226007   1.422   2.292   5.036  0.6284  0.0092 -0.8188
 4792SOL     OW26008   1.060   4.583  14.431 -0.3598  0.6200  0.2721
 4792SOL    HW126009   0.998   4.635  14.380  0.0212 -0.5487 -1.3710
 4792SOL    HW226010   1.037   4.497  14.396 -1.2559  1.0560 -0.2086
 4793SOL     OW26011   4.277   0.259   5.444  0.4702  0.0520  0.1527
 4793SOL    HW126012   4.265   0.166   5.422  1.5059 -0.4104  1.5797
 4793SOL    HW226013   4.188   0.285   5.469  0.0587 -2.5252  1.3747
 4794SOL     OW26014   2.130   2.293  10.270  0.4978 -0.4063 -0.2670
 4794SOL    HW126015   2.193   2.365  10.268 -0.1469  0.2094  2.1482
 4794SOL    HW226016   2.073   2.320  10.342  1.3270  0.2272  0.1514
 4795SOL     OW26017   3.712   2.773  13.384  0.1317  0.1765 -0.1436
 4795SOL    HW126018   3.618   2.771  13.397  0.2424  0.1595  0.7047
 4795SOL    HW226019   3.720   2.810  13.296  1.9813 -0.6687 -0.3381
 4796SOL     OW26020   3.662   4.628   1.683 -0.0504 -0.0934  0.2459
 4796SOL    HW126021   3.692   4.594   1.767 -1.2230  0.9523  1.0956
 4796SOL    HW226022   3.661   4.722   1.701 -2.1049 -0.0480 -0.0894
 4797SOL     OW26023   1.869   1.158   6.813 -0.2608 -0.2406 -0.7580
 4797SOL    HW126024   1.877   1.205   6.730  1.2110 -0.9221 -0.9981
 4797SOL    HW226025   1.926   1.082   6.798  0.2901 -0.6120  3.2093
 4798SOL     OW26026   2.158   3.071   5.830  0.0373 -0.1149  0.0025
 4798SOL    HW126027   2.094   3.001   5.840 -1.8643  1.7061  0.5303
 4798SOL    HW226028   2.225   3.041   5.891 -1.5236 -1.1657  1.1943
 4799SOL     OW26029   2.207   2.622   7.209  0.1715 -0.5474  0.0170
 4799SOL    HW126030   2.193   2.666   7.125  3.0995 -1.2243 -0.8378
 4799SOL    HW226031   2.120   2.588   7.230 -0.2079  1.9701  2.5192
 4800SOL     OW26032   1.894   1.963   3.112 -0.1482  0.0240 -0.1507
 4800SOL    HW126033   1.805   1.996   3.096  0.2189  0.3186 -1.5700
 4800SOL    HW226034   1.932   2.023   3.176  1.6745 -1.8712  0.5255
 4801SOL     OW26035   2.047   3.946  14.885  0.0037  0.2370  0.1798
 4801SOL    HW126036   1.966   3.994  14.899 -1.4747 -1.9795 -0.8773
 4801SOL    HW226037   2.026   3.913  14.798  2.9858 -1.6411  0.1455
 4802SOL     OW26038   0.981   4.063   6.500 -0.1499  0.5362  0.2806
 4802SOL    HW126039   0.945   4.045   6.587  0.5099  0.4305  0.5264
 4802SOL    HW226040   1.073   4.086   6.509 -0.3055  1.4716 -0.4436
 4803SOL     OW26041   0.060   4.440   6.082  0.3488  0.1052 -0.8256
 4803SOL    HW126042   0.060   4.485   5.998  4.1881 -1.2796 -1.5916
 4803SOL    HW226043   0.041   4.352   6.050 -1.1335  0.9059 -2.1234
 4804SOL     OW26044   1.111   3.834  10.276 -0.7226 -0.1710 -0.2732
 4804SOL    HW126045   1.199   3.834  10.238 -0.5923 -0.1601  0.0320
 4804SOL    HW226046   1.096   3.747  10.314  1.2999  1.0734  3.4220
 4805SOL     OW26047   4.425   0.530   8.285  0.1289 -0.1041  0.8171
 4805SOL    HW126048   4.370   0.457   8.316 -1.4914  0.3012 -1.0673
 4805SOL    HW226049   4.415   0.523   8.190 -1.2839  1.8046  0.8376
 4806SOL     OW26050   1.274   2.636   6.149 -0.8892 -0.6236  0.3145
 4806SOL    HW126051   1.362   2.666   6.171 -0.5517 -0.9630 -0.5635
 4806SOL    HW226052   1.289   2.548   6.184 -0.9334 -1.2370 -1.1857
 4807SOL     OW26053   3.297   0.553   9.434 -0.1630 -0.2922 -0.3580
 4807SOL    HW126054   3.242   0.606   9.377  0.6058  0.8859 -0.0174
 4807SOL    HW226055   3.327   0.487   9.371 -0.1495 -3.8905  3.3998
 4808SOL     OW26056   4.665   3.758   3.577  0.2356 -0.3042  0.1521
 4808SOL    HW126057   4.595   3.710   3.532  0.5940 -1.3330  0.7043
 4808SOL    HW226058   4.626   3.813   3.646  0.3822  1.0482 -0.8474
 4809SOL     OW26059   3.275   4.579   3.659  0.3337 -0.1014 -0.6171
 4809SOL    HW126060   3.249   4.611   3.572 -0.5175 -1.7406 -0.9594
 4809SOL    HW226061   3.369   4.573   3.643  0.4474 -3.6065  1.4704
 4810SOL     OW26062   1.199   1.012   4.578 -0.0820 -0.2192  0.1164
 4810SOL    HW126063   1.273   1.055   4.536 -0.4224 -1.3666 -1.6866
 4810SOL    HW226064   1.217   1.011   4.672  1.8643 -0.5056 -0.2591
 4811SOL     OW26065   0.301   1.925   7.576  0.2206 -0.0080 -0.1534
 4811SOL    HW126066   0.228   1.912   7.516 -0.1490  3.6354 -0.4762
 4811SOL    HW226067   0.261   1.885   7.654 -1.1417 -1.6463 -1.6978
 4812SOL     OW26068   0.984   4.393   2.195  0.5403  0.1276  0.0740
 4812SOL    HW126069   0.918   4.463   2.187 -0.7563 -0.9450  1.3137
 4812SOL    HW226070   1.044   4.429   2.130 -0.6568 -1.5766 -1.9576
 4813SOL     OW26071   1.979   0.013  11.569  0.0874  0.2069 -0.0094
 4813SOL    HW126072   2.046   4.683  11.577 -0.8138 -0.8010 -0.9578
 4813SOL    HW226073   1.917   4.714  11.505  0.6182 -0.0568 -0.3666
 4814SOL     OW26074   1.654   1.506  16.272 -0.2720  0.0462 -0.3225
 4814SOL    HW126075   1.595   1.436  16.301 -0.0451  0.4990  1.2516
 4814SOL    HW226076   1.641   1.564  16.347  0.9412  1.9548 -1.5681
 4815SOL     OW26077   2.058   4.508   3.525  0.5061  0.0259 -0.0867
 4815SOL    HW126078   1.991   4.571   3.500 -2.6267 -3.3819 -0.1479
 4815SOL    HW226079   2.136   4.562   3.511 -0.4728  1.4625 -0.0238
 4816SOL     OW26080   1.571   1.211   6.511  0.2604  0.0285 -0.4240
 4816SOL    HW126081   1.590   1.135   6.565  1.2035 -0.6305 -1.6918
 4816SOL    HW226082   1.641   1.271   6.537  0.1011  0.7924 -1.7490
 4817SOL     OW26083   4.168   3.385   0.478  0.1142 -0.8101  0.2183
 4817SOL    HW126084   4.206   3.319   0.536 -0.7175 -2.1375 -0.7615
 4817SOL    HW226085   4.088   3.410   0.524 -0.3477 -1.2939 -0.3231
 4818SOL     OW26086   2.057   2.324   5.230 -0.1948  0.0594  0.0360
 4818SOL    HW126087   1.985   2.314   5.167  0.2501 -0.0346 -0.4512
 4818SOL    HW226088   2.083   2.413   5.207  1.3683 -0.2085  0.7572
 4819SOL     OW26089   2.145   3.630  12.085 -0.8436  0.4109 -0.3654
 4819SOL    HW126090   2.162   3.550  12.034  0.2060  1.2164 -1.2566
 4819SOL    HW226091   2.164   3.690  12.013 -0.9954  1.0736  0.1550
 4820SOL     OW26092   0.737   0.289   0.657  0.2828 -0.1302  0.0161
 4820SOL    HW126093   0.692   0.333   0.586 -0.5917 -1.3954 -0.2226
 4820SOL    HW226094   0.756   0.200   0.627 -0.6194 -1.1059  2.3088
 4821SOL     OW26095   2.370   3.736   3.804 -0.5646  0.7808 -0.1463
 4821SOL    HW126096   2.449   3.789   3.797  0.5078 -1.0034 -1.5412
 4821SOL    HW226097   2.332   3.760   3.720 -2.4441  0.5739  0.6457
 4822SOL     OW26098   2.184   3.787   7.684  0.0364  0.4108 -0.1778
 4822SOL    HW126099   2.262   3.733   7.696 -0.9878 -1.1728 -0.6369
 4822SOL    HW226100   2.160   3.784   7.776  0.3678 -0.5166 -0.1281
 4823SOL     OW26101   3.368   0.046  14.644 -0.1366 -0.3265  0.5815
 4823SOL    HW126102   3.394   0.063  14.553 -1.9869  3.0417  0.6929
 4823SOL    HW226103   3.408   0.122  14.686 -0.6618 -0.3822  1.1815
 4824SOL     OW26104   0.795   1.817   8.701 -0.6736  0.4876 -0.0674
 4824SOL    HW126105   0.888   1.811   8.679 -0.2865 -3.3337  2.5073
 4824SOL    HW226106   0.758   1.803   8.614 -1.8396 -0.2716  0.5516
 4825SOL     OW26107   3.812   1.572  10.865 -0.3299 -0.7535 -0.7936
 4825SOL    HW126108   3.888   1.559  10.922  1.5395  1.9773 -2.6189
 4825SOL    HW226109   3.762   1.636  10.916  2.2194  0.1905  0.5534
 4826SOL     OW26110   1.166   1.781   3.372 -0.0727  0.1271 -0.7627
 4826SOL    HW126111   1.253   1.814   3.393 -0.1151 -0.0807 -0.2516
 4826SOL    HW226112   1.165   1.767   3.277  2.8071  2.4960 -1.1143
 4827SOL     OW26113   1.824   3.858   9.171 -0.4944  0.0353  0.3446
 4827SOL    HW126114   1.899   3.918   9.177  0.4302 -1.1135  0.2895
 4827SOL    HW226115   1.790   3.881   9.084 -0.4800 -0.3229  0.2434
 4828SOL     OW26116   3.889   4.012   9.048 -0.0389  0.5406  0.0522
 4828SOL    HW126117   3.956   3.967   9.101 -0.8323 -1.4575 -0.6388
 4828SOL    HW226118   3.843   4.052   9.122  2.1429 -0.4020  1.9176
 4829SOL     OW26119   4.562   2.090   7.655  0.5375 -0.1870 -0.2940
 4829SOL    HW126120   4.605   2.056   7.733 -0.9729  1.1281  1.1286
 4829SOL    HW226121   4.510   2.166   7.683 -0.3204 -0.0419 -2.2989
 4830SOL     OW26122   2.346   0.660   3.101 -0.0414  0.6422 -0.8094
 4830SOL    HW126123   2.335   0.695   3.012  1.0506  1.9603 -0.4225
 4830SOL    HW226124   2.420   0.607   3.072  0.0642 -0.2448  1.1096
 4831SOL     OW26125   0.500   4.729   2.268  0.0182  0.1039  0.4194
 4831SOL    HW126126   0.573   4.699   2.323  0.3525  1.7934  0.9023
 4831SOL    HW226127   0.425   4.717   2.327  1.9858 -2.6463  2.3469
 4832SOL     OW26128   0.940   2.666  12.384  0.0449  0.3756  0.4208
 4832SOL    HW126129   0.921   2.596  12.447  0.5444 -0.9183 -0.8545
 4832SOL    HW226130   0.861   2.664  12.330 -0.9344  1.3700  1.8058
 4833SOL     OW26131   4.632   1.200   4.759 -0.0250  0.0213 -0.2296
 4833SOL    HW126132   4.676   1.233   4.837  1.4246 -1.7954 -0.2497
 4833SOL    HW226133   4.604   1.282   4.718 -0.0759 -1.0415 -2.3307
 4834SOL     OW26134   3.034   3.183   9.296 -0.1574 -0.4494 -0.3105
 4834SOL    HW126135   3.112   3.186   9.351  0.2218 -1.3400 -0.8134
 4834SOL    HW226136   2.966   3.159   9.360 -0.7783 -1.8398 -1.5028
 4835SOL     OW26137   2.335   2.237   4.277 -0.5368 -0.1616  0.2050
 4835SOL    HW126138   2.343   2.212   4.185  0.0623  0.2327  0.1513
 4835SOL    HW226139   2.263   2.299   4.264  0.7171  1.9703  3.5000
 4836SOL     OW26140   0.513   2.022   5.488  0.5766 -0.0790  0.8356
 4836SOL    HW126141   0.527   2.012   5.582  0.4896 -0.3038  0.8225
 4836SOL    HW226142   0.520   1.931   5.459  0.3476  0.6357 -1.4670
 4837SOL     OW26143   0.608   3.645   2.763  0.2492  0.4426 -0.2414
 4837SOL    HW126144   0.617   3.587   2.687 -0.8912  2.5726 -1.9780
 4837SOL    HW226145   0.600   3.576   2.829 -2.1106 -0.8972 -1.9254
 4838SOL     OW26146   0.010   3.288   8.054 -0.2960 -0.4733  0.1493
 4838SOL    HW126147   4.696   3.209   8.062  0.0209 -0.9079 -2.1265
 4838SOL    HW226148   4.705   3.332   7.981  0.5909 -0.2668 -0.2572
 4839SOL     OW26149   2.895   0.666   9.166 -0.5131  0.2160  0.0661
 4839SOL    HW126150   2.968   0.718   9.133 -2.3537  2.4450 -0.4632
 4839SOL    HW226151   2.869   0.713   9.245 -1.1132 -0.0020 -0.0022
 4840SOL     OW26152   4.068   2.641   2.076 -0.7049 -0.6606  0.3448
 4840SOL    HW126153   4.073   2.546   2.060 -4.1977 -0.4460 -2.2327
 4840SOL    HW226154   4.053   2.647   2.170 -2.0294  0.2386  0.0862
 4841SOL     OW26155   4.351   4.227  15.028 -0.0631 -0.7862 -0.3061
 4841SOL    HW126156   4.348   4.207  15.122  0.7371  2.7587  0.4893
 4841SOL    HW226157   4.266   4.196  14.998 -0.5390 -1.2660  1.5042
 4842SOL     OW26158   3.617   4.423   2.944  0.1630  0.7315  0.3387
 4842SOL    HW126159   3.674   4.387   3.011  1.1068 -1.4594 -1.6291
 4842SOL    HW226160   3.635   4.365   2.870  0.2716 -0.7012  1.4975
 4843SOL     OW26161   3.712   2.406   5.916  0.0453 -0.1040 -0.1218
 4843SOL    HW126162   3.772   2.343   5.877 -0.8985 -2.0359  1.5634
 4843SOL    HW226163   3.762   2.437   5.992 -1.3200  0.2790  0.6083
 4844SOL     OW26164   1.518   2.221   8.790  0.1351 -0.0204 -0.5829
 4844SOL    HW126165   1.499   2.314   8.785  0.0730 -0.0314 -0.5492
 4844SOL    HW226166   1.514   2.207   8.884  2.7989 -0.1332 -0.5107
 4845SOL     OW26167   2.894   3.568   6.271 -0.4119  0.0157  0.3223
 4845SOL    HW126168   2.884   3.498   6.334  0.6020  0.9346  1.4993
 4845SOL    HW226169   2.806   3.606   6.273 -1.3922 -2.2914  0.1947
 4846SOL     OW26170   1.406   0.750  14.440  0.0384 -0.5295 -0.1708
 4846SOL    HW126171   1.435   0.823  14.385 -0.5419 -1.3103 -1.5184
 4846SOL    HW226172   1.456   0.751  14.521  0.5078  0.0961 -0.4655
 4847SOL     OW26173   1.533   0.938   4.383  0.2322 -0.5820 -0.7537
 4847SOL    HW126174   1.554   0.896   4.467  2.1314  0.5529 -0.6514
 4847SOL    HW226175   1.486   1.018   4.406  2.7889  1.2400 -1.8027
 4848SOL     OW26176   1.083   1.206   2.476  0.3519  0.5095 -0.3708
 4848SOL    HW126177   1.048   1.224   2.389  1.4316 -0.0621 -0.9226
 4848SOL    HW226178   1.167   1.253   2.474  1.0672 -0.7038  1.1932
 4849SOL     OW26179   0.594   0.081   0.366 -0.2375  0.2805 -0.0537
 4849SOL    HW126180   0.603   0.030   0.286  0.1087  2.0912 -1.1812
 4849SOL    HW226181   0.678   0.064   0.409  0.0169 -1.1317 -1.1413
 4850SOL     OW26182   4.632   4.429  16.161 -0.1985 -0.6689  0.4275
 4850SOL    HW126183   4.660   4.478  16.239 -0.7609 -1.2133  0.9615
 4850SOL    HW226184   4.592   4.355  16.206 -0.6004 -3.0484 -3.8390
 4851SOL     OW26185   0.752   0.974   4.709  0.1859 -0.3541 -0.1678
 4851SOL    HW126186   0.792   0.899   4.664  3.4988  0.1442  1.9010
 4851SOL    HW226187   0.734   0.926   4.790  2.9092 -2.9220 -1.0853
 4852SOL     OW26188   0.611   2.627   1.684  0.0264 -0.5080  0.3040
 4852SOL    HW126189   0.646   2.542   1.709  0.2550 -0.5810 -0.2647
 4852SOL    HW226190   0.648   2.636   1.596  1.5010  0.7087  1.0623
 4853SOL     OW26191   4.458   0.772   5.505  0.5496 -0.3353  0.5483
 4853SOL    HW126192   4.545   0.812   5.506  0.6167 -0.5195  1.5361
 4853SOL    HW226193   4.475   0.678   5.506 -1.8863 -0.7578  1.7085
 4854SOL     OW26194   4.095   4.163   6.621  0.7056 -0.0838  0.2184
 4854SOL    HW126195   4.173   4.205   6.585 -0.4744  1.4433 -0.5178
 4854SOL    HW226196   4.024   4.184   6.562  1.5779  0.7910 -0.5099
 4855SOL     OW26197   4.155   1.426   7.030 -0.6009 -0.1407  0.3315
 4855SOL    HW126198   4.154   1.461   7.119  1.0455  2.1367 -0.5512
 4855SOL    HW226199   4.113   1.494   6.977  1.1565 -0.7162 -1.7903
 4856SOL     OW26200   0.990   1.144  10.039  0.2992  0.0934 -0.2588
 4856SOL    HW126201   1.049   1.161  10.112  0.4006 -2.8545  0.3407
 4856SOL    HW226202   0.917   1.205  10.055 -0.5951 -1.7957  2.6946
 4857SOL     OW26203   2.449   0.681   1.974  0.5738  0.1683  0.0389
 4857SOL    HW126204   2.532   0.671   1.927  0.6713 -0.8226  0.4157
 4857SOL    HW226205   2.407   0.719   1.897  3.1221  1.2259 -0.8285
 4858SOL     OW26206   0.187   2.888   2.386 -0.1317  0.2369 -0.4899
 4858SOL    HW126207   0.238   2.920   2.311 -0.3388  0.7917 -0.3948
 4858SOL    HW226208   0.142   2.971   2.401 -0.2637 -0.0990  0.9013
 4859SOL     OW26209   2.366   3.290   4.073 -0.4804  0.1517 -0.7682
 4859SOL    HW126210   2.337   3.347   4.002 -0.0544 -0.6466 -1.5880
 4859SOL    HW226211   2.281   3.256   4.104 -0.6091 -0.1620 -1.4553
 4860SOL     OW26212   0.355   3.787   6.184 -0.0614  0.1619 -0.4093
 4860SOL    HW126213   0.420   3.835   6.132 -0.1422  2.6793  1.8568
 4860SOL    HW226214   0.369   3.834   6.266  2.0196 -1.1743  0.0131
 4861SOL     OW26215   0.341   3.536   0.653 -0.2052 -0.3222  0.3047
 4861SOL    HW126216   0.401   3.556   0.581 -3.8039  1.3226 -2.2538
 4861SOL    HW226217   0.335   3.442   0.635  0.2337 -0.8890  3.1748
 4862SOL     OW26218   2.941   3.023   6.842  0.0527  0.0927 -0.0576
 4862SOL    HW126219   3.006   3.085   6.876  0.6197  0.2537 -1.4334
 4862SOL    HW226220   2.977   2.938   6.868  1.9727  1.2586  1.1694
 4863SOL     OW26221   2.136   3.936   5.159 -0.4044 -0.4315  0.4187
 4863SOL    HW126222   2.079   3.873   5.116  0.6967 -1.5220  0.5790
 4863SOL    HW226223   2.068   3.997   5.189 -0.9790  0.7284 -3.2684
 4864SOL     OW26224   1.554   4.383   6.005 -0.0127  0.0802 -0.7906
 4864SOL    HW126225   1.614   4.435   6.059  0.9215  0.2668 -2.0136
 4864SOL    HW226226   1.479   4.380   6.064 -0.8102  1.6329 -1.7332
 4865SOL     OW26227   0.983   2.994   5.403 -0.1955  0.3274  0.0285
 4865SOL    HW126228   0.905   3.011   5.456 -1.2359 -0.7766 -1.1576
 4865SOL    HW226229   0.948   2.943   5.331  0.0778 -0.9912  0.8335
 4866SOL     OW26230   2.411   3.208   6.327 -0.0919 -0.4166  0.2066
 4866SOL    HW126231   2.495   3.162   6.324 -1.3137 -2.7431  1.0748
 4866SOL    HW226232   2.372   3.183   6.411 -0.6366  1.0949  0.3951
 4867SOL     OW26233   2.340   0.847   1.427  0.6262 -0.2876  0.1091
 4867SOL    HW126234   2.392   0.907   1.372 -1.2280  0.8060 -0.4587
 4867SOL    HW226235   2.313   0.777   1.368  1.0903 -1.5643  1.4270
 4868SOL     OW26236   0.315   0.980  16.422  0.1880 -0.2807  0.0486
 4868SOL    HW126237   0.242   0.956  16.479 -0.5585 -0.2154 -0.8722
 4868SOL    HW226238   0.304   1.075  16.422  1.8510 -0.0881 -1.0248
 4869SOL     OW26239   1.038   4.412   7.441  0.1891  0.2606  0.5437
 4869SOL    HW126240   1.126   4.428   7.478  0.6047 -0.2669 -0.2206
 4869SOL    HW226241   1.050   4.457   7.358 -0.2833 -0.3803  0.1377
 4870SOL     OW26242   4.196   1.621   3.860 -0.5706  0.1110  0.5267
 4870SOL    HW126243   4.181   1.531   3.887 -0.4124  0.1117  0.6118
 4870SOL    HW226244   4.185   1.667   3.943 -1.0137 -0.2246  0.6580
 4871SOL     OW26245   0.916   4.730   3.916  0.3318  0.1369  0.0538
 4871SOL    HW126246   0.930   4.648   3.963  3.7952  0.1328 -0.9983
 4871SOL    HW226247   0.868   0.041   3.982 -0.1054  2.1023 -1.7239
 4872SOL     OW26248   0.352   3.180   5.768  0.0010  0.4412 -0.0077
 4872SOL    HW126249   0.285   3.115   5.787  1.3696 -1.6197 -2.3380
 4872SOL    HW226250   0.349   3.214   5.858  1.5566 -0.9068  0.5554
 4873SOL     OW26251   3.661   4.019  15.185  0.0213 -0.9335 -0.4645
 4873SOL    HW126252   3.658   3.924  15.173  0.3437 -0.8396 -1.2710
 4873SOL    HW226253   3.678   4.029  15.279 -2.5077 -0.8243 -0.0132
 4874SOL     OW26254   2.853   3.682   7.322  0.3901  0.0677 -0.1062
 4874SOL    HW126255   2.947   3.703   7.322  0.8095 -1.7772 -0.6297
 4874SOL    HW226256   2.827   3.736   7.247 -0.7541 -0.3036  0.0270
 4875SOL     OW26257   1.424   3.578  10.288  0.6927 -0.2803 -0.1255
 4875SOL    HW126258   1.347   3.621  10.251  0.3509 -0.6765  0.1178
 4875SOL    HW226259   1.485   3.608  10.220  0.3220 -0.8107 -0.6988
 4876SOL     OW26260   2.452   2.380  17.743 -0.5695  0.5672 -0.0572
 4876SOL    HW126261   2.469   2.471  17.720 -0.2872  0.7188  0.7481
 4876SOL    HW226262   2.511   2.326  17.691 -0.7282  0.3387  0.0015
 4877SOL     OW26263   0.732   2.187   2.562 -0.5715  0.0666  0.2693
 4877SOL    HW126264   0.670   2.250   2.600  1.0145  2.0983 -0.4959
 4877SOL    HW226265   0.700   2.172   2.473 -0.4040 -1.5185  0.4777
 4878SOL     OW26266   0.776   1.896   3.219 -0.1013 -1.2016 -0.0456
 4878SOL    HW126267   0.739   1.869   3.303  1.3780  2.9065  1.9255
 4878SOL    HW226268   0.816   1.814   3.190 -0.6159 -2.0718  1.6684
 4879SOL     OW26269   3.595   2.499  14.681  0.0907  0.2914 -0.3654
 4879SOL    HW126270   3.621   2.437  14.613 -0.6780  1.3747 -1.6323
 4879SOL    HW226271   3.525   2.551  14.643 -0.2920 -0.6471 -0.9404
 4880SOL     OW26272   1.304   1.431   7.420 -0.4458  0.7168  0.1892
 4880SOL    HW126273   1.325   1.346   7.383  2.9814 -0.8080  5.4932
 4880SOL    HW226274   1.328   1.494   7.352 -2.8256 -0.3636 -1.6417
 4881SOL     OW26275   1.540   0.250   2.832 -0.1014 -0.0817 -0.0401
 4881SOL    HW126276   1.482   0.323   2.852  1.9319  1.5907 -0.2811
 4881SOL    HW226277   1.504   0.211   2.753  1.8637 -1.5923 -0.2045
 4882SOL     OW26278   4.484   3.442   8.273  0.4273  0.0543 -0.4614
 4882SOL    HW126279   4.467   3.485   8.357 -0.2331 -2.1917  0.5546
 4882SOL    HW226280   4.402   3.396   8.258  0.0422  0.0970  1.4934
 4883SOL     OW26281   0.579   4.000   8.140 -0.4422 -0.3865  0.5874
 4883SOL    HW126282   0.539   3.999   8.227 -0.8259 -3.6357  0.3639
 4883SOL    HW226283   0.627   3.917   8.138  0.0617 -0.0937  0.5799
 4884SOL     OW26284   2.171   1.535   9.302 -0.1899  0.0316  0.1764
 4884SOL    HW126285   2.154   1.493   9.218 -2.8882 -1.7266  1.5932
 4884SOL    HW226286   2.127   1.471   9.358  0.7423 -0.3346  0.4915
 4885SOL     OW26287   2.943   3.940   3.602 -0.6164 -0.1489 -0.3535
 4885SOL    HW126288   2.954   4.007   3.670  1.2490 -1.7276  0.8963
 4885SOL    HW226289   2.893   3.978   3.529 -0.0336 -0.0718 -0.7191
 4886SOL     OW26290   1.255   3.891  12.346 -0.4220 -0.3197  0.1808
 4886SOL    HW126291   1.269   3.839  12.267 -1.1217  1.9888 -1.4548
 4886SOL    HW226292   1.285   3.830  12.413 -2.1255 -1.2141  0.1190
 4887SOL     OW26293   3.668   1.268   1.497 -0.4069  0.2293  0.3483
 4887SOL    HW126294   3.729   1.337   1.470 -0.8677 -0.6130 -2.9101
 4887SOL    HW226295   3.591   1.318   1.471 -1.5106 -0.9358  1.4134
 4888SOL     OW26296   3.477   4.535  14.728 -0.2089 -0.9007 -0.6933
 4888SOL    HW126297   3.407   4.476  14.757  0.9605 -1.1134  1.6927
 4888SOL    HW226298   3.433   4.611  14.690 -0.4283  1.1011  3.5332
 4889SOL     OW26299   3.108   1.425   4.059 -0.1149  0.1693  0.1716
 4889SOL    HW126300   3.078   1.473   3.982 -0.9015 -1.0463 -0.2631
 4889SOL    HW226301   3.026   1.380   4.080 -2.0044  3.1635 -0.8068
 4890SOL     OW26302   3.732   2.671   2.699  0.6178 -0.3888  0.5305
 4890SOL    HW126303   3.783   2.715   2.632  0.3024  0.6017  0.9406
 4890SOL    HW226304   3.696   2.746   2.746 -0.8016  0.0794 -1.3138
 4891SOL     OW26305   2.083   0.062  17.185 -0.1338 -0.0832  0.1330
 4891SOL    HW126306   2.023   0.001  17.229  0.2931 -0.0160  0.8078
 4891SOL    HW226307   2.036   0.145  17.193 -0.8474 -0.5587  0.8648
 4892SOL     OW26308   4.611   1.796   5.857 -0.4644 -0.0258  0.0908
 4892SOL    HW126309   4.518   1.816   5.852 -0.0448  1.4802 -1.7457
 4892SOL    HW226310   4.651   1.862   5.913  1.6829 -0.8331 -0.4737
 4893SOL     OW26311   0.340   1.561  15.531 -0.1360  0.1000 -0.2412
 4893SOL    HW126312   0.275   1.588  15.466  1.4596  1.1646 -1.3871
 4893SOL    HW226313   0.290   1.494  15.579 -0.2489 -0.8346 -1.6687
 4894SOL     OW26314   0.572   0.627   8.178  0.1401 -0.4283 -0.4381
 4894SOL    HW126315   0.510   0.637   8.106 -0.8470  0.3760  0.5175
 4894SOL    HW226316   0.502   0.606   8.240  0.3105 -0.2741 -0.1938
 4895SOL     OW26317   2.985   0.836   4.779  0.0371 -0.2018 -0.1366
 4895SOL    HW126318   2.903   0.885   4.776  0.7905  1.1022  0.2509
 4895SOL    HW226319   2.984   0.771   4.849  3.5032  1.1822  1.2441
 4896SOL     OW26320   3.991   0.559   5.135  0.2513  0.1305 -0.4921
 4896SOL    HW126321   3.984   0.597   5.223  1.4384 -1.3301  0.2365
 4896SOL    HW226322   3.990   0.463   5.143  1.9757  0.0364 -1.2851
 4897SOL     OW26323   1.825   4.214   1.000  0.2478  0.1519  0.5580
 4897SOL    HW126324   1.783   4.222   0.914 -1.9581 -1.6841  1.4318
 4897SOL    HW226325   1.755   4.170   1.048  0.4977 -0.6025  0.2386
 4898SOL     OW26326   1.106   1.711   6.176 -0.0093 -0.3005 -0.6190
 4898SOL    HW126327   1.098   1.806   6.170  0.1503  0.0109  4.0298
 4898SOL    HW226328   1.144   1.695   6.262  0.0026 -1.3486 -0.8187
 4899SOL     OW26329   3.756   0.481  12.956 -0.1853  0.0724  0.1283
 4899SOL    HW126330   3.783   0.390  12.950 -1.0359 -0.0775 -1.4627
 4899SOL    HW226331   3.666   0.469  12.927  0.6993 -1.4483 -1.9375
 4900SOL     OW26332   0.649   4.082  14.988 -0.0315  0.5756  0.0932
 4900SOL    HW126333   0.604   4.113  14.909  2.6893  1.3483 -1.1366
 4900SOL    HW226334   0.653   3.987  14.975  2.5337  0.9155 -1.6200
 4901SOL     OW26335   1.754   1.973   4.489  0.0281  0.7431 -0.1802
 4901SOL    HW126336   1.684   1.962   4.553 -1.5793 -0.3124 -2.0844
 4901SOL    HW226337   1.728   1.903   4.429  0.7970  0.8533 -0.6337
 4902SOL     OW26338   0.926   0.632   2.370  0.1061 -0.0502 -0.0605
 4902SOL    HW126339   0.907   0.711   2.319 -0.7741  1.7711  3.1106
 4902SOL    HW226340   0.840   0.598   2.395  0.7805  0.1284  2.5158
 4903SOL     OW26341   0.271   0.163   6.739  0.0321  0.1333 -0.0530
 4903SOL    HW126342   0.314   0.099   6.796 -2.3230 -1.2469  0.1664
 4903SOL    HW226343   0.251   0.103   6.667 -0.4393 -0.1851  0.3460
 4904SOL     OW26344   0.277   1.436   3.714 -0.3180  0.3119  0.4585
 4904SOL    HW126345   0.190   1.454   3.677  0.4507 -0.2082 -1.5911
 4904SOL    HW226346   0.294   1.356   3.663  1.9033  0.1977  1.4035
 4905SOL     OW26347   0.156   1.531   5.856 -0.6106  0.7994 -0.3145
 4905SOL    HW126348   0.117   1.571   5.935 -0.1762 -0.7029  0.6533
 4905SOL    HW226349   0.075   1.494   5.821  0.7199 -2.8267  0.4674
 4906SOL     OW26350   1.608   4.668  16.655  0.4677  0.8478 -0.0414
 4906SOL    HW126351   1.678   4.688  16.593  0.2228  0.5342 -0.4129
 4906SOL    HW226352   1.608   4.573  16.642  1.1794  0.6926  1.0352
 4907SOL     OW26353   3.613   0.847   0.327 -0.6272 -0.4534  0.8234
 4907SOL    HW126354   3.614   0.887   0.414  1.8818  2.3983 -0.5156
 4907SOL    HW226355   3.644   0.928   0.288 -2.6062 -1.7044 -3.2369
 4908SOL     OW26356   2.224   2.170  16.089  0.2093  0.2823 -0.1550
 4908SOL    HW126357   2.137   2.196  16.057  0.0416  0.8652  0.7660
 4908SOL    HW226358   2.237   2.085  16.047 -1.2825  0.4218 -0.9142
 4909SOL     OW26359   4.009   4.089   9.525  0.0830  0.2819  0.1394
 4909SOL    HW126360   3.957   4.050   9.455 -1.2788 -1.3359  2.0652
 4909SOL    HW226361   4.020   4.173   9.480  0.4439 -0.1076 -0.5146
 4910SOL     OW26362   0.114   3.174   6.709 -0.5978 -0.4342 -0.3527
 4910SOL    HW126363   0.071   3.247   6.755  0.0771  0.3035 -0.9017
 4910SOL    HW226364   0.170   3.221   6.648  1.1926  0.6031  2.1016
 4911SOL     OW26365   2.524   1.132   5.358 -0.9115  0.7543 -0.3262
 4911SOL    HW126366   2.575   1.078   5.297  0.6227  1.7066  0.1355
 4911SOL    HW226367   2.440   1.087   5.373 -0.2592 -0.4031 -0.1289
 4912SOL     OW26368   0.505   2.535   4.166  0.1657 -0.6131 -0.2243
 4912SOL    HW126369   0.560   2.586   4.226 -3.2442  1.3716  1.2485
 4912SOL    HW226370   0.444   2.502   4.233 -0.2153 -0.4874 -0.5103
 4913SOL     OW26371   0.106   4.386   5.474  0.5406 -0.3972  0.0806
 4913SOL    HW126372   0.147   4.309   5.514  0.0787 -1.3626 -1.3205
 4913SOL    HW226373   0.178   4.447   5.487 -1.2659  2.1325 -1.9405
 4914SOL     OW26374   1.592   4.432  13.032 -0.0787 -0.0895  0.6728
 4914SOL    HW126375   1.659   4.378  12.990 -0.6071 -1.8417  2.0591
 4914SOL    HW226376   1.524   4.374  13.066 -1.1597  0.4925 -0.5259
 4915SOL     OW26377   1.719   4.181   4.464  0.0196 -0.9283 -0.2875
 4915SOL    HW126378   1.641   4.126   4.459 -0.7594  0.1810 -0.4999
 4915SOL    HW226379   1.787   4.121   4.436  0.8500 -0.7624  1.3633
 4916SOL     OW26380   1.918   1.315   6.052 -0.1952  0.1250  0.0089
 4916SOL    HW126381   1.954   1.365   5.978 -2.0051  0.5357 -0.6248
 4916SOL    HW226382   1.925   1.222   6.033  0.2399 -0.1343  1.4783
 4917SOL     OW26383   3.168   0.347   1.249  0.1448 -0.3098  0.2340
 4917SOL    HW126384   3.162   0.388   1.163 -0.5029  0.7182  0.7792
 4917SOL    HW226385   3.107   0.274   1.243  0.2619 -0.4251  0.4319
 4918SOL     OW26386   3.338   2.230   6.250 -0.1447 -0.1047  0.8115
 4918SOL    HW126387   3.320   2.152   6.197  0.4906 -1.0056  1.9044
 4918SOL    HW226388   3.398   2.188   6.312  1.3593  0.4394 -0.2986
 4919SOL     OW26389   2.981   4.682   6.160 -0.0798  0.2825  0.0768
 4919SOL    HW126390   2.920   4.639   6.219  1.8963 -2.2301  0.2610
 4919SOL    HW226391   3.062   4.632   6.170 -1.0592 -2.0667 -3.7522
 4920SOL     OW26392   3.344   4.051   3.470  0.0779  0.0130  0.0467
 4920SOL    HW126393   3.377   4.077   3.556 -0.3346 -2.1655  0.8528
 4920SOL    HW226394   3.409   4.098   3.418  2.0321 -1.6224  1.0166
 4921SOL     OW26395   1.231   3.874   4.299  0.1883 -0.1405 -0.1278
 4921SOL    HW126396   1.198   3.893   4.387 -0.5873 -0.6308 -0.3037
 4921SOL    HW226397   1.320   3.907   4.309 -0.3374  1.0742  0.5377
 4922SOL     OW26398   0.497   0.987   3.545  0.3136  0.7027  0.4894
 4922SOL    HW126399   0.411   1.010   3.508  1.3030  0.7605 -1.8178
 4922SOL    HW226400   0.502   0.897   3.513  0.7914  1.0480 -0.4121
 4923SOL     OW26401   3.526   1.955  11.829 -0.5568  0.3072 -0.2814
 4923SOL    HW126402   3.559   1.879  11.876  0.2352  1.6541  1.3504
 4923SOL    HW226403   3.566   2.028  11.877  1.5630 -0.8875 -0.2878
 4924SOL     OW26404   2.272   4.207   7.328 -0.2649 -0.1659  0.7139
 4924SOL    HW126405   2.356   4.246   7.350 -0.9562  1.4611  0.4845
 4924SOL    HW226406   2.242   4.157   7.404 -0.1029 -0.8150  0.3587
 4925SOL     OW26407   1.470   1.029   8.651 -0.6891 -0.1819  0.1265
 4925SOL    HW126408   1.476   1.094   8.721  0.5649  3.5161 -3.4452
 4925SOL    HW226409   1.420   1.080   8.588  2.1860  1.4360 -0.8351
 4926SOL     OW26410   2.864   1.969   5.255  0.2452 -0.3068 -0.2815
 4926SOL    HW126411   2.894   1.951   5.344 -0.5979 -0.8745 -0.1037
 4926SOL    HW226412   2.857   1.879   5.224 -0.8222 -0.2268 -0.2904
 4927SOL     OW26413   4.203   3.395   6.630  0.4202  0.4957 -0.0031
 4927SOL    HW126414   4.167   3.451   6.699  2.5173 -0.6057  1.9952
 4927SOL    HW226415   4.149   3.424   6.557  1.2889 -1.0080 -1.2573
 4928SOL     OW26416   0.803   1.478   5.287  0.3509  0.5635 -0.4888
 4928SOL    HW126417   0.747   1.437   5.222 -0.3893  0.8970 -0.0614
 4928SOL    HW226418   0.868   1.525   5.234  0.5782 -1.6945 -2.2269
 4929SOL     OW26419   2.289   0.344   6.526  0.2734 -0.2239 -0.5719
 4929SOL    HW126420   2.237   0.266   6.546 -1.3869  0.6695 -1.3651
 4929SOL    HW226421   2.294   0.328   6.432 -3.0776  1.8718 -1.1375
 4930SOL     OW26422   3.022   3.247   5.091 -0.3392  0.4134 -0.2261
 4930SOL    HW126423   3.009   3.152   5.098 -0.0586  0.4793  1.0832
 4930SOL    HW226424   2.955   3.260   5.024  0.4919  1.7023 -0.8035
 4931SOL     OW26425   1.743   3.357   9.791 -0.2949  0.0280 -0.5539
 4931SOL    HW126426   1.666   3.367   9.848 -1.5015 -3.7264 -1.5260
 4931SOL    HW226427   1.744   3.444   9.752 -0.0860 -0.4682 -1.6522
 4932SOL     OW26428   0.972   0.460   3.972 -0.2676  0.3056  0.4642
 4932SOL    HW126429   1.041   0.395   3.973  2.3729  3.0671 -0.3767
 4932SOL    HW226430   0.984   0.504   3.887 -1.5029 -0.6419 -0.1972
 4933SOL     OW26431   4.448   2.280  12.597 -0.1736 -0.5633  0.4209
 4933SOL    HW126432   4.353   2.267  12.595 -0.2839  0.5268 -2.1327
 4933SOL    HW226433   4.474   2.242  12.513 -0.7636  4.1196 -1.8997
 4934SOL     OW26434   1.855   1.691   0.013  0.6447  0.2944 -0.1583
 4934SOL    HW126435   1.906   1.751  17.709  1.9441 -0.7110 -0.0358
 4934SOL    HW226436   1.772   1.673  17.721 -0.5739  0.3551  2.1514
 4935SOL     OW26437   0.181   2.050   9.044  0.4776  0.3791  0.0718
 4935SOL    HW126438   0.092   2.027   9.017  1.2151  1.6538 -3.4959
 4935SOL    HW226439   0.197   1.986   9.114 -0.5878  0.3468  0.2838
 4936SOL     OW26440   1.041   3.512  12.335 -0.5798  0.2748  0.1297
 4936SOL    HW126441   1.072   3.491  12.247 -2.6037  0.9904 -0.7554
 4936SOL    HW226442   0.987   3.589  12.317  1.9841  2.5235  2.0136
 4937SOL     OW26443   4.482   0.217   0.134 -0.0606  0.0884 -0.3918
 4937SOL    HW126444   4.402   0.168   0.149 -2.1201  4.0114  1.3131
 4937SOL    HW226445   4.539   0.141   0.121  2.6142  2.0459 -0.0455
 4938SOL     OW26446   2.467   3.224  15.729  0.0951 -0.9072  0.4474
 4938SOL    HW126447   2.483   3.130  15.740  0.1038 -0.9975 -0.2994
 4938SOL    HW226448   2.406   3.232  15.655  0.4441  0.2180  0.2867
 4939SOL     OW26449   1.380   3.682   5.098  0.3923  0.0643  0.0810
 4939SOL    HW126450   1.285   3.667   5.103  0.0837  0.8791 -3.0680
 4939SOL    HW226451   1.392   3.772   5.128 -0.8551  0.7838 -1.5707
 4940SOL     OW26452   1.741   4.737   4.388  0.0279 -0.4957 -0.2195
 4940SOL    HW126453   1.659   0.042   4.365 -0.3872 -0.7630  0.7507
 4940SOL    HW226454   1.745   0.014   4.482 -1.4588  2.3342 -0.6355
 4941SOL     OW26455   2.402   3.567   2.501 -0.1622  0.2500 -0.0440
 4941SOL    HW126456   2.494   3.591   2.516 -0.1233  0.5747 -0.7733
 4941SOL    HW226457   2.399   3.488   2.555  2.3949 -0.0329 -0.2955
 4942SOL     OW26458   2.368   1.135  10.503 -0.4562  0.0761 -0.5486
 4942SOL    HW126459   2.434   1.203  10.518  1.2459 -2.0561  1.8023
 4942SOL    HW226460   2.384   1.088  10.585 -2.0063 -1.7627 -1.3094
 4943SOL     OW26461   3.939   1.714   1.935  0.7460  0.1452  0.0893
 4943SOL    HW126462   3.897   1.777   1.994  1.3664  0.3109  0.3641
 4943SOL    HW226463   3.949   1.765   1.855 -1.3942 -0.6578 -0.6892
 4944SOL     OW26464   4.455   4.545  15.978 -0.1470 -0.2440 -0.0162
 4944SOL    HW126465   4.514   4.486  16.025 -1.1581  1.1426  2.9695
 4944SOL    HW226466   4.392   4.481  15.945  0.0386 -0.8666  0.8360
 4945SOL     OW26467   3.163   4.729   1.568  0.4414 -0.2212  0.5824
 4945SOL    HW126468   3.201   0.079   1.573 -2.0122  0.9180 -1.0919
 4945SOL    HW226469   3.240   4.673   1.580  0.8457  0.5796  1.7196
 4946SOL     OW26470   4.573   0.660   0.679 -0.5927  0.4362  0.2449
 4946SOL    HW126471   4.581   0.565   0.683  2.2420  0.6727  0.7009
 4946SOL    HW226472   4.478   0.664   0.677 -0.4511  4.2660 -0.3959
 4947SOL     OW26473   2.678   1.673   5.418  0.2721  0.5800  0.1721
 4947SOL    HW126474   2.653   1.651   5.507 -1.1649 -0.4605 -0.4910
 4947SOL    HW226475   2.731   1.748   5.444  0.3693  0.3674  0.5922
 4948SOL     OW26476   4.473   2.382   3.005 -0.3171  0.3300  0.1071
 4948SOL    HW126477   4.560   2.347   2.986  0.3942  0.8117  2.4204
 4948SOL    HW226478   4.427   2.345   2.930 -3.4153 -0.8331  2.5650
 4949SOL     OW26479   4.616   4.487   6.352  0.3432 -0.0526 -0.0901
 4949SOL    HW126480   4.629   4.555   6.286 -0.9066  0.5335  0.2868
 4949SOL    HW226481   4.534   4.450   6.320 -0.1010  0.5888  0.3276
 4950SOL     OW26482   3.183   4.166  11.945 -0.0075 -0.1256  0.0475
 4950SOL    HW126483   3.213   4.222  11.873  0.2159 -0.5461 -0.1916
 4950SOL    HW226484   3.259   4.109  11.953  0.2346  0.1721 -0.1625
 4951SOL     OW26485   1.281   3.721  12.547  0.1138 -0.4478 -0.8256
 4951SOL    HW126486   1.221   3.647  12.562 -0.1584  0.1870  1.1692
 4951SOL    HW226487   1.309   3.747  12.634 -0.6916 -1.7850 -0.1609
 4952SOL     OW26488   2.662   3.154   5.357 -0.0023 -0.0701  0.0196
 4952SOL    HW126489   2.636   3.230   5.305 -0.4348 -0.8524 -0.9083
 4952SOL    HW226490   2.725   3.196   5.415  0.1614 -2.6814  1.7402
 4953SOL     OW26491   3.175   1.018   7.776  0.7498  0.0621  0.3834
 4953SOL    HW126492   3.240   1.088   7.780  2.2169 -1.3278  0.9447
 4953SOL    HW226493   3.209   0.958   7.842  2.4449  0.7297  0.1213
 4954SOL     OW26494   0.883   0.521   5.970  0.1134  0.1908 -0.5514
 4954SOL    HW126495   0.969   0.539   5.931  0.5211 -0.9998 -0.2200
 4954SOL    HW226496   0.889   0.425   5.975  1.2715  0.2992  0.3627
 4955SOL     OW26497   1.011   4.031   7.976  0.0000 -0.5943 -0.0922
 4955SOL    HW126498   1.042   3.945   7.948 -0.3520 -0.7018 -0.1532
 4955SOL    HW226499   0.966   4.014   8.059 -2.0204 -2.3039 -1.5484
 4956SOL     OW26500   2.568   1.844   8.974  0.3273 -0.0793 -0.7339
 4956SOL    HW126501   2.583   1.935   9.000  1.5879 -0.8152  1.1752
 4956SOL    HW226502   2.565   1.788   9.052  1.4826 -0.1356 -0.7272
 4957SOL     OW26503   3.104   0.257   7.507 -0.1693 -0.0062 -0.3452
 4957SOL    HW126504   3.186   0.235   7.462  0.2133  1.0030 -0.1401
 4957SOL    HW226505   3.087   0.339   7.462  0.1337 -0.4861 -1.3457
 4958SOL     OW26506   1.612   4.339   4.989  0.0462  0.3230 -0.3233
 4958SOL    HW126507   1.639   4.413   5.044 -1.9355  1.5930 -1.0335
 4958SOL    HW226508   1.691   4.325   4.937 -0.3151  0.6070 -0.9540
 4959SOL     OW26509   1.914   4.598   0.603  0.3947  0.1006  0.5099
 4959SOL    HW126510   1.900   4.672   0.663 -0.3721  0.0171  0.4432
 4959SOL    HW226511   2.003   4.613   0.573 -1.1915  2.2312 -3.1244
 4960SOL     OW26512   2.240   0.357   1.714  0.1543  0.0786 -0.0626
 4960SOL    HW126513   2.219   0.280   1.662 -1.2142  0.6760 -0.3959
 4960SOL    HW226514   2.196   0.347   1.799  0.2259  1.9735  0.2167
 4961SOL     OW26515   0.878   4.081   6.086  0.3921 -0.1361 -0.0471
 4961SOL    HW126516   0.925   4.056   6.006  1.9836  2.5652  0.0256
 4961SOL    HW226517   0.887   4.011   6.150  0.5552 -0.6124 -0.5929
 4962SOL     OW26518   2.223   3.988   7.147 -0.2107 -0.5538 -0.3235
 4962SOL    HW126519   2.223   4.045   7.224 -2.0716 -3.4413  1.8224
 4962SOL    HW226520   2.313   3.957   7.143  0.1526  0.3892  0.4382
 4963SOL     OW26521   1.581   1.976   5.490  0.0750  0.3586 -0.1684
 4963SOL    HW126522   1.577   2.066   5.521  0.3267  0.6868 -1.0771
 4963SOL    HW226523   1.489   1.955   5.504  0.0397  1.9592  1.9372
 4964SOL     OW26524   1.556   0.409   1.896 -0.2849 -0.4378  0.6317
 4964SOL    HW126525   1.637   0.461   1.903  0.0821 -0.8418 -0.6059
 4964SOL    HW226526   1.597   0.332   1.855  1.7311  0.2157  1.4123
 4965SOL     OW26527   3.601   3.151   4.333 -0.4411 -0.9744 -0.6586
 4965SOL    HW126528   3.691   3.184   4.333 -0.2132 -1.5947 -0.0653
 4965SOL    HW226529   3.589   3.145   4.428  3.1625 -0.6963 -0.1648
 4966SOL     OW26530   1.704   3.741   6.976 -0.7714 -0.7148 -0.0852
 4966SOL    HW126531   1.724   3.720   7.067  1.2659  2.4937  0.2135
 4966SOL    HW226532   1.792   3.765   6.948 -1.7295  3.2764  0.2456
 4967SOL     OW26533   1.422   3.933   2.615  0.1440 -0.3489 -0.6623
 4967SOL    HW126534   1.354   3.871   2.588 -0.4525  0.1279 -0.2690
 4967SOL    HW226535   1.384   4.014   2.582  2.4400 -0.3637 -3.3448
 4968SOL     OW26536   0.893   0.551   6.861 -1.0395  0.0451 -0.0632
 4968SOL    HW126537   0.812   0.500   6.871 -2.3856  1.8191 -1.8212
 4968SOL    HW226538   0.858   0.631   6.821  0.5735  0.8144  0.0549
 4969SOL     OW26539   0.685   1.478   5.549  0.0228  0.5842  0.0462
 4969SOL    HW126540   0.735   1.466   5.469 -0.3130 -0.8751  0.0509
 4969SOL    HW226541   0.604   1.432   5.528 -0.0641  1.0593 -0.6441
 4970SOL     OW26542   0.560   0.324   2.503  0.5595 -0.1754  0.0320
 4970SOL    HW126543   0.571   0.264   2.429  0.3103  1.5321 -1.3985
 4970SOL    HW226544   0.596   0.278   2.579  1.0250  1.3631  0.7456
 4971SOL     OW26545   2.387   4.662   6.259  0.1753  0.5305 -0.2054
 4971SOL    HW126546   2.365   4.677   6.351 -0.7864 -0.2113 -0.3210
 4971SOL    HW226547   2.302   4.674   6.217  0.3878  0.3464 -0.6831
 4972SOL     OW26548   2.957   0.549   4.566 -0.2996 -0.4150 -0.6130
 4972SOL    HW126549   3.041   0.553   4.613 -1.2075  3.1282  0.7830
 4972SOL    HW226550   2.929   0.459   4.583 -1.4949 -0.4025 -2.5708
 4973SOL     OW26551   2.261   4.654   0.759 -0.6252  0.7468 -0.0394
 4973SOL    HW126552   2.230   4.602   0.685  1.4626  0.9282 -1.0316
 4973SOL    HW226553   2.324   4.708   0.712  0.2438  1.7259  2.2582
 4974SOL     OW26554   0.235   4.563  11.631  0.6151 -0.2531 -0.3321
 4974SOL    HW126555   0.281   4.586  11.550  1.7363  1.8907  0.9180
 4974SOL    HW226556   0.276   4.627  11.689  1.0625  1.7148 -2.7837
 4975SOL     OW26557   3.751   3.956  17.011 -0.2339 -0.0426 -0.0172
 4975SOL    HW126558   3.681   3.938  17.074  1.6651  2.8618  2.8917
 4975SOL    HW226559   3.772   4.049  17.015 -0.5326 -0.0026  0.5950
 4976SOL     OW26560   2.677   2.857   9.332  0.1446 -0.0025  0.5445
 4976SOL    HW126561   2.732   2.897   9.266  1.1166 -1.9410  0.1786
 4976SOL    HW226562   2.737   2.810   9.391  0.5988 -0.9625 -0.6917
 4977SOL     OW26563   1.898   0.606  16.316 -0.5057 -0.5666 -0.3357
 4977SOL    HW126564   1.984   0.609  16.357  0.4861 -0.5641 -2.3948
 4977SOL    HW226565   1.904   0.700  16.298  1.4273 -1.1958 -3.0086
 4978SOL     OW26566   1.493   1.471   8.659 -0.1301  0.7990  0.3888
 4978SOL    HW126567   1.551   1.399   8.633  0.1033  1.0349  0.2575
 4978SOL    HW226568   1.471   1.511   8.574 -0.2614  0.3820  0.2248
 4979SOL     OW26569   2.138   0.230   2.907 -0.1585 -0.4825  0.5601
 4979SOL    HW126570   2.125   0.292   2.835 -0.3782 -0.1841  0.8571
 4979SOL    HW226571   2.066   0.167   2.910  0.0750 -0.9292 -3.0883
 4980SOL     OW26572   4.043   3.094   4.086 -0.2242  0.2037 -0.4324
 4980SOL    HW126573   4.052   3.105   3.992  0.8891 -0.0201 -0.3547
 4980SOL    HW226574   3.955   3.130   4.085 -0.7267 -1.0602 -0.9611
 4981SOL     OW26575   3.246   1.434   6.899 -0.0252 -0.7944 -0.2215
 4981SOL    HW126576   3.326   1.389   6.927  0.1566 -1.0219 -1.1100
 4981SOL    HW226577   3.272   1.522   6.873 -0.8670 -0.4040  0.2686
 4982SOL     OW26578   1.034   3.106  14.416 -0.2115  0.5773  0.1463
 4982SOL    HW126579   0.948   3.085  14.379  0.0771  0.5426 -0.5054
 4982SOL    HW226580   1.046   3.201  14.418 -0.9694  0.6797  0.0321
 4983SOL     OW26581   1.364   0.069   2.332 -0.2334  0.1905 -0.2927
 4983SOL    HW126582   1.325   0.104   2.252 -1.9574  0.0183  0.4797
 4983SOL    HW226583   1.377   4.714   2.314  0.5740  0.0628  0.9695
 4984SOL     OW26584   3.772   1.134   1.969 -0.5558 -0.2112  0.2961
 4984SOL    HW126585   3.805   1.120   1.881  0.5708 -0.7607  0.8006
 4984SOL    HW226586   3.736   1.222   1.958 -1.2670 -0.6516 -0.7846
 4985SOL     OW26587   4.591   2.530  13.262  0.6731  0.2412  0.7550
 4985SOL    HW126588   4.575   2.441  13.231 -0.3042  0.5000  0.5195
 4985SOL    HW226589   4.662   2.563  13.206  1.2098 -0.7705  0.8338
 4986SOL     OW26590   3.261   4.075   4.697  0.5032  0.5569 -0.3299
 4986SOL    HW126591   3.267   4.062   4.792  1.5543 -1.4981 -0.6763
 4986SOL    HW226592   3.236   4.167   4.687  2.5648  1.1629  0.1334
 4987SOL     OW26593   2.209   1.810   3.938 -0.5967  0.2676 -0.2864
 4987SOL    HW126594   2.188   1.812   3.845  0.8619 -0.6088 -0.6442
 4987SOL    HW226595   2.295   1.852   3.942 -0.7645  0.4624  1.3665
 4988SOL     OW26596   3.510   1.324  10.057  0.0853 -0.8208 -0.2781
 4988SOL    HW126597   3.504   1.287   9.968 -0.7832  1.2522 -1.0650
 4988SOL    HW226598   3.483   1.248  10.108 -0.9564 -0.9954 -1.0982
 4989SOL     OW26599   3.878   1.896   3.389 -0.4776  0.1393 -0.4127
 4989SOL    HW126600   3.967   1.864   3.399 -0.6392 -0.3421 -0.5039
 4989SOL    HW226601   3.842   1.866   3.472  0.7507 -1.8499 -0.6041
 4990SOL     OW26602   3.891   1.291   2.411  0.0423 -0.4937 -0.3188
 4990SOL    HW126603   3.921   1.363   2.465  0.9280 -0.4016 -0.9278
 4990SOL    HW226604   3.859   1.331   2.330  1.4115  2.7057  0.7377
 4991SOL     OW26605   1.304   3.319   3.810  0.4499 -0.0410 -0.7361
 4991SOL    HW126606   1.246   3.373   3.863  0.4790  0.7880 -1.5538
 4991SOL    HW226607   1.326   3.373   3.734  2.2953 -0.3917 -0.4445
 4992SOL     OW26608   1.819   1.910   2.000  0.0880 -0.1165  0.1594
 4992SOL    HW126609   1.813   2.001   1.969  0.9901  0.2295  0.9935
 4992SOL    HW226610   1.886   1.916   2.068 -0.6288  1.6114  0.7360
 4993SOL     OW26611   1.397   1.872   7.991  0.5380  0.4695  0.1216
 4993SOL    HW126612   1.459   1.920   8.046 -0.4872  1.0546  0.7788
 4993SOL    HW226613   1.336   1.943   7.969 -4.0333 -3.7313 -0.6213
 4994SOL     OW26614   0.839   3.427  16.760 -0.5104 -0.2045 -0.3665
 4994SOL    HW126615   0.761   3.380  16.730 -0.3926 -1.4802  1.3697
 4994SOL    HW226616   0.813   3.459  16.846 -0.6432  0.5052 -0.6693
 4995SOL     OW26617   2.422   4.649   1.624  0.9943  0.0746  0.1052
 4995SOL    HW126618   2.500   4.675   1.674  0.5753  1.4528  0.0236
 4995SOL    HW226619   2.461   4.634   1.538  0.5578  0.9981 -0.2440
 4996SOL     OW26620   4.664   3.157   7.651  0.0716  0.4245 -0.4449
 4996SOL    HW126621   4.591   3.096   7.661  0.2413  0.4201  0.7194
 4996SOL    HW226622   4.731   3.106   7.697 -1.1879  1.2634  2.3147
 4997SOL     OW26623   4.098   4.018   2.652  0.0335 -0.2821 -0.7829
 4997SOL    HW126624   4.106   4.095   2.710  0.6736 -1.8144  1.1723
 4997SOL    HW226625   4.057   4.062   2.578  0.1139  0.2521 -0.5156
 4998SOL     OW26626   0.554   4.333   8.183  0.1415 -0.5985 -0.6035
 4998SOL    HW126627   0.539   4.266   8.249 -2.6049  1.5104  0.9427
 4998SOL    HW226628   0.469   4.374   8.199  0.0558 -1.4688  1.0845
 4999SOL     OW26629   4.011   1.769   4.485  0.1940  0.0782 -0.2613
 4999SOL    HW126630   3.940   1.745   4.426 -0.1343 -0.1618  0.2358
 4999SOL    HW226631   3.986   1.856   4.517  0.3352  0.2560 -0.6329
 5000SOL     OW26632   3.716   1.709   3.890  0.3312  0.0030 -0.2877
 5000SOL    HW126633   3.671   1.639   3.938 -0.3222  0.0737 -0.8029
 5000SOL    HW226634   3.640   1.766   3.897 -0.4451 -1.3117  1.9238
 5001SOL     OW26635   0.802   1.485   6.395  0.1053  0.0029  0.4632
 5001SOL    HW126636   0.751   1.435   6.459  0.0417 -1.4637 -0.7224
 5001SOL    HW226637   0.754   1.567   6.387 -1.9604 -1.4843 -2.2177
 5002SOL     OW26638   4.240   1.562   5.976  0.0430 -0.2950 -0.1809
 5002SOL    HW126639   4.242   1.530   5.886  0.9274 -3.0721  0.8091
 5002SOL    HW226640   4.268   1.485   6.025  0.3010 -0.0488  0.0565
 5003SOL     OW26641   2.796   0.877   2.673  0.1106 -0.3780  0.1926
 5003SOL    HW126642   2.801   0.968   2.645  1.6634 -0.8668 -1.0974
 5003SOL    HW226643   2.868   0.882   2.736  0.1600  0.0222  0.1038
 5004SOL     OW26644   4.692   2.655   0.272 -0.1194 -0.0217  0.0156
 5004SOL    HW126645   4.633   2.720   0.237  0.5836  0.2493 -0.6635
 5004SOL    HW226646   0.039   2.683   0.238 -0.2062 -0.2846 -0.4166
 5005SOL     OW26647   1.250   2.342   4.360 -0.3308  0.1385  0.3314
 5005SOL    HW126648   1.253   2.357   4.265 -0.2483  0.8290  0.4483
 5005SOL    HW226649   1.315   2.271   4.356  0.2403  0.7424 -1.1648
 5006SOL     OW26650   0.304   0.048   1.428  0.0506 -0.5270 -0.3109
 5006SOL    HW126651   0.231   0.017   1.481  0.1773 -1.5290 -0.7220
 5006SOL    HW226652   0.349   0.102   1.493 -0.3204  1.2453 -1.5293
 5007SOL     OW26653   4.630   2.877   8.790 -0.0941  0.3139 -0.6119
 5007SOL    HW126654   4.701   2.815   8.811 -1.8710 -1.5859 -0.2319
 5007SOL    HW226655   4.683   2.953   8.766 -2.7464  2.9753  2.0820
 5008SOL     OW26656   0.687   1.286   5.116 -0.3492  0.2325  0.1228
 5008SOL    HW126657   0.604   1.244   5.140 -0.1979  0.7075  1.4560
 5008SOL    HW226658   0.741   1.207   5.103  0.1003  0.7465 -1.1566
 5009SOL     OW26659   0.104   1.405  15.602 -0.6633 -0.2158 -0.0839
 5009SOL    HW126660   0.015   1.438  15.590 -0.4717  0.6392  0.8991
 5009SOL    HW226661   0.122   1.340  15.533 -0.0322  1.1484 -1.2106
 5010SOL     OW26662   3.908   4.085  12.418  0.6060 -0.6807  0.0002
 5010SOL    HW126663   3.913   3.994  12.389 -1.9788 -1.0840  0.8343
 5010SOL    HW226664   3.917   4.080  12.513 -2.2212  1.3399  0.3873
 5011SOL     OW26665   0.179   3.647   0.840 -0.0672 -0.7175 -0.2974
 5011SOL    HW126666   0.253   3.613   0.788 -0.9934 -2.6789 -0.3389
 5011SOL    HW226667   0.108   3.616   0.783  1.2796  1.7806 -3.3110
 5012SOL     OW26668   0.477   2.311   6.052 -0.0140  0.2942 -0.1431
 5012SOL    HW126669   0.500   2.305   5.959 -1.3632 -1.4019 -0.3671
 5012SOL    HW226670   0.429   2.229   6.067 -0.0342  1.1053  4.3428
 5013SOL     OW26671   2.556   1.787   4.817 -0.0877  0.2961 -0.1662
 5013SOL    HW126672   2.531   1.783   4.910 -1.1851  0.6885 -0.4473
 5013SOL    HW226673   2.650   1.804   4.824  0.0097  0.2009 -1.2035
 5014SOL     OW26674   3.262   2.327   3.828  0.2763  0.4353 -0.1383
 5014SOL    HW126675   3.270   2.389   3.755 -3.2954  0.9654 -0.0447
 5014SOL    HW226676   3.231   2.250   3.781  1.9691 -0.0765 -0.4154
 5015SOL     OW26677   4.390   4.002   2.323 -0.2590  0.1255  0.3166
 5015SOL    HW126678   4.413   4.067   2.257 -1.0649 -2.0980 -2.1669
 5015SOL    HW226679   4.452   3.937   2.290 -0.1163  0.3814  0.0849
 5016SOL     OW26680   2.405   1.146   8.409 -0.3435 -0.5995 -0.2259
 5016SOL    HW126681   2.426   1.082   8.342  2.0256  0.4640 -0.5097
 5016SOL    HW226682   2.441   1.228   8.374 -1.7863 -0.9509 -2.5172
 5017SOL     OW26683   4.276   0.266   1.937  0.0997  0.3235 -1.1067
 5017SOL    HW126684   4.323   0.349   1.933 -0.8767  0.8959 -0.4891
 5017SOL    HW226685   4.182   0.284   1.942  0.1723 -0.6882  4.2373
 5018SOL     OW26686   0.418   0.996   4.820 -0.3906 -1.1023  0.0419
 5018SOL    HW126687   0.367   1.047   4.883  1.2362  0.7332 -0.1454
 5018SOL    HW226688   0.503   0.973   4.857  0.1984 -0.1615 -0.7180
 5019SOL     OW26689   2.656   2.360   9.866 -0.2303 -0.9518  0.3371
 5019SOL    HW126690   2.690   2.337   9.952  1.6618  1.2662  0.1765
 5019SOL    HW226691   2.569   2.393   9.887 -0.9341 -1.8849 -1.1261
 5020SOL     OW26692   2.389   3.653   6.407  0.2453  0.1571  0.1455
 5020SOL    HW126693   2.317   3.708   6.378 -0.5550 -1.7394 -1.5183
 5020SOL    HW226694   2.365   3.584   6.344  1.3182  0.0539 -0.1575
 5021SOL     OW26695   3.718   4.008   2.442 -0.5823  0.0582 -0.1169
 5021SOL    HW126696   3.646   4.003   2.505 -0.2352  0.7368  0.3343
 5021SOL    HW226697   3.778   3.941   2.477  0.9487  0.3102 -2.2805
 5022SOL     OW26698   2.470   4.016   6.532  0.0028 -0.2143  0.0716
 5022SOL    HW126699   2.477   3.929   6.571 -0.6418  0.4587  1.6975
 5022SOL    HW226700   2.550   4.024   6.480  0.2509  0.2085  0.5223
 5023SOL     OW26701   0.109   3.515  17.599  0.0021  0.1489  0.2114
 5023SOL    HW126702   0.062   3.586  17.555 -0.6427  0.0761  0.7882
 5023SOL    HW226703   0.193   3.527  17.554  0.5140 -1.2455  0.7921
 5024SOL     OW26704   4.702   4.169   4.586  0.1860  0.2821 -0.0051
 5024SOL    HW126705   0.012   4.093   4.619  1.5992  1.8833  1.6083
 5024SOL    HW226706   0.019   4.234   4.628  0.3145 -0.5742  1.1534
 5025SOL     OW26707   0.917   0.551   9.615  0.0056  0.0800  0.0145
 5025SOL    HW126708   0.887   0.618   9.554 -1.0773 -0.4651 -0.0506
 5025SOL    HW226709   0.900   0.474   9.561 -0.5564 -0.9331  1.6149
 5026SOL     OW26710   2.681   1.126   0.614 -0.0738  0.0674 -0.1884
 5026SOL    HW126711   2.718   1.214   0.606  2.0924 -0.8335  0.0096
 5026SOL    HW226712   2.765   1.081   0.622  0.8289  1.9955  1.1177
 5027SOL     OW26713   1.732   0.431  11.955 -0.0782  0.3982 -0.1833
 5027SOL    HW126714   1.817   0.441  11.912 -1.3966 -0.9599 -3.0959
 5027SOL    HW226715   1.704   0.522  11.964  0.7578  0.3244  3.0371
 5028SOL     OW26716   0.387   4.625   6.091 -0.6006  0.4399 -0.3006
 5028SOL    HW126717   0.433   4.696   6.136  3.1825 -0.8220 -2.2041
 5028SOL    HW226718   0.450   4.554   6.089 -0.7991  0.3095 -1.6487
 5029SOL     OW26719   3.257   2.749   4.971 -0.2137  0.2284 -0.3648
 5029SOL    HW126720   3.245   2.788   5.057  0.5960 -0.4033  0.0366
 5029SOL    HW226721   3.289   2.662   4.994 -1.0455 -0.1827 -0.7556
 5030SOL     OW26722   3.802   4.543   0.664 -0.2039  0.3463  0.7116
 5030SOL    HW126723   3.883   4.542   0.614 -0.3489 -1.5695  0.5230
 5030SOL    HW226724   3.790   4.638   0.670  0.6752  0.5838 -1.3467
 5031SOL     OW26725   2.507   3.071   9.045 -0.3363  0.2405  0.1896
 5031SOL    HW126726   2.603   3.068   9.051 -0.3658 -3.4369 -1.0404
 5031SOL    HW226727   2.492   3.124   9.124 -0.6257  1.5873 -0.7709
 5032SOL     OW26728   0.778   4.403   9.197  0.3393  0.1453  0.3280
 5032SOL    HW126729   0.836   4.336   9.234  0.1759 -0.4012 -0.4186
 5032SOL    HW226730   0.736   4.348   9.131  1.5412 -1.3548  0.8222
 5033SOL     OW26731   0.002   2.242   9.616 -0.4374 -0.1865  0.2931
 5033SOL    HW126732   0.028   2.246   9.708 -0.8234  0.3063  0.3820
 5033SOL    HW226733   0.017   2.332   9.585 -1.5699 -0.0593  0.1069
 5034SOL     OW26734   2.186   3.854  11.515 -0.0204  0.4734 -0.7622
 5034SOL    HW126735   2.265   3.902  11.492  1.8119 -2.7788 -1.2075
 5034SOL    HW226736   2.142   3.851  11.430 -2.1400 -2.8176  0.4032
 5035SOL     OW26737   4.381   2.956  15.782  0.6251 -0.1287 -0.6269
 5035SOL    HW126738   4.292   2.975  15.813  0.0605 -4.1424  0.1513
 5035SOL    HW226739   4.413   2.888  15.841  1.8692  1.1335  0.1378
 5036SOL     OW26740   4.212   3.535   0.225 -0.1017 -0.3884  0.0072
 5036SOL    HW126741   4.221   3.627   0.251  1.0634 -0.7537  0.8886
 5036SOL    HW226742   4.186   3.489   0.304  1.1198 -1.3143 -0.1268
 5037SOL     OW26743   0.977   2.409  11.692 -0.3413 -0.2624  0.2585
 5037SOL    HW126744   0.980   2.431  11.785  0.1642 -0.6174  0.3256
 5037SOL    HW226745   1.053   2.352  11.682  0.6560  1.0478  0.3063
 5038SOL     OW26746   2.096   4.409   8.202  0.1051 -0.6670  0.0934
 5038SOL    HW126747   2.168   4.374   8.255  0.7128 -0.4446 -0.5812
 5038SOL    HW226748   2.045   4.328   8.194 -0.3010 -0.2865 -1.1126
 5039SOL     OW26749   2.667   1.657   2.921 -0.7463  0.1454 -0.6927
 5039SOL    HW126750   2.641   1.620   3.006 -5.2369  0.1518 -2.0865
 5039SOL    HW226751   2.723   1.592   2.877 -1.8042 -0.9340 -0.4363
 5040SOL     OW26752   2.315   3.768   9.439 -0.4013 -0.6245 -0.1618
 5040SOL    HW126753   2.350   3.681   9.418 -0.5573 -0.9857  1.1018
 5040SOL    HW226754   2.261   3.752   9.517  0.5760  1.4851  0.9146
 5041SOL     OW26755   0.275   1.700   5.688  0.4261 -0.4830 -0.1673
 5041SOL    HW126756   0.229   1.640   5.747 -0.4129 -1.2357 -1.5949
 5041SOL    HW226757   0.238   1.670   5.605 -0.7255  0.7174 -0.0922
 5042SOL     OW26758   3.585   3.496   7.240  0.1189 -1.0684 -0.4504
 5042SOL    HW126759   3.504   3.463   7.203 -0.6070  0.5180 -0.3033
 5042SOL    HW226760   3.553   3.556   7.307 -1.6394 -3.3599  0.7518
 5043SOL     OW26761   1.716   4.653   2.606 -0.3091 -0.3007 -0.3230
 5043SOL    HW126762   1.673   4.571   2.631  1.5675 -0.8031  1.2040
 5043SOL    HW226763   1.794   4.612   2.566  0.8856  0.4282  1.2822
 5044SOL     OW26764   3.515   3.299   2.765  0.2998  0.1157  0.3549
 5044SOL    HW126765   3.528   3.220   2.817  0.2832  1.5854  2.6178
 5044SOL    HW226766   3.437   3.340   2.803 -0.8192 -1.7730  0.0890
 5045SOL     OW26767   2.531   4.553  14.755  0.0332  0.1279 -0.0332
 5045SOL    HW126768   2.499   4.511  14.835 -2.0426  1.4494 -0.1858
 5045SOL    HW226769   2.478   4.632  14.762  1.9633  1.4648 -0.5324
 5046SOL     OW26770   2.656   1.291   5.532  0.0482 -0.1530  0.3603
 5046SOL    HW126771   2.604   1.255   5.460 -0.5585  0.2601  0.5957
 5046SOL    HW226772   2.657   1.211   5.585  0.9268 -0.1666  0.3282
 5047SOL     OW26773   0.960   4.661  10.087 -0.4381  0.0222 -0.2639
 5047SOL    HW126774   0.948   0.018  10.081 -0.3316  0.0616  0.1408
 5047SOL    HW226775   0.920   4.648  10.173 -0.4500  2.4811  0.1202
 5048SOL     OW26776   4.584   2.784  11.808  0.2257  0.0296 -0.1615
 5048SOL    HW126777   4.605   2.748  11.722 -1.0995  0.0188 -0.4768
 5048SOL    HW226778   4.527   2.855  11.777  0.9196  0.8596  0.4591
 5049SOL     OW26779   1.716   2.407   7.543 -0.1834  0.2492 -0.2068
 5049SOL    HW126780   1.690   2.491   7.579 -1.0605  0.3691 -1.1253
 5049SOL    HW226781   1.631   2.380   7.507 -0.4164 -2.1987  2.1903
 5050SOL     OW26782   4.675   1.371   3.928  0.4028  0.6278 -0.2945
 5050SOL    HW126783   4.642   1.425   3.999 -3.1650 -0.5760 -1.0643
 5050SOL    HW226784   4.606   1.403   3.870 -0.3145 -3.3293 -1.6069
 5051SOL     OW26785   2.933   3.583   8.865 -0.2490 -0.5658  0.4493
 5051SOL    HW126786   2.871   3.515   8.839  0.5848 -0.3106 -2.2091
 5051SOL    HW226787   2.902   3.659   8.815  1.6512 -0.6925 -0.9015
 5052SOL     OW26788   2.016   0.243   6.714 -0.3838  0.1790  0.0780
 5052SOL    HW126789   1.988   0.334   6.708 -1.7074 -0.2009  0.4180
 5052SOL    HW226790   1.936   0.190   6.712 -1.1916  1.4362 -0.7501
 5053SOL     OW26791   1.726   0.279   3.997  0.0495 -0.4240  0.3645
 5053SOL    HW126792   1.687   0.328   3.924 -0.6501  1.1787  1.8096
 5053SOL    HW226793   1.694   0.191   3.979  0.2241 -0.1672 -1.2412
 5054SOL     OW26794   3.422   3.317   4.579 -0.1372  0.4131 -0.0837
 5054SOL    HW126795   3.346   3.295   4.633  0.4380  0.7728  0.8655
 5054SOL    HW226796   3.471   3.239   4.603 -0.2500  0.6450  0.8957
 5055SOL     OW26797   0.836   2.110  13.579  0.2416 -0.3682 -1.3044
 5055SOL    HW126798   0.912   2.089  13.633 -0.8110 -2.0671 -0.5149
 5055SOL    HW226799   0.807   2.024  13.551 -1.6269  0.1345 -0.8773
 5056SOL     OW26800   2.453   2.208   7.891 -0.2391  0.8859 -0.6387
 5056SOL    HW126801   2.470   2.172   7.978  0.8978  0.0216 -1.2186
 5056SOL    HW226802   2.369   2.250   7.909 -0.1436  1.2437 -1.0075
 5057SOL     OW26803   0.164   1.974   5.982  0.3352  0.5620 -0.2594
 5057SOL    HW126804   0.214   2.044   5.940 -1.4115  1.5145 -0.7825
 5057SOL    HW226805   0.225   1.900   5.981 -1.2292 -0.7466  0.5367
 5058SOL     OW26806   1.043   1.222   5.510  0.0357  0.4651 -0.2527
 5058SOL    HW126807   1.122   1.219   5.455  0.5615 -1.7557  0.5913
 5058SOL    HW226808   1.068   1.181   5.593  0.2500 -1.2228 -1.1370
 5059SOL     OW26809   4.005   2.568   4.412 -0.0386 -0.5704  0.3334
 5059SOL    HW126810   3.935   2.579   4.477 -0.5459 -1.5419 -0.0486
 5059SOL    HW226811   3.964   2.602   4.333 -1.5760 -1.7408  0.6150
 5060SOL     OW26812   4.163   1.214  13.102  0.2931 -0.0171  0.6575
 5060SOL    HW126813   4.097   1.274  13.068 -0.4377 -0.5962  1.0378
 5060SOL    HW226814   4.107   1.136  13.103  1.9890 -1.2514  0.5037
 5061SOL     OW26815   1.573   0.747   1.214  0.2699  0.0344  0.5933
 5061SOL    HW126816   1.594   0.660   1.178 -1.0420  0.8441 -2.0778
 5061SOL    HW226817   1.655   0.779   1.252 -0.3603  0.4864  1.5791
 5062SOL     OW26818   2.768   1.284   9.156  0.0233  0.6217  0.0966
 5062SOL    HW126819   2.786   1.341   9.230  2.4657  0.0127 -0.0262
 5062SOL    HW226820   2.809   1.333   9.085  1.0599  0.2434  0.4358
 5063SOL     OW26821   2.679   3.560   1.414  0.6134 -0.2171  0.1012
 5063SOL    HW126822   2.675   3.553   1.319 -1.5779 -1.8898  0.3086
 5063SOL    HW226823   2.700   3.470   1.440 -1.1126 -0.4370  0.6739
 5064SOL     OW26824   2.120   0.618   5.928 -0.1816  0.0033  0.2710
 5064SOL    HW126825   2.094   0.596   6.017 -0.3402  1.2461  0.5434
 5064SOL    HW226826   2.043   0.661   5.889 -1.7411 -2.9927  0.0580
 5065SOL     OW26827   1.403   3.376   2.046 -0.1326 -0.1087 -0.6324
 5065SOL    HW126828   1.343   3.318   2.093  0.3027  0.2755  0.3919
 5065SOL    HW226829   1.355   3.393   1.965  2.5205 -0.7706 -2.3404
 5066SOL     OW26830   0.214   0.147   7.380 -0.3427 -0.2556  0.3696
 5066SOL    HW126831   0.156   0.201   7.433 -3.0409 -0.7662 -2.0494
 5066SOL    HW226832   0.163   0.134   7.300  1.1142 -1.2637 -0.3956
 5067SOL     OW26833   4.484   1.661   7.571  0.3233 -0.5413  0.2665
 5067SOL    HW126834   4.469   1.728   7.504  1.5545 -0.2526  0.2673
 5067SOL    HW226835   4.512   1.717   7.643 -1.6793  0.5999  0.1254
 5068SOL     OW26836   1.650   2.047   3.109  0.4267 -0.0963 -0.5639
 5068SOL    HW126837   1.681   2.137   3.102  0.1793 -0.0652 -1.2489
 5068SOL    HW226838   1.556   2.064   3.118  0.6083  0.8119 -0.4176
 5069SOL     OW26839   1.777   0.185   2.709  0.1898 -0.1317 -0.4525
 5069SOL    HW126840   1.763   0.094   2.685 -2.1129  0.3208 -0.8798
 5069SOL    HW226841   1.701   0.214   2.760  0.1881  0.5780 -0.8475
 5070SOL     OW26842   3.773   1.901   0.586  0.4508  0.2786 -0.1662
 5070SOL    HW126843   3.752   1.955   0.510  1.1310 -0.8412 -1.1552
 5070SOL    HW226844   3.819   1.826   0.547  0.5049  0.8338 -1.1640
 5071SOL     OW26845   1.305   0.715   4.191 -0.4702  0.3851  0.1730
 5071SOL    HW126846   1.369   0.667   4.244 -0.7892  1.2785  1.3636
 5071SOL    HW226847   1.253   0.758   4.258 -1.8447 -0.4249 -0.3740
 5072SOL     OW26848   0.610   2.451   6.377 -0.0427  0.9489  0.2713
 5072SOL    HW126849   0.528   2.439   6.425 -0.7325 -1.8330 -1.5713
 5072SOL    HW226850   0.576   2.464   6.289  0.3794 -2.8457 -0.4671
 5073SOL     OW26851   2.766   0.224  11.346  0.3818  0.0744  0.2206
 5073SOL    HW126852   2.857   0.192  11.349 -0.1151 -1.3148  0.6290
 5073SOL    HW226853   2.725   0.166  11.282  1.7440 -1.2019  0.5071
 5074SOL     OW26854   4.023   1.621   4.113  0.1160  0.0879 -0.1174
 5074SOL    HW126855   4.095   1.588   4.165 -0.4122  0.0162  0.5628
 5074SOL    HW226856   3.955   1.619   4.181 -1.2019  1.0479 -1.4006
 5075SOL     OW26857   0.961   4.300   3.428  0.6794 -0.2951 -0.4254
 5075SOL    HW126858   0.972   4.336   3.516  0.3222  0.0323 -0.5125
 5075SOL    HW226859   1.034   4.239   3.423  1.0592  0.3290 -2.5615
 5076SOL     OW26860   2.640   1.100   1.373 -0.2174  0.0992 -0.2266
 5076SOL    HW126861   2.704   1.030   1.362 -2.1179 -1.7775  0.6445
 5076SOL    HW226862   2.622   1.097   1.467  0.9502 -3.4849 -0.1250
 5077SOL     OW26863   2.854   2.189   7.274 -0.3143 -0.6092 -0.2813
 5077SOL    HW126864   2.863   2.282   7.294 -0.4810 -0.7168  0.2888
 5077SOL    HW226865   2.761   2.187   7.255 -0.8571  0.7261  2.2073
 5078SOL     OW26866   0.770   0.041   2.002 -0.5821 -0.2823 -0.3942
 5078SOL    HW126867   0.757   0.053   1.908 -1.7858 -0.6295 -0.2797
 5078SOL    HW226868   0.677   0.055   2.023 -0.1933 -0.4213  1.4005
 5079SOL     OW26869   3.350   0.870   8.891  0.0486 -0.6995  0.6859
 5079SOL    HW126870   3.388   0.805   8.832 -1.1117 -0.8144  0.0563
 5079SOL    HW226871   3.427   0.910   8.931  0.7469 -1.0699 -0.2769
 5080SOL     OW26872   3.362   3.269   5.730  0.1716 -0.6740 -0.4722
 5080SOL    HW126873   3.355   3.214   5.808 -2.0248  0.2882  0.0013
 5080SOL    HW226874   3.433   3.229   5.680  1.5888  1.8734 -0.5320
 5081SOL     OW26875   1.259   0.931   4.845  0.2143  0.0938 -0.2984
 5081SOL    HW126876   1.204   0.860   4.812  0.2024  0.2565 -0.6261
 5081SOL    HW226877   1.209   0.983   4.908  1.2669 -0.1216  0.7187
 5082SOL     OW26878   3.842   4.023   7.175 -0.4458 -0.2282  0.0707
 5082SOL    HW126879   3.848   4.072   7.257 -1.5452  2.0188 -1.2043
 5082SOL    HW226880   3.765   3.967   7.186 -0.1802 -0.3064  1.5719
 5083SOL     OW26881   0.468   1.906   3.538 -0.3914  0.0706  0.7346
 5083SOL    HW126882   0.503   1.988   3.571 -0.6642  1.5317 -2.7061
 5083SOL    HW226883   0.553   1.862   3.529 -0.2549  0.2144  1.3357
 5084SOL     OW26884   3.423   2.593   8.868  0.1694  0.1170 -0.5812
 5084SOL    HW126885   3.426   2.499   8.886  1.0405  0.1747 -0.4331
 5084SOL    HW226886   3.390   2.634   8.948 -1.3040 -0.3275 -0.9634
 5085SOL     OW26887   3.627   2.221   3.503  0.1030  0.0639  0.0474
 5085SOL    HW126888   3.709   2.196   3.545 -0.1849 -1.4328 -0.2819
 5085SOL    HW226889   3.638   2.173   3.421 -2.2839  2.3605 -1.6237
 5086SOL     OW26890   2.596   3.439   6.109 -0.3903 -0.4539  0.2670
 5086SOL    HW126891   2.617   3.514   6.054  0.8611 -1.6207 -0.8559
 5086SOL    HW226892   2.623   3.482   6.190 -1.1325 -1.6016  1.1348
 5087SOL     OW26893   3.197   0.307   4.408  0.4096  0.1947  0.0004
 5087SOL    HW126894   3.214   0.361   4.330  0.2376  0.5251  0.1901
 5087SOL    HW226895   3.176   0.223   4.367  0.3754  0.4305 -0.4657
 5088SOL     OW26896   0.010   3.584   8.762 -0.0544 -0.6147 -0.1010
 5088SOL    HW126897   4.682   3.592   8.831 -0.1241 -0.6774 -0.1608
 5088SOL    HW226898   4.725   3.659   8.708  0.5149 -0.8948 -0.7319
 5089SOL     OW26899   1.741   0.196   4.675  0.2301  0.2377 -0.2631
 5089SOL    HW126900   1.733   0.210   4.769  0.4106 -1.1811 -0.0475
 5089SOL    HW226901   1.735   0.101   4.677  1.6660  0.2014  2.4524
 5090SOL     OW26902   3.710   4.678   7.836  0.4444  0.1977  0.4836
 5090SOL    HW126903   3.656   4.709   7.764 -0.0370 -0.7098  0.4573
 5090SOL    HW226904   3.779   4.629   7.791 -0.3433  2.1173 -2.8023
 5091SOL     OW26905   1.614   0.687  11.977  0.6553 -0.6237  0.2592
 5091SOL    HW126906   1.577   0.711  12.062  0.4821  0.7285 -0.2071
 5091SOL    HW226907   1.648   0.772  11.950 -1.8394  0.4496  0.4772
 5092SOL     OW26908   3.067   4.538   6.563  0.2093  0.0034 -0.1629
 5092SOL    HW126909   3.075   4.450   6.602 -0.5543  0.2685  0.5847
 5092SOL    HW226910   2.981   4.565   6.594  0.1651  1.2312 -1.3900
 5093SOL     OW26911   4.738   3.588  14.789 -0.4956  0.2637 -0.2248
 5093SOL    HW126912   4.697   3.664  14.749 -0.3249  1.4430  1.9029
 5093SOL    HW226913   4.730   3.526  14.715  1.3916 -0.7215  0.3997
 5094SOL     OW26914   1.153   4.289   1.960 -0.3951  0.1105 -0.4035
 5094SOL    HW126915   1.201   4.369   1.943  0.3257 -0.6741 -2.0659
 5094SOL    HW226916   1.155   4.238   1.879  1.4412 -1.2901  0.5175
 5095SOL     OW26917   1.806   2.365  10.258  0.4375  0.2942 -0.1536
 5095SOL    HW126918   1.890   2.388  10.297 -0.8038  2.2171  1.3581
 5095SOL    HW226919   1.749   2.343  10.331 -1.0508  0.2186 -1.3290
 5096SOL     OW26920   1.842   1.167   4.870  0.0432  0.2334 -0.5482
 5096SOL    HW126921   1.934   1.178   4.896 -0.4680  0.9635  0.9608
 5096SOL    HW226922   1.803   1.248   4.903 -2.2112 -2.0452  2.3485
 5097SOL     OW26923   0.876   2.768  10.761 -0.2159  0.3106 -0.4998
 5097SOL    HW126924   0.815   2.841  10.756 -0.2812  0.3022  0.2714
 5097SOL    HW226925   0.812   2.701  10.784 -1.7355  1.8930 -0.1440
 5098SOL     OW26926   0.800   3.849   7.889 -0.3502  0.0730 -0.3081
 5098SOL    HW126927   0.772   3.825   7.977 -0.8947 -1.0131 -0.7862
 5098SOL    HW226928   0.842   3.771   7.852 -0.6199  0.3566 -1.2346
 5099SOL     OW26929   2.044   3.117  16.277  0.1903 -0.2099 -0.3153
 5099SOL    HW126930   2.114   3.182  16.270 -1.7031  1.9072  0.5471
 5099SOL    HW226931   2.012   3.106  16.188 -1.6402  0.1384  0.2990
 5100SOL     OW26932   0.960   3.230   3.397  0.1607 -0.6002  0.0853
 5100SOL    HW126933   1.004   3.190   3.472 -0.2265 -0.8267  0.1918
 5100SOL    HW226934   0.989   3.174   3.325  0.4455 -0.9138  0.4457
 5101SOL     OW26935   1.588   1.382   3.321  0.1684  0.3887  0.3001
 5101SOL    HW126936   1.647   1.453   3.347 -0.0331  1.0283 -0.9658
 5101SOL    HW226937   1.579   1.395   3.226 -1.3150  2.2895  0.6905
 5102SOL     OW26938   4.216   2.484   4.896  0.0078 -0.2119  0.1919
 5102SOL    HW126939   4.286   2.421   4.911 -0.2223 -0.9274 -1.7063
 5102SOL    HW226940   4.158   2.479   4.972  2.4572 -0.5444  2.0477
 5103SOL     OW26941   3.969   3.933   4.473  0.3042 -0.1370  1.0089
 5103SOL    HW126942   3.966   4.028   4.461  0.3473 -0.3933 -1.0010
 5103SOL    HW226943   3.879   3.908   4.455  0.2492  1.6740 -1.2124
 5104SOL     OW26944   2.966   2.390  13.211  0.0744 -0.2402 -0.1237
 5104SOL    HW126945   3.059   2.393  13.188 -0.3900 -0.5441 -2.0618
 5104SOL    HW226946   2.964   2.392  13.307  1.7839 -1.9065 -0.0486
 5105SOL     OW26947   2.079   3.687   1.646  0.1716  0.7980  0.5639
 5105SOL    HW126948   2.062   3.604   1.691  0.0704 -0.2655 -1.4509
 5105SOL    HW226949   2.151   3.712   1.703  1.7014 -3.6633  0.6292
 5106SOL     OW26950   4.494   1.665   3.422 -0.1623  0.1577 -0.2196
 5106SOL    HW126951   4.427   1.694   3.484 -0.5005 -2.9760  0.8905
 5106SOL    HW226952   4.517   1.580   3.459  1.1154  0.4136 -0.4284
 5107SOL     OW26953   0.027   1.591   6.829 -0.1544  0.2234  0.0861
 5107SOL    HW126954   0.042   1.596   6.923  1.1327 -1.6485 -0.0135
 5107SOL    HW226955   0.075   1.512   6.806  1.2625  0.5078  2.0266
 5108SOL     OW26956   1.595   0.017   4.998  0.1840 -0.1113  0.5141
 5108SOL    HW126957   1.608   0.018   5.092 -1.1666  0.4596  0.6912
 5108SOL    HW226958   1.664   4.692   4.978 -0.6491 -1.0126  0.4857
 5109SOL     OW26959   3.991   0.338  10.186  0.0482 -0.2596  0.0499
 5109SOL    HW126960   4.073   0.364  10.145  1.4479 -0.6731  2.5902
 5109SOL    HW226961   3.977   0.418  10.237 -0.2884 -0.1154 -0.2712
 5110SOL     OW26962   0.294   0.022   7.860  0.1531  0.1605 -0.0027
 5110SOL    HW126963   0.305   0.007   7.954  1.5828 -0.2250 -0.2432
 5110SOL    HW226964   0.324   0.112   7.853  1.4475 -0.4591 -2.3860
 5111SOL     OW26965   3.971   1.191   1.181 -0.3422 -0.0332 -0.1947
 5111SOL    HW126966   4.015   1.173   1.265  0.5894  1.6186 -0.3478
 5111SOL    HW226967   3.945   1.283   1.186  0.8704  0.4244 -2.7729
 5112SOL     OW26968   1.413   1.681   6.938  0.1893  0.0364  0.6905
 5112SOL    HW126969   1.343   1.637   6.889  0.8223  0.4206 -0.5522
 5112SOL    HW226970   1.481   1.674   6.871 -1.7436 -0.0911 -1.2667
 5113SOL     OW26971   2.498   3.295   7.535 -0.0772 -0.2627 -0.0788
 5113SOL    HW126972   2.438   3.225   7.508  1.9412 -1.5694 -1.1410
 5113SOL    HW226973   2.518   3.337   7.452 -1.6182 -0.7607 -0.6941
 5114SOL     OW26974   2.290   2.129   7.214  0.2290 -0.4035 -0.8590
 5114SOL    HW126975   2.300   2.157   7.305 -2.8527 -0.0403 -0.6102
 5114SOL    HW226976   2.199   2.159   7.202  0.5829  0.7929 -0.5314
 5115SOL     OW26977   1.454   1.253   7.050 -0.1074  0.1291  0.6171
 5115SOL    HW126978   1.469   1.158   7.048 -4.1095 -0.4391 -2.8884
 5115SOL    HW226979   1.397   1.275   6.976  1.3509 -2.6637 -1.3346
 5116SOL     OW26980   3.622   4.324   2.499  0.1260 -0.3110  0.1332
 5116SOL    HW126981   3.609   4.242   2.546  0.9855  1.0992  2.8382
 5116SOL    HW226982   3.533   4.360   2.496 -0.5998 -2.3346 -2.0855
 5117SOL     OW26983   3.896   3.592  10.536 -0.2087  0.0647 -0.1434
 5117SOL    HW126984   3.885   3.653  10.462  0.0119  0.3519  0.0626
 5117SOL    HW226985   3.803   3.575  10.555 -0.1606 -2.2293 -1.9038
 5118SOL     OW26986   1.863   0.565   3.490 -0.7001 -0.2613 -0.1848
 5118SOL    HW126987   1.770   0.544   3.499 -0.6790 -0.5296 -0.5998
 5118SOL    HW226988   1.891   0.545   3.401  2.0006 -1.9779  1.0465
 5119SOL     OW26989   2.309   1.453   7.624 -0.3366  0.0235 -0.4142
 5119SOL    HW126990   2.233   1.471   7.569  1.4769  2.7121 -2.0142
 5119SOL    HW226991   2.356   1.536   7.620  0.2547 -0.1306  2.9392
 5120SOL     OW26992   1.915   2.594  12.047  0.5707  0.6124  0.0110
 5120SOL    HW126993   1.905   2.685  12.075  0.9573  0.3570  0.9832
 5120SOL    HW226994   2.001   2.574  12.084  1.0384 -0.7667 -1.8908
 5121SOL     OW26995   1.795   0.821   6.375  0.0341  0.1439  0.1455
 5121SOL    HW126996   1.800   0.761   6.300 -2.8655 -0.2087  0.2168
 5121SOL    HW226997   1.772   0.759   6.444  0.6066  0.1356  0.3291
 5122SOL     OW26998   2.600   2.657   9.028 -0.0674 -0.5047 -0.1375
 5122SOL    HW126999   2.696   2.661   9.029 -0.1386  1.4047  0.5687
 5122SOL    HW227000   2.574   2.619   9.112 -1.2016  0.4106 -0.0739
 5123SOL     OW27001   4.038   0.662   5.399  0.1609  0.0995  0.2248
 5123SOL    HW127002   4.104   0.726   5.427  0.0748 -0.6072  1.9991
 5123SOL    HW227003   4.064   0.579   5.439 -0.0245  0.3265  0.8112
 5124SOL     OW27004   0.128   3.883   1.824 -0.7880 -0.2562  0.0381
 5124SOL    HW127005   0.095   3.972   1.838  1.2445  0.5563 -0.3242
 5124SOL    HW227006   0.071   3.834   1.883  1.0029 -0.0762  1.9019
 5125SOL     OW27007   3.345   2.500   8.213 -0.0053 -0.1088  0.2807
 5125SOL    HW127008   3.250   2.500   8.202  0.0500  1.4118 -0.1339
 5125SOL    HW227009   3.346   2.575   8.273 -2.0927  0.7132 -0.7447
 5126SOL     OW27010   1.958   2.914   2.661  0.2612 -0.6909  0.0334
 5126SOL    HW127011   1.991   2.950   2.744 -1.7808 -0.1167  0.5962
 5126SOL    HW227012   1.873   2.957   2.659  0.8271  0.3190 -1.8889
 5127SOL     OW27013   2.140   2.793  10.803  0.1293 -0.3711 -0.1563
 5127SOL    HW127014   2.103   2.878  10.828  0.4801  0.0582 -1.0842
 5127SOL    HW227015   2.201   2.782  10.875  1.9921 -0.0096 -1.6964
 5128SOL     OW27016   2.189   2.196   0.424 -0.8167  0.1601 -0.2828
 5128SOL    HW127017   2.182   2.205   0.329  0.1109 -0.1969 -0.3837
 5128SOL    HW227018   2.217   2.105   0.425 -2.1725 -0.2632 -0.7849
 5129SOL     OW27019   4.520   1.043   2.479  0.7761 -0.0445 -0.1541
 5129SOL    HW127020   4.489   1.011   2.394 -0.6307  0.1800  0.2720
 5129SOL    HW227021   4.452   0.991   2.523  1.2132  0.6759  1.3284
 5130SOL     OW27022   1.092   0.527  12.623  0.0220  0.5653 -0.4765
 5130SOL    HW127023   1.050   0.588  12.563 -2.3253 -1.9438 -1.3692
 5130SOL    HW227024   1.155   0.478  12.570 -0.3600  2.2222 -2.4397
 5131SOL     OW27025   3.298   4.152  13.933  0.1942  0.0537  0.0829
 5131SOL    HW127026   3.324   4.173  14.022 -1.9537 -0.5467  0.8476
 5131SOL    HW227027   3.330   4.231  13.889 -0.1913  1.6513  2.7231
 5132SOL     OW27028   2.025   3.843  17.019 -0.4546 -0.0921 -0.3291
 5132SOL    HW127029   1.980   3.770  16.976  1.8670 -1.7902  0.1188
 5132SOL    HW227030   2.024   3.908  16.950 -3.4803 -0.3698 -0.5347
 5133SOL     OW27031   1.154   0.400   8.676  0.0385 -0.4499  0.4205
 5133SOL    HW127032   1.227   0.375   8.733 -2.4324 -1.9454  2.9548
 5133SOL    HW227033   1.083   0.413   8.739  1.6190  0.0553  2.1111
 5134SOL     OW27034   1.297   4.731  13.325  0.4665  0.7004 -0.3023
 5134SOL    HW127035   1.358   4.737  13.251  1.7020 -0.7755  0.5997
 5134SOL    HW227036   1.366   0.001  13.391  0.2720  0.2339 -0.0360
 5135SOL     OW27037   4.573   4.675  15.100 -0.5961 -0.0673  0.3465
 5135SOL    HW127038   4.638   4.671  15.170 -1.3182 -0.6150  0.9942
 5135SOL    HW227039   4.506   4.613  15.131  0.9695 -0.9741  1.9311
 5136SOL     OW27040   3.602   0.156  13.155 -0.2295  0.1085 -0.2239
 5136SOL    HW127041   3.601   0.061  13.147 -1.4067  0.0664  0.2896
 5136SOL    HW227042   3.677   0.189  13.106 -0.1578  0.1575 -0.0827
 5137SOL     OW27043   3.216   4.254   3.129 -0.1372  0.1412  0.0847
 5137SOL    HW127044   3.273   4.300   3.191 -0.6761  1.2621 -0.2671
 5137SOL    HW227045   3.156   4.212   3.191 -0.0248  1.0498  0.8100
 5138SOL     OW27046   2.957   2.407   2.826 -0.3025  0.0597  0.2669
 5138SOL    HW127047   2.930   2.406   2.918  2.5687 -2.4057  1.0820
 5138SOL    HW227048   3.029   2.344   2.830 -0.0628  0.4007  1.3977
 5139SOL     OW27049   2.348   0.218   6.215 -0.2873  0.4449 -0.1989
 5139SOL    HW127050   2.412   0.158   6.251  1.2039  1.9198 -0.3927
 5139SOL    HW227051   2.371   0.230   6.123 -0.4410  0.3712 -0.2476
 5140SOL     OW27052   2.029   4.718  15.534 -0.3307  0.0813  0.4539
 5140SOL    HW127053   1.965   0.015  15.595 -1.1858 -1.1169  0.2507
 5140SOL    HW227054   2.057   4.641  15.583  0.0308 -1.5514 -2.2958
 5141SOL     OW27055   3.370   1.564  17.129 -0.3427  0.1319  0.0679
 5141SOL    HW127056   3.445   1.620  17.152 -0.2197  0.1099 -0.2786
 5141SOL    HW227057   3.296   1.624  17.118 -0.9597 -0.7569 -0.6783
 5142SOL     OW27058   1.532   4.551  13.468 -0.5327 -0.0995 -0.2947
 5142SOL    HW127059   1.602   4.507  13.419 -1.2019 -1.0494 -0.3854
 5142SOL    HW227060   1.568   4.638  13.485 -0.0081 -0.6765  1.5441
 5143SOL     OW27061   4.404   1.936   4.334  0.5792  0.6090 -0.0683
 5143SOL    HW127062   4.458   1.945   4.256  1.6431  0.8426  0.6923
 5143SOL    HW227063   4.420   1.845   4.359  1.4816  1.0670  1.0074
 5144SOL     OW27064   1.223   1.593   6.442 -0.3186 -0.3111  0.3946
 5144SOL    HW127065   1.141   1.551   6.416 -1.1157  1.7762 -0.4814
 5144SOL    HW227066   1.286   1.527   6.413  0.2655  0.8523 -0.9921
 5145SOL     OW27067   1.079   1.983  16.644 -0.1584 -0.0019 -0.5956
 5145SOL    HW127068   1.085   1.894  16.609 -1.3617 -0.2017 -0.2642
 5145SOL    HW227069   1.077   2.034  16.563  0.8674  0.6447 -0.2132
 5146SOL     OW27070   3.620   3.349   3.184 -0.5885 -0.3110 -0.6084
 5146SOL    HW127071   3.531   3.331   3.215 -0.2409 -0.5284  0.2731
 5146SOL    HW227072   3.673   3.274   3.212 -0.0709  0.6790  1.0721
 5147SOL     OW27073   1.945   3.149   5.182  0.2477 -0.5448  0.0401
 5147SOL    HW127074   1.947   3.244   5.171 -2.2615 -0.4384  0.4087
 5147SOL    HW227075   1.894   3.127   5.104  2.3734 -0.1823 -1.4677
 5148SOL     OW27076   3.780   0.824  15.245 -0.2313 -0.2823  0.2469
 5148SOL    HW127077   3.690   0.850  15.260 -0.1955  0.4053 -0.7174
 5148SOL    HW227078   3.822   0.850  15.327  1.1796 -1.8934  0.0276
 5149SOL     OW27079   2.231   3.177   7.902  0.1232 -0.0443  0.5776
 5149SOL    HW127080   2.251   3.155   7.993  0.7395 -0.6160  0.3088
 5149SOL    HW227081   2.320   3.185   7.868  0.3307  0.3808  1.2166
 5150SOL     OW27082   1.100   1.974   6.233 -1.1103  0.0361 -0.4230
 5150SOL    HW127083   1.119   2.050   6.179  0.2506  0.1769  0.2604
 5150SOL    HW227084   1.062   2.015   6.310 -1.5051 -0.9384 -0.1000
 5151SOL     OW27085   0.962   1.673   0.462  0.1984  0.1623 -0.1655
 5151SOL    HW127086   1.019   1.630   0.525 -0.7999  0.4928  0.9468
 5151SOL    HW227087   0.930   1.744   0.517  0.3215 -0.2877  0.4899
 5152SOL     OW27088   2.706   2.452   5.596  0.4389 -0.5965  0.1500
 5152SOL    HW127089   2.614   2.455   5.625  0.6427  4.2851  0.2258
 5152SOL    HW227090   2.735   2.540   5.618 -0.7123 -0.0117 -0.6696
 5153SOL     OW27091   3.729   4.523   9.430 -0.5031  0.0239 -0.3936
 5153SOL    HW127092   3.664   4.522   9.500  0.6218 -0.4488  0.6662
 5153SOL    HW227093   3.673   4.528   9.353 -0.6101  0.0292 -0.3161
 5154SOL     OW27094   4.690   1.065   8.273  0.1890 -0.3549  0.0135
 5154SOL    HW127095   4.678   1.068   8.368 -2.8285 -2.5389 -0.2715
 5154SOL    HW227096   4.601   1.048   8.240  0.8975 -1.3241 -1.3853
 5155SOL     OW27097   4.294   0.887  16.795 -0.2593  1.4327  0.2503
 5155SOL    HW127098   4.364   0.829  16.825 -0.6102  0.5895 -0.5747
 5155SOL    HW227099   4.322   0.897  16.703  0.8008  1.8485  0.6106
 5156SOL     OW27100   3.592   4.466   0.410 -0.2574  0.4360 -0.5908
 5156SOL    HW127101   3.643   4.542   0.436 -0.3809  0.1260  0.5249
 5156SOL    HW227102   3.508   4.501   0.379 -0.6891 -0.8430 -0.8736
 5157SOL     OW27103   2.065   2.301   5.486 -0.2952 -0.5953 -0.0406
 5157SOL    HW127104   2.077   2.317   5.393  1.6701  1.1525  0.5115
 5157SOL    HW227105   2.156   2.316   5.513 -0.3916 -1.0747  0.5663
 5158SOL     OW27106   3.330   2.199   8.575  0.3907  0.0129 -0.3218
 5158SOL    HW127107   3.283   2.272   8.613 -0.1623 -1.4788  1.8962
 5158SOL    HW227108   3.257   2.139   8.561  0.2883  0.0240  0.1709
 5159SOL     OW27109   2.237   0.933   4.988  0.6047 -0.7976  0.4904
 5159SOL    HW127110   2.253   0.922   5.081  0.2767 -1.9207  0.4130
 5159SOL    HW227111   2.324   0.930   4.949 -0.3423  0.8938 -1.7621
 5160SOL     OW27112   4.242   2.907   6.271  0.6251  0.0956  0.2595
 5160SOL    HW127113   4.175   2.898   6.203  1.0068 -0.2390 -0.0677
 5160SOL    HW227114   4.189   2.931   6.347  0.3611  2.2538 -0.6186
 5161SOL     OW27115   2.999   2.200  11.918  0.5267  0.2298 -0.0274
 5161SOL    HW127116   3.012   2.217  12.011  2.1759 -0.1190 -0.1960
 5161SOL    HW227117   3.088   2.175  11.895  0.3774 -0.7509  0.4478
 5162SOL     OW27118   0.784   0.029   8.161  1.0266  0.3295  0.6852
 5162SOL    HW127119   0.802   4.728   8.076 -1.4102 -1.8634  1.2026
 5162SOL    HW227120   0.761   4.690   8.213  0.5012 -0.3472 -0.5512
 5163SOL     OW27121   4.347   3.753   8.825 -0.5041 -0.0966  0.0600
 5163SOL    HW127122   4.406   3.692   8.870  0.2361 -0.9619 -2.0329
 5163SOL    HW227123   4.410   3.795   8.767 -0.5401 -0.8655 -0.5396
 5164SOL     OW27124   3.938   4.592   6.616 -0.9795  0.0277  0.7117
 5164SOL    HW127125   3.887   4.515   6.642  0.4946 -0.4846  2.0391
 5164SOL    HW227126   4.026   4.566   6.644  0.0259  1.5991 -0.9784
 5165SOL     OW27127   1.035   3.557   8.602 -0.2129  0.0571  0.1594
 5165SOL    HW127128   0.954   3.510   8.622  0.6970 -1.7957 -0.4961
 5165SOL    HW227129   1.102   3.519   8.658  0.6310  2.1368  0.5411
 5166SOL     OW27130   3.182   2.745  13.472  0.1232  0.1461  0.1916
 5166SOL    HW127131   3.097   2.737  13.516  0.6289 -2.0513  0.7589
 5166SOL    HW227132   3.152   2.748  13.381 -2.6885  0.2467  1.1153
 5167SOL     OW27133   3.608   4.736   2.431  0.4281  0.7005 -0.3293
 5167SOL    HW127134   3.638   4.717   2.342  0.3095 -0.2057 -0.1737
 5167SOL    HW227135   3.552   0.071   2.404  0.9098  0.3801 -2.2093
 5168SOL     OW27136   1.529   1.784   3.142  0.7730  0.0153 -0.2632
 5168SOL    HW127137   1.534   1.876   3.115 -3.4458  0.5575  0.7781
 5168SOL    HW227138   1.456   1.792   3.204  0.0717  2.1900 -1.3490
 5169SOL     OW27139   3.685   2.870   4.622  0.5342 -0.2886 -0.0361
 5169SOL    HW127140   3.706   2.799   4.682  5.3576  0.6260 -0.6933
 5169SOL    HW227141   3.763   2.890   4.571  1.3448 -1.7509  0.6367
 5170SOL     OW27142   4.094   3.794   0.110  0.3220  0.0266 -0.3945
 5170SOL    HW127143   4.074   3.805   0.203 -0.2722 -0.5153 -0.4552
 5170SOL    HW227144   4.186   3.820   0.117  0.4506  0.1592 -2.5184
 5171SOL     OW27145   2.683   2.119   4.799 -0.4256  0.2140  0.2880
 5171SOL    HW127146   2.778   2.110   4.811 -0.0173  3.5162 -0.2591
 5171SOL    HW227147   2.659   2.083   4.884 -1.3009  1.5129  0.5997
 5172SOL     OW27148   0.141   1.500  10.727 -0.0128 -0.0170  0.0767
 5172SOL    HW127149   0.203   1.529  10.794  1.3072  1.3061 -1.7279
 5172SOL    HW227150   0.066   1.481  10.784  1.6357  0.7411  2.5030
 5173SOL     OW27151   4.056   0.563   1.841  0.0360 -0.2564  0.3646
 5173SOL    HW127152   4.147   0.542   1.863  0.4515 -0.1383 -1.2453
 5173SOL    HW227153   4.013   0.482   1.867 -1.4833  1.2287  2.5144
 5174SOL     OW27154   4.646   0.698  12.327  0.2178  0.0597 -0.4000
 5174SOL    HW127155   4.630   0.606  12.308 -0.0538 -0.2575  1.3516
 5174SOL    HW227156   4.727   0.710  12.276  0.5825  2.7312  0.7995
 5175SOL     OW27157   3.816   4.701   9.719 -0.3372  0.1470  0.0499
 5175SOL    HW127158   3.777   0.050   9.717  1.5569  0.9680 -0.9541
 5175SOL    HW227159   3.798   4.676   9.628 -1.5162  1.1961 -0.0072
 5176SOL     OW27160   1.165   3.214   3.088  0.1336 -0.3672 -0.5488
 5176SOL    HW127161   1.182   3.178   3.002  0.5969 -1.5362  0.0395
 5176SOL    HW227162   1.114   3.137   3.114 -1.0539  0.6962  0.2845
 5177SOL     OW27163   3.650   3.892   7.950  0.3051 -0.2768 -0.4998
 5177SOL    HW127164   3.565   3.894   7.993  1.5798  1.5316  1.9074
 5177SOL    HW227165   3.619   3.865   7.863 -1.8376  2.2661 -0.5176
 5178SOL     OW27166   1.547   1.035   2.768  0.1030  0.0823  0.5223
 5178SOL    HW127167   1.555   1.095   2.693 -2.7459 -0.0824  0.0853
 5178SOL    HW227168   1.459   1.055   2.801  0.4732  0.1006  1.4874
 5179SOL     OW27169   3.241   1.755   6.216 -0.3112  0.6713 -0.3253
 5179SOL    HW127170   3.170   1.810   6.249  1.8889  3.0320  0.5021
 5179SOL    HW227171   3.302   1.821   6.183  1.7987 -0.0036  2.2324
 5180SOL     OW27172   1.241   0.841   5.291  0.9881 -0.0652 -0.3315
 5180SOL    HW127173   1.307   0.772   5.287  2.3341  1.1154  1.4808
 5180SOL    HW227174   1.296   0.916   5.310 -0.4412  1.0247 -0.4909
 5181SOL     OW27175   0.986   0.262   0.143  0.0509 -0.2441  0.2028
 5181SOL    HW127176   0.911   0.318   0.156  0.2898  0.0015  0.5135
 5181SOL    HW227177   0.949   0.175   0.161 -1.8823  0.3517 -0.8996
 5182SOL     OW27178   0.046   0.111  16.596  0.1172  0.1688  0.0064
 5182SOL    HW127179   0.117   0.094  16.534 -0.9910 -0.2218 -1.1627
 5182SOL    HW227180   0.044   0.206  16.601 -1.7935  0.1577 -0.6639
 5183SOL     OW27181   1.976   4.489  12.509  0.1586 -0.3383 -0.4963
 5183SOL    HW127182   2.027   4.436  12.448  2.3126  1.3934 -0.1976
 5183SOL    HW227183   1.902   4.429  12.518 -1.0601  0.7983 -2.8597
 5184SOL     OW27184   1.124   1.190  13.163 -0.1099  0.3786  0.0324
 5184SOL    HW127185   1.140   1.105  13.204 -2.4963  0.1711  0.5672
 5184SOL    HW227186   1.031   1.199  13.186 -0.0446 -1.0476  0.8105
 5185SOL     OW27187   2.386   0.280   5.936  0.1289  0.1465 -0.2512
 5185SOL    HW127188   2.380   0.202   5.881 -0.6759  0.0650 -0.0456
 5185SOL    HW227189   2.344   0.348   5.884  0.0329  0.9397  0.8555
 5186SOL     OW27190   4.420   2.049  13.414  0.3076  0.3151  0.1835
 5186SOL    HW127191   4.429   2.027  13.507 -1.5040 -0.9252  0.0653
 5186SOL    HW227192   4.511   2.042  13.385  0.8909 -0.9670  2.2790
 5187SOL     OW27193   4.600   2.854   9.384  0.4608  0.3147 -0.6897
 5187SOL    HW127194   4.694   2.857   9.398  0.2850  2.0492  0.0725
 5187SOL    HW227195   4.573   2.944   9.403  1.0173  0.3627 -0.1350
 5188SOL     OW27196   2.915   1.605   6.200  0.4667  0.4982 -0.1843
 5188SOL    HW127197   2.880   1.655   6.275  0.7705 -2.0935  1.6947
 5188SOL    HW227198   2.909   1.661   6.123  2.7137  0.4805 -0.3548
 5189SOL     OW27199   3.338   4.144   2.317 -0.0719  0.0682 -0.2811
 5189SOL    HW127200   3.253   4.129   2.358 -0.0208  0.8260  0.0943
 5189SOL    HW227201   3.316   4.218   2.260 -1.1981 -0.9184 -1.1426
 5190SOL     OW27202   4.290   3.037   1.314  0.6774 -0.6545  0.4199
 5190SOL    HW127203   4.322   3.042   1.224 -0.6577  2.0737  0.1132
 5190SOL    HW227204   4.360   3.088   1.354 -0.8605  0.9931  1.0077
 5191SOL     OW27205   4.559   2.269  12.331 -0.0818  0.6242  0.2026
 5191SOL    HW127206   4.569   2.334  12.262 -0.0207  1.1386  0.6969
 5191SOL    HW227207   4.578   2.185  12.288  0.4082 -0.9848  3.6037
 5192SOL     OW27208   3.579   0.620  11.375 -0.0113  0.3212 -0.2081
 5192SOL    HW127209   3.554   0.710  11.396 -1.2384 -0.1915  0.4984
 5192SOL    HW227210   3.496   0.573  11.376 -0.0255  0.3907  1.6424
 5193SOL     OW27211   2.633   1.332  14.841 -0.1016  0.3485  0.4669
 5193SOL    HW127212   2.677   1.399  14.787 -1.9715  1.5981  0.4827
 5193SOL    HW227213   2.583   1.387  14.902 -2.1563  0.0484 -0.9381
 5194SOL     OW27214   2.176   0.963   1.629  0.1486 -0.6280 -0.0635
 5194SOL    HW127215   2.220   0.944   1.546 -1.0195  0.1745 -0.8697
 5194SOL    HW227216   2.167   0.873   1.659 -1.1430 -0.2069  0.8023
 5195SOL     OW27217   2.758   3.354   6.406  0.3745 -0.8543 -0.4769
 5195SOL    HW127218   2.817   3.367   6.480  0.8492 -0.8789 -0.8458
 5195SOL    HW227219   2.676   3.394   6.436 -0.1884 -1.0977 -1.6828
 5196SOL     OW27220   4.515   1.248   6.569 -0.4020  0.2796 -0.5335
 5196SOL    HW127221   4.550   1.336   6.555 -2.0037  0.8033 -1.2907
 5196SOL    HW227222   4.550   1.214   6.486  0.7229  0.0884  0.0307
 5197SOL     OW27223   3.291   2.743  16.461  0.3748  0.1705 -0.7790
 5197SOL    HW127224   3.264   2.833  16.480 -2.0188 -0.1667 -2.5235
 5197SOL    HW227225   3.332   2.721  16.545 -1.9107 -0.9539  0.0590
 5198SOL     OW27226   4.146   4.728   2.065 -0.0281 -0.1568 -0.4090
 5198SOL    HW127227   4.158   4.634   2.072  0.3305  0.2345  4.3067
 5198SOL    HW227228   4.116   4.731   1.974  1.2202 -2.2834 -0.8876
 5199SOL     OW27229   4.536   1.018  12.026  0.6882  0.0608  0.6175
 5199SOL    HW127230   4.625   1.010  12.062  0.7639  0.3208  0.4916
 5199SOL    HW227231   4.510   1.100  12.069  1.3159  1.1910 -1.1733
 5200SOL     OW27232   0.264   3.566   3.838 -0.1017  0.1636 -0.4702
 5200SOL    HW127233   0.299   3.646   3.878 -1.3235  0.3740  0.1774
 5200SOL    HW227234   0.345   3.518   3.819 -0.5969 -0.3113 -1.3733
 5201SOL     OW27235   0.734   1.908   9.888 -0.5053  0.4431 -0.9976
 5201SOL    HW127236   0.768   1.911   9.977 -0.7011 -1.2693 -0.8497
 5201SOL    HW227237   0.806   1.880   9.830  0.4476 -1.8771  1.2834
 5202SOL     OW27238   2.233   2.817   4.837 -0.4964  0.2124  0.2592
 5202SOL    HW127239   2.281   2.762   4.899  0.0860 -0.1687 -0.5393
 5202SOL    HW227240   2.186   2.757   4.780  0.0848  0.6305 -0.6583
 5203SOL     OW27241   2.697   2.244   9.232 -0.2151 -0.0263  0.0046
 5203SOL    HW127242   2.734   2.332   9.222 -1.5391  0.7340  1.8349
 5203SOL    HW227243   2.669   2.243   9.324  2.5124 -1.2495  0.8280
 5204SOL     OW27244   0.824   3.950   2.198  0.4478 -0.1410 -0.2591
 5204SOL    HW127245   0.738   3.981   2.225  1.3495  1.5094  0.7024
 5204SOL    HW227246   0.855   4.025   2.147  4.4783 -0.0463  2.3952
 5205SOL     OW27247   0.197   1.930   3.956  0.3907  0.2800  0.2806
 5205SOL    HW127248   0.255   1.906   3.883 -0.4755 -2.9560  0.6287
 5205SOL    HW227249   0.143   1.995   3.913  0.5747  0.4370  0.2842
 5206SOL     OW27250   3.759   1.879   2.865  0.0211 -0.2090 -0.6689
 5206SOL    HW127251   3.704   1.801   2.861  1.3271 -1.1881  0.2365
 5206SOL    HW227252   3.842   1.836   2.845  0.5460  0.6041 -0.2597
 5207SOL     OW27253   2.311   1.688  14.129 -0.5403 -0.0554  0.1204
 5207SOL    HW127254   2.281   1.669  14.040 -2.0501 -0.6474  0.7493
 5207SOL    HW227255   2.366   1.613  14.148  0.6986  0.6438 -0.7462
 5208SOL     OW27256   3.371   0.880   0.844 -0.2030 -0.0860 -0.0073
 5208SOL    HW127257   3.389   0.863   0.751 -0.9874 -1.1474  0.0413
 5208SOL    HW227258   3.451   0.918   0.882 -1.9270  0.8394  2.6677
 5209SOL     OW27259   1.528   0.612   2.723  0.5904 -0.2063 -0.1001
 5209SOL    HW127260   1.464   0.582   2.788  2.6247 -0.2289  1.9065
 5209SOL    HW227261   1.468   0.670   2.677  1.7457  1.7325  0.8524
 5210SOL     OW27262   4.486   3.749  16.200  0.0311  0.0501  0.1551
 5210SOL    HW127263   4.414   3.782  16.253  0.2520  2.1685 -0.8556
 5210SOL    HW227264   4.503   3.827  16.147 -0.6700 -0.2228 -0.4913
 5211SOL     OW27265   1.290   0.389   5.774  0.4714  0.2595  0.5549
 5211SOL    HW127266   1.239   0.308   5.765 -1.7655  1.4481  2.6039
 5211SOL    HW227267   1.339   0.384   5.692 -0.2139 -0.1639  0.1735
 5212SOL     OW27268   0.264   3.185  14.922  0.1046 -0.5859 -0.7720
 5212SOL    HW127269   0.340   3.206  14.867  0.2488  2.6664  0.7139
 5212SOL    HW227270   0.234   3.267  14.959  2.1818  0.1773 -0.7738
 5213SOL     OW27271   0.140   4.559   8.361  0.0949  0.5832 -0.0262
 5213SOL    HW127272   0.081   4.633   8.346 -2.6057 -1.4388  0.5995
 5213SOL    HW227273   0.118   4.535   8.451  1.7410  0.8064  0.4396
 5214SOL     OW27274   0.495   0.807   7.345 -0.0430  0.2266  0.4871
 5214SOL    HW127275   0.503   0.864   7.269  0.8055 -0.5078  0.0328
 5214SOL    HW227276   0.550   0.847   7.413 -0.7351  1.1208  0.5157
 5215SOL     OW27277   0.494   2.364   7.770  0.3167  0.3892  0.2990
 5215SOL    HW127278   0.487   2.343   7.864  1.7822  0.9494  0.5286
 5215SOL    HW227279   0.481   2.279   7.728 -0.8785  1.3387 -1.2700
 5216SOL     OW27280   2.224   1.013   4.469 -0.5057  0.4549 -0.2882
 5216SOL    HW127281   2.245   1.072   4.396 -1.7814  0.2881 -0.7820
 5216SOL    HW227282   2.210   1.076   4.539 -2.7976  0.2508 -0.5792
 5217SOL     OW27283   1.281   0.729   3.728 -0.9397 -0.2648  0.0014
 5217SOL    HW127284   1.240   0.803   3.772  2.7527  1.3997  0.5903
 5217SOL    HW227285   1.371   0.761   3.732 -1.1334  0.3237 -0.3991
 5218SOL     OW27286   0.754   0.089   4.697  0.2330 -0.1214  0.1646
 5218SOL    HW127287   0.690   0.156   4.721 -1.3930 -1.6203  0.0862
 5218SOL    HW227288   0.794   0.056   4.778 -0.0115 -1.7141 -0.3561
 5219SOL     OW27289   0.467   0.243   4.142 -0.8581  0.2889 -0.9327
 5219SOL    HW127290   0.409   0.168   4.156  0.6243 -1.2942 -3.2957
 5219SOL    HW227291   0.488   0.263   4.233 -0.1423 -0.6108 -0.9047
 5220SOL     OW27292   3.787   3.332   4.727  0.4159  0.1926  0.1689
 5220SOL    HW127293   3.812   3.424   4.733  1.0443 -0.0738  1.6890
 5220SOL    HW227294   3.693   3.349   4.733 -0.0150 -1.9363 -0.3822
 5221SOL     OW27295   0.808   2.805   9.637  0.0494  0.6172  0.3017
 5221SOL    HW127296   0.718   2.819   9.608  0.5780 -1.0092 -2.1888
 5221SOL    HW227297   0.827   2.730   9.581 -1.2000 -0.4292  1.2939
 5222SOL     OW27298   3.071   3.118   5.779 -0.4351 -0.0167  0.4193
 5222SOL    HW127299   3.135   3.182   5.811 -0.6851  1.0296 -1.1748
 5222SOL    HW227300   3.085   3.050   5.845 -0.3959 -2.2468 -1.8741
 5223SOL     OW27301   0.604   4.379   6.132 -0.2791  0.4874 -0.0510
 5223SOL    HW127302   0.581   4.428   6.210  1.3852  1.7957 -0.3825
 5223SOL    HW227303   0.687   4.339   6.158 -2.3971 -2.3037  2.4278
 5224SOL     OW27304   3.113   2.102   1.358  0.1547 -0.2163 -0.2350
 5224SOL    HW127305   3.091   2.070   1.445 -0.1590  3.5166  1.0748
 5224SOL    HW227306   3.025   2.085   1.323  1.4903 -2.2671 -2.6154
 5225SOL     OW27307   2.231   3.293   9.881 -0.0756 -0.4641  0.4761
 5225SOL    HW127308   2.221   3.200   9.862  1.1759 -0.2306 -1.3724
 5225SOL    HW227309   2.161   3.339   9.834  0.8396 -0.3738 -0.8191
 5226SOL     OW27310   0.863   0.635  13.051 -0.0106 -0.1360 -0.0153
 5226SOL    HW127311   0.801   0.576  13.095 -2.4304  2.2361 -0.2796
 5226SOL    HW227312   0.929   0.654  13.117  0.4033 -0.2069 -0.4125
 5227SOL     OW27313   0.356   1.805   4.483 -0.7217 -0.2616 -0.0328
 5227SOL    HW127314   0.325   1.859   4.411 -0.7450 -0.8550 -0.4597
 5227SOL    HW227315   0.430   1.850   4.525  0.8500 -1.4922 -1.4835
 5228SOL     OW27316   0.517   4.587   8.942  0.0073  0.3425 -0.0769
 5228SOL    HW127317   0.433   4.632   8.930 -0.9245 -1.1637  0.8541
 5228SOL    HW227318   0.569   4.647   8.889  1.1342 -0.2491  0.3632
 5229SOL     OW27319   0.084   4.600   5.133  0.2193 -0.1362  0.1156
 5229SOL    HW127320   4.736   4.640   5.141  0.7151  1.4900 -2.5384
 5229SOL    HW227321   0.138   4.667   5.176 -1.0707 -0.0825  1.6455
 5230SOL     OW27322   2.908   0.904  14.869 -0.2302  0.8338 -0.5186
 5230SOL    HW127323   2.877   0.979  14.919  1.4570  0.8897  0.4654
 5230SOL    HW227324   2.981   0.868  14.920  0.6468  4.2316  0.6219
 5231SOL     OW27325   1.871   2.342   1.758 -0.3205 -0.1760 -0.1836
 5231SOL    HW127326   1.899   2.265   1.710  0.9415 -0.6766  1.3465
 5231SOL    HW227327   1.882   2.320   1.851 -2.1928 -3.1511 -0.6387
 5232SOL     OW27328   0.485   1.355   7.621  0.1810 -0.2480  0.4166
 5232SOL    HW127329   0.574   1.320   7.629  0.4638 -0.5767 -4.0923
 5232SOL    HW227330   0.504   1.435   7.671  0.0379 -0.1341  0.2862
 5233SOL     OW27331   3.639   1.750   2.564 -0.3788 -0.2025 -0.0034
 5233SOL    HW127332   3.558   1.713   2.597  0.2556 -2.4305 -0.9327
 5233SOL    HW227333   3.671   1.687   2.499 -0.1793  0.2069 -0.3047
 5234SOL     OW27334   0.516   3.107   5.555  0.0387  0.4289  0.2824
 5234SOL    HW127335   0.464   3.131   5.632 -1.8179  0.7396 -1.0559
 5234SOL    HW227336   0.505   3.179   5.493 -0.6274  1.4616  1.6022
 5235SOL     OW27337   3.442   1.190  15.268  0.1574  0.0043  0.0771
 5235SOL    HW127338   3.420   1.129  15.198  1.3693 -2.0388  1.4565
 5235SOL    HW227339   3.475   1.259  15.211 -1.3553  1.1147  0.5546
 5236SOL     OW27340   2.731   2.667   8.222 -1.0513 -0.0665 -0.0911
 5236SOL    HW127341   2.794   2.629   8.161 -0.7059  2.3407 -1.2328
 5236SOL    HW227342   2.768   2.621   8.298  0.8816  1.7513  0.0708
 5237SOL     OW27343   2.417   1.530   9.044  0.3895 -0.1316 -0.2654
 5237SOL    HW127344   2.479   1.583   9.094  0.3668 -0.6953  0.3678
 5237SOL    HW227345   2.369   1.594   8.992  0.7743  0.4901  0.1437
 5238SOL     OW27346   2.762   1.133   3.646  0.2892  0.3339  0.6498
 5238SOL    HW127347   2.765   1.050   3.694  1.3779  0.8131  1.4206
 5238SOL    HW227348   2.768   1.095   3.559 -1.3378 -0.3512  0.8319
 5239SOL     OW27349   1.039   4.116   3.110 -0.8595 -0.0314 -0.1106
 5239SOL    HW127350   0.945   4.130   3.120 -0.7682  1.4087 -1.3525
 5239SOL    HW227351   1.039   4.132   3.016  1.0616 -0.9392 -0.2876
 5240SOL     OW27352   4.213   0.379   0.577  1.1255  0.0927  0.0929
 5240SOL    HW127353   4.219   0.323   0.654 -0.2975 -0.7609 -0.4125
 5240SOL    HW227354   4.249   0.462   0.607 -0.5862  1.3293 -1.2852
 5241SOL     OW27355   1.984   4.257   8.561  0.5661  0.1600 -0.0243
 5241SOL    HW127356   1.893   4.259   8.591  0.3887  1.9135 -0.6708
 5241SOL    HW227357   1.968   4.252   8.467 -2.0067  1.2494  0.3532
 5242SOL     OW27358   3.821   1.139   2.978  0.0258  0.6638  0.0797
 5242SOL    HW127359   3.757   1.163   2.911 -1.0269 -2.3482  0.0475
 5242SOL    HW227360   3.880   1.214   2.962 -1.3565  1.7733  0.2340
 5243SOL     OW27361   1.532   1.212  16.958 -0.2123 -0.4906  0.1713
 5243SOL    HW127362   1.622   1.223  16.929 -0.1565  3.3831  1.7712
 5243SOL    HW227363   1.525   1.249  17.046 -1.5388 -1.2697  0.3991
 5244SOL     OW27364   0.712   4.567   7.364  0.0318  0.3827  0.2557
 5244SOL    HW127365   0.741   4.516   7.439 -0.8853  0.7662  0.8662
 5244SOL    HW227366   0.717   4.650   7.410 -1.3633 -0.4620  1.9361
 5245SOL     OW27367   2.085   1.553   3.072  0.5217 -0.1586 -0.0618
 5245SOL    HW127368   2.021   1.491   3.107 -0.2752  0.6016 -0.1661
 5245SOL    HW227369   2.083   1.525   2.980 -1.2399 -0.0143 -0.0823
 5246SOL     OW27370   3.977   1.639  16.712 -0.1840 -0.1445  0.0431
 5246SOL    HW127371   4.008   1.726  16.738  1.1622 -0.2939 -1.0524
 5246SOL    HW227372   3.991   1.646  16.618  1.0882  1.3599  0.3331
 5247SOL     OW27373   3.768   4.176   4.150 -0.1838 -0.0610 -0.3216
 5247SOL    HW127374   3.685   4.201   4.108 -0.8229  2.9370  2.6981
 5247SOL    HW227375   3.794   4.097   4.102  0.1997 -0.0565 -0.1146
 5248SOL     OW27376   2.609   0.601   6.036  0.7133  0.1753 -0.0119
 5248SOL    HW127377   2.683   0.543   6.053 -0.0194 -0.3625  1.3488
 5248SOL    HW227378   2.618   0.614   5.942 -0.5617  0.3846 -0.1033
 5249SOL     OW27379   1.628   3.826  14.297  0.0558 -0.7939 -0.2939
 5249SOL    HW127380   1.638   3.899  14.237  1.0643  0.6053  1.5885
 5249SOL    HW227381   1.579   3.760  14.247 -1.5766  2.5502 -3.0958
 5250SOL     OW27382   4.487   4.295  11.974  0.3141 -0.0942 -0.2602
 5250SOL    HW127383   4.417   4.234  12.000 -0.6254  0.1084 -2.3487
 5250SOL    HW227384   4.427   4.365  11.953 -1.6291 -1.3791  1.0076
 5251SOL     OW27385   1.170   3.208  16.759 -0.1662  0.0833  0.2309
 5251SOL    HW127386   1.156   3.184  16.850 -0.7908  1.1543  0.4179
 5251SOL    HW227387   1.263   3.190  16.746  0.0254  0.2744  1.3784
 5252SOL     OW27388   4.692   1.334   2.019  0.7796 -0.6262  0.3946
 5252SOL    HW127389   4.687   1.346   1.924  0.0290  0.7140  0.6126
 5252SOL    HW227390   4.605   1.302   2.045  0.3269 -0.0994 -0.4794
 5253SOL     OW27391   3.735   4.077  15.432 -0.0303  0.6414  0.2636
 5253SOL    HW127392   3.825   4.097  15.405 -0.5548  1.3854 -0.9408
 5253SOL    HW227393   3.731   4.122  15.517  0.6522  1.7355 -0.2847
 5254SOL     OW27394   3.307   1.817   5.937 -0.2877  0.4871 -0.7249
 5254SOL    HW127395   3.237   1.753   5.955 -0.3593  0.7105 -0.2194
 5254SOL    HW227396   3.381   1.761   5.914 -0.9431 -0.2838 -0.9509
 5255SOL     OW27397   3.369   3.830   6.154 -0.1541 -0.2773  0.3224
 5255SOL    HW127398   3.284   3.789   6.135 -0.3608 -0.0945  0.8563
 5255SOL    HW227399   3.371   3.878   6.071 -1.1560 -1.7765 -0.5862
 5256SOL     OW27400   0.337   0.180   6.371  1.1988 -0.0277  0.1158
 5256SOL    HW127401   0.357   0.184   6.278  0.4170  0.2012 -0.0376
 5256SOL    HW227402   0.426   0.207   6.392  0.9534 -0.2954  1.5307
 5257SOL     OW27403   2.516   0.421   6.672  0.1492  0.5275  0.2962
 5257SOL    HW127404   2.552   0.340   6.635  0.4474  1.0888 -0.6440
 5257SOL    HW227405   2.433   0.425   6.625 -0.3881  0.8825  1.2908
 5258SOL     OW27406   2.064   4.384   7.311  0.1195 -0.1772 -0.3388
 5258SOL    HW127407   2.131   4.315   7.317 -0.1509 -0.2415  1.9157
 5258SOL    HW227408   2.097   4.447   7.375 -1.5782  2.1237 -1.7701
 5259SOL     OW27409   0.863   2.701   4.452  0.6761 -0.4747 -0.1499
 5259SOL    HW127410   0.919   2.654   4.513  0.6274  0.5224  0.6704
 5259SOL    HW227411   0.909   2.785   4.453 -0.1057 -0.0563  1.1404
 5260SOL     OW27412   3.577   0.791   2.807  0.0881  0.3330  0.0115
 5260SOL    HW127413   3.527   0.783   2.889  0.7949 -1.5196  0.2673
 5260SOL    HW227414   3.529   0.735   2.746 -1.7768  0.7705  1.0884
 5261SOL     OW27415   0.578   1.004   5.675  0.1098  0.2118  0.6609
 5261SOL    HW127416   0.512   1.057   5.721 -1.5829  0.2953 -1.8943
 5261SOL    HW227417   0.628   0.982   5.754 -0.0408 -0.7500  0.4832
 5262SOL     OW27418   3.617   0.736  10.825  0.0428 -0.5541  0.2455
 5262SOL    HW127419   3.641   0.724  10.917  0.9576  0.6876  0.1700
 5262SOL    HW227420   3.705   0.723  10.790 -0.5028 -1.0197 -0.9775
 5263SOL     OW27421   1.438   3.079   5.601  0.2418  0.1180 -0.4251
 5263SOL    HW127422   1.524   3.060   5.638 -0.1221 -1.0363 -0.1718
 5263SOL    HW227423   1.456   3.167   5.568  0.4538 -1.0239 -3.3615
 5264SOL     OW27424   1.932   0.161   1.846  0.1136 -0.1665  0.2959
 5264SOL    HW127425   1.837   0.156   1.853  0.2400 -2.4233  0.2025
 5264SOL    HW227426   1.946   0.213   1.926 -3.2330 -0.0019  0.7557
 5265SOL     OW27427   3.078   0.562   1.449  0.1530  0.0419 -0.2723
 5265SOL    HW127428   3.153   0.576   1.506  0.6973  0.9104 -1.2180
 5265SOL    HW227429   3.108   0.583   1.361  0.4121 -0.9983 -0.4344
 5266SOL     OW27430   0.485   3.430   3.780 -0.8441  0.4161 -0.5751
 5266SOL    HW127431   0.547   3.480   3.833 -0.1178  0.2638 -1.2811
 5266SOL    HW227432   0.536   3.419   3.699  0.1658 -0.3511  0.1610
 5267SOL     OW27433   0.096   1.860  12.694 -0.0653 -0.0300  0.3172
 5267SOL    HW127434   0.025   1.923  12.681 -1.0814 -1.4124 -0.7366
 5267SOL    HW227435   0.094   1.835  12.602  3.1632 -0.4107  0.3577
 5268SOL     OW27436   1.429   1.813   4.828 -0.2520  0.0972 -0.2417
 5268SOL    HW127437   1.382   1.845   4.905 -0.8101 -2.9805  0.7167
 5268SOL    HW227438   1.408   1.881   4.764  1.5570  1.6249  0.7811
 5269SOL     OW27439   4.121   0.136  11.961  0.5352  0.1639  0.8418
 5269SOL    HW127440   4.098   0.224  11.992  1.8799  0.3352  1.3481
 5269SOL    HW227441   4.109   0.088  12.043  0.5921  1.0535  1.3699
 5270SOL     OW27442   0.956   1.512   7.737  0.9979 -0.0414 -0.2756
 5270SOL    HW127443   0.881   1.452   7.735  1.4670 -0.6060 -1.5411
 5270SOL    HW227444   0.978   1.515   7.644  0.1920  0.9632 -0.4366
 5271SOL     OW27445   1.515   3.948   8.630 -0.2660  0.0649  0.4160
 5271SOL    HW127446   1.590   3.976   8.577 -0.2859 -1.1356 -0.2301
 5271SOL    HW227447   1.473   4.032   8.648 -1.1755 -0.2658 -0.1994
 5272SOL     OW27448   3.460   2.266   8.305  0.5809  0.0174  0.1921
 5272SOL    HW127449   3.426   2.355   8.313  3.4316  1.0939  0.1511
 5272SOL    HW227450   3.424   2.228   8.385  1.1767 -0.1312  0.3910
 5273SOL     OW27451   0.319   3.874  12.095 -0.6485 -0.0098  0.2977
 5273SOL    HW127452   0.246   3.851  12.037  1.4258 -0.9265 -1.9279
 5273SOL    HW227453   0.318   3.802  12.158  0.2331  0.9508  1.4252
 5274SOL     OW27454   3.489   2.821  11.771 -0.1276 -0.4521  0.0271
 5274SOL    HW127455   3.496   2.741  11.719  2.3294 -0.3714  0.2612
 5274SOL    HW227456   3.419   2.797  11.832 -0.2992  1.0873  0.4463
 5275SOL     OW27457   2.319   3.379   8.242  0.3618  0.2719  0.2031
 5275SOL    HW127458   2.233   3.419   8.259  0.6414  1.4370 -1.1795
 5275SOL    HW227459   2.340   3.342   8.328 -1.0712  2.3798  1.4692
 5276SOL     OW27460   1.030   1.480   7.494 -0.0060 -0.1002  0.1364
 5276SOL    HW127461   0.990   1.428   7.424 -2.2046  1.6431  0.0968
 5276SOL    HW227462   1.121   1.451   7.485 -1.0303 -2.2704 -2.9009
 5277SOL     OW27463   1.278   1.796   7.463 -0.6296 -0.0105  0.1120
 5277SOL    HW127464   1.355   1.740   7.459  1.0250  2.2394  0.3029
 5277SOL    HW227465   1.224   1.770   7.537  1.0729 -0.2244  1.2706
 5278SOL     OW27466   1.240   4.126   9.635 -0.5649 -0.1756 -0.2030
 5278SOL    HW127467   1.314   4.151   9.580  1.2203 -2.3330  1.2164
 5278SOL    HW227468   1.218   4.213   9.668 -1.8700 -0.4647 -0.3204
 5279SOL     OW27469   3.697   1.135   2.514  0.2251 -0.2328 -0.2793
 5279SOL    HW127470   3.730   1.056   2.472  0.8100  0.3480 -0.9111
 5279SOL    HW227471   3.762   1.195   2.478  0.5359  0.3425  1.2463
 5280SOL     OW27472   2.754   3.426   3.303 -0.1640 -0.1656  0.3894
 5280SOL    HW127473   2.824   3.492   3.297 -0.1516 -0.0769  1.5126
 5280SOL    HW227474   2.675   3.464   3.340 -0.3532 -0.5425  0.3719
 5281SOL     OW27475   2.291   1.154   7.917 -0.3121 -0.3527  0.1439
 5281SOL    HW127476   2.384   1.170   7.899 -0.6195  1.1004 -0.1233
 5281SOL    HW227477   2.304   1.077   7.973  1.6129 -0.8460 -0.9745
 5282SOL     OW27478   0.397   3.166  15.714  0.2537  0.7732  0.2300
 5282SOL    HW127479   0.365   3.122  15.636 -2.1809 -0.2281  1.7884
 5282SOL    HW227480   0.442   3.238  15.670 -1.2582  1.9682  0.6565
 5283SOL     OW27481   3.795   3.466   7.954  0.2499 -0.1064 -0.1430
 5283SOL    HW127482   3.774   3.527   8.024 -0.9135 -1.2546  0.5073
 5283SOL    HW227483   3.772   3.521   7.879 -1.3941 -1.0981 -0.3696
 5284SOL     OW27484   2.072   2.233  15.175  0.2915 -0.0117  0.0853
 5284SOL    HW127485   1.978   2.251  15.172  0.2970 -0.1560 -0.9840
 5284SOL    HW227486   2.076   2.152  15.125 -0.7533 -0.1302  0.1989
 5285SOL     OW27487   0.520   3.570  16.585 -0.0991 -0.5606 -0.1493
 5285SOL    HW127488   0.555   3.593  16.671 -1.1058 -0.6125  0.2865
 5285SOL    HW227489   0.569   3.493  16.557  1.4135  1.0204 -1.8539
 5286SOL     OW27490   1.377   4.287   9.180  0.0846 -0.1082  0.2834
 5286SOL    HW127491   1.446   4.327   9.126 -2.1254  2.6445 -0.4908
 5286SOL    HW227492   1.366   4.358   9.244  1.7535  1.0623 -0.7293
 5287SOL     OW27493   0.355   1.793  12.798  0.2690  0.2333  0.4074
 5287SOL    HW127494   0.349   1.766  12.890  0.9201 -0.6459  0.1979
 5287SOL    HW227495   0.265   1.798  12.766  0.2537 -0.1964  0.3851
 5288SOL     OW27496   1.160   0.282   6.574 -0.0940 -0.4442  0.0274
 5288SOL    HW127497   1.159   0.334   6.494  0.5727 -0.4239  0.0389
 5288SOL    HW227498   1.181   0.350   6.638  0.8491 -2.7621  2.2109
 5289SOL     OW27499   0.237   0.466   3.767  0.2059  0.3161 -0.3550
 5289SOL    HW127500   0.311   0.429   3.815 -1.0996  0.9838  2.2253
 5289SOL    HW227501   0.276   0.528   3.706  1.5073  1.6939  1.8951
 5290SOL     OW27502   2.568   4.328   9.441  0.7461 -0.1905  0.0390
 5290SOL    HW127503   2.488   4.310   9.392  0.9744 -0.7694 -0.1124
 5290SOL    HW227504   2.577   4.418   9.410 -3.8092  0.3563  0.2057
 5291SOL     OW27505   1.155   4.356   8.855  0.0935 -0.5174  0.3222
 5291SOL    HW127506   1.164   4.451   8.860 -1.6527 -0.1971 -2.6378
 5291SOL    HW227507   1.060   4.344   8.866  0.0093 -0.2249 -0.0981
 5292SOL     OW27508   1.412   1.480   6.181 -0.4928  0.7396 -0.0228
 5292SOL    HW127509   1.385   1.427   6.256 -0.2663  0.7920  0.0973
 5292SOL    HW227510   1.496   1.438   6.164  0.7528  3.8621 -1.6208
 5293SOL     OW27511   1.968   0.418   9.867 -0.1030  0.0037 -0.3768
 5293SOL    HW127512   1.915   0.340   9.884  1.1426 -0.8555 -0.4786
 5293SOL    HW227513   1.943   0.432   9.775  2.6853  0.6624 -1.0113
 5294SOL     OW27514   3.547   0.369   5.799 -0.2303 -0.2839  0.3799
 5294SOL    HW127515   3.471   0.315   5.780 -0.3630 -0.3814  1.1859
 5294SOL    HW227516   3.577   0.404   5.716 -0.9933 -1.2756 -0.3113
 5295SOL     OW27517   2.438   1.539   9.407  0.0504 -0.1004 -0.6987
 5295SOL    HW127518   2.366   1.502   9.356 -0.0512 -1.7853  0.6900
 5295SOL    HW227519   2.419   1.489   9.486  1.1129  1.3867  0.4947
 5296SOL     OW27520   3.814   4.244  13.565  0.3794 -0.0164 -0.3575
 5296SOL    HW127521   3.896   4.221  13.521  1.0285  0.6524  0.4998
 5296SOL    HW227522   3.848   4.272  13.650  2.4958 -1.6345 -0.6713
 5297SOL     OW27523   4.732   0.765   2.322 -0.5137  0.2492 -0.3679
 5297SOL    HW127524   4.656   0.715   2.292  0.0168 -1.3234  0.8989
 5297SOL    HW227525   0.006   0.728   2.409  2.9921 -1.1345 -1.4721
 5298SOL     OW27526   4.707   3.257  12.692  0.2038 -0.3591  0.3746
 5298SOL    HW127527   4.657   3.185  12.730  1.9636 -0.1860  3.0478
 5298SOL    HW227528   0.047   3.251  12.747  1.4857 -2.3295 -1.6348
 5299SOL     OW27529   0.609   0.212  13.106 -0.4177 -0.1971 -0.6018
 5299SOL    HW127530   0.609   0.306  13.089 -1.2671 -0.5292 -2.4309
 5299SOL    HW227531   0.669   0.205  13.181 -0.6098  0.3459 -0.3955
 5300SOL     OW27532   2.121   2.497   3.513  0.2640  0.5855  0.0591
 5300SOL    HW127533   2.105   2.588   3.487 -0.9863  0.2765 -0.2420
 5300SOL    HW227534   2.172   2.461   3.441  1.0709 -0.0191  0.9356
 5301SOL     OW27535   0.882   2.598   6.277 -0.2098  1.2352 -0.3816
 5301SOL    HW127536   0.895   2.584   6.371  0.8763  1.1463 -0.5430
 5301SOL    HW227537   0.943   2.670   6.260 -1.4642  2.0711 -1.3386
 5302SOL     OW27538   4.556   0.849  17.420  0.0086 -0.2077 -0.0743
 5302SOL    HW127539   4.544   0.799  17.500 -2.6085  0.3290 -0.1192
 5302SOL    HW227540   4.552   0.937  17.457 -0.3933 -0.2392 -0.0489
 5303SOL     OW27541   0.288   3.876   3.676 -0.0405 -0.9506 -0.2993
 5303SOL    HW127542   0.193   3.881   3.680  0.1671  2.1476  0.9159
 5303SOL    HW227543   0.315   3.857   3.766 -1.8078 -0.5115  0.3185
 5304SOL     OW27544   2.674   2.527   0.607  0.1838  0.3626  0.0923
 5304SOL    HW127545   2.602   2.550   0.667  0.2893  1.0388 -0.0444
 5304SOL    HW227546   2.702   2.438   0.630 -0.4547 -0.0849 -0.8338
 5305SOL     OW27547   0.001   0.322  14.172 -0.3507 -0.2979  0.1180
 5305SOL    HW127548   4.673   0.310  14.104  0.6935  1.6965 -1.2601
 5305SOL    HW227549   4.714   0.247  14.226 -1.3645  1.9163  2.7726
 5306SOL     OW27550   2.260   1.892  16.402  0.4827  0.1397 -0.2902
 5306SOL    HW127551   2.304   1.970  16.368  1.5119 -1.1540 -1.9441
 5306SOL    HW227552   2.272   1.848  16.318  1.3517 -0.6795  0.2620
 5307SOL     OW27553   2.701   1.609  13.528  1.0930  0.6285 -0.1080
 5307SOL    HW127554   2.712   1.676  13.595 -0.5034  2.2802 -1.5047
 5307SOL    HW227555   2.788   1.586  13.497  1.4960 -0.0337  1.4866
 5308SOL     OW27556   2.902   2.712   1.819  0.5607 -0.6385  0.2977
 5308SOL    HW127557   2.808   2.704   1.799  0.3257 -0.8615  1.5122
 5308SOL    HW227558   2.901   2.714   1.914  1.4136 -1.7139  0.3248
 5309SOL     OW27559   1.331   3.427   1.753  0.0622  0.8416 -0.2003
 5309SOL    HW127560   1.303   3.424   1.661  0.3925 -1.6938 -0.2310
 5309SOL    HW227561   1.423   3.407   1.735 -0.3012 -0.6168 -0.4046
 5310SOL     OW27562   4.271   0.294   8.341 -1.2087  0.2808 -0.1128
 5310SOL    HW127563   4.201   0.300   8.276 -0.4706  1.9124 -0.7744
 5310SOL    HW227564   4.221   0.235   8.398  0.7207 -0.4307  0.8514
 5311SOL     OW27565   0.491   2.008   7.328 -0.0632  0.0013 -0.4061
 5311SOL    HW127566   0.457   1.942   7.389 -0.0339 -0.1180 -0.5199
 5311SOL    HW227567   0.572   1.968   7.296 -1.1854 -1.6227 -1.2102
 5312SOL     OW27568   0.528   3.121  14.676  0.1596 -0.5489  0.1784
 5312SOL    HW127569   0.508   3.051  14.739  2.7420 -0.5481  1.0003
 5312SOL    HW227570   0.473   3.192  14.709 -1.6250 -2.3831  1.1565
 5313SOL     OW27571   4.082   4.136   6.984  0.2104 -0.6029  0.1047
 5313SOL    HW127572   4.165   4.116   7.026  0.6105  2.3296  0.6930
 5313SOL    HW227573   4.090   4.231   6.973  2.6783 -1.0138 -1.5682
 5314SOL     OW27574   3.600   2.514   0.473  0.3344  0.3694 -0.2468
 5314SOL    HW127575   3.533   2.475   0.416 -1.5813  1.6052  1.1859
 5314SOL    HW227576   3.640   2.433   0.504 -0.4004 -0.0835 -0.4691
 5315SOL     OW27577   0.670   3.322   9.219  0.6738 -0.4322  0.2815
 5315SOL    HW127578   0.755   3.354   9.249 -0.1407  1.8181  0.1383
 5315SOL    HW227579   0.614   3.367   9.282  0.2932 -1.7247  0.8622
 5316SOL     OW27580   2.823   1.860   0.421  0.2894 -0.0301  0.1218
 5316SOL    HW127581   2.886   1.931   0.414  2.1453 -1.5595  1.3889
 5316SOL    HW227582   2.878   1.797   0.467  1.5678 -0.1749 -1.6091
 5317SOL     OW27583   1.083   0.083   4.484 -0.2213  1.0288  0.2653
 5317SOL    HW127584   1.155   0.139   4.513 -1.0194  2.1359  0.1203
 5317SOL    HW227585   1.009   0.143   4.494  0.2619  1.6897 -0.1233
 5318SOL     OW27586   1.593   0.857   5.701  0.6199  0.1335  0.4523
 5318SOL    HW127587   1.505   0.825   5.686  0.2298  1.3009  0.2276
 5318SOL    HW227588   1.613   0.806   5.779  0.0735 -2.3139 -1.0247
 5319SOL     OW27589   2.845   1.349   7.775 -0.4584 -0.0246 -0.2184
 5319SOL    HW127590   2.786   1.277   7.753 -1.1429 -0.1119  1.9252
 5319SOL    HW227591   2.912   1.327   7.710  0.2942  2.4082 -0.2677
 5320SOL     OW27592   2.838   2.057   8.801  0.1744  0.7137  0.4320
 5320SOL    HW127593   2.932   2.047   8.786  0.2905  3.9412 -0.8693
 5320SOL    HW227594   2.845   2.051   8.896 -0.9709  1.2176  0.5411
 5321SOL     OW27595   0.781   4.504   2.014  0.3127  0.3511  0.4017
 5321SOL    HW127596   0.700   4.477   1.971  1.1325 -0.9773 -0.3182
 5321SOL    HW227597   0.758   4.596   2.023  1.2904  0.7115 -0.7530
 5322SOL     OW27598   3.067   1.267  15.066 -0.8202 -0.5503 -0.1606
 5322SOL    HW127599   3.129   1.198  15.043 -0.3695  0.5977 -2.4249
 5322SOL    HW227600   3.076   1.337  15.001  1.1066  0.2953  0.9988
 5323SOL     OW27601   0.836   0.485  15.692  0.3716  0.5584  0.0554
 5323SOL    HW127602   0.809   0.398  15.718 -1.2463  1.2717  0.7472
 5323SOL    HW227603   0.787   0.543  15.751  0.7785  1.2296 -0.2635
 5324SOL     OW27604   4.400   4.685   5.656  0.2721 -0.5082 -0.1524
 5324SOL    HW127605   4.486   4.651   5.633  0.8462  1.0341 -0.2766
 5324SOL    HW227606   4.364   4.610   5.702 -0.7738 -0.4002 -0.7638
 5325SOL     OW27607   3.970   1.581   8.426 -0.1441 -0.0076  0.6132
 5325SOL    HW127608   3.929   1.668   8.420 -0.7874 -0.2953  0.7750
 5325SOL    HW227609   4.061   1.610   8.416  0.2422 -0.7859  1.8710
 5326SOL     OW27610   3.196   4.408   2.268 -0.0407  0.2241 -0.5901
 5326SOL    HW127611   3.105   4.400   2.295  0.0014 -0.3368 -0.6111
 5326SOL    HW227612   3.199   4.469   2.194  0.5001  1.4432  0.4434
 5327SOL     OW27613   3.233   1.127   0.530  0.3123  0.3112  0.3939
 5327SOL    HW127614   3.218   1.063   0.460 -0.3105 -0.6404  1.3967
 5327SOL    HW227615   3.325   1.151   0.518  0.1911  0.1839 -0.7886
 5328SOL     OW27616   0.704   0.393   1.669 -0.1932  0.1995  0.8219
 5328SOL    HW127617   0.671   0.378   1.580  2.3060 -0.2423 -0.0367
 5328SOL    HW227618   0.698   0.488   1.669 -3.1793  0.0104 -2.0828
 5329SOL     OW27619   2.631   0.274  13.250  0.7152 -0.4475  0.2030
 5329SOL    HW127620   2.615   0.356  13.297  0.0910 -0.3534 -0.1746
 5329SOL    HW227621   2.721   0.279  13.218  0.5126  0.1542 -0.2591
 5330SOL     OW27622   1.718   2.479   4.468 -0.1487  0.3616 -0.4521
 5330SOL    HW127623   1.724   2.408   4.533 -1.4418 -0.1121 -0.8612
 5330SOL    HW227624   1.652   2.532   4.511  2.3972  1.7966  1.7106
 5331SOL     OW27625   3.334   1.075  13.058 -0.4653  0.0571 -0.5400
 5331SOL    HW127626   3.243   1.076  13.089 -0.7580 -0.8925 -1.3853
 5331SOL    HW227627   3.353   1.168  13.048 -2.6801  0.6434  0.8237
 5332SOL     OW27628   3.004   4.145   7.917 -0.1492  0.3820  0.2797
 5332SOL    HW127629   2.921   4.168   7.958  0.2481  0.1607  1.2066
 5332SOL    HW227630   3.025   4.059   7.955 -1.2106  0.7064  1.6054
 5333SOL     OW27631   1.013   2.862   2.846 -0.5883 -0.2042 -1.2070
 5333SOL    HW127632   1.025   2.773   2.814  1.0600 -0.5940  0.4705
 5333SOL    HW227633   1.056   2.851   2.931  0.7439 -0.0164 -1.8589
 5334SOL     OW27634   4.671   0.371   0.007 -0.2111 -0.1535  0.2267
 5334SOL    HW127635   4.608   0.313   0.050 -0.5932  0.0773 -0.0240
 5334SOL    HW227636   4.684   0.325  17.675  1.9598  0.8916 -0.0148
 5335SOL     OW27637   3.599   1.327   0.206  0.9913  0.9529 -0.6281
 5335SOL    HW127638   3.658   1.377   0.148 -0.4920  1.2054 -1.9202
 5335SOL    HW227639   3.522   1.333   0.150  1.1703  0.3724 -0.9432
 5336SOL     OW27640   0.675   2.310   5.484  0.0023  0.2072  0.4268
 5336SOL    HW127641   0.699   2.236   5.539 -1.8377 -0.9407 -0.3114
 5336SOL    HW227642   0.582   2.319   5.507  0.0770 -0.5938  1.0681
 5337SOL     OW27643   1.791   3.231   3.997  0.6703  0.4593 -0.0945
 5337SOL    HW127644   1.810   3.144   4.030  2.4120  1.3548  1.2888
 5337SOL    HW227645   1.716   3.224   3.939  0.5748 -2.6679  0.4167
 5338SOL     OW27646   3.235   1.336   4.786 -0.6585 -0.0834 -0.1469
 5338SOL    HW127647   3.169   1.294   4.731 -1.3139  1.7061 -0.7004
 5338SOL    HW227648   3.255   1.420   4.746  2.1619 -0.7122 -0.0938
 5339SOL     OW27649   4.688   4.083   8.835 -0.0773  0.2424  0.1801
 5339SOL    HW127650   4.666   4.176   8.845 -1.0757  0.2926 -2.4029
 5339SOL    HW227651   4.598   4.052   8.847 -0.8025  1.5928 -1.7924
 5340SOL     OW27652   0.520   2.209   2.006 -0.3163 -0.2498  0.4908
 5340SOL    HW127653   0.435   2.212   1.964 -0.5067 -1.4559  0.7911
 5340SOL    HW227654   0.564   2.151   1.943  0.2390  0.9782 -0.2479
 5341SOL     OW27655   1.176   1.041   6.422 -0.1647 -0.1121  0.1993
 5341SOL    HW127656   1.127   1.111   6.465  0.4326  0.2520  0.2932
 5341SOL    HW227657   1.216   1.001   6.499 -0.4880 -2.8938 -1.0742
 5342SOL     OW27658   4.221   1.151  16.821 -0.6739 -0.2467 -0.1354
 5342SOL    HW127659   4.267   1.073  16.851 -1.0004 -0.2382  0.4000
 5342SOL    HW227660   4.160   1.123  16.753  0.2373  0.2623 -1.1625
 5343SOL     OW27661   3.356   3.818   1.441 -0.2436 -0.2790  0.1223
 5343SOL    HW127662   3.266   3.841   1.419  0.1477 -1.3668 -2.7021
 5343SOL    HW227663   3.337   3.756   1.511 -1.5683 -1.0660 -0.9430
 5344SOL     OW27664   3.879   1.415  12.108  0.1852  0.1621  0.1406
 5344SOL    HW127665   3.801   1.454  12.149 -0.0385  0.7874 -0.8620
 5344SOL    HW227666   3.945   1.425  12.177  1.4813  0.9163 -1.2144
 5345SOL     OW27667   0.687   0.855  11.585  0.2423  0.3382  0.0547
 5345SOL    HW127668   0.774   0.891  11.569  0.3225  0.2321  0.2527
 5345SOL    HW227669   0.716   0.768  11.558  0.8743 -0.2641  2.6592
 5346SOL     OW27670   0.450   3.190   6.066 -0.3050 -0.3603  0.1215
 5346SOL    HW127671   0.376   3.167   6.122 -0.3030 -0.9797 -0.1262
 5346SOL    HW227672   0.500   3.108   6.059 -0.9460 -0.8923  1.7575
 5347SOL     OW27673   2.126   0.477   8.268 -0.1131  0.0897 -0.0308
 5347SOL    HW127674   2.049   0.423   8.248 -0.5757  1.0762 -0.9300
 5347SOL    HW227675   2.094   0.536   8.336  1.4472 -1.2800  1.8968
 5348SOL     OW27676   0.592   4.379   0.323  0.0795  0.7162  0.3724
 5348SOL    HW127677   0.636   4.416   0.247 -1.1945 -0.6598 -1.0258
 5348SOL    HW227678   0.594   4.284   0.309 -0.1823  0.8863 -0.7703
 5349SOL     OW27679   2.684   0.823   4.826  0.8142 -0.4839 -0.0173
 5349SOL    HW127680   2.688   0.846   4.733 -1.0627  0.0495  0.0398
 5349SOL    HW227681   2.698   0.729   4.810 -1.2643 -1.0680  1.6224
 5350SOL     OW27682   3.771   1.175   5.297  0.3965 -0.1091 -0.4512
 5350SOL    HW127683   3.701   1.135   5.245  0.3679 -0.7355  0.0735
 5350SOL    HW227684   3.835   1.110   5.270 -0.3387 -1.2629  0.5845
 5351SOL     OW27685   0.111   2.266   5.379 -0.7623 -0.2653 -0.9526
 5351SOL    HW127686   0.142   2.335   5.438 -0.5751  1.1305 -2.6883
 5351SOL    HW227687   0.080   2.319   5.306 -0.5774  1.5458  0.2886
 5352SOL     OW27688   0.804   2.580  10.018  0.0507 -0.4110 -0.0406
 5352SOL    HW127689   0.745   2.646   9.983  2.0126  0.3749 -1.8595
 5352SOL    HW227690   0.843   2.556   9.934  0.5063  4.5230 -1.2223
 5353SOL     OW27691   1.277   3.945   7.373 -0.1768 -0.2226 -0.4755
 5353SOL    HW127692   1.310   3.958   7.284 -0.8765 -1.7538 -0.9607
 5353SOL    HW227693   1.194   3.898   7.364 -0.3459 -0.2057  0.9626
 5354SOL     OW27694   3.657   2.406  10.287  0.3185 -0.3853  0.0393
 5354SOL    HW127695   3.677   2.498  10.269 -0.5623  0.3629  2.8522
 5354SOL    HW227696   3.562   2.407  10.289  0.3374  0.3421  0.5078
 5355SOL     OW27697   2.595   4.502   2.532  0.3344  0.3148 -0.2829
 5355SOL    HW127698   2.565   4.424   2.578  0.4044 -0.6068 -1.7878
 5355SOL    HW227699   2.533   4.571   2.556  0.8463  0.7916 -0.3308
 5356SOL     OW27700   4.532   0.440   1.127  0.0268 -0.4485 -0.0790
 5356SOL    HW127701   4.553   0.507   1.061 -0.1736 -1.0382 -0.7463
 5356SOL    HW227702   4.612   0.388   1.131 -1.1382 -2.1930  0.7025
 5357SOL     OW27703   2.190   2.323   2.628  0.4579 -0.2580  0.1339
 5357SOL    HW127704   2.207   2.272   2.707 -0.9460 -0.9947 -0.0438
 5357SOL    HW227705   2.184   2.246   2.571  0.1383  1.8920 -2.7447
 5358SOL     OW27706   2.643   3.500   7.384  0.7147  0.1021 -0.1427
 5358SOL    HW127707   2.710   3.442   7.419  2.3213  2.2953  0.4079
 5358SOL    HW227708   2.704   3.572   7.371  0.1113  0.1364 -2.8057
 5359SOL     OW27709   3.192   2.334   7.392  0.1061 -0.4249 -0.2059
 5359SOL    HW127710   3.138   2.377   7.325 -0.4626  0.6939  0.9582
 5359SOL    HW227711   3.163   2.244   7.383 -3.1015  0.5388  0.4545
 5360SOL     OW27712   1.206   3.195   4.485 -0.0730 -0.1523 -0.8043
 5360SOL    HW127713   1.228   3.288   4.488 -0.3676 -0.1856  2.4287
 5360SOL    HW227714   1.170   3.195   4.396  0.0403 -0.7204 -0.8498
 5361SOL     OW27715   0.633   3.156  16.360 -0.1082  0.2992 -0.1023
 5361SOL    HW127716   0.708   3.117  16.405 -1.6938 -0.3563  1.8993
 5361SOL    HW227717   0.621   3.108  16.278  4.2104  0.6342 -0.9756
 5362SOL     OW27718   3.208   2.591   3.673 -0.3488 -0.4043  0.0580
 5362SOL    HW127719   3.164   2.544   3.603 -1.4630  0.0832  0.4235
 5362SOL    HW227720   3.210   2.674   3.626  1.6366 -0.0577  0.7516
 5363SOL     OW27721   1.271   4.129   8.645  0.0815 -0.5422 -0.2618
 5363SOL    HW127722   1.273   4.138   8.549 -1.9937  0.4291 -0.2023
 5363SOL    HW227723   1.329   4.196   8.682 -0.6318  0.4148 -0.8724
 5364SOL     OW27724   3.636   1.529   3.403 -0.3613  0.1035 -0.3510
 5364SOL    HW127725   3.556   1.579   3.420 -1.1732 -1.0852 -0.6622
 5364SOL    HW227726   3.651   1.475   3.481 -0.3537 -1.1987 -1.2502
 5365SOL     OW27727   4.399   4.057   5.008  0.2036  0.1914  0.6295
 5365SOL    HW127728   4.423   4.149   4.995  0.4839  0.1995  1.1691
 5365SOL    HW227729   4.461   4.032   5.077 -0.1347  0.1093  0.9025
 5366SOL     OW27730   1.984   4.508   3.834  0.3851  0.0309 -0.0322
 5366SOL    HW127731   2.027   4.548   3.759  0.9788 -0.7724 -0.1131
 5366SOL    HW227732   2.061   4.454   3.852 -0.5033 -1.5385 -0.9372
 5367SOL     OW27733   2.129   1.733   2.695  0.1080 -0.1548  0.1599
 5367SOL    HW127734   2.081   1.780   2.763 -0.4502 -1.3970  0.6259
 5367SOL    HW227735   2.116   1.644   2.725  0.5565  0.6496  2.6918
 5368SOL     OW27736   1.554   1.426   2.320 -0.0760  0.5031 -0.2225
 5368SOL    HW127737   1.534   1.401   2.230  0.9996 -1.0303 -0.0561
 5368SOL    HW227738   1.518   1.514   2.329  0.9408  0.8262  0.7992
 5369SOL     OW27739   4.137   4.477   8.899  0.2045 -0.4341 -0.1251
 5369SOL    HW127740   4.225   4.441   8.891  0.4766  0.7215 -2.2623
 5369SOL    HW227741   4.128   4.447   8.990  2.0687  0.4755  0.3650
 5370SOL     OW27742   1.845   4.326   8.929  0.6176  0.0028  0.6201
 5370SOL    HW127743   1.809   4.281   8.852  0.6554  0.5684  0.2723
 5370SOL    HW227744   1.876   4.407   8.888 -1.9498  0.8912  0.4289
 5371SOL     OW27745   4.379   1.897   4.640  0.3080 -0.0261  0.0523
 5371SOL    HW127746   4.470   1.895   4.612  0.4308 -1.6836  0.5920
 5371SOL    HW227747   4.369   1.806   4.666  1.9345 -0.0269  0.6798
 5372SOL     OW27748   3.848   2.156   3.645  0.7476  0.7416  0.1077
 5372SOL    HW127749   3.880   2.174   3.734  0.9800 -0.5799  0.2779
 5372SOL    HW227750   3.849   2.247   3.616 -0.1773  0.3305 -1.2022
 5373SOL     OW27751   2.357   2.211  12.430  0.1107  0.5375 -0.2543
 5373SOL    HW127752   2.305   2.148  12.480  1.6144 -1.4648 -1.1916
 5373SOL    HW227753   2.300   2.215  12.354 -0.8507  2.1841  0.5560
 5374SOL     OW27754   2.264   4.002   5.476 -0.4243 -0.3111 -0.1142
 5374SOL    HW127755   2.324   4.033   5.408  0.4318 -1.2598  0.2152
 5374SOL    HW227756   2.295   3.917   5.506  0.3403  0.7494  2.1524
 5375SOL     OW27757   4.522   2.199   0.683 -0.1203  0.3309 -0.0935
 5375SOL    HW127758   4.511   2.134   0.613 -0.9881  0.3982 -0.0277
 5375SOL    HW227759   4.438   2.196   0.729 -0.7989  0.3328 -1.3320
 5376SOL     OW27760   3.417   4.407   3.286 -0.6109 -0.0997  0.3467
 5376SOL    HW127761   3.491   4.460   3.256  0.0324 -0.4890  1.1962
 5376SOL    HW227762   3.464   4.323   3.293 -0.3648 -0.0093 -0.2478
 5377SOL     OW27763   1.210   3.188  10.173  0.8402 -0.2519  0.2346
 5377SOL    HW127764   1.149   3.143  10.230  1.0116 -0.9472 -0.1229
 5377SOL    HW227765   1.238   3.113  10.120  0.4916 -1.4464  1.7339
 5378SOL     OW27766   3.073   2.621   1.202  0.0494 -0.3010 -0.0395
 5378SOL    HW127767   3.100   2.529   1.205  0.3040 -0.2243  0.0764
 5378SOL    HW227768   3.160   2.657   1.221  0.1071  0.2089 -1.2752
 5379SOL     OW27769   4.096   0.825   4.410 -0.1330 -0.3135  0.1879
 5379SOL    HW127770   4.053   0.756   4.460 -0.7665  0.1378  0.2568
 5379SOL    HW227771   4.183   0.788   4.395 -0.6354 -1.3179 -0.2446
 5380SOL     OW27772   0.907   3.023  15.565 -0.3134  0.0857 -0.1789
 5380SOL    HW127773   0.953   2.962  15.506  0.5614 -0.6640  1.2760
 5380SOL    HW227774   0.822   3.019  15.521  0.4303 -2.1136 -1.4175
 5381SOL     OW27775   3.083   2.879   6.568  0.0361  0.2251  0.8634
 5381SOL    HW127776   3.072   2.951   6.630 -2.5156  0.5949 -0.0154
 5381SOL    HW227777   3.050   2.920   6.489  0.3245 -1.5233 -0.1721
 5382SOL     OW27778   2.154   4.655   5.562 -0.1919 -0.2343  0.1738
 5382SOL    HW127779   2.061   4.642   5.582  0.0529  0.6840  1.8861
 5382SOL    HW227780   2.179   4.691   5.647  2.6434 -0.3896 -0.5934
 5383SOL     OW27781   1.444   0.352   1.134 -0.1699  0.3116  0.4424
 5383SOL    HW127782   1.506   0.416   1.167 -0.9056  2.0081 -1.4666
 5383SOL    HW227783   1.363   0.402   1.122  1.1610  2.5748  1.0643
 5384SOL     OW27784   0.581   4.734   8.710  0.4248 -0.4350  0.1237
 5384SOL    HW127785   0.635   0.039   8.644  0.0654  1.9302  1.3804
 5384SOL    HW227786   0.585   4.647   8.671  0.9104 -0.1782 -0.4073
 5385SOL     OW27787   0.861   3.984   4.445 -0.2869 -0.0238 -0.1055
 5385SOL    HW127788   0.769   3.996   4.471 -0.6018  1.5949 -1.9634
 5385SOL    HW227789   0.872   4.067   4.399 -1.5278 -0.7635 -1.7242
 5386SOL     OW27790   0.590   0.123   5.895 -0.0737  0.2125 -0.1350
 5386SOL    HW127791   0.668   0.107   5.948  0.0675  0.3026 -0.3148
 5386SOL    HW227792   0.538   0.175   5.957  3.2713  2.4309  0.8548
 5387SOL     OW27793   2.900   0.366   3.329 -0.2947 -0.1250 -0.6123
 5387SOL    HW127794   2.932   0.307   3.398 -0.1673  0.4336 -0.1907
 5387SOL    HW227795   2.837   0.415   3.382  2.5002  1.3029  1.3822
 5388SOL     OW27796   3.366   2.964   1.177 -0.4061  0.5031  0.1905
 5388SOL    HW127797   3.428   2.952   1.249  1.7244  1.9164 -1.3799
 5388SOL    HW227798   3.389   3.054   1.151  0.4980  0.5773  1.2491
 5389SOL     OW27799   4.548   1.200   3.677 -0.0606 -0.2245 -0.4138
 5389SOL    HW127800   4.529   1.294   3.680 -0.1066 -0.3661  3.4969
 5389SOL    HW227801   4.548   1.185   3.583 -1.6901 -1.7637 -0.1589
 5390SOL     OW27802   3.782   4.555   5.311  0.0177 -0.0392  0.0606
 5390SOL    HW127803   3.760   4.465   5.289  0.3829  0.5562 -2.8337
 5390SOL    HW227804   3.704   4.598   5.275 -1.2025 -1.0644  1.5085
 5391SOL     OW27805   4.209   2.590   1.842 -0.3166  0.3001  0.3515
 5391SOL    HW127806   4.271   2.660   1.821  0.3639 -0.9554 -1.7971
 5391SOL    HW227807   4.221   2.593   1.937 -0.4257  1.2882  0.3400
 5392SOL     OW27808   3.074   3.451  11.353  0.0294 -0.1448 -0.0230
 5392SOL    HW127809   3.008   3.520  11.354 -0.1000 -0.2577 -1.0955
 5392SOL    HW227810   3.149   3.501  11.319 -0.3944 -0.0843 -0.8622
 5393SOL     OW27811   0.203   2.012  14.957  0.0060 -0.2474  0.6633
 5393SOL    HW127812   0.289   1.974  14.944  0.4572  0.2548  2.1507
 5393SOL    HW227813   0.219   2.042  15.047  0.0047  1.1739  0.1939
 5394SOL     OW27814   0.995   4.059   5.366 -0.2813 -0.0260  0.1418
 5394SOL    HW127815   0.928   3.991   5.354  0.3300 -0.3810 -1.2307
 5394SOL    HW227816   1.074   4.005   5.356 -0.7222 -0.7065  0.2941
 5395SOL     OW27817   3.752   0.420   6.307  0.1086  0.4716 -0.1671
 5395SOL    HW127818   3.791   0.346   6.352 -0.2664  0.0006 -0.6161
 5395SOL    HW227819   3.703   0.379   6.235  1.1269  1.2762 -1.3116
 5396SOL     OW27820   3.603   2.453   7.588  0.2113 -0.2196 -0.1001
 5396SOL    HW127821   3.591   2.380   7.528 -0.4451 -1.8337  2.0063
 5396SOL    HW227822   3.580   2.406   7.668  3.1713  0.9452  1.4665
 5397SOL     OW27823   1.836   4.454   2.976  0.0374 -0.3382  0.5609
 5397SOL    HW127824   1.777   4.382   2.953  0.6688 -0.3822 -0.9034
 5397SOL    HW227825   1.870   4.485   2.892  0.8789  1.0257  1.3995
 5398SOL     OW27826   1.525   0.913   1.558 -0.0333 -0.1334  0.3657
 5398SOL    HW127827   1.478   0.935   1.478  1.1349  1.1445  0.0302
 5398SOL    HW227828   1.512   0.997   1.601 -2.4687 -0.0545 -0.5350
 5399SOL     OW27829   4.091   3.352   4.559 -0.3131  0.0496  0.7314
 5399SOL    HW127830   4.065   3.308   4.640  1.2395 -1.0162  0.6659
 5399SOL    HW227831   4.158   3.302   4.512 -0.3028 -0.1378  0.9399
 5400SOL     OW27832   3.939   0.358  12.611 -0.0502  0.4519  0.3136
 5400SOL    HW127833   3.851   0.359  12.650  1.2378 -0.1634  3.2541
 5400SOL    HW227834   3.919   0.292  12.545 -0.3474 -1.4608  2.2879
 5401SOL     OW27835   1.861   3.520   3.078  0.5133  0.4390 -0.5633
 5401SOL    HW127836   1.918   3.581   3.032  0.6694  1.4838  1.0063
 5401SOL    HW227837   1.907   3.488   3.156  0.9190  0.7390 -0.6796
 5402SOL     OW27838   1.427   2.755   5.018 -0.7103  0.3731 -0.1091
 5402SOL    HW127839   1.374   2.799   5.085  1.6156  2.9476  0.0945
 5402SOL    HW227840   1.501   2.719   5.067 -1.1634 -1.3187 -0.6907
 5403SOL     OW27841   2.217   0.487   6.887  0.1295 -0.1313  0.2011
 5403SOL    HW127842   2.256   0.574   6.897 -0.6824  0.2978 -0.2840
 5403SOL    HW227843   2.137   0.512   6.840  0.3699  0.9919  0.3911
 5404SOL     OW27844   3.932   1.656   6.519 -0.3931  0.0410  0.5521
 5404SOL    HW127845   3.964   1.572   6.552 -0.0203  0.1333  0.4254
 5404SOL    HW227846   4.007   1.694   6.472 -0.8363  1.5700  1.0693
 5405SOL     OW27847   3.772   3.687   9.884 -0.6096  0.2439 -0.4777
 5405SOL    HW127848   3.855   3.640   9.887  0.1242  1.6778  2.4483
 5405SOL    HW227849   3.733   3.657   9.802 -2.5409  1.7062 -0.1051
 5406SOL     OW27850   3.298   0.691   3.419 -0.4163 -0.1758  0.2519
 5406SOL    HW127851   3.338   0.774   3.394 -1.8887  0.0110 -1.4998
 5406SOL    HW227852   3.223   0.715   3.472  0.5103  0.4300  1.3050
 5407SOL     OW27853   4.725   3.730   5.876  0.5341  0.4235  0.4913
 5407SOL    HW127854   4.697   3.820   5.859  1.3932  0.9750  1.9336
 5407SOL    HW227855   4.717   3.721   5.971 -0.9631  0.6480  0.3759
 5408SOL     OW27856   3.097   1.992   8.799 -0.2747  0.0531  0.1630
 5408SOL    HW127857   3.127   2.011   8.711 -1.3673  2.2994  0.2771
 5408SOL    HW227858   3.117   1.899   8.812  1.0147  0.6601  2.6358
 5409SOL     OW27859   4.628   2.026  11.310  0.6201 -0.1765 -0.6732
 5409SOL    HW127860   4.714   1.989  11.293  0.2904 -0.1066 -2.4387
 5409SOL    HW227861   4.569   1.950  11.309  1.0229 -0.4973  0.2791
 5410SOL     OW27862   1.381   2.387   2.113  0.0562  0.6147  0.6598
 5410SOL    HW127863   1.435   2.315   2.081 -0.3518  0.1629  0.9802
 5410SOL    HW227864   1.400   2.450   2.043 -1.4395  1.6633  1.1924
 5411SOL     OW27865   2.796   0.310   8.560 -0.0802 -1.0863  0.5913
 5411SOL    HW127866   2.888   0.301   8.536 -0.1316 -1.3111  0.4781
 5411SOL    HW227867   2.780   0.216   8.552  0.4232 -0.9562 -2.0028
 5412SOL     OW27868   2.196   3.052  10.554 -0.5248  0.3093 -0.2017
 5412SOL    HW127869   2.287   3.023  10.562 -1.2360 -2.0102 -0.7183
 5412SOL    HW227870   2.194   3.100  10.471  2.2852 -0.5490 -0.7660
 5413SOL     OW27871   0.538   1.704   5.509  0.2026 -0.2145  0.4611
 5413SOL    HW127872   0.554   1.644   5.581  0.4141  0.8601  1.3091
 5413SOL    HW227873   0.500   1.651   5.438  2.8555 -2.1959  0.5339
 5414SOL     OW27874   3.896   4.475   1.896 -0.0716 -0.0260  0.7427
 5414SOL    HW127875   3.933   4.469   1.984 -1.1232 -0.7887  1.1362
 5414SOL    HW227876   3.824   4.412   1.899  1.0579 -1.4054 -1.1855
 5415SOL     OW27877   3.016   2.196  12.219  0.3320  0.2198 -0.5553
 5415SOL    HW127878   2.995   2.289  12.211 -0.0864  0.3569  1.9295
 5415SOL    HW227879   2.934   2.169  12.262  0.2807 -0.5758 -1.1526
 5416SOL     OW27880   1.564   3.310   5.683 -0.3942 -0.0587  0.4412
 5416SOL    HW127881   1.611   3.377   5.632 -0.2572 -2.7198 -2.9968
 5416SOL    HW227882   1.486   3.364   5.692 -0.5191 -0.7800  3.5709
 5417SOL     OW27883   1.483   4.519  10.642 -0.2187 -0.5105  0.1621
 5417SOL    HW127884   1.516   4.488  10.557  1.2661  0.6690  0.3218
 5417SOL    HW227885   1.411   4.577  10.617 -1.6363 -0.6949  3.8512
 5418SOL     OW27886   1.849   4.545   7.246 -0.0587  0.2032 -1.3357
 5418SOL    HW127887   1.881   4.460   7.277  1.3832  0.2374 -2.7355
 5418SOL    HW227888   1.936   4.583   7.245 -0.7511  1.7561 -1.6402
 5419SOL     OW27889   4.010   2.264   8.072  0.4758  0.1334  0.1462
 5419SOL    HW127890   3.928   2.222   8.046  0.3411  1.3876 -1.4965
 5419SOL    HW227891   3.984   2.337   8.129 -0.1965  1.8818 -2.3778
 5420SOL     OW27892   1.976   3.687   9.796  0.0043  0.4951  0.5385
 5420SOL    HW127893   1.963   3.746   9.722 -0.0349 -0.2689 -0.0627
 5420SOL    HW227894   1.986   3.605   9.748 -1.5661  0.6490 -0.0659
 5421SOL     OW27895   3.319   1.207   6.128  0.2882  0.5486  0.2159
 5421SOL    HW127896   3.227   1.231   6.120  0.4800  1.3576  0.4596
 5421SOL    HW227897   3.339   1.166   6.044  1.8086  1.8043 -0.0175
 5422SOL     OW27898   1.642   2.433  16.303 -0.2997  0.2070  0.2722
 5422SOL    HW127899   1.595   2.430  16.219  1.2354 -0.4758 -0.5610
 5422SOL    HW227900   1.660   2.526  16.292 -1.2456  0.1315 -2.0643
 5423SOL     OW27901   4.280   0.255   7.801  0.1536 -0.0623 -0.9752
 5423SOL    HW127902   4.327   0.202   7.864  0.6391 -0.3131 -1.5446
 5423SOL    HW227903   4.216   0.188   7.777  0.3952 -0.2115 -1.2037
 5424SOL     OW27904   3.350   4.463   2.956  0.7980 -0.2513  0.0995
 5424SOL    HW127905   3.349   4.410   3.036 -0.5513 -0.7941 -0.2816
 5424SOL    HW227906   3.445   4.467   2.944  0.8237 -1.5517 -0.0583
 5425SOL     OW27907   0.990   4.268   5.588  0.6485  0.4558 -0.1050
 5425SOL    HW127908   0.982   4.256   5.682  1.6572  0.1344 -0.0619
 5425SOL    HW227909   0.971   4.181   5.554 -0.5910  1.1413 -1.2292
 5426SOL     OW27910   0.889   0.107   6.802  0.5727 -0.1403 -0.5030
 5426SOL    HW127911   0.909   0.066   6.886  0.5531  1.1583  0.1416
 5426SOL    HW227912   0.972   0.153   6.786  0.5791  0.2144  0.5113
 5427SOL     OW27913   0.902   4.502   6.726  0.1847 -0.2618  0.5781
 5427SOL    HW127914   0.971   4.454   6.771  1.3342  1.3346  0.5026
 5427SOL    HW227915   0.886   4.577   6.783  0.1972  0.9010 -0.9520
 5428SOL     OW27916   2.103   3.970   2.882  0.0018 -0.5499 -0.0994
 5428SOL    HW127917   2.092   4.065   2.880  0.6370 -0.4867 -0.7907
 5428SOL    HW227918   2.126   3.955   2.790 -0.7293  0.2781 -0.4162
 5429SOL     OW27919   3.701   1.161   4.007  0.1962 -0.6549  0.4166
 5429SOL    HW127920   3.743   1.234   3.961 -1.6145  0.2064  0.1190
 5429SOL    HW227921   3.617   1.142   3.964  1.2509 -2.5437 -0.7976
 5430SOL     OW27922   0.667   3.570   2.291  0.2309 -0.2913  0.0090
 5430SOL    HW127923   0.628   3.651   2.259  1.1564 -0.3958 -1.4090
 5430SOL    HW227924   0.609   3.501   2.258 -0.7991  1.1335 -1.1499
 5431SOL     OW27925   0.493   2.365   2.661  0.2709  0.1202 -0.4450
 5431SOL    HW127926   0.473   2.453   2.693  1.1428  0.4902 -0.9156
 5431SOL    HW227927   0.445   2.347   2.580  0.7678 -0.5963 -0.5819
 5432SOL     OW27928   0.777   3.096   5.122  0.2541  0.0832  0.7934
 5432SOL    HW127929   0.691   3.084   5.080 -0.1826  1.1495  1.3763
 5432SOL    HW227930   0.803   3.006   5.141  1.5156  0.5364  1.1737
 5433SOL     OW27931   4.434   2.515   5.268 -0.1165  0.3692  0.1369
 5433SOL    HW127932   4.372   2.588   5.267 -1.0182 -0.4110 -0.5576
 5433SOL    HW227933   4.489   2.545   5.340  1.2618  2.0191 -1.5919
 5434SOL     OW27934   1.303   1.480   0.099  0.0285  0.3506 -0.2473
 5434SOL    HW127935   1.217   1.487   0.140 -0.0700  0.0634 -0.4047
 5434SOL    HW227936   1.354   1.496   0.178  0.4261 -0.2837 -0.3703
 5435SOL     OW27937   1.913   0.131   8.454 -0.4747  0.0374  0.8436
 5435SOL    HW127938   2.006   0.115   8.470 -0.5603 -1.7429 -0.4641
 5435SOL    HW227939   1.913   0.147   8.360  1.4722  0.2714  0.8957
 5436SOL     OW27940   0.590   1.798   5.965 -0.2553  0.1893 -0.0714
 5436SOL    HW127941   0.654   1.743   6.010 -0.5450  0.1335  0.2776
 5436SOL    HW227942   0.505   1.774   6.001 -0.9028 -0.6612 -2.1987
 5437SOL     OW27943   1.859   4.642   6.796  0.4449  0.1765 -0.3412
 5437SOL    HW127944   1.818   4.565   6.835 -0.2189  1.3768  1.3400
 5437SOL    HW227945   1.918   4.609   6.728  0.2369  0.7181 -0.7807
 5438SOL     OW27946   1.188   2.076  11.905  0.2151 -0.8530 -0.0272
 5438SOL    HW127947   1.198   2.164  11.868 -1.6736  1.1123  4.1226
 5438SOL    HW227948   1.098   2.057  11.880  0.8486  0.6575 -3.4402
 5439SOL     OW27949   0.890   3.259  11.200  0.1191 -0.5243  0.3919
 5439SOL    HW127950   0.942   3.282  11.276 -0.0241  2.1178 -0.3070
 5439SOL    HW227951   0.960   3.223  11.145 -0.4087 -2.0058  0.6930
 5440SOL     OW27952   3.650   2.825  14.726 -0.3047 -0.1493 -0.0890
 5440SOL    HW127953   3.571   2.772  14.712 -0.0444 -0.6018  0.1573
 5440SOL    HW227954   3.632   2.889  14.657  1.6035 -0.2958 -0.7200
 5441SOL     OW27955   2.979   1.611   2.959 -0.4295 -0.4552  0.8760
 5441SOL    HW127956   2.923   1.625   3.036 -0.5553  0.9358  0.5328
 5441SOL    HW227957   2.955   1.520   2.940  0.1239 -1.0568  2.9948
 5442SOL     OW27958   2.343   1.380   3.054  0.0904  0.0474 -0.4506
 5442SOL    HW127959   2.411   1.345   2.996  1.4818 -0.2555  1.3634
 5442SOL    HW227960   2.267   1.392   2.997 -0.2490 -0.5493 -0.1182
 5443SOL     OW27961   1.430   0.507  15.997  0.1724 -0.3304  0.5070
 5443SOL    HW127962   1.471   0.514  15.910  0.0670  1.1923  0.5786
 5443SOL    HW227963   1.485   0.447  16.046 -0.7463 -0.8600  0.8791
 5444SOL     OW27964   0.690   3.185  17.409  0.2955  0.0096  0.2959
 5444SOL    HW127965   0.668   3.260  17.465 -0.8696 -0.8548  0.9779
 5444SOL    HW227966   0.754   3.134  17.459  0.2064  0.0540  0.4574
 5445SOL     OW27967   0.188   0.159  11.452 -0.9296  0.2461  0.2106
 5445SOL    HW127968   0.269   0.209  11.437 -0.7038 -0.7931 -1.9830
 5445SOL    HW227969   0.216   0.069  11.436 -1.7860  0.1012 -0.4730
 5446SOL     OW27970   0.021   3.276   8.770 -0.2577 -0.6464  0.5566
 5446SOL    HW127971   4.695   3.300   8.704  0.1252 -1.6064 -0.1692
 5446SOL    HW227972   0.092   3.330   8.733 -0.9029 -0.9196 -1.0659
 5447SOL     OW27973   2.587   2.547   4.539 -0.0381 -0.4269 -0.2948
 5447SOL    HW127974   2.609   2.580   4.626 -2.1060  1.6127 -0.5595
 5447SOL    HW227975   2.591   2.452   4.544 -0.4358 -0.2695  3.0840
 5448SOL     OW27976   4.453   2.617   8.442  0.3568 -0.0426  0.2603
 5448SOL    HW127977   4.396   2.541   8.452 -1.1207  1.2238  1.5365
 5448SOL    HW227978   4.422   2.680   8.507  0.4544  3.1693 -2.7748
 5449SOL     OW27979   0.966   1.185  12.367  0.0987  0.0197  0.0815
 5449SOL    HW127980   1.002   1.267  12.333  1.4663 -1.0141 -0.9803
 5449SOL    HW227981   1.029   1.123  12.330  0.8847 -0.9171  3.0070
 5450SOL     OW27982   2.956   0.960   2.173 -0.3261 -0.0510 -0.2688
 5450SOL    HW127983   2.952   1.024   2.244  0.0402  0.7592 -0.9741
 5450SOL    HW227984   2.931   1.012   2.097 -0.9993 -1.2851 -0.8978
 5451SOL     OW27985   0.768   2.073  15.104 -0.3794  0.0043 -0.1400
 5451SOL    HW127986   0.673   2.082  15.095 -0.3933 -1.7426 -1.7921
 5451SOL    HW227987   0.784   1.992  15.056  2.2673  0.7280 -0.4535
 5452SOL     OW27988   3.756   3.377   8.404 -0.4614 -0.2065  0.4826
 5452SOL    HW127989   3.753   3.312   8.333  0.1268 -0.2569  0.5065
 5452SOL    HW227990   3.714   3.325   8.472 -1.9611 -1.3956 -1.3437
 5453SOL     OW27991   0.337   3.611   4.329  0.0880  0.3037 -0.3020
 5453SOL    HW127992   0.428   3.610   4.299 -0.1065  1.0457 -0.8942
 5453SOL    HW227993   0.349   3.599   4.423  1.6413  0.8676 -0.4310
 5454SOL     OW27994   0.232   1.929  16.951  0.0988  0.3860  0.2441
 5454SOL    HW127995   0.233   2.023  16.973  0.1525  0.1132  1.4376
 5454SOL    HW227996   0.272   1.922  16.865 -0.7604  0.1895 -0.1445
 5455SOL     OW27997   3.635   0.792   7.984  0.4073 -0.0916  0.2926
 5455SOL    HW127998   3.724   0.757   7.984  0.6195  0.4700 -0.7560
 5455SOL    HW227999   3.651   0.885   8.001  0.8970  0.0226 -0.7723
 5456SOL     OW28000   0.583   1.672   1.695 -0.0348  0.1148 -0.2697
 5456SOL    HW128001   0.539   1.588   1.684 -0.1800 -0.0373  1.3959
 5456SOL    HW228002   0.507   1.728   1.684 -1.2156 -1.6613 -1.1208
 5457SOL     OW28003   0.744   1.298   6.681  0.0694 -0.5978 -0.0826
 5457SOL    HW128004   0.743   1.206   6.655  0.1452 -0.8706  0.8850
 5457SOL    HW228005   0.649   1.301   6.691 -0.1576  0.4867 -2.7286
 5458SOL     OW28006   1.220   2.650  12.367  0.3284 -0.2921  0.4286
 5458SOL    HW128007   1.247   2.732  12.408  1.2277 -0.4708  0.1967
 5458SOL    HW228008   1.134   2.641  12.408  0.6970  3.1640  1.9383
 5459SOL     OW28009   1.100   1.099   9.179 -0.3176  0.1305  0.5278
 5459SOL    HW128010   1.188   1.124   9.205  0.2870 -0.0103 -1.3742
 5459SOL    HW228011   1.072   1.187   9.152  0.7280  0.6248  1.0848
 5460SOL     OW28012   1.325   2.951  12.399  0.2279  0.4021  0.5023
 5460SOL    HW128013   1.408   2.930  12.355 -0.3991 -1.7194  0.3055
 5460SOL    HW228014   1.287   3.012  12.337 -0.6400 -1.5925 -0.9158
 5461SOL     OW28015   1.973   2.665   7.914  0.0657  0.3015  0.0089
 5461SOL    HW128016   1.993   2.649   7.822 -1.6040 -0.1095 -0.2749
 5461SOL    HW228017   2.006   2.588   7.959 -2.1717 -0.3041  0.6107
 5462SOL     OW28018   3.093   1.680  15.896  0.5217 -0.4267  0.0600
 5462SOL    HW128019   3.064   1.610  15.954  1.3076 -1.4052 -0.7380
 5462SOL    HW228020   3.185   1.688  15.921  0.3466 -2.3231  1.2700
 5463SOL     OW28021   3.804   4.050   3.329 -0.1955 -0.0462  0.6085
 5463SOL    HW128022   3.824   3.967   3.287  0.5772  0.6080 -0.2841
 5463SOL    HW228023   3.879   4.098   3.295 -1.2759  1.5507  0.4760
 5464SOL     OW28024   2.817   1.282   8.113 -0.2320  0.1009 -0.6013
 5464SOL    HW128025   2.859   1.357   8.072 -1.8325  1.7255  0.7757
 5464SOL    HW228026   2.841   1.211   8.053  0.1495 -0.8111  0.6117
 5465SOL     OW28027   3.077   2.105   5.918 -0.0306  0.2324 -0.2907
 5465SOL    HW128028   3.102   2.041   5.851  0.7714 -0.0153  0.2476
 5465SOL    HW228029   2.998   2.146   5.884 -0.2787 -0.2186 -0.2532
 5466SOL     OW28030   3.628   2.983   0.527  0.2225 -0.3991  0.1301
 5466SOL    HW128031   3.602   2.909   0.582 -0.1483  0.9511  1.7710
 5466SOL    HW228032   3.615   2.950   0.438 -0.6867 -0.9762  0.4872
 5467SOL     OW28033   2.525   0.055   4.836 -0.9113 -0.0051  0.6511
 5467SOL    HW128034   2.475   0.137   4.833 -1.4529 -0.3408  0.5215
 5467SOL    HW228035   2.609   0.090   4.807 -0.9718 -0.8641 -0.5541
 5468SOL     OW28036   0.519   0.555  11.094 -0.3991 -0.3983  0.3984
 5468SOL    HW128037   0.448   0.619  11.094 -0.0247  0.0190  0.4758
 5468SOL    HW228038   0.530   0.535  11.001  2.2666  2.4413  0.0917
 5469SOL     OW28039   4.269   1.391   7.784 -0.1502 -0.4825 -0.1368
 5469SOL    HW128040   4.309   1.324   7.839 -0.8687 -1.5516 -0.9156
 5469SOL    HW228041   4.177   1.370   7.770 -0.7262  0.5205  2.1609
 5470SOL     OW28042   2.958   2.867   2.226  0.5167 -0.2095 -0.4208
 5470SOL    HW128043   2.989   2.912   2.305 -3.4542 -1.0495  1.6336
 5470SOL    HW228044   3.041   2.840   2.187  0.6069  1.7498 -1.6122
 5471SOL     OW28045   0.838   0.209   4.455 -0.0456 -0.1516 -0.5862
 5471SOL    HW128046   0.822   0.150   4.529 -0.4650 -1.1681 -1.4764
 5471SOL    HW228047   0.752   0.251   4.450  1.2439  2.4617 -0.4775
 5472SOL     OW28048   0.654   3.534   3.977  0.1040 -0.2212  0.0928
 5472SOL    HW128049   0.615   3.565   4.058  0.3589 -1.3277  0.6381
 5472SOL    HW228050   0.734   3.492   4.008 -0.6661 -1.8620 -0.1238
 5473SOL     OW28051   3.889   3.423   8.925 -0.6278  0.3294  0.6264
 5473SOL    HW128052   3.798   3.396   8.908 -1.0716  2.5411 -0.4909
 5473SOL    HW228053   3.898   3.395   9.016  1.4521 -2.8382 -0.5445
 5474SOL     OW28054   0.363   1.151   5.816  0.0944  0.4517  0.3341
 5474SOL    HW128055   0.345   1.170   5.908 -0.1085  1.2267  0.1367
 5474SOL    HW228056   0.325   1.227   5.773 -2.0097 -1.0988 -0.5201
 5475SOL     OW28057   2.957   3.412   9.170 -0.1330 -0.0851 -0.4804
 5475SOL    HW128058   3.018   3.484   9.156  0.2460 -0.0907  1.1322
 5475SOL    HW228059   3.010   3.355   9.226 -0.0704 -0.3969 -0.8599
 5476SOL     OW28060   1.913   1.152   8.484 -0.6208  0.2402 -0.1956
 5476SOL    HW128061   2.003   1.185   8.492 -0.2706 -0.7950  0.2135
 5476SOL    HW228062   1.916   1.094   8.560  2.6820 -0.3821 -0.7577
 5477SOL     OW28063   2.086   4.212   5.215  0.2379  0.2537  0.3274
 5477SOL    HW128064   2.121   4.238   5.300  0.0049 -0.9618  0.7921
 5477SOL    HW228065   2.164   4.223   5.161 -0.2575  0.7477 -0.2871
 5478SOL     OW28066   3.198   1.454   1.991 -0.8039 -0.0936  0.0789
 5478SOL    HW128067   3.109   1.465   2.025 -0.8615 -1.3819  0.3215
 5478SOL    HW228068   3.251   1.428   2.066  2.9630  0.7024 -2.2710
 5479SOL     OW28069   2.630   3.945   7.867  0.2294  0.2676 -0.3605
 5479SOL    HW128070   2.704   3.884   7.862  0.4985  0.4326  1.5818
 5479SOL    HW228071   2.666   4.025   7.903  0.8413 -1.4642  2.8567
 5480SOL     OW28072   0.048   3.221   9.048 -0.1750  0.4307  0.1430
 5480SOL    HW128073   0.141   3.244   9.039 -0.3799  0.8716 -0.8233
 5480SOL    HW228074   0.020   3.235   8.958 -0.8463 -0.4014  0.2281
 5481SOL     OW28075   0.147   2.971   6.096 -0.0851 -0.3599 -0.3039
 5481SOL    HW128076   0.074   2.910   6.108  1.4369 -1.7753  1.8298
 5481SOL    HW228077   0.146   3.027   6.174 -0.0661 -1.0220  0.1703
 5482SOL     OW28078   2.933   1.132  13.425  0.0719 -0.1694  0.0111
 5482SOL    HW128079   2.980   1.093  13.498  0.6161 -0.3031 -0.4121
 5482SOL    HW228080   2.850   1.158  13.465 -0.0425 -0.6589  0.0930
 5483SOL     OW28081   4.287   2.894   1.878 -0.2556  0.5180  0.6327
 5483SOL    HW128082   4.356   2.847   1.924  1.1762  1.0311 -0.9967
 5483SOL    HW228083   4.338   2.960   1.832 -0.1572  0.4224  0.6038
 5484SOL     OW28084   2.817   2.544  15.627  0.4047 -0.1903 -0.1268
 5484SOL    HW128085   2.871   2.621  15.609 -0.3186  0.0285 -1.3531
 5484SOL    HW228086   2.796   2.551  15.720  0.7471  2.9608 -0.2939
 5485SOL     OW28087   4.351   0.177   3.287 -0.0223 -0.2530  0.2595
 5485SOL    HW128088   4.278   0.143   3.235 -0.6206  1.7867 -0.2132
 5485SOL    HW228089   4.366   0.102   3.345 -0.8128  0.1724  1.0056
 5486SOL     OW28090   3.178   2.867  17.158  0.4965  0.0483 -0.3336
 5486SOL    HW128091   3.196   2.890  17.067  1.3046 -1.3140 -0.5283
 5486SOL    HW228092   3.155   2.953  17.192 -0.9266  0.1238 -1.5169
 5487SOL     OW28093   0.538   0.458   8.549 -0.4382 -0.2225  0.1595
 5487SOL    HW128094   0.634   0.460   8.547 -0.4012 -1.6260  0.6150
 5487SOL    HW228095   0.530   0.372   8.509 -1.0463 -1.0746  2.1105
 5488SOL     OW28096   2.803   2.961   4.054 -0.3323  0.0404 -0.2521
 5488SOL    HW128097   2.740   3.027   4.024 -2.3372 -0.7373  2.2982
 5488SOL    HW228098   2.762   2.934   4.136 -1.0023 -0.7108 -0.8347
 5489SOL     OW28099   2.040   2.194   6.031  0.1932 -0.3524 -0.1324
 5489SOL    HW128100   1.948   2.181   6.011 -0.0612  0.9109  0.1816
 5489SOL    HW228101   2.037   2.290   6.025 -0.1008 -0.4353 -1.2975
 5490SOL     OW28102   4.489   0.166   0.515 -0.1882  0.2071 -0.0681
 5490SOL    HW128103   4.414   0.106   0.515  1.1575 -1.4927  1.0667
 5490SOL    HW228104   4.446   0.244   0.478 -0.6269 -0.1967 -0.4200
 5491SOL     OW28105   2.365   4.698   7.342 -0.2260  0.8622  0.2280
 5491SOL    HW128106   2.383   4.680   7.434 -0.9481  2.4412  0.6657
 5491SOL    HW228107   2.450   4.699   7.299  0.3077 -0.5574  1.2591
 5492SOL     OW28108   1.992   2.088   8.343  0.1688  0.2757 -0.4375
 5492SOL    HW128109   2.043   2.009   8.325  0.1691  0.3606 -0.8107
 5492SOL    HW228110   1.901   2.059   8.355 -0.2028  0.7587 -2.1414
 5493SOL     OW28111   0.941   3.422  15.066 -0.1906 -0.2462 -0.7249
 5493SOL    HW128112   1.036   3.435  15.070 -0.3768  0.7742  0.6183
 5493SOL    HW228113   0.935   3.352  15.002  1.3856 -0.6043 -0.4935
 5494SOL     OW28114   0.323   4.497   2.494  0.3512 -0.1044 -0.5819
 5494SOL    HW128115   0.317   4.590   2.515  2.1161 -0.2453  0.4967
 5494SOL    HW228116   0.232   4.481   2.467  0.7618 -1.1556 -1.3353
 5495SOL     OW28117   1.811   3.961   2.961  0.1514 -0.5822 -0.1925
 5495SOL    HW128118   1.881   3.921   2.911 -0.5322 -0.8213 -0.9557
 5495SOL    HW228119   1.759   3.882   2.978 -0.0362  0.3537  3.5496
 5496SOL     OW28120   2.277   3.335   7.147  0.3180  0.1604 -0.1963
 5496SOL    HW128121   2.372   3.336   7.135  0.5291  0.6166  1.4792
 5496SOL    HW228122   2.275   3.424   7.184  0.8552 -0.2964  0.9318
 5497SOL     OW28123   3.050   2.261   8.917  0.2167 -0.5586  0.4792
 5497SOL    HW128124   3.007   2.210   8.986 -2.0898 -3.4502 -3.1520
 5497SOL    HW228125   3.063   2.194   8.851  0.5235  1.0505 -1.1037
 5498SOL     OW28126   2.959   0.659   1.682  0.0355 -0.5007 -0.0041
 5498SOL    HW128127   2.983   0.743   1.643 -0.7295 -0.7685 -1.0437
 5498SOL    HW228128   2.984   0.594   1.616  0.4980 -0.7765  0.4389
 5499SOL     OW28129   3.938   0.035   7.448  0.3886  0.4904  0.1107
 5499SOL    HW128130   3.862   0.087   7.420 -1.5397 -1.6928  1.3492
 5499SOL    HW228131   3.933   4.695   7.394  2.1749  3.2582 -4.0791
 5500SOL     OW28132   2.742   0.562   2.967  0.7499 -0.3189 -0.3604
 5500SOL    HW128133   2.679   0.515   3.022  0.2646 -0.1499 -0.7668
 5500SOL    HW228134   2.817   0.504   2.981  0.2184 -0.4189  2.1852
 5501SOL     OW28135   2.682   2.498   0.324  0.0966 -0.1047  0.7453
 5501SOL    HW128136   2.680   2.522   0.416  0.0232  2.5007  0.0496
 5501SOL    HW228137   2.620   2.425   0.320  0.2858 -0.2346  0.1243
 5502SOL     OW28138   1.546   1.758   4.588  0.0298  1.0449 -0.2969
 5502SOL    HW128139   1.531   1.749   4.682  1.2816 -0.7756 -0.2877
 5502SOL    HW228140   1.624   1.710   4.563 -0.7120 -0.2579 -0.1396
 5503SOL     OW28141   4.729   2.814   7.322 -0.5402  0.8081 -0.3153
 5503SOL    HW128142   0.013   2.778   7.236  2.0962 -2.6690  1.8009
 5503SOL    HW228143   0.065   2.785   7.375  0.2234  2.3585 -0.5309
 5504SOL     OW28144   2.436   4.261  15.598 -0.0938  0.2924  0.6258
 5504SOL    HW128145   2.496   4.213  15.541 -2.0035 -0.5227 -0.6840
 5504SOL    HW228146   2.351   4.238  15.560  0.8322  0.9744 -1.8468
 5505SOL     OW28147   3.600   2.356   4.209 -0.0476 -0.1873 -0.1850
 5505SOL    HW128148   3.559   2.381   4.126 -1.4845 -1.7351  0.0690
 5505SOL    HW228149   3.557   2.415   4.272  2.0554  1.2162 -0.0247
 5506SOL     OW28150   2.688   1.411   1.731 -0.3334 -0.0363  0.2293
 5506SOL    HW128151   2.710   1.494   1.772  0.8945 -1.3008  2.1652
 5506SOL    HW228152   2.743   1.421   1.653 -0.4779  1.0247  0.2720
 5507SOL     OW28153   3.667   1.901   5.901 -0.8117  0.6395  0.3679
 5507SOL    HW128154   3.602   1.868   5.839 -1.7670 -0.5016  1.9524
 5507SOL    HW228155   3.646   1.843   5.975  0.2764  0.0003  0.1681
 5508SOL     OW28156   2.671   0.832   2.945 -0.9840 -0.0618 -0.3239
 5508SOL    HW128157   2.737   0.765   2.961 -0.6154 -0.2213 -2.4914
 5508SOL    HW228158   2.697   0.879   2.865  0.0954 -0.6598 -0.3165
 5509SOL     OW28159   3.116   0.467   8.892  0.1797  0.5122 -0.1068
 5509SOL    HW128160   3.198   0.430   8.925  0.4097  0.8902 -0.2520
 5509SOL    HW228161   3.105   0.541   8.951  1.5716  1.3493 -0.9009
 5510SOL     OW28162   0.723   1.569  14.320  0.3119 -0.4788 -0.4531
 5510SOL    HW128163   0.796   1.631  14.321 -1.1342  1.2089 -0.1158
 5510SOL    HW228164   0.764   1.483  14.314 -1.1774 -1.3796  2.1627
 5511SOL     OW28165   1.423   3.327  10.186  0.1598 -0.1374 -0.2515
 5511SOL    HW128166   1.396   3.414  10.216  0.3265  0.5282 -2.0625
 5511SOL    HW228167   1.339   3.281  10.190 -0.5402  1.2390  1.3468
 5512SOL     OW28168   1.479   1.015  17.358 -0.3666  0.5119  0.3879
 5512SOL    HW128169   1.505   0.975  17.441 -3.5939  0.2469  1.2656
 5512SOL    HW228170   1.523   0.957  17.297 -2.4443 -0.3153 -0.3118
 5513SOL     OW28171   4.183   4.579   6.725 -0.0529 -0.1513 -0.3571
 5513SOL    HW128172   4.180   4.651   6.788 -0.9401 -0.7288  0.2586
 5513SOL    HW228173   4.267   4.600   6.684  0.6093  0.5217  1.3389
 5514SOL     OW28174   1.350   2.392   6.259  1.0436 -0.2519  0.4840
 5514SOL    HW128175   1.442   2.368   6.250  0.4656 -1.5837 -2.0026
 5514SOL    HW228176   1.345   2.378   6.354 -0.4042 -1.9068  0.1633
 5515SOL     OW28177   2.979   1.586   0.605 -0.8222 -0.3272  0.1474
 5515SOL    HW128178   2.945   1.646   0.672 -1.0343  0.8320 -0.9890
 5515SOL    HW228179   3.012   1.651   0.543 -1.1812  0.0752  0.3778
 5516SOL     OW28180   4.580   0.070  10.719 -0.1961  0.0762 -0.3408
 5516SOL    HW128181   4.629   4.735  10.681 -1.1660  0.1912 -1.8256
 5516SOL    HW228182   4.646   0.138  10.728 -1.1760  0.9972 -0.0723
 5517SOL     OW28183   3.035   3.938   2.188 -0.1083 -0.5753 -0.0683
 5517SOL    HW128184   2.942   3.936   2.211  0.3942 -1.4235  1.8724
 5517SOL    HW228185   3.070   4.000   2.252  0.7828 -1.2076  0.0492
 5518SOL     OW28186   1.978   3.415   5.141  0.3595  0.0331 -0.5161
 5518SOL    HW128187   2.059   3.437   5.095  2.1303 -2.8092  1.2524
 5518SOL    HW228188   1.911   3.476   5.110  0.6657 -0.4973 -2.2253
 5519SOL     OW28189   0.456   0.222  11.388  0.4035  0.0972 -0.0764
 5519SOL    HW128190   0.504   0.247  11.467  0.0544  3.3373 -0.8614
 5519SOL    HW228191   0.493   0.143  11.349 -0.6314  0.1438 -1.1211
 5520SOL     OW28192   0.530   2.558   6.137  0.1982  0.0094 -0.0623
 5520SOL    HW128193   0.496   2.472   6.113 -1.3905  0.5457  0.2547
 5520SOL    HW228194   0.456   2.611   6.108  0.8923  0.9118 -0.1760
 5521SOL     OW28195   1.243   1.379   5.779 -0.1700 -0.3881  0.4914
 5521SOL    HW128196   1.244   1.437   5.855 -1.1029  1.5927 -1.0134
 5521SOL    HW228197   1.205   1.442   5.718 -2.0037 -3.5714 -1.6406
 5522SOL     OW28198   0.627   2.295   8.469 -0.1625  0.3699 -0.1406
 5522SOL    HW128199   0.671   2.373   8.436  0.5847  1.2554  2.9679
 5522SOL    HW228200   0.559   2.338   8.521  1.0141  2.8992 -0.7084
 5523SOL     OW28201   4.373   3.197  11.888  0.1089  0.2028 -0.3822
 5523SOL    HW128202   4.292   3.166  11.929  0.6544 -3.5353 -2.1305
 5523SOL    HW228203   4.440   3.154  11.941  0.6974 -0.1366 -1.4134
 5524SOL     OW28204   1.240   0.356  10.907 -0.4388 -0.0878 -0.2939
 5524SOL    HW128205   1.168   0.313  10.954  0.7276  1.6606  3.1156
 5524SOL    HW228206   1.305   0.296  10.943 -0.8647  0.4361  1.3513
 5525SOL     OW28207   3.765   2.457   3.834 -0.3252  0.1949 -0.1340
 5525SOL    HW128208   3.705   2.388   3.863 -0.9123  0.3049 -1.0694
 5525SOL    HW228209   3.754   2.527   3.899 -1.9388 -3.0221  3.0565
 5526SOL     OW28210   1.957   3.360   4.320  0.0564 -0.0268  0.2873
 5526SOL    HW128211   1.995   3.377   4.234  0.1444  1.6530  0.6574
 5526SOL    HW228212   2.016   3.292   4.353 -0.7685 -1.1908 -0.6325
 5527SOL     OW28213   4.585   4.234   6.499  0.0432  0.0608  0.3008
 5527SOL    HW128214   4.659   4.200   6.550  0.4920  0.5862 -0.0106
 5527SOL    HW228215   4.632   4.295   6.443 -0.9874  0.9526  0.4167
 5528SOL     OW28216   0.089   3.567   2.923 -0.0729 -0.4688 -0.4517
 5528SOL    HW128217   0.109   3.560   2.829 -3.2746  0.9644 -1.2464
 5528SOL    HW228218   0.026   3.638   2.932 -0.6472 -0.9253 -0.8469
 5529SOL     OW28219   1.109   4.151   1.718 -0.1053  0.1538 -1.0673
 5529SOL    HW128220   1.091   4.058   1.734 -2.1466  0.8005  0.4463
 5529SOL    HW228221   1.029   4.169   1.668 -1.9818 -0.4532  1.7000
 5530SOL     OW28222   1.057   3.871   8.205 -0.2245 -0.1218  0.1834
 5530SOL    HW128223   1.038   3.778   8.219 -1.5192 -0.0939 -1.4111
 5530SOL    HW228224   1.137   3.855   8.154  1.5401 -1.3883  3.3342
 5531SOL     OW28225   4.522   2.309   5.867 -0.1824  0.0533 -0.2513
 5531SOL    HW128226   4.452   2.371   5.848 -0.6666 -0.6097 -0.6012
 5531SOL    HW228227   4.574   2.306   5.787 -0.7413 -0.0675 -0.6097
 5532SOL     OW28228   4.203   0.928   2.154 -0.3059  0.2309  0.4755
 5532SOL    HW128229   4.172   1.009   2.113  0.0297 -0.2176 -0.6758
 5532SOL    HW228230   4.116   0.893   2.169  0.4301 -0.5978  2.7052
 5533SOL     OW28231   3.758   1.348   8.760 -0.3755  0.3301 -0.6531
 5533SOL    HW128232   3.774   1.264   8.803 -0.3885  0.4853 -0.3435
 5533SOL    HW228233   3.824   1.345   8.691 -1.8308  0.7543 -2.0741
 5534SOL     OW28234   1.744   3.914   8.929 -0.2660 -0.0597 -0.3935
 5534SOL    HW128235   1.650   3.930   8.932 -0.8582 -3.9786  1.6342
 5534SOL    HW228236   1.755   3.906   8.834  0.1172  0.0781 -0.3588
 5535SOL     OW28237   0.938   2.546   7.089  0.0908 -0.4270 -0.3932
 5535SOL    HW128238   0.877   2.493   7.141  1.7533 -1.4385  0.5159
 5535SOL    HW228239   0.968   2.475   7.032  0.8986 -2.1982  2.2814
 5536SOL     OW28240   1.916   1.548   2.525 -0.3891 -0.1703 -0.2892
 5536SOL    HW128241   1.924   1.639   2.497 -0.8639 -0.0406  0.0085
 5536SOL    HW228242   1.827   1.550   2.560  0.3363 -0.0745  1.5274
 5537SOL     OW28243   4.509   3.541   7.987  0.6456 -0.4503 -0.0357
 5537SOL    HW128244   4.523   3.507   8.075 -0.0245  3.5064  1.6147
 5537SOL    HW228245   4.460   3.622   8.003 -0.2390 -0.6732 -1.5837
 5538SOL     OW28246   2.496   1.259   9.143 -0.2613  0.3549  0.2025
 5538SOL    HW128247   2.473   1.347   9.115 -0.1838  0.8247  1.6153
 5538SOL    HW228248   2.592   1.261   9.135  0.0125 -1.4171  2.9654
 5539SOL     OW28249   3.808   2.755   0.932 -0.0534 -0.1887  0.6916
 5539SOL    HW128250   3.730   2.753   0.986  0.6284  0.5980  1.7149
 5539SOL    HW228251   3.868   2.820   0.969 -0.0552 -0.0231  0.4058
 5540SOL     OW28252   3.899   4.025   8.333  0.0097 -0.4706 -1.1603
 5540SOL    HW128253   3.827   4.078   8.368 -1.4507 -2.2426 -1.4690
 5540SOL    HW228254   3.883   4.027   8.238  0.5324  0.6355 -1.2211
 5541SOL     OW28255   4.033   0.535   9.457  0.2377 -0.2018 -0.1780
 5541SOL    HW128256   4.126   0.523   9.478  0.5915 -1.4637 -2.3955
 5541SOL    HW228257   4.001   0.611   9.505  1.7467  0.0433  0.4535
 5542SOL     OW28258   3.822   1.589   1.628 -0.0323 -0.2412 -0.5329
 5542SOL    HW128259   3.900   1.643   1.641 -0.8796  0.7362  0.4979
 5542SOL    HW228260   3.787   1.641   1.556  1.1054 -0.6130 -1.3496
 5543SOL     OW28261   2.304   3.218   6.592  0.3688  0.5348  0.2009
 5543SOL    HW128262   2.211   3.201   6.602  0.7086 -0.7203  1.2543
 5543SOL    HW228263   2.339   3.212   6.681 -0.4217 -1.0914  0.4009
 5544SOL     OW28264   1.571   1.456   5.609  0.1109 -0.3458 -0.0027
 5544SOL    HW128265   1.541   1.522   5.546 -0.7121  0.2890  1.0532
 5544SOL    HW228266   1.522   1.481   5.688  1.2321  1.2402  0.1834
 5545SOL     OW28267   0.735   3.511   7.900 -0.1837 -0.6082  0.0078
 5545SOL    HW128268   0.645   3.540   7.911  0.0771  0.3079 -0.3164
 5545SOL    HW228269   0.752   3.448   7.970 -1.9932 -0.6258  0.4276
 5546SOL     OW28270   2.338   3.471   3.869  0.1152  0.3040 -0.3578
 5546SOL    HW128271   2.417   3.422   3.847  0.7427  1.0181  0.3363
 5546SOL    HW228272   2.363   3.558   3.841 -0.9055  0.6751 -0.1308
 5547SOL     OW28273   1.440   0.072   4.679 -0.6430 -0.2602  0.2073
 5547SOL    HW128274   1.518   0.048   4.728 -0.7238 -0.3761  0.2778
 5547SOL    HW228275   1.444   0.168   4.688 -3.2644  0.0199 -1.7694
 5548SOL     OW28276   0.611   3.419   2.586  0.1690  0.0695  0.5122
 5548SOL    HW128277   0.608   3.389   2.495 -0.0044  0.4237  0.4032
 5548SOL    HW228278   0.538   3.370   2.623 -1.0881  2.1582  0.7565
 5549SOL     OW28279   4.498   2.155  10.793  0.0187 -0.3589  0.2749
 5549SOL    HW128280   4.416   2.174  10.839 -0.8439 -0.2887 -1.2992
 5549SOL    HW228281   4.530   2.081  10.845  0.8672 -0.8490 -0.9617
 5550SOL     OW28282   0.743   0.611   3.065 -0.1038 -0.2228 -0.2997
 5550SOL    HW128283   0.799   0.546   3.023  0.6079  0.5715 -0.5874
 5550SOL    HW228284   0.799   0.688   3.061  0.0046 -0.3942 -2.4266
 5551SOL     OW28285   4.201   4.533   9.852  0.6786  0.3031 -0.1766
 5551SOL    HW128286   4.239   4.621   9.858  1.2880  0.0042  0.3456
 5551SOL    HW228287   4.266   4.494   9.911 -2.5332 -0.9157  2.5688
 5552SOL     OW28288   3.524   2.719   9.176 -0.1275  0.1197  0.2624
 5552SOL    HW128289   3.570   2.758   9.251 -1.0358  2.7412 -0.5234
 5552SOL    HW228290   3.553   2.783   9.110 -0.0902  0.9711  1.0966
 5553SOL     OW28291   0.230   2.718   8.444 -0.1592 -0.1823  0.3572
 5553SOL    HW128292   0.250   2.799   8.489 -0.7277 -2.0327  3.9598
 5553SOL    HW228293   0.134   2.718   8.448 -0.1451 -0.7774  0.7460
 5554SOL     OW28294   3.300   0.430   3.921 -0.1530  0.4562  0.2834
 5554SOL    HW128295   3.303   0.525   3.909  2.7363  0.5202  1.5442
 5554SOL    HW228296   3.218   0.406   3.878  0.3524 -1.8669  0.6100
 5555SOL     OW28297   2.980   3.094  12.340 -0.6195 -0.0236 -0.0142
 5555SOL    HW128298   3.053   3.149  12.369  0.3941 -1.5736  0.3846
 5555SOL    HW228299   2.923   3.167  12.317 -0.6037 -0.1597 -0.4998
 5556SOL     OW28300   1.391   0.550  12.771 -0.3094  0.8472 -0.0154
 5556SOL    HW128301   1.349   0.580  12.852  0.6557 -0.4114  0.9545
 5556SOL    HW228302   1.408   0.460  12.799 -0.2536  1.6001  2.3855
 5557SOL     OW28303   1.038   0.641   6.202  0.1764  0.5369 -0.6355
 5557SOL    HW128304   0.944   0.638   6.180  0.9845  0.2014 -3.9922
 5557SOL    HW228305   1.083   0.675   6.126 -0.3325 -0.8652 -1.5624
 5558SOL     OW28306   1.466   3.255  11.884  0.1006 -0.1854  0.3713
 5558SOL    HW128307   1.511   3.201  11.818 -0.2627  0.0405 -0.0569
 5558SOL    HW228308   1.519   3.335  11.882  2.8444 -1.9466  2.0232
 5559SOL     OW28309   3.818   2.859  12.769  0.4058  0.7401  0.1177
 5559SOL    HW128310   3.874   2.916  12.822 -0.6747  1.0279  0.9510
 5559SOL    HW228311   3.740   2.859  12.824  0.4381  1.6387  0.1587
 5560SOL     OW28312   2.358   0.252  11.358  0.0092 -0.3231 -0.4555
 5560SOL    HW128313   2.427   0.213  11.413  0.1862 -0.9487 -1.1181
 5560SOL    HW228314   2.309   0.174  11.332 -0.8218 -0.1421  0.5697
 5561SOL     OW28315   2.714   2.172   0.218 -0.2245  0.2788  0.0776
 5561SOL    HW128316   2.635   2.203   0.261 -1.5619  0.5110 -2.5852
 5561SOL    HW228317   2.740   2.095   0.270  2.0755  0.6973 -0.4377
 5562SOL     OW28318   1.298   1.665  12.113 -0.3467 -0.0334  1.0487
 5562SOL    HW128319   1.366   1.673  12.180  0.1717  0.4492  0.4623
 5562SOL    HW228320   1.259   1.751  12.123  0.3150  0.4628 -0.5373
 5563SOL     OW28321   2.076   2.919   7.962 -0.1850  0.1083 -0.7372
 5563SOL    HW128322   2.055   2.827   7.947 -0.1812  0.2609 -1.6929
 5563SOL    HW228323   2.159   2.917   8.010 -0.5097 -0.2053 -0.1881
 5564SOL     OW28324   3.438   2.731   3.378 -0.2154 -0.9486 -0.5407
 5564SOL    HW128325   3.515   2.773   3.416 -1.8099  0.6618  0.9187
 5564SOL    HW228326   3.481   2.649   3.354 -0.1494 -2.0788  3.4739
 5565SOL     OW28327   3.943   0.841  17.286  0.4524  0.1524  0.1909
 5565SOL    HW128328   3.950   0.936  17.286  0.3953  0.1570  0.1320
 5565SOL    HW228329   4.032   0.813  17.305 -0.5090 -1.8368  1.6858
 5566SOL     OW28330   2.418   2.971   8.007  0.6906 -0.3419 -0.0744
 5566SOL    HW128331   2.382   2.987   8.094  0.3097  1.2319 -0.5178
 5566SOL    HW228332   2.512   2.966   8.027  1.4815  0.3665 -3.6740
 5567SOL     OW28333   3.313   1.287   7.820  0.4605 -0.0223  0.8814
 5567SOL    HW128334   3.296   1.320   7.732 -1.3586  3.0436  2.4017
 5567SOL    HW228335   3.408   1.284   7.808  0.3649 -0.4886  0.2475
 5568SOL     OW28336   2.109   2.404   4.263 -0.3595  0.0402  0.1449
 5568SOL    HW128337   2.155   2.454   4.196 -1.6011  0.5267 -0.3517
 5568SOL    HW228338   2.046   2.465   4.303  0.0175  0.1190  0.6202
 5569SOL     OW28339   1.667   3.303   8.429  0.1009 -0.2371  0.3744
 5569SOL    HW128340   1.572   3.301   8.438  0.1624  0.3426  1.1043
 5569SOL    HW228341   1.684   3.352   8.510 -4.0892 -2.0338  2.3009
 5570SOL     OW28342   2.700   1.472   7.265 -0.0522 -0.0972  0.5981
 5570SOL    HW128343   2.792   1.473   7.239  0.4594  2.0043  2.5289
 5570SOL    HW228344   2.676   1.385   7.232  0.7813 -0.6795  1.5534
 5571SOL     OW28345   3.466   0.503  11.041  0.3042  0.0781  1.1907
 5571SOL    HW128346   3.479   0.495  10.947 -1.8034 -1.5057  1.0348
 5571SOL    HW228347   3.498   0.420  11.077  0.6603 -0.3669 -0.1415
 5572SOL     OW28348   0.283   0.972  11.688  0.0114 -0.1017  0.4649
 5572SOL    HW128349   0.261   1.000  11.776 -2.9938  0.8743 -0.5865
 5572SOL    HW228350   0.378   0.965  11.696 -0.0062  0.8079  1.4075
 5573SOL     OW28351   4.661   2.540  15.898 -0.2842 -0.2864  0.5393
 5573SOL    HW128352   4.634   2.532  15.990 -2.8998 -0.7597 -0.2812
 5573SOL    HW228353   4.635   2.630  15.878 -0.9212 -0.8995 -1.4007
 5574SOL     OW28354   0.969   1.579   8.050  0.6840 -0.1775  0.2622
 5574SOL    HW128355   0.988   1.516   7.980  3.5739 -1.5504  2.2847
 5574SOL    HW228356   1.005   1.525   8.120  1.8503  0.5146  0.2037
 5575SOL     OW28357   3.986   2.959  17.597  0.2962 -0.0976 -0.5897
 5575SOL    HW128358   3.972   2.901  17.672  0.1010  0.5346 -0.1345
 5575SOL    HW228359   4.082   2.966  17.600  0.3003  0.0520 -1.0404
 5576SOL     OW28360   2.834   4.718   6.514  0.0997 -0.6922 -0.6250
 5576SOL    HW128361   2.848   0.073   6.499 -2.5864  0.1111  1.8617
 5576SOL    HW228362   2.803   4.684   6.430  0.9581 -2.5806 -0.1884
 5577SOL     OW28363   3.544   1.471   1.679 -0.2903 -0.3807 -0.0151
 5577SOL    HW128364   3.518   1.539   1.741  0.0130  1.1032 -1.5228
 5577SOL    HW228365   3.637   1.481   1.701  0.1765 -2.0290 -1.2171
 5578SOL     OW28366   2.989   1.400   9.746 -0.2944  0.1590 -0.2641
 5578SOL    HW128367   3.085   1.395   9.751 -0.2420  1.6984  0.0321
 5578SOL    HW228368   2.995   1.350   9.665  0.1049 -0.5652  0.2039
 5579SOL     OW28369   2.398   4.495   7.668 -0.4888  0.0809 -0.1904
 5579SOL    HW128370   2.429   4.473   7.756  1.4846  0.5996 -0.7560
 5579SOL    HW228371   2.397   4.590   7.663 -0.2340  0.0784 -0.2907
 5580SOL     OW28372   0.910   1.565   2.138 -0.1524 -0.2223 -0.0843
 5580SOL    HW128373   0.844   1.584   2.204  0.5545 -0.5268  0.7162
 5580SOL    HW228374   0.857   1.602   2.068 -0.8224 -0.5864  0.2379
 5581SOL     OW28375   0.953   3.771   6.814 -0.1294  0.5966  1.0660
 5581SOL    HW128376   1.034   3.771   6.763  0.8198  2.3837  2.5598
 5581SOL    HW228377   0.950   3.679   6.840  0.8558 -0.2764 -1.8596
 5582SOL     OW28378   1.917   1.564   4.926 -0.1047  0.0864  0.1178
 5582SOL    HW128379   1.984   1.502   4.955 -0.0285  1.0871  2.0821
 5582SOL    HW228380   1.980   1.632   4.900  0.2043  0.5972  2.1502
 5583SOL     OW28381   0.709   3.787  13.257  0.1784  0.7811  0.5801
 5583SOL    HW128382   0.750   3.869  13.230 -0.7369  0.6054 -1.3428
 5583SOL    HW228383   0.631   3.828  13.293 -1.1809 -1.0893 -0.2263
 5584SOL     OW28384   2.485   0.976   4.898 -0.1029 -0.9405 -0.1705
 5584SOL    HW128385   2.550   0.908   4.885  1.5976  0.4993  0.7911
 5584SOL    HW228386   2.534   1.057   4.881 -0.0869 -1.3651 -2.1124
 5585SOL     OW28387   2.751   2.605   4.734  0.1722 -0.7020  0.4655
 5585SOL    HW128388   2.837   2.570   4.709  1.0727  1.1584  0.9283
 5585SOL    HW228389   2.750   2.570   4.823 -1.0898  1.6564  1.3704
 5586SOL     OW28390   1.884   0.827   7.584  0.0211  0.4310 -0.4248
 5586SOL    HW128391   1.832   0.894   7.628 -0.9730  0.3675 -1.4983
 5586SOL    HW228392   1.968   0.871   7.569 -0.6556  2.2502  1.1287
 5587SOL     OW28393   2.947   3.543   7.930  0.2033  0.3700 -0.2167
 5587SOL    HW128394   2.887   3.470   7.916 -0.1193  0.5496  0.2331
 5587SOL    HW228395   3.016   3.519   7.869 -0.3996  1.3630 -1.2662
 5588SOL     OW28396   2.981   4.098   2.678  0.2419  0.1456 -0.1303
 5588SOL    HW128397   2.890   4.124   2.687 -0.2172 -1.1989 -0.9340
 5588SOL    HW228398   3.014   4.138   2.758 -2.3096 -0.9810  1.4815
 5589SOL     OW28399   3.108   0.204   4.826  0.3135  0.0376 -0.4041
 5589SOL    HW128400   3.154   0.267   4.770  2.7828 -0.0173  1.5899
 5589SOL    HW228401   3.150   0.123   4.797 -0.3569 -0.4012 -0.1276
 5590SOL     OW28402   3.604   0.557  11.825 -0.1740  0.2731 -0.5590
 5590SOL    HW128403   3.578   0.588  11.738 -1.0350  0.4397 -0.2449
 5590SOL    HW228404   3.546   0.618  11.872  0.6312  0.8293 -0.2869
 5591SOL     OW28405   0.045   4.336   8.217  0.1435  0.2738  0.2613
 5591SOL    HW128406   0.081   4.316   8.131 -0.1098 -0.4869  0.3283
 5591SOL    HW228407   0.099   4.409   8.248 -0.6408  0.5354  0.9966
 5592SOL     OW28408   4.181   0.098  15.144 -0.5312 -0.1544 -0.5593
 5592SOL    HW128409   4.246   0.030  15.162  0.1966  1.0813  1.4306
 5592SOL    HW228410   4.151   0.108  15.234  1.4798 -1.7358  0.2805
 5593SOL     OW28411   0.013   1.039  16.817 -0.2839 -0.8349 -0.1216
 5593SOL    HW128412   4.657   1.045  16.827 -0.3057  1.5080 -1.5464
 5593SOL    HW228413   0.043   1.026  16.907 -1.9151  0.3677  0.6007
 5594SOL     OW28414   1.304   3.644   5.548  0.4898 -0.0765 -0.2559
 5594SOL    HW128415   1.318   3.671   5.639 -1.2483 -2.0120  0.5989
 5594SOL    HW228416   1.379   3.687   5.506  0.3760 -0.5280 -0.9258
 5595SOL     OW28417   0.487   3.583   8.035  0.7131 -0.3729  0.1663
 5595SOL    HW128418   0.407   3.615   8.077  0.9018 -1.7637  1.5896
 5595SOL    HW228419   0.460   3.576   7.943 -0.3841  2.0682  0.2915
 5596SOL     OW28420   0.843   2.356  13.828  0.5470  0.0889  0.2553
 5596SOL    HW128421   0.748   2.357  13.837  0.4726 -2.3009 -0.3125
 5596SOL    HW228422   0.869   2.266  13.851  0.0390  0.1829  1.1799
 5597SOL     OW28423   0.490   2.996  12.043  0.7414 -0.1906 -0.5152
 5597SOL    HW128424   0.422   3.031  12.101 -1.3575 -2.4488 -1.6418
 5597SOL    HW228425   0.440   2.962  11.969  1.9515  2.1185 -2.4040
 5598SOL     OW28426   1.033   1.857   3.602  0.5144 -0.4782  0.4133
 5598SOL    HW128427   1.079   1.797   3.543  1.7180  0.0350  0.8373
 5598SOL    HW228428   1.030   1.932   3.543  4.1346 -0.6764 -0.0091
 5599SOL     OW28429   2.737   1.482   4.271  0.1296  0.4146  0.5616
 5599SOL    HW128430   2.656   1.530   4.292 -0.0665  0.1692  0.3610
 5599SOL    HW228431   2.798   1.542   4.314  0.9397 -0.2042  0.2487
 5600SOL     OW28432   3.188   2.699  12.590 -0.3492 -0.0338  0.1174
 5600SOL    HW128433   3.128   2.744  12.530 -0.7983 -0.5060  0.2104
 5600SOL    HW228434   3.270   2.747  12.586  0.3040 -1.0028  1.8785
 5601SOL     OW28435   3.256   0.297  13.968  0.0724  0.1294 -0.2100
 5601SOL    HW128436   3.304   0.354  14.028  1.4957  0.1084 -1.3170
 5601SOL    HW228437   3.272   0.336  13.881  2.2630  1.5248  0.8107
 5602SOL     OW28438   3.959   4.501   7.329  0.0892  0.0788  0.4250
 5602SOL    HW128439   3.981   4.452   7.409 -0.7749 -0.2158  0.4860
 5602SOL    HW228440   4.041   4.489   7.282 -0.2467 -0.2606 -0.0715
 5603SOL     OW28441   4.440   2.309   1.041 -0.0652  0.2654  0.4263
 5603SOL    HW128442   4.401   2.252   0.974 -2.0178  1.9315  0.1791
 5603SOL    HW228443   4.381   2.302   1.115  0.0932 -0.4153  0.4903
 5604SOL     OW28444   4.550   0.388   0.735 -0.2658 -0.2107  0.4152
 5604SOL    HW128445   4.551   0.309   0.681  1.1108  0.2541 -0.2434
 5604SOL    HW228446   4.614   0.355   0.799 -0.7604  0.7970  1.4226
 5605SOL     OW28447   4.689   4.414   3.751  0.4997  0.2536 -0.1940
 5605SOL    HW128448   4.726   4.366   3.825  0.1901 -0.4712 -0.5143
 5605SOL    HW228449   4.670   4.500   3.789  1.2391  1.1128 -1.7607
 5606SOL     OW28450   3.468   1.841  17.222 -0.2848 -0.0026 -0.1278
 5606SOL    HW128451   3.425   1.872  17.301  1.3537 -1.2034  1.2427
 5606SOL    HW228452   3.425   1.890  17.152 -0.9050 -0.3356  0.0212
 5607SOL     OW28453   0.339   0.834   3.908  0.0655 -0.3357 -0.0778
 5607SOL    HW128454   0.269   0.784   3.950 -1.5697  0.5233 -1.7870
 5607SOL    HW228455   0.408   0.838   3.974 -0.2325 -0.3226  0.2312
 5608SOL     OW28456   0.950   2.939   4.612 -0.2648 -0.1430  0.1903
 5608SOL    HW128457   1.039   2.911   4.632 -0.3639  0.4575  1.5084
 5608SOL    HW228458   0.971   2.994   4.537 -0.6945 -0.6501 -0.2976
 5609SOL     OW28459   2.182   4.054   8.491  0.9566  0.2352 -0.2625
 5609SOL    HW128460   2.210   4.047   8.583 -0.3888 -1.5469  0.0159
 5609SOL    HW228461   2.109   4.116   8.499  0.0607 -0.8026 -0.3122
 5610SOL     OW28462   1.490   3.405  10.484 -0.7565 -0.0411 -0.3044
 5610SOL    HW128463   1.507   3.332  10.425  1.7890 -1.3669  2.1061
 5610SOL    HW228464   1.470   3.470  10.416  1.0248 -0.3539 -1.1032
 5611SOL     OW28465   4.467   2.131   7.941  0.0680 -0.1250 -0.4158
 5611SOL    HW128466   4.380   2.154   7.908  0.5375  2.0502 -0.1230
 5611SOL    HW228467   4.474   2.184   8.021  2.6369  1.0314 -1.4101
 5612SOL     OW28468   3.899   4.291   5.733  0.2354 -0.3843  0.1126
 5612SOL    HW128469   3.859   4.307   5.818 -0.0612 -3.8716  0.6642
 5612SOL    HW228470   3.827   4.315   5.674  0.4212 -2.4355 -0.9730
 5613SOL     OW28471   2.536   1.416   5.912  0.2955  0.6009  0.4115
 5613SOL    HW128472   2.457   1.415   5.966  0.2567 -2.6642  0.3453
 5613SOL    HW228473   2.505   1.428   5.822 -2.1173  0.9771  1.2881
 5614SOL     OW28474   4.176   3.553   9.038 -0.0496 -0.6300  0.2568
 5614SOL    HW128475   4.260   3.522   9.071  0.7483  1.9048  0.6426
 5614SOL    HW228476   4.121   3.479   9.061  0.7080 -0.9416  1.1056
 5615SOL     OW28477   2.806   1.896  17.082  0.1561 -0.3734 -0.6736
 5615SOL    HW128478   2.890   1.896  17.128  0.2081  3.2959 -0.7595
 5615SOL    HW228479   2.822   1.820  17.027  2.6756  0.3318 -0.8979
 5616SOL     OW28480   2.800   3.091   2.247 -0.1199  0.2976 -0.2977
 5616SOL    HW128481   2.705   3.089   2.238  0.0346 -2.8530 -1.3229
 5616SOL    HW228482   2.823   2.998   2.247 -0.3374  0.2414  0.0646
 5617SOL     OW28483   3.960   1.017   5.225  0.1459  0.4058 -0.4491
 5617SOL    HW128484   4.053   1.040   5.214  0.7974 -1.8788  0.2790
 5617SOL    HW228485   3.927   0.984   5.142 -0.0223  0.2588 -0.3242
 5618SOL     OW28486   0.387   2.669   9.009  0.3317 -0.3712 -0.4236
 5618SOL    HW128487   0.480   2.650   8.996  0.5097 -1.4643  2.4511
 5618SOL    HW228488   0.377   2.764   9.003 -3.4351 -0.8515 -1.2291
 5619SOL     OW28489   2.219   3.483   5.026  0.0560 -0.0588 -0.3475
 5619SOL    HW128490   2.212   3.442   4.939 -0.8509  2.9211 -1.6853
 5619SOL    HW228491   2.252   3.570   5.001 -0.0674 -0.3510 -1.5611
 5620SOL     OW28492   2.757   3.170   3.237 -0.2316  0.4886 -0.2357
 5620SOL    HW128493   2.765   3.261   3.267 -1.5977  0.4634  0.1944
 5620SOL    HW228494   2.678   3.179   3.183 -1.4874 -0.9762  1.3859
 5621SOL     OW28495   3.581   1.673   4.778 -0.3549  0.1337 -0.0501
 5621SOL    HW128496   3.581   1.721   4.861  0.6114 -0.7850  0.4838
 5621SOL    HW228497   3.659   1.714   4.743 -0.1783  1.2251  1.6246
 5622SOL     OW28498   1.938   1.089   1.750  0.5296 -0.0294  0.0290
 5622SOL    HW128499   1.930   1.184   1.740 -1.7722 -0.2865 -0.4460
 5622SOL    HW228500   2.015   1.068   1.697  0.1071  0.4802 -0.7910
 5623SOL     OW28501   3.696   4.272   5.973  0.0167  0.8078  0.3779
 5623SOL    HW128502   3.729   4.279   6.063 -0.2072 -1.1974  0.6028
 5623SOL    HW228503   3.674   4.362   5.947  0.1248  1.5871  2.9926
 5624SOL     OW28504   4.233   3.133   9.279  0.1940  0.6599  0.0859
 5624SOL    HW128505   4.308   3.093   9.322  0.1099  0.0565 -0.3346
 5624SOL    HW228506   4.214   3.066   9.213  1.4781 -0.3203  0.7106
 5625SOL     OW28507   2.425   4.020  11.426  0.6776 -0.3509 -0.7893
 5625SOL    HW128508   2.437   4.111  11.453  0.8699 -1.2169  1.9770
 5625SOL    HW228509   2.515   3.990  11.439  1.6325  2.8625  0.0815
 5626SOL     OW28510   3.560   4.466  17.221  0.2464  0.0576 -0.1680
 5626SOL    HW128511   3.496   4.506  17.279 -1.1035 -0.4550 -1.2854
 5626SOL    HW228512   3.514   4.466  17.137  1.9231  0.4039 -1.0850
 5627SOL     OW28513   0.797   2.860   3.218  0.7764 -0.0205 -0.1211
 5627SOL    HW128514   0.725   2.811   3.257  1.7637 -1.2479  0.1556
 5627SOL    HW228515   0.849   2.789   3.180  0.1870  0.1805 -1.3026
 5628SOL     OW28516   4.176   0.796   8.198 -0.3206  0.1711  0.2272
 5628SOL    HW128517   4.091   0.791   8.242  0.2217  1.3797  1.4061
 5628SOL    HW228518   4.158   0.840   8.115  0.8948 -0.4600 -0.3713
 5629SOL     OW28519   3.411   0.246   5.025 -0.6685 -0.4055 -0.0839
 5629SOL    HW128520   3.382   0.331   5.059 -4.3119 -1.7308  0.0958
 5629SOL    HW228521   3.455   0.268   4.944 -0.1159  0.2325  0.3849
 5630SOL     OW28522   3.037   2.536   0.225 -0.4217 -0.6629  0.0036
 5630SOL    HW128523   3.038   2.591   0.146  1.3319 -0.7096 -0.0164
 5630SOL    HW228524   3.032   2.597   0.299  2.8631 -0.1403 -0.1753
 5631SOL     OW28525   0.463   1.160   6.558 -0.4347 -0.0639  0.5855
 5631SOL    HW128526   0.385   1.126   6.602 -0.8682 -1.4960 -1.3255
 5631SOL    HW228527   0.533   1.096   6.548 -1.7594 -1.9340  3.4292
 5632SOL     OW28528   4.168   2.902   8.859  0.7794  0.9578  0.4890
 5632SOL    HW128529   4.111   2.840   8.812  0.9952 -0.3494  1.9484
 5632SOL    HW228530   4.213   2.948   8.788 -1.0792  1.2246 -0.5187
 5633SOL     OW28531   1.636   3.680   5.632  0.0036 -0.3968 -0.1041
 5633SOL    HW128532   1.645   3.593   5.594  0.7905 -0.3990  0.0982
 5633SOL    HW228533   1.712   3.724   5.593 -1.9079  0.7671 -2.5099
 5634SOL     OW28534   1.602   2.017   8.157  0.2592  0.0137 -0.0630
 5634SOL    HW128535   1.682   2.019   8.104 -1.5125 -3.0746 -2.8829
 5634SOL    HW228536   1.575   2.107   8.172  0.7669  0.6882 -3.1427
 5635SOL     OW28537   0.637   1.778   0.992  0.5771  0.4918  0.6573
 5635SOL    HW128538   0.717   1.752   1.037  1.4248 -0.1241 -1.1723
 5635SOL    HW228539   0.582   1.700   1.001 -1.4645  1.8160 -0.4063
 5636SOL     OW28540   2.996   1.167   2.731  0.1860 -0.2939 -0.4232
 5636SOL    HW128541   3.034   1.156   2.644 -0.7235  0.7696 -0.9639
 5636SOL    HW228542   3.039   1.095   2.777  4.4782  1.5090 -1.5590
 5637SOL     OW28543   0.145   0.337   7.626 -0.4898  0.0510 -0.0537
 5637SOL    HW128544   0.079   0.294   7.681 -1.0588 -0.2262 -0.9486
 5637SOL    HW228545   0.095   0.379   7.556 -0.5220  0.5169  0.2554
 5638SOL     OW28546   1.653   4.417   8.275 -0.0678  0.3247 -0.0466
 5638SOL    HW128547   1.649   4.322   8.281 -1.0801  0.4297  1.0122
 5638SOL    HW228548   1.566   4.426   8.237  0.2319  2.9514 -0.1219
 5639SOL     OW28549   2.556   3.870   2.452 -0.3373  0.1998 -0.0162
 5639SOL    HW128550   2.545   3.810   2.526 -5.2052  1.6178  0.4608
 5639SOL    HW228551   2.573   3.800   2.389  0.4657 -1.0549  1.6067
 5640SOL     OW28552   4.326   4.716   0.152  0.6423 -0.1185  0.3504
 5640SOL    HW128553   4.356   4.659   0.082  1.1607  0.8040 -0.1802
 5640SOL    HW228554   4.237   0.001   0.125  0.1730 -0.9252  1.2018
 5641SOL     OW28555   1.806   4.219   3.168 -0.5902  0.3177  0.0623
 5641SOL    HW128556   1.866   4.273   3.116 -2.0597  1.3135 -0.5957
 5641SOL    HW228557   1.762   4.168   3.101  1.4165 -0.1820 -0.8916
 5642SOL     OW28558   3.962   1.499   5.921  0.1453  0.2806  0.3957
 5642SOL    HW128559   3.995   1.409   5.922 -0.1051  0.1762 -0.6062
 5642SOL    HW228560   4.044   1.547   5.920  0.1517  0.2459 -0.8902
 5643SOL     OW28561   1.460   3.188  15.834  0.3816  0.4849 -0.4953
 5643SOL    HW128562   1.402   3.187  15.758  2.0045 -1.2502 -1.6668
 5643SOL    HW228563   1.405   3.228  15.902 -1.2047 -1.8782 -0.3779
 5644SOL     OW28564   3.494   2.270  14.356 -0.2245  0.2296  0.4911
 5644SOL    HW128565   3.574   2.219  14.373 -0.6844 -0.8043 -0.4115
 5644SOL    HW228566   3.446   2.210  14.300 -0.0370 -0.1760  0.7601
 5645SOL     OW28567   3.867   3.224   2.788 -0.6290  0.0678 -0.1338
 5645SOL    HW128568   3.834   3.211   2.699  1.0584  1.1312 -0.9009
 5645SOL    HW228569   3.848   3.142   2.834 -0.6164  0.1251 -0.0267
 5646SOL     OW28570   1.958   0.161   5.164  0.5172  0.2482 -0.2709
 5646SOL    HW128571   1.980   0.087   5.107  0.8834  0.5306 -0.4901
 5646SOL    HW228572   2.041   0.175   5.208  0.1434  2.5971 -0.3408
 5647SOL     OW28573   3.006   3.265   3.122 -0.4954  0.6155  0.1483
 5647SOL    HW128574   2.920   3.223   3.118 -0.1580 -0.0053 -0.4333
 5647SOL    HW228575   3.069   3.194   3.122 -0.1661  0.9115 -0.8384
 5648SOL     OW28576   0.577   2.395   3.049  0.0856  0.3788  0.3115
 5648SOL    HW128577   0.664   2.436   3.054  0.9710 -1.5580  0.8705
 5648SOL    HW228578   0.527   2.475   3.064 -0.2062  0.3728 -0.6097
 5649SOL     OW28579   0.123   4.013  11.299  0.2611  0.0911  0.5544
 5649SOL    HW128580   0.102   4.105  11.316 -1.3403 -0.2664  0.4852
 5649SOL    HW228581   0.216   4.019  11.276 -0.4965  2.7108 -1.8861
 5650SOL     OW28582   4.710   4.720   7.860 -0.2136  0.3537  0.2686
 5650SOL    HW128583   0.040   4.656   7.840  0.6373  1.1570  0.5978
 5650SOL    HW228584   4.673   4.682   7.940  1.3093  0.0255  0.8149
 5651SOL     OW28585   3.843   3.918  17.621 -0.0225  0.0582  0.1027
 5651SOL    HW128586   3.844   3.995  17.679 -0.2521  0.2899 -0.1999
 5651SOL    HW228587   3.841   3.965  17.537  1.2578 -3.1897 -1.7172
 5652SOL     OW28588   4.238   0.638   5.032  0.5541  0.0828  0.5751
 5652SOL    HW128589   4.152   0.624   5.071  0.5001 -4.7035 -1.2356
 5652SOL    HW228590   4.289   0.654   5.112  2.3563  1.2075 -0.7936
 5653SOL     OW28591   1.772   3.676   3.677 -0.2210  0.0646 -0.0256
 5653SOL    HW128592   1.739   3.764   3.659 -0.4200 -0.1559 -0.7237
 5653SOL    HW228593   1.692   3.631   3.706  0.4693 -1.8151 -1.0891
 5654SOL     OW28594   1.330   1.742  17.412 -0.6232  0.5073 -0.0428
 5654SOL    HW128595   1.238   1.762  17.426 -1.3613 -1.6248 -1.8808
 5654SOL    HW228596   1.355   1.685  17.485 -1.4058 -0.2051 -0.3244
 5655SOL     OW28597   4.171   4.478   1.859 -0.2368 -0.1496 -0.4845
 5655SOL    HW128598   4.188   4.401   1.912  2.8620  0.8315 -0.0273
 5655SOL    HW228599   4.100   4.440   1.809 -2.0365 -0.8045  2.5485
 5656SOL     OW28600   0.931   4.476   4.859  0.0771 -0.3301 -0.0806
 5656SOL    HW128601   0.891   4.547   4.909 -1.7256 -1.1600 -0.3486
 5656SOL    HW228602   0.964   4.526   4.784  0.7990 -2.7114 -1.3384
 5657SOL     OW28603   1.286   1.986   8.625 -0.2136 -0.1791 -0.0976
 5657SOL    HW128604   1.327   1.954   8.545 -0.1547  0.9570 -0.5236
 5657SOL    HW228605   1.307   1.923   8.693  4.0038  2.2064  0.7569
 5658SOL     OW28606   3.595   1.001   0.968  0.5274 -0.4863 -0.0111
 5658SOL    HW128607   3.653   0.925   0.971  1.4375  0.2489  0.6610
 5658SOL    HW228608   3.617   1.050   1.047 -2.9172 -0.9438  1.2311
 5659SOL     OW28609   4.299   1.662   3.607  0.1377  0.0102  0.3088
 5659SOL    HW128610   4.213   1.681   3.570  0.8491 -0.3721 -1.5265
 5659SOL    HW228611   4.272   1.622   3.690  0.5210  1.2784  1.0488
 5660SOL     OW28612   3.719   1.078   0.213  0.0244  0.1912  0.8411
 5660SOL    HW128613   3.805   1.114   0.233  0.2050 -0.7468  1.7039
 5660SOL    HW228614   3.670   1.160   0.222 -0.3199 -0.1512  2.0639
 5661SOL     OW28615   1.662   4.360   1.974 -0.3410  0.5250  0.0717
 5661SOL    HW128616   1.611   4.280   1.965  1.1196 -0.4000 -0.0415
 5661SOL    HW228617   1.662   4.361   2.070  1.2625 -0.9757  0.0912
 5662SOL     OW28618   0.525   1.355   7.967 -0.2198  0.5545 -0.6304
 5662SOL    HW128619   0.558   1.315   8.047  0.9383  1.9351 -0.4216
 5662SOL    HW228620   0.433   1.370   7.992  0.2904 -2.7359  3.2613
 5663SOL     OW28621   0.745   4.099   6.395 -0.3477  0.6515 -0.5530
 5663SOL    HW128622   0.832   4.104   6.434 -0.3237 -1.3842 -0.3459
 5663SOL    HW228623   0.698   4.087   6.477  1.4210  2.4183  0.6921
 5664SOL     OW28624   0.734   3.043   1.418 -0.7662 -0.5045 -0.6871
 5664SOL    HW128625   0.800   2.978   1.444 -2.8252 -2.3363 -0.0547
 5664SOL    HW228626   0.701   3.010   1.335  0.0016 -0.2537 -1.0927
 5665SOL     OW28627   1.498   2.046   7.677 -0.4563 -0.7691 -0.4986
 5665SOL    HW128628   1.412   2.032   7.716 -0.6398  0.3241 -0.5225
 5665SOL    HW228629   1.496   2.142   7.674 -0.6128 -0.7590 -0.0411
 5666SOL     OW28630   3.886   3.939   7.668  0.1121 -0.0024 -0.1625
 5666SOL    HW128631   3.844   4.019   7.701 -0.9582 -0.8725  0.5699
 5666SOL    HW228632   3.937   3.923   7.748  0.7129 -0.7567 -0.7054
 5667SOL     OW28633   4.241   3.626   9.729 -0.0292 -0.7467  0.3437
 5667SOL    HW128634   4.321   3.638   9.780 -1.5039 -0.8366  2.6696
 5667SOL    HW228635   4.206   3.712   9.705  0.9942  0.1464  2.0898
 5668SOL     OW28636   1.627   3.566  13.832 -0.1332  0.4668 -0.2233
 5668SOL    HW128637   1.676   3.486  13.849  0.2033  0.5337 -0.8885
 5668SOL    HW228638   1.701   3.618  13.801  0.7208 -1.2471 -1.0439
 5669SOL     OW28639   2.768   3.886   4.222 -0.6681  0.0278  0.5115
 5669SOL    HW128640   2.792   3.903   4.131  0.8396 -0.1975  0.8721
 5669SOL    HW228641   2.718   3.806   4.210  0.3555 -0.4141 -0.7493
 5670SOL     OW28642   1.680   0.922   9.067  0.3119 -0.0435 -0.1043
 5670SOL    HW128643   1.697   0.846   9.122 -2.4931 -0.9357 -0.4866
 5670SOL    HW228644   1.712   0.902   8.979 -0.2377 -2.4003  0.2409
 5671SOL     OW28645   4.301   4.455   3.765  0.0313  0.3333  0.0495
 5671SOL    HW128646   4.256   4.383   3.810  1.4052 -0.9486 -0.6180
 5671SOL    HW228647   4.352   4.405   3.701 -1.3091  0.0806 -0.8156
 5672SOL     OW28648   4.527   1.012   1.549  0.0661 -0.0563  0.1261
 5672SOL    HW128649   4.432   1.000   1.553 -0.4773  3.9956 -0.6844
 5672SOL    HW228650   4.532   1.088   1.607  0.1443 -1.1480  1.5461
 5673SOL     OW28651   0.171   3.840   6.478 -0.3602 -0.1982  0.2487
 5673SOL    HW128652   0.241   3.883   6.430 -0.1144  1.9445  2.5318
 5673SOL    HW228653   0.195   3.847   6.571 -0.4012 -2.7489  0.4601
 5674SOL     OW28654   1.042   4.178   1.254  0.3847  0.1011 -0.5343
 5674SOL    HW128655   1.104   4.247   1.229  0.1359  0.5583  0.0951
 5674SOL    HW228656   0.969   4.200   1.195  0.0620 -4.7987 -1.9405
 5675SOL     OW28657   2.564   4.398   0.406 -0.0059  0.1881 -0.1956
 5675SOL    HW128658   2.617   4.478   0.406  0.2820 -0.0096 -1.6470
 5675SOL    HW228659   2.535   4.394   0.315 -0.7978  0.4074  0.0514
 5676SOL     OW28660   0.986   0.346   9.170 -0.3923  0.7188 -0.1811
 5676SOL    HW128661   1.058   0.400   9.138 -0.6622  1.2800  0.1699
 5676SOL    HW228662   0.990   0.360   9.264  0.0595 -0.6279  0.0060
 5677SOL     OW28663   3.467   0.813   5.826 -0.1082  0.1627 -0.5601
 5677SOL    HW128664   3.386   0.763   5.817 -1.0127  1.5543 -0.3071
 5677SOL    HW228665   3.449   0.895   5.779 -0.3121  0.8297  0.6824
 5678SOL     OW28666   2.517   0.114   2.630  0.1070 -0.0679 -0.8735
 5678SOL    HW128667   2.583   0.161   2.579 -0.2447  1.7073  0.3247
 5678SOL    HW228668   2.473   0.190   2.669 -0.0504 -1.0213  0.8056
 5679SOL     OW28669   0.223   1.134   6.088 -0.0804  0.2188  0.1849
 5679SOL    HW128670   0.166   1.200   6.127 -0.2232 -0.0223  0.3884
 5679SOL    HW228671   0.170   1.058   6.112  1.1137 -0.7009 -0.0733
 5680SOL     OW28672   2.044   3.899   2.431 -0.3693 -1.0431  0.4328
 5680SOL    HW128673   1.953   3.877   2.412 -0.8743 -0.4065  2.0527
 5680SOL    HW228674   2.078   3.880   2.344 -0.3717  0.8867 -0.0070
 5681SOL     OW28675   1.511   4.657   5.898  1.0141  0.1696  0.0875
 5681SOL    HW128676   1.554   4.650   5.813 -0.8637 -3.5097 -0.5639
 5681SOL    HW228677   1.527   4.572   5.940  1.2143 -0.5314 -1.4121
 5682SOL     OW28678   3.308   1.536   6.358 -0.2022  0.0159 -0.2646
 5682SOL    HW128679   3.308   1.617   6.307 -0.5977 -0.6367 -1.2975
 5682SOL    HW228680   3.369   1.491   6.300  0.8026  0.2189  0.6345
 5683SOL     OW28681   0.418   0.021  15.295 -0.3259  0.0173 -0.1801
 5683SOL    HW128682   0.334   4.720  15.314  0.4877 -1.3927  0.4900
 5683SOL    HW228683   0.439   4.711  15.216 -2.5878  1.0049 -1.3626
 5684SOL     OW28684   0.813   3.290   6.426 -0.2195 -0.6576  0.6613
 5684SOL    HW128685   0.721   3.293   6.452 -0.0918 -0.3666  1.0804
 5684SOL    HW228686   0.852   3.369   6.464  1.1404 -1.3807  0.7691
 5685SOL     OW28687   0.441   3.136   2.992  0.2689  0.4199  0.2768
 5685SOL    HW128688   0.399   3.222   3.001  0.1840  0.5690 -1.6031
 5685SOL    HW228689   0.510   3.131   3.058  0.1637  0.0158  0.3539
 5686SOL     OW28690   3.852   1.462   4.562 -0.1762 -0.7666 -0.2117
 5686SOL    HW128691   3.845   1.368   4.545 -0.0857 -0.9089  0.5334
 5686SOL    HW228692   3.839   1.502   4.476  1.0551  1.4457  0.6087
 5687SOL     OW28693   1.105   0.585   8.209  0.1425  0.0021 -0.1558
 5687SOL    HW128694   1.019   0.546   8.196  0.4271 -0.6099 -0.1797
 5687SOL    HW228695   1.118   0.572   8.303  1.4792  0.0481 -0.3407
 5688SOL     OW28696   2.188   4.143   3.918  0.7347  0.0677  0.3240
 5688SOL    HW128697   2.196   4.066   3.974  1.4506 -1.6572 -2.1550
 5688SOL    HW228698   2.160   4.211   3.980  0.6135  0.3460 -0.0305
 5689SOL     OW28699   2.064   4.652   6.185 -0.3308 -0.0531 -0.5584
 5689SOL    HW128700   2.017   4.587   6.238  2.0927 -1.7460 -0.4749
 5689SOL    HW228701   2.011   4.655   6.105 -2.1982  1.3751  0.7411
 5690SOL     OW28702   0.482   2.627   2.292 -0.2372  0.1244  0.8934
 5690SOL    HW128703   0.397   2.628   2.248 -0.3967  2.1454  1.2554
 5690SOL    HW228704   0.541   2.669   2.229 -2.0885  2.1565  0.5390
 5691SOL     OW28705   4.200   2.441   9.356 -0.0856  0.2470 -0.2962
 5691SOL    HW128706   4.164   2.528   9.339  0.1346  0.5983  1.0194
 5691SOL    HW228707   4.294   2.447   9.341 -0.5511  1.8844 -2.4649
 5692SOL     OW28708   3.615   3.221   9.671 -0.0697 -0.1654  0.4269
 5692SOL    HW128709   3.634   3.309   9.638 -1.0833  0.6888  2.1298
 5692SOL    HW228710   3.676   3.171   9.617 -0.1884 -0.8134  0.8917
 5693SOL     OW28711   2.030   2.074   6.920 -0.0306  0.5914  0.0445
 5693SOL    HW128712   1.952   2.057   6.973 -1.3916 -1.1801 -2.5908
 5693SOL    HW228713   1.997   2.127   6.848 -4.1089  0.6135  1.8923
 5694SOL     OW28714   0.182   2.201  13.319  0.4427 -0.0949  0.1572
 5694SOL    HW128715   0.233   2.264  13.371 -1.0574  0.0734  1.4100
 5694SOL    HW228716   0.163   2.250  13.238  2.9593  0.1027 -0.3056
 5695SOL     OW28717   2.099   2.588   3.203  0.4204 -0.5362  0.2487
 5695SOL    HW128718   2.141   2.508   3.236  1.3386 -0.0338  0.3244
 5695SOL    HW228719   2.170   2.653   3.207  0.2542 -0.3793  0.7751
 5696SOL     OW28720   0.891   0.934  15.834  0.6223 -0.0425  0.1007
 5696SOL    HW128721   0.906   0.979  15.751 -0.0365 -0.5134 -0.2752
 5696SOL    HW228722   0.974   0.947  15.880  0.9593 -0.2702 -0.4431
 5697SOL     OW28723   0.306   1.130   5.020  0.2522  0.1898  0.4384
 5697SOL    HW128724   0.337   1.178   5.096  3.4026  0.9090 -1.2853
 5697SOL    HW228725   0.214   1.154   5.009  0.0848 -0.6548  0.0201
 5698SOL     OW28726   4.668   4.508   1.614  0.3786  0.0464 -0.1169
 5698SOL    HW128727   0.007   4.451   1.625 -1.1475 -1.9359  0.3465
 5698SOL    HW228728   4.680   4.552   1.530 -1.6661  2.3161  0.8017
 5699SOL     OW28729   2.395   1.052   1.247 -0.3219 -0.1693 -0.2202
 5699SOL    HW128730   2.488   1.074   1.257 -0.1110 -2.5268  2.7726
 5699SOL    HW228731   2.379   1.098   1.164  3.8315  1.5976 -0.0694
 5700SOL     OW28732   4.687   1.062   1.306  0.9071 -0.3290 -0.2333
 5700SOL    HW128733   4.620   1.015   1.355 -0.4332  1.5357 -0.2894
 5700SOL    HW228734   4.639   1.106   1.235 -0.6621  0.5091  1.3487
 5701SOL     OW28735   3.382   3.038  16.930 -0.4633  0.0726 -0.1285
 5701SOL    HW128736   3.386   3.053  16.836  0.3470  0.6984  0.0050
 5701SOL    HW228737   3.347   3.126  16.946 -0.6337  0.6039 -3.3939
 5702SOL     OW28738   1.180   3.206   8.083  0.2344 -0.1753  0.5823
 5702SOL    HW128739   1.232   3.147   8.028  0.2527 -0.0297  0.4456
 5702SOL    HW228740   1.240   3.278   8.097  0.1285  0.2586 -1.2599
 5703SOL     OW28741   2.593   3.768   3.058  0.5573 -0.0335 -0.8710
 5703SOL    HW128742   2.664   3.832   3.057  0.8832 -0.3895 -0.1326
 5703SOL    HW228743   2.518   3.824   3.079  1.1872  1.1759 -1.8528
 5704SOL     OW28744   0.308   3.885   1.227 -0.6359 -0.2302  0.2537
 5704SOL    HW128745   0.348   3.916   1.146 -0.4404  1.4120  0.9867
 5704SOL    HW228746   0.219   3.919   1.218  0.0035  1.3504  0.0192
 5705SOL     OW28747   1.110   4.614   1.580  0.2995  0.2918  0.1464
 5705SOL    HW128748   1.062   4.560   1.516 -0.0835 -1.5486  1.9952
 5705SOL    HW228749   1.044   4.649   1.639  0.2801 -0.7817  0.7631
 5706SOL     OW28750   4.029   2.937   5.786 -0.0720  0.2318  0.3056
 5706SOL    HW128751   4.006   2.849   5.758  0.1622 -0.8455  3.4617
 5706SOL    HW228752   3.977   2.997   5.732  1.1788  0.2233 -0.8959
 5707SOL     OW28753   2.491   0.483   2.456  0.3760  0.1997 -0.1371
 5707SOL    HW128754   2.460   0.455   2.370 -2.2696 -0.8307  1.1527
 5707SOL    HW228755   2.454   0.419   2.516  1.0453 -0.4711 -0.4365
 5708SOL     OW28756   0.351   2.868   7.771 -0.3475  0.1909  0.3568
 5708SOL    HW128757   0.377   2.783   7.808 -1.3515 -0.3880 -0.2601
 5708SOL    HW228758   0.374   2.867   7.678  2.3417 -1.4560  1.0323
 5709SOL     OW28759   1.938   1.026   2.763  0.1984 -0.2609  0.0917
 5709SOL    HW128760   1.903   0.942   2.734 -3.3275  0.8853  1.1023
 5709SOL    HW228761   1.879   1.031   2.838  0.1408  0.5170 -0.0049
 5710SOL     OW28762   3.479   1.350   6.718  0.5530 -0.0448  0.1681
 5710SOL    HW128763   3.412   1.360   6.650 -0.6473 -3.4812  0.8369
 5710SOL    HW228764   3.467   1.256   6.732 -0.1012 -0.3623 -2.4989
 5711SOL     OW28765   1.236   2.999   7.154  0.3625  0.3452  0.1326
 5711SOL    HW128766   1.196   3.064   7.096  0.9552  1.2555  0.7506
 5711SOL    HW228767   1.166   3.000   7.220 -1.1746  0.2811 -1.4855
 5712SOL     OW28768   0.431   3.695   5.152  0.8117 -0.4344 -0.2380
 5712SOL    HW128769   0.440   3.641   5.230 -1.2128  1.2850  1.2183
 5712SOL    HW228770   0.517   3.736   5.145  1.0962 -1.2526 -1.4317
 5713SOL     OW28771   3.846   3.822   3.182 -0.0763  0.4078  0.1833
 5713SOL    HW128772   3.835   3.727   3.182  0.6501  0.3429 -1.7966
 5713SOL    HW228773   3.793   3.844   3.106 -0.6272 -2.6556 -0.3005
 5714SOL     OW28774   0.072   3.681  12.014  0.4997 -0.1192  0.5809
 5714SOL    HW128775   0.042   3.620  12.082 -0.1988 -0.8160 -0.3527
 5714SOL    HW228776   0.149   3.628  11.994 -0.1071 -0.6745 -0.2870
 5715SOL     OW28777   0.454   3.550   6.846  0.5444 -0.2422 -0.3651
 5715SOL    HW128778   0.394   3.603   6.899 -0.6315  0.2177 -2.1884
 5715SOL    HW228779   0.478   3.481   6.908 -3.6069 -0.8921  0.5485
 5716SOL     OW28780   4.268   0.588  16.368 -0.2170 -0.4613  0.5698
 5716SOL    HW128781   4.327   0.663  16.366  1.1536 -1.5333  1.2196
 5716SOL    HW228782   4.205   0.614  16.436 -0.0507  1.8697 -0.1722
 5717SOL     OW28783   4.202   1.164   3.116  0.1537  0.2855 -0.0370
 5717SOL    HW128784   4.142   1.090   3.107 -0.5734  1.2505 -3.2358
 5717SOL    HW228785   4.283   1.133   3.156  0.9372  1.8011 -0.4084
 5718SOL     OW28786   1.962   0.947   2.037 -0.5023  0.0578 -0.1476
 5718SOL    HW128787   1.995   1.007   2.104 -0.1663 -0.0222 -0.2401
 5718SOL    HW228788   1.942   1.000   1.959  3.2341  0.6357 -0.7267
 5719SOL     OW28789   0.056   3.384  13.595 -0.3425 -0.1033  0.3955
 5719SOL    HW128790   4.706   3.347  13.592 -0.0837 -1.0098  3.5463
 5719SOL    HW228791   0.060   3.428  13.680  0.3195 -1.5926  1.1195
 5720SOL     OW28792   4.275   2.799   7.577  0.6327 -0.2749  0.2914
 5720SOL    HW128793   4.324   2.741   7.519  1.9420 -0.3355  1.4711
 5720SOL    HW228794   4.206   2.741   7.609  0.2677 -0.9031 -1.6126
 5721SOL     OW28795   2.645   2.171   2.104  0.1836  0.1150  0.0749
 5721SOL    HW128796   2.722   2.209   2.063  1.3609 -0.3079  1.8990
 5721SOL    HW228797   2.649   2.205   2.193  2.7100 -0.2835  0.1160
 5722SOL     OW28798   3.073   4.129   2.358  0.0361 -0.0268 -0.3224
 5722SOL    HW128799   3.013   4.196   2.392  1.4261  0.8102  0.5299
 5722SOL    HW228800   3.039   4.051   2.400  1.7535 -0.0029  1.1297
 5723SOL     OW28801   1.578   3.743   2.093 -0.1357  0.2344  0.0707
 5723SOL    HW128802   1.499   3.747   2.040  1.1672  0.0242 -1.8819
 5723SOL    HW228803   1.566   3.653   2.124  1.6965  0.7854  2.3878
 5724SOL     OW28804   3.193   1.293   8.481  0.0324  0.0339  0.2881
 5724SOL    HW128805   3.147   1.212   8.462  2.6540 -1.4281  0.1258
 5724SOL    HW228806   3.161   1.346   8.409 -1.6907  1.4943  2.1287
 5725SOL     OW28807   2.331   4.303   8.293  0.4891  0.0657 -0.0772
 5725SOL    HW128808   2.391   4.355   8.240 -1.5060 -0.5046 -2.8560
 5725SOL    HW228809   2.365   4.218   8.264 -0.8935 -0.4590 -0.1701
 5726SOL     OW28810   4.058   0.095   0.086  0.1926  0.4819 -0.1865
 5726SOL    HW128811   3.999   0.139   0.147 -0.0884 -0.5069  0.2496
 5726SOL    HW228812   4.065   0.166   0.022 -0.9229 -0.2281 -1.0928
 5727SOL     OW28813   0.056   0.080  17.301  0.0212  0.2442  0.1108
 5727SOL    HW128814   0.069   0.065  17.395 -1.5633 -2.0517 -0.0393
 5727SOL    HW228815   4.735   0.154  17.315 -0.0270 -0.2188  2.3420
 5728SOL     OW28816   3.341   4.129   2.863 -0.3974  0.1673  0.5724
 5728SOL    HW128817   3.301   4.142   2.777 -1.4091 -1.1046  0.8367
 5728SOL    HW228818   3.291   4.185   2.922  0.8305  1.4234  0.4051
 5729SOL     OW28819   3.452   0.526  12.933  0.0047 -0.2649 -0.3824
 5729SOL    HW128820   3.434   0.484  13.017 -0.0709  0.7499  0.1088
 5729SOL    HW228821   3.490   0.606  12.967  1.9848 -0.9646 -0.9322
 5730SOL     OW28822   3.718   4.254   5.259 -0.0841  0.4499  0.2074
 5730SOL    HW128823   3.699   4.246   5.165 -4.3107  0.5265  1.0180
 5730SOL    HW228824   3.660   4.183   5.289 -0.0245 -0.5381 -2.0564
 5731SOL     OW28825   4.486   0.611   3.997  0.0964  0.5989  0.2307
 5731SOL    HW128826   4.560   0.640   3.944 -0.0597 -1.2253 -0.9700
 5731SOL    HW228827   4.503   0.520   4.021 -0.4952  0.0443 -1.4201
 5732SOL     OW28828   3.042   0.230   5.079 -0.0386  0.8790  0.3261
 5732SOL    HW128829   3.026   0.203   4.989  1.4647 -1.0860  0.6575
 5732SOL    HW228830   3.106   0.301   5.086 -0.6611  1.1814  3.0663
 5733SOL     OW28831   0.064   3.209  11.510 -0.1470 -0.5243  0.1294
 5733SOL    HW128832   0.105   3.123  11.508 -3.0482 -1.9325  1.0085
 5733SOL    HW228833   0.070   3.231  11.603  1.9900  1.6141 -0.5158
 5734SOL     OW28834   3.921   2.322   4.785 -0.2138  0.2541  0.0240
 5734SOL    HW128835   3.927   2.416   4.771  2.5639  0.1955  0.8445
 5734SOL    HW228836   3.905   2.293   4.695  1.3740  2.1531 -0.8488
 5735SOL     OW28837   0.898   3.859   2.545  0.5195 -0.2535 -0.2324
 5735SOL    HW128838   0.870   3.873   2.636 -0.4062  0.3441 -0.6069
 5735SOL    HW228839   0.895   3.951   2.520 -2.1387 -0.6503 -1.4144
 5736SOL     OW28840   2.002   4.651   7.684  0.2222 -0.1495  0.0427
 5736SOL    HW128841   1.941   4.598   7.736 -1.7973  0.9114 -1.2460
 5736SOL    HW228842   2.023   4.732   7.730  0.8075 -1.3004  1.8032
 5737SOL     OW28843   3.180   1.215   6.538  0.1935 -0.7282  0.5948
 5737SOL    HW128844   3.092   1.180   6.522 -1.3732  2.4664  2.0607
 5737SOL    HW228845   3.176   1.303   6.502  0.9269 -0.5449  0.9693
 5738SOL     OW28846   1.855   1.557  16.576  0.1215 -0.1443 -0.4833
 5738SOL    HW128847   1.883   1.576  16.486 -1.7358  3.4221 -0.3338
 5738SOL    HW228848   1.764   1.529  16.566  0.5340 -1.6781  0.0386
 5739SOL     OW28849   1.093   2.391  17.489  0.0489  0.7900  0.1919
 5739SOL    HW128850   1.125   2.456  17.551  0.9854  0.9491 -0.4642
 5739SOL    HW228851   1.125   2.438  17.413 -1.6246 -1.1070 -1.6868
 5740SOL     OW28852   2.362   3.074   2.266  0.0663 -0.0362  0.2573
 5740SOL    HW128853   2.331   3.008   2.327  3.2977 -1.0354  0.8301
 5740SOL    HW228854   2.277   3.100   2.230 -0.2118 -1.3411  0.0012
 5741SOL     OW28855   1.730   1.950   2.625  0.2691  0.0441 -0.0334
 5741SOL    HW128856   1.651   2.002   2.644 -0.3124 -0.7538 -0.2566
 5741SOL    HW228857   1.796   2.018   2.637  2.5205 -2.2660  0.5711
 5742SOL     OW28858   1.743   2.296  17.519  0.3581  0.0104 -0.3906
 5742SOL    HW128859   1.773   2.373  17.568  0.6363  1.5171 -2.9424
 5742SOL    HW228860   1.649   2.309  17.532  0.3975  0.6122 -0.7175
 5743SOL     OW28861   0.806   0.419   5.022  0.4938  0.0025  0.3908
 5743SOL    HW128862   0.863   0.414   4.946  2.9691 -0.8985  2.3215
 5743SOL    HW228863   0.843   0.497   5.064  0.9302  0.8611 -1.5601
 5744SOL     OW28864   0.320   4.500   8.178 -0.6231  0.1572 -0.1142
 5744SOL    HW128865   0.264   4.523   8.253 -1.2974  0.4912 -0.7150
 5744SOL    HW228866   0.337   4.592   8.157  2.2044 -0.0484  1.3083
 5745SOL     OW28867   2.649   1.677   5.698 -0.5253  0.0569 -0.4737
 5745SOL    HW128868   2.686   1.626   5.770 -1.0699 -1.6427 -1.3907
 5745SOL    HW228869   2.556   1.653   5.698 -0.4331 -0.2258  2.1831
 5746SOL     OW28870   2.452   1.977   2.610 -0.5099 -0.3138  0.0670
 5746SOL    HW128871   2.543   2.005   2.619  0.0352 -2.1604  0.2493
 5746SOL    HW228872   2.458   1.886   2.638 -0.9606 -0.5775 -0.6823
 5747SOL     OW28873   4.344   0.827   1.941  0.0761 -0.2206  0.1711
 5747SOL    HW128874   4.369   0.912   1.904 -0.8899  0.5841  1.3841
 5747SOL    HW228875   4.269   0.855   1.994  1.7438  1.7832  1.4596
 5748SOL     OW28876   0.714   4.534   8.291  0.1686  0.7871 -0.7320
 5748SOL    HW128877   0.706   4.509   8.383  4.3085  0.5308 -0.4480
 5748SOL    HW228878   0.700   4.451   8.247  1.6375 -0.6016  1.4360
 5749SOL     OW28879   2.594   1.143  13.135  0.4317  0.3541  0.2602
 5749SOL    HW128880   2.554   1.171  13.052 -2.7571  0.6849  1.8847
 5749SOL    HW228881   2.669   1.201  13.144 -1.0074  2.0151  1.5242
 5750SOL     OW28882   2.124   0.923   7.498  0.6985 -0.1090 -0.5377
 5750SOL    HW128883   2.110   1.018   7.498  0.3667 -0.1581 -0.5594
 5750SOL    HW228884   2.189   0.910   7.567  2.1538  0.5012 -1.7955
 5751SOL     OW28885   4.229   1.653   8.468  0.2085  0.4144 -0.0637
 5751SOL    HW128886   4.282   1.589   8.516  0.8630  0.3816 -0.8188
 5751SOL    HW228887   4.264   1.641   8.380  0.4573 -1.8763  0.3548
 5752SOL     OW28888   0.492   4.537   0.526 -0.0744 -0.5858  0.6878
 5752SOL    HW128889   0.513   4.492   0.444 -0.2282  3.8883 -1.8147
 5752SOL    HW228890   0.559   4.605   0.533  0.1346 -0.5736 -1.4056
 5753SOL     OW28891   1.836   2.034   5.156  0.7033  0.2623 -0.9821
 5753SOL    HW128892   1.897   2.038   5.230 -1.0915  0.7496  0.4784
 5753SOL    HW228893   1.777   1.961   5.174  1.9388 -0.6365 -0.5704
 5754SOL     OW28894   0.029   1.188   1.757  0.4833  0.5395 -0.1632
 5754SOL    HW128895   0.086   1.262   1.739  0.5123  1.2024  2.6720
 5754SOL    HW228896   0.091   1.116   1.748  1.3923  0.9925  2.4943
 5755SOL     OW28897   1.223   0.204   8.158 -0.0086 -0.0741 -0.4477
 5755SOL    HW128898   1.292   0.247   8.207  1.0909 -0.8228 -1.3333
 5755SOL    HW228899   1.144   0.221   8.210 -0.2502 -1.2203 -0.4368
 5756SOL     OW28900   1.096   1.390   8.208  0.6762  0.6525 -0.5178
 5756SOL    HW128901   1.180   1.427   8.181  2.1729 -0.1127  3.1423
 5756SOL    HW228902   1.065   1.339   8.133  1.2670  0.2259 -0.4662
 5757SOL     OW28903   3.931   1.735  13.348  0.1893 -0.2301  0.1188
 5757SOL    HW128904   3.920   1.654  13.297 -0.5238 -1.1490  1.7186
 5757SOL    HW228905   4.017   1.761  13.314  0.4081 -1.3576 -0.2168
 5758SOL     OW28906   3.999   3.456   5.059 -0.1053 -0.7798  0.5479
 5758SOL    HW128907   4.025   3.474   5.149 -1.1538 -1.7352  1.0436
 5758SOL    HW228908   4.085   3.436   5.021  0.2420 -0.5740  1.2147
 5759SOL     OW28909   1.736   0.764   2.121 -0.6905  0.0283  0.3016
 5759SOL    HW128910   1.787   0.787   2.199  0.2315  0.4070 -0.4185
 5759SOL    HW228911   1.757   0.835   2.060 -1.0195 -0.0174  0.1358
 5760SOL     OW28912   3.549   1.104   6.320  0.1853 -0.1033 -0.2158
 5760SOL    HW128913   3.501   1.139   6.245 -1.9978  0.1838  1.3097
 5760SOL    HW228914   3.491   1.107   6.396  0.1410 -0.5223 -0.2329
 5761SOL     OW28915   3.644   1.556   6.849 -0.6129  0.2462 -0.1731
 5761SOL    HW128916   3.626   1.613   6.774 -0.3744  0.9666  0.3072
 5761SOL    HW228917   3.603   1.485   6.801 -0.8273  1.1910 -1.3888
 5762SOL     OW28918   2.775   4.692   2.201  0.2229 -0.2525 -0.6259
 5762SOL    HW128919   2.762   0.034   2.150 -0.6522 -0.0453 -0.0781
 5762SOL    HW228920   2.809   4.735   2.280 -1.9606  1.3081 -0.5343
 5763SOL     OW28921   0.133   1.551  15.289 -0.3428 -0.3145  0.5889
 5763SOL    HW128922   0.134   1.594  15.203  0.1329 -1.2323  0.1348
 5763SOL    HW228923   0.185   1.470  15.286  3.6999  2.3478 -1.0468
 5764SOL     OW28924   0.471   2.344   8.735  0.3932  0.3884 -0.7918
 5764SOL    HW128925   0.554   2.390   8.746 -0.6054  1.3213  2.6722
 5764SOL    HW228926   0.418   2.413   8.695  1.3375  0.6195 -1.6225
 5765SOL     OW28927   4.653   1.968   0.975  0.7376  0.4875  0.2483
 5765SOL    HW128928   4.674   2.025   0.901 -0.5731  1.0425  0.3004
 5765SOL    HW228929   4.735   1.920   0.981 -0.2806 -0.9714  2.8990
 5766SOL     OW28930   4.320   3.412  14.732 -0.3189  0.0188 -0.2283
 5766SOL    HW128931   4.374   3.346  14.775  0.4600  0.8715  0.1033
 5766SOL    HW228932   4.385   3.467  14.688 -0.3344  0.2672  0.0547
 5767SOL     OW28933   2.907   1.829   7.244 -0.8075  0.2476  0.1021
 5767SOL    HW128934   2.901   1.876   7.327 -2.4380 -1.2860  0.8764
 5767SOL    HW228935   2.818   1.818   7.208  0.4208 -0.3780 -2.7634
 5768SOL     OW28936   4.215   2.342   9.635  0.5276 -0.7403 -0.5472
 5768SOL    HW128937   4.308   2.324   9.623  0.4010 -2.0676  0.5097
 5768SOL    HW228938   4.201   2.368   9.544 -2.9523 -0.2838  0.0898
 5769SOL     OW28939   1.401   3.026   0.334 -0.1382 -0.1744 -0.3714
 5769SOL    HW128940   1.313   3.032   0.298  0.4300  2.3830 -1.3310
 5769SOL    HW228941   1.443   3.079   0.266 -1.0308 -2.2788 -2.5636
 5770SOL     OW28942   0.696   0.467  11.987  0.1367 -0.1808  0.4806
 5770SOL    HW128943   0.681   0.432  12.075 -0.6519  1.9096  1.1802
 5770SOL    HW228944   0.605   0.490  11.969  0.8379 -0.8536 -3.8419
 5771SOL     OW28945   3.953   0.251  12.239  0.1803 -0.1966  0.3332
 5771SOL    HW128946   4.010   0.176  12.255 -1.9378 -1.9234 -0.2563
 5771SOL    HW228947   4.016   0.315  12.206  0.1225 -0.5205 -0.4161
 5772SOL     OW28948   2.097   4.065  10.782 -0.1740 -0.5360 -0.3273
 5772SOL    HW128949   2.109   4.103  10.695 -1.5844 -0.3364 -0.4385
 5772SOL    HW228950   2.187   4.071  10.815 -0.1175 -0.3882 -0.5051
 5773SOL     OW28951   1.720   3.902   8.216 -0.5768 -0.2675  0.0806
 5773SOL    HW128952   1.804   3.897   8.261 -1.4808 -1.5763  1.6280
 5773SOL    HW228953   1.732   3.829   8.156  0.1347  1.1229 -1.4637
 5774SOL     OW28954   2.213   4.522   4.161  0.7303  0.4181  0.4533
 5774SOL    HW128955   2.178   4.433   4.158  1.9733 -0.0491 -0.5004
 5774SOL    HW228956   2.179   4.555   4.244  0.0713 -1.1233  0.7923
 5775SOL     OW28957   3.006   0.295   1.685 -0.4508  0.7973  0.1362
 5775SOL    HW128958   3.065   0.309   1.611 -0.6268  1.0922  0.0551
 5775SOL    HW228959   3.060   0.234   1.736 -1.2861 -1.5891 -1.8183
 5776SOL     OW28960   2.687   0.219   7.791 -0.1707  0.4137  0.4920
 5776SOL    HW128961   2.592   0.227   7.804 -0.3468  1.4911 -1.4564
 5776SOL    HW228962   2.697   0.205   7.697  1.1305 -1.5330  0.9279
 5777SOL     OW28963   1.783   1.071   5.598 -0.3024  0.3123  0.0072
 5777SOL    HW128964   1.799   1.011   5.525  0.5582  1.3410 -0.6485
 5777SOL    HW228965   1.720   1.029   5.657 -0.1988 -1.3848 -1.1064
 5778SOL     OW28966   2.483   2.683   7.717 -0.4476 -0.1454  0.4379
 5778SOL    HW128967   2.545   2.634   7.772 -0.7460 -0.5246  0.4401
 5778SOL    HW228968   2.446   2.622   7.653 -2.0398  0.2169  1.0116
 5779SOL     OW28969   4.625   1.540   5.773 -0.2272  0.1688  0.3422
 5779SOL    HW128970   4.629   1.632   5.799 -0.4981 -0.3749  2.2900
 5779SOL    HW228971   4.545   1.557   5.724  0.6036  0.4239 -0.9327
 5780SOL     OW28972   3.786   4.677   4.971  0.4730 -0.0030 -0.1643
 5780SOL    HW128973   3.773   4.654   5.063 -1.5952 -1.7721 -0.8907
 5780SOL    HW228974   3.853   0.007   4.972 -1.1884  1.5805  2.1391
 5781SOL     OW28975   0.679   4.566   3.737  0.8344  0.2140 -0.7568
 5781SOL    HW128976   0.647   4.476   3.730  0.1043  0.3534  0.8032
 5781SOL    HW228977   0.754   4.565   3.797  0.2362  1.0128  0.0092
 5782SOL     OW28978   3.131   0.063   3.778 -0.3625  0.1408  0.3625
 5782SOL    HW128979   3.162   4.720   3.738 -1.1110 -0.6235  1.3462
 5782SOL    HW228980   3.201   0.122   3.749  0.8527 -0.5876  1.8379
 5783SOL     OW28981   1.546   0.980  16.656 -0.7744 -0.0210  0.2646
 5783SOL    HW128982   1.601   1.056  16.638  0.2723 -0.5202  1.3611
 5783SOL    HW228983   1.590   0.901  16.623 -1.0952 -0.0311 -0.1391
 5784SOL     OW28984   4.376   4.524  10.135 -0.3587  0.3150  0.1858
 5784SOL    HW128985   4.367   4.586  10.207  1.7678  1.8322 -0.8655
 5784SOL    HW228986   4.471   4.511  10.129 -0.3960 -0.6671  1.5737
 5785SOL     OW28987   0.053   3.153   3.890 -0.4401 -0.2092 -0.2376
 5785SOL    HW128988   0.143   3.170   3.861 -0.7406 -0.3335 -1.2451
 5785SOL    HW228989   0.021   3.105   3.814  1.1649 -0.9944 -0.4294
 5786SOL     OW28990   3.991   3.503   9.802  0.0208  0.1247  0.3578
 5786SOL    HW128991   4.000   3.413   9.769 -1.5324 -0.4472  1.5029
 5786SOL    HW228992   4.073   3.545   9.777  0.2576 -0.6047 -0.1020
 5787SOL     OW28993   1.691   3.838   4.097  0.0724 -0.1065  0.1980
 5787SOL    HW128994   1.665   3.754   4.061 -0.5798 -0.2409  0.9687
 5787SOL    HW228995   1.720   3.883   4.018 -0.3254  1.2397  0.8034
 5788SOL     OW28996   3.769   4.233   8.483  0.2131  0.5853 -0.0288
 5788SOL    HW128997   3.733   4.296   8.546  0.3539 -0.0164  0.6522
 5788SOL    HW228998   3.829   4.192   8.545  1.1325  0.7136 -0.8159
 5789SOL     OW28999   3.703   1.238  15.373  0.0839  0.3288 -0.5063
 5789SOL    HW129000   3.721   1.330  15.357  0.1897  0.4358  0.2124
 5789SOL    HW229001   3.608   1.233  15.362  0.0667  1.1707 -0.7079
 5790SOL     OW29002   1.355   0.805   2.670 -0.6506  0.3863 -0.2093
 5790SOL    HW129003   1.325   0.878   2.724 -1.4736  0.5032 -0.8197
 5790SOL    HW229004   1.273   0.778   2.630  0.1387 -1.0712 -0.8436
 5791SOL     OW29005   2.871   2.382   3.096 -0.2382  0.3541  0.1651
 5791SOL    HW129006   2.947   2.341   3.139 -1.3262 -3.2585 -1.3267
 5791SOL    HW229007   2.828   2.429   3.167 -0.1273 -0.0891  0.5254
 5792SOL     OW29008   1.438   2.796   4.278  0.2170  0.0086  0.1640
 5792SOL    HW129009   1.490   2.733   4.228  0.2078 -0.3342  0.5810
 5792SOL    HW229010   1.471   2.873   4.231 -0.7307 -0.4585 -1.2632
 5793SOL     OW29011   4.464   1.654   4.366  0.4750 -0.7332  0.2377
 5793SOL    HW129012   4.370   1.650   4.351  0.5032  0.3568 -0.2347
 5793SOL    HW229013   4.502   1.611   4.289  0.7993  0.8193 -0.4750
 5794SOL     OW29014   1.358   2.900   2.184 -0.3935  0.1079  0.2583
 5794SOL    HW129015   1.411   2.973   2.215  0.8361 -0.3237 -0.8133
 5794SOL    HW229016   1.409   2.875   2.107 -0.4737  1.8785 -0.3471
 5795SOL     OW29017   1.679   1.674   2.528  0.4644  0.1056  0.5829
 5795SOL    HW129018   1.699   1.766   2.549 -1.0669  0.6500 -0.3429
 5795SOL    HW229019   1.583   1.672   2.527  0.4828  0.0590 -0.9715
 5796SOL     OW29020   2.123   2.241  10.917 -0.9710  0.0704 -0.3819
 5796SOL    HW129021   2.034   2.207  10.911 -0.9584 -0.1006  0.4440
 5796SOL    HW229022   2.101   2.335  10.917 -2.3519 -0.2625  0.8792
 5797SOL     OW29023   3.063   0.129  17.295  0.1500  0.0157  0.8651
 5797SOL    HW129024   3.014   0.190  17.239 -0.1403 -0.0113  1.0935
 5797SOL    HW229025   3.115   0.077  17.233 -2.7295 -2.7286  0.7759
 5798SOL     OW29026   1.596   2.316   6.246  0.8045  0.3687 -0.2572
 5798SOL    HW129027   1.601   2.238   6.301 -1.7168  0.3708 -0.0258
 5798SOL    HW229028   1.689   2.337   6.260  0.3481  1.8943  0.3899
 5799SOL     OW29029   4.669   4.194  16.705  0.1871 -0.3298 -0.0983
 5799SOL    HW129030   4.692   4.216  16.615 -0.2490 -1.7664 -0.5598
 5799SOL    HW229031   4.616   4.115  16.694  0.4139 -0.3821 -0.8344
 5800SOL     OW29032   4.488   3.137   2.259  0.1481 -0.5870  0.5882
 5800SOL    HW129033   4.425   3.143   2.187  0.2004  1.8199  0.7714
 5800SOL    HW229034   4.502   3.231   2.270  0.3018 -0.2776 -2.1735
 5801SOL     OW29035   4.587   0.458  16.854  0.6571  1.0873 -0.1429
 5801SOL    HW129036   4.601   0.439  16.761 -0.5301  4.1795 -0.9506
 5801SOL    HW229037   4.667   0.419  16.890 -1.4863 -0.5783  2.8414
 5802SOL     OW29038   2.723   3.037   4.915 -0.4330  0.3844  0.2931
 5802SOL    HW129039   2.773   3.117   4.905  0.6692 -0.3950 -0.4314
 5802SOL    HW229040   2.741   2.982   4.839  3.0222  0.1450  1.2916
 5803SOL     OW29041   3.460   0.052   4.815  0.3205 -0.3613 -0.1060
 5803SOL    HW129042   3.461   0.123   4.751 -0.5051  1.1039  1.5063
 5803SOL    HW229043   3.542   0.009   4.787 -0.6152 -1.5786 -0.9761
 5804SOL     OW29044   2.168   0.055   6.551  0.4122  0.3194  1.0033
 5804SOL    HW129045   2.105   4.723   6.535  1.2496 -0.0807 -0.5878
 5804SOL    HW229046   2.129   0.110   6.619 -0.1758  2.1477 -0.8003
 5805SOL     OW29047   2.216   4.607   1.025  0.2215  0.2219 -0.2013
 5805SOL    HW129048   2.128   4.613   0.988  0.1633  1.1105  0.0615
 5805SOL    HW229049   2.263   4.610   0.941  0.5051  2.0645  0.0217
 5806SOL     OW29050   2.548   3.172   3.084 -0.0574 -0.5492  0.0771
 5806SOL    HW129051   2.494   3.192   3.007 -2.7158  0.5141  2.2251
 5806SOL    HW229052   2.484   3.210   3.144 -2.0531 -0.7076 -1.9395
 5807SOL     OW29053   4.014   4.350   9.412  0.7635 -0.1950  0.1065
 5807SOL    HW129054   3.919   4.340   9.423  0.7088  0.4932  0.2619
 5807SOL    HW229055   4.044   4.406   9.483  0.3420  0.2522 -0.0624
 5808SOL     OW29056   0.856   0.844   4.304  0.1626  0.0294 -0.1698
 5808SOL    HW129057   0.899   0.919   4.263 -0.6935  1.2020  1.0740
 5808SOL    HW229058   0.844   0.791   4.226 -0.1613 -0.4262  0.1853
 5809SOL     OW29059   4.292   2.534   6.780 -0.3226 -0.0554  0.1417
 5809SOL    HW129060   4.281   2.593   6.854  2.1206  1.5151 -0.7336
 5809SOL    HW229061   4.347   2.463   6.814 -1.7238 -1.6180 -0.8360
 5810SOL     OW29062   3.683   0.041   5.909  0.1472  0.7250  0.0707
 5810SOL    HW129063   3.728   0.083   5.836  5.8176 -2.2721  1.9003
 5810SOL    HW229064   3.594   0.073   5.892 -0.4041 -1.2680 -0.7419
 5811SOL     OW29065   4.725   4.563  12.381 -0.5432  0.0442  0.1659
 5811SOL    HW129066   0.075   4.596  12.399 -1.0007  2.3599 -1.8496
 5811SOL    HW229067   4.728   4.564  12.286 -1.8502  3.8276  0.1481
 5812SOL     OW29068   2.149   0.570  16.970  0.0508 -0.0211 -0.0844
 5812SOL    HW129069   2.236   0.594  17.001  0.2440  0.4158 -0.9578
 5812SOL    HW229070   2.130   0.485  17.009  2.3581 -0.6735 -0.3919
 5813SOL     OW29071   4.544   1.454   4.630  0.0837  0.1120  0.7377
 5813SOL    HW129072   4.639   1.457   4.617  0.1276 -1.2841  0.7145
 5813SOL    HW229073   4.504   1.444   4.543 -2.2389 -1.7564  2.0222
 5814SOL     OW29074   1.926   2.540   7.312 -0.5004  0.3420  0.2344
 5814SOL    HW129075   1.849   2.589   7.340 -0.1720 -0.5039  2.5632
 5814SOL    HW229076   1.889   2.462   7.271  2.1710 -2.0636  2.4546
 5815SOL     OW29077   4.289   2.412   8.457 -0.6140  0.0660 -0.2967
 5815SOL    HW129078   4.202   2.410   8.496 -0.9310 -0.1846 -1.0221
 5815SOL    HW229079   4.303   2.318   8.444  0.5949  0.4033 -1.5150
 5816SOL     OW29080   3.915   3.235   7.871 -0.4228 -0.1422 -0.1171
 5816SOL    HW129081   3.926   3.268   7.782  0.7310  0.2623  0.1685
 5816SOL    HW229082   3.883   3.315   7.912  2.9688  1.4338 -0.5100
 5817SOL     OW29083   0.354   0.559   1.385 -0.2834 -0.4262  0.1845
 5817SOL    HW129084   0.438   0.588   1.349 -1.0707 -0.3577 -1.6451
 5817SOL    HW229085   0.322   0.645   1.412  1.3332  1.2348 -3.0870
 5818SOL     OW29086   4.340   0.448   7.258  0.2607 -0.2247 -0.0253
 5818SOL    HW129087   4.358   0.357   7.233  1.0114  0.4485 -2.0131
 5818SOL    HW229088   4.428   0.473   7.287  0.4667 -1.3302  0.3167
 5819SOL     OW29089   2.113   0.498   2.269  0.2094 -0.1043  0.5143
 5819SOL    HW129090   2.206   0.484   2.249  0.0061  0.3069 -0.7219
 5819SOL    HW229091   2.089   0.572   2.212 -1.2071  0.1418  1.4335
 5820SOL     OW29092   3.623   1.021  12.092  0.0118  0.4122 -0.2583
 5820SOL    HW129093   3.635   1.113  12.115  2.6561  0.4637 -1.8908
 5820SOL    HW229094   3.547   1.024  12.035 -0.6396 -1.8800  0.5015
 5821SOL     OW29095   1.011   1.522   0.185 -0.5294 -0.5313  0.3610
 5821SOL    HW129096   0.933   1.473   0.161 -1.8478  0.6483  2.3391
 5821SOL    HW229097   0.993   1.558   0.272  0.3147  0.9073 -0.0563
 5822SOL     OW29098   4.238   0.553   2.168 -0.0015  0.6172  0.2964
 5822SOL    HW129099   4.234   0.499   2.246  1.3261 -0.6309 -0.5134
 5822SOL    HW229100   4.152   0.537   2.128 -1.4585  1.6236  3.0557
 5823SOL     OW29101   1.373   4.060   0.917  0.2765 -0.3480  0.9577
 5823SOL    HW129102   1.455   4.048   0.965 -0.3939  0.1920  2.2341
 5823SOL    HW229103   1.413   4.095   0.837  1.9285  0.5690  2.1939
 5824SOL     OW29104   2.398   2.142   8.807  0.1619  0.2724 -0.3198
 5824SOL    HW129105   2.473   2.197   8.786  1.9850 -3.1425 -2.7959
 5824SOL    HW229106   2.422   2.110   8.894 -0.4113  1.1938  0.1809
 5825SOL     OW29107   1.114   1.597   4.232  0.0012  0.2903 -0.4351
 5825SOL    HW129108   1.092   1.627   4.320  2.9225  1.6163 -0.1477
 5825SOL    HW229109   1.117   1.504   4.252  2.2279  0.2061 -1.1466
 5826SOL     OW29110   3.271   0.727   4.298  0.6325 -0.4396 -0.2570
 5826SOL    HW129111   3.319   0.680   4.366  0.8128  1.1295  0.7093
 5826SOL    HW229112   3.299   0.818   4.311  2.0376 -0.4974 -2.7846
 5827SOL     OW29113   4.006   4.635   1.107 -0.2483 -0.0147 -0.6072
 5827SOL    HW129114   3.917   4.601   1.117  0.3853 -1.5758 -0.1723
 5827SOL    HW229115   4.056   4.604   1.182  0.3829  0.3397 -0.8828
 5828SOL     OW29116   2.988   0.965   7.601 -0.4262 -0.1246 -0.3556
 5828SOL    HW129117   2.934   0.905   7.653 -1.1107  1.2424  0.5005
 5828SOL    HW229118   3.053   0.988   7.667 -1.6156  0.4535  0.6142
 5829SOL     OW29119   3.969   3.173  11.788 -0.0979 -0.1754 -0.1809
 5829SOL    HW129120   4.031   3.170  11.861 -0.6153 -0.2181  0.2616
 5829SOL    HW229121   3.974   3.085  11.750  0.5019 -0.7661  1.2576
 5830SOL     OW29122   4.421   2.603   8.876 -0.4298 -0.1528  0.6347
 5830SOL    HW129123   4.358   2.664   8.914  1.5836  1.7186  0.9857
 5830SOL    HW229124   4.434   2.651   8.795 -1.4756 -1.2339 -0.1666
 5831SOL     OW29125   4.408   3.569   6.528  0.1397 -0.8800  0.2848
 5831SOL    HW129126   4.486   3.534   6.485  0.5283 -3.3743  3.0957
 5831SOL    HW229127   4.365   3.487   6.553 -0.8786 -1.1104 -2.2008
 5832SOL     OW29128   2.471   1.455  14.164 -0.4706 -0.4665  0.4991
 5832SOL    HW129129   2.476   1.376  14.218  1.8963 -0.7182 -0.0715
 5832SOL    HW229130   2.509   1.422  14.082  1.5298  0.6538  0.9649
 5833SOL     OW29131   3.176   2.201  10.919  0.8997  0.6407 -0.4760
 5833SOL    HW129132   3.266   2.189  10.950  0.9757  1.1223 -0.5105
 5833SOL    HW229133   3.186   2.175  10.828  2.5192  0.5631 -0.2816
 5834SOL     OW29134   1.872   0.006   9.514 -0.1021  0.1436 -0.0418
 5834SOL    HW129135   1.938   4.735   9.583 -0.9142  1.0647  0.8610
 5834SOL    HW229136   1.928   4.737   9.437 -1.3712 -1.4587 -0.8133
 5835SOL     OW29137   0.656   1.010  16.494 -0.2282  0.0036  0.0583
 5835SOL    HW129138   0.636   1.103  16.499  2.7857  0.4795  3.2031
 5835SOL    HW229139   0.739   0.998  16.447 -0.2687  1.7742 -0.4760
 5836SOL     OW29140   0.604   2.875   6.847 -0.6977 -0.1942  0.3485
 5836SOL    HW129141   0.643   2.873   6.760 -1.3601 -0.0425  0.0483
 5836SOL    HW229142   0.659   2.810   6.890  2.4177  0.8812 -2.0314
 5837SOL     OW29143   1.792   1.077   4.191  0.2867 -0.4136  0.4530
 5837SOL    HW129144   1.808   1.107   4.280 -0.5953 -1.6759  1.0316
 5837SOL    HW229145   1.850   1.002   4.188 -0.5650 -1.0399 -0.4934
 5838SOL     OW29146   0.392   2.641  14.464  0.7438 -0.1894  0.0015
 5838SOL    HW129147   0.386   2.546  14.465 -0.9942 -0.0365  2.5254
 5838SOL    HW229148   0.452   2.660  14.535  1.5834  0.2235 -0.8167
 5839SOL     OW29149   3.712   3.120   1.516 -0.2495 -0.5089 -0.3245
 5839SOL    HW129150   3.790   3.095   1.565  0.6486  1.7101 -0.5905
 5839SOL    HW229151   3.730   3.213   1.497  0.6562 -0.7311 -0.5406
 5840SOL     OW29152   0.027   0.292   2.296  0.4224 -0.0159  0.2056
 5840SOL    HW129153   0.121   0.306   2.301  0.1205  2.4176 -1.1218
 5840SOL    HW229154   4.738   0.324   2.382  0.9000  2.2456 -0.4910
 5841SOL     OW29155   0.921   3.625  13.210  0.7216 -0.2579 -0.0780
 5841SOL    HW129156   0.847   3.670  13.250  0.6617 -1.4292  1.1361
 5841SOL    HW229157   0.997   3.637  13.266 -1.0984 -0.5253  2.4408
 5842SOL     OW29158   3.305   4.204   1.965  0.0780 -0.1134  0.3673
 5842SOL    HW129159   3.369   4.154   2.015 -1.2534 -2.6833 -0.4616
 5842SOL    HW229160   3.296   4.150   1.886  0.6434  0.7486 -0.2783
 5843SOL     OW29161   3.605   4.208   9.373  0.7069  0.5188 -0.2857
 5843SOL    HW129162   3.603   4.144   9.445  0.2710 -0.3268 -1.0534
 5843SOL    HW229163   3.524   4.257   9.387  0.3097 -0.6315  1.5123
 5844SOL     OW29164   0.968   2.793   9.021 -0.0504 -0.1191 -0.7507
 5844SOL    HW129165   0.985   2.710   9.064 -1.9836  0.0970  0.4348
 5844SOL    HW229166   0.931   2.776   8.934  1.4863 -0.8857 -1.2504
 5845SOL     OW29167   0.766   1.325   3.847 -0.0368 -0.6064 -0.7945
 5845SOL    HW129168   0.737   1.261   3.781 -0.3104 -0.3099 -0.9636
 5845SOL    HW229169   0.829   1.381   3.803  0.3906 -0.7912 -0.4105
 5846SOL     OW29170   1.930   3.836   4.978 -0.0078 -0.1226 -0.4986
 5846SOL    HW129171   1.926   3.795   4.892  0.1753  0.2333 -0.6780
 5846SOL    HW229172   1.857   3.791   5.021 -0.5200  1.2180  0.0598
 5847SOL     OW29173   0.777   3.982  15.652 -0.0071  1.2005  0.8402
 5847SOL    HW129174   0.752   4.068  15.619  0.2759  1.1912  0.6049
 5847SOL    HW229175   0.739   3.939  15.576 -1.7441  1.3813  1.6004
 5848SOL     OW29176   3.530   1.505  11.712 -0.0479  0.1390 -0.7071
 5848SOL    HW129177   3.605   1.514  11.771  0.2365  1.1351 -1.2258
 5848SOL    HW229178   3.479   1.585  11.723 -2.1299 -1.4203  0.8522
 5849SOL     OW29179   4.553   2.128   7.080 -0.0947  0.0185  0.2200
 5849SOL    HW129180   4.492   2.086   7.019  0.9309  0.0374 -0.8308
 5849SOL    HW229181   4.548   2.217   7.046 -0.6142  0.0489  0.3794
 5850SOL     OW29182   4.264   4.091  14.512 -0.0533  0.7072 -0.1986
 5850SOL    HW129183   4.203   4.064  14.580  2.4145 -3.2261  0.4299
 5850SOL    HW229184   4.258   4.186  14.510  1.3268  0.7721 -1.2430
 5851SOL     OW29185   2.643   3.706   6.297  0.1644  0.0915  0.2509
 5851SOL    HW129186   2.552   3.690   6.318 -0.3099 -0.3025 -2.0509
 5851SOL    HW229187   2.641   3.789   6.250  0.8642  0.6411  1.2052
 5852SOL     OW29188   4.695   3.826   2.056  0.2150 -0.2488 -0.4850
 5852SOL    HW129189   4.710   3.887   2.128  0.4577 -1.1719  0.2493
 5852SOL    HW229190   4.599   3.819   2.054  0.1761 -0.4447  1.6514
 5853SOL     OW29191   1.198   3.025   4.704 -0.2478 -0.0001  0.3441
 5853SOL    HW129192   1.283   2.981   4.692 -0.4558  0.0682 -1.4473
 5853SOL    HW229193   1.198   3.086   4.630  2.5928 -0.3194  0.0784
 5854SOL     OW29194   0.420   0.198   1.701 -0.4689  0.0826 -0.4865
 5854SOL    HW129195   0.462   0.234   1.624 -0.6883 -0.4824 -0.8748
 5854SOL    HW229196   0.369   0.275   1.726 -0.7837  0.8832 -3.6372
 5855SOL     OW29197   3.891   2.167   5.899 -0.1089 -0.0603  0.2637
 5855SOL    HW129198   3.821   2.123   5.946  1.0831 -1.3665  0.8435
 5855SOL    HW229199   3.933   2.101   5.844  0.6051 -0.5704  1.4067
 5856SOL     OW29200   1.746   0.909  11.909 -0.2884  0.3003 -0.1261
 5856SOL    HW129201   1.733   0.956  11.827  1.1975  1.1092  0.1032
 5856SOL    HW229202   1.841   0.917  11.925 -0.1776 -0.0511 -0.6092
 5857SOL     OW29203   0.006   2.571   4.333 -0.3316  0.1395  0.1742
 5857SOL    HW129204   4.667   2.602   4.285  1.6730 -0.1408 -3.2240
 5857SOL    HW229205   0.016   2.634   4.404 -0.4215  0.5066 -0.1406
 5858SOL     OW29206   1.861   2.844   5.406  0.1122 -1.0378  0.0748
 5858SOL    HW129207   1.821   2.931   5.398 -0.4829 -1.2224  1.0050
 5858SOL    HW229208   1.836   2.829   5.498 -0.4313 -2.4832 -0.3073
 5859SOL     OW29209   2.765   2.833  14.109  0.0028  0.0933  0.2081
 5859SOL    HW129210   2.816   2.899  14.156  0.1479  0.9161 -1.1320
 5859SOL    HW229211   2.829   2.820  14.038  0.3744  0.4857  0.4727
 5860SOL     OW29212   3.826   0.325   7.543 -0.2158 -0.3752 -0.1111
 5860SOL    HW129213   3.821   0.411   7.585 -0.4329 -0.6172  0.3569
 5860SOL    HW229214   3.773   0.327   7.464  0.2101  1.6339 -0.3647
 5861SOL     OW29215   4.246   4.270   6.060 -0.1310 -0.2912  0.2000
 5861SOL    HW129216   4.252   4.178   6.034  0.6734 -0.6602  1.7485
 5861SOL    HW229217   4.151   4.268   6.070  0.0135  1.5971  1.7533
 5862SOL     OW29218   1.767   1.065   6.249  0.0704  0.0985  0.0781
 5862SOL    HW129219   1.766   0.978   6.290 -0.6225  0.3768  0.6426
 5862SOL    HW229220   1.674   1.083   6.261 -0.2723 -1.5409 -0.1390
 5863SOL     OW29221   4.588   4.296   3.069  0.0514  0.0863  0.0255
 5863SOL    HW129222   4.590   4.232   2.998 -0.7542  1.4019 -1.1980
 5863SOL    HW229223   4.669   4.282   3.116 -0.7136  0.6683  1.5177
 5864SOL     OW29224   1.438   2.851   5.999 -0.0438 -0.7131  0.2374
 5864SOL    HW129225   1.435   2.807   5.914  2.0025  2.0110 -1.2571
 5864SOL    HW229226   1.350   2.889   6.006  0.0487 -0.2191 -1.2102
 5865SOL     OW29227   3.475   0.402   8.683  0.0027 -0.0231  0.1629
 5865SOL    HW129228   3.551   0.344   8.685  1.4261  1.8325 -1.2119
 5865SOL    HW229229   3.412   0.345   8.637 -0.2135  1.0726 -0.8963
 5866SOL     OW29230   2.669   2.996   4.319 -0.5064  0.0053 -0.0258
 5866SOL    HW129231   2.635   3.085   4.329 -1.8887 -0.6485  0.9776
 5866SOL    HW229232   2.761   3.017   4.336 -0.5972  1.2331 -1.0114
 5867SOL     OW29233   0.392   2.317  14.466 -0.1054 -0.5265  0.3150
 5867SOL    HW129234   0.369   2.235  14.423 -0.1549 -0.7281  0.7183
 5867SOL    HW229235   0.353   2.290  14.549 -0.2508 -1.7712 -0.1550
 5868SOL     OW29236   1.186   0.398   5.290  0.3999  0.6925  0.5343
 5868SOL    HW129237   1.174   0.451   5.211  1.4231  1.7519  1.0917
 5868SOL    HW229238   1.150   0.456   5.356  0.6312  2.2636 -0.7234
 5869SOL     OW29239   3.684   2.795   2.302 -0.4193 -0.2499  0.3801
 5869SOL    HW129240   3.744   2.858   2.262 -0.2999 -0.3303  0.4361
 5869SOL    HW229241   3.734   2.773   2.381  0.7450  0.3684 -0.1835
 5870SOL     OW29242   1.288   3.663   9.430  0.2121  0.0966  0.0489
 5870SOL    HW129243   1.362   3.632   9.378  0.9499 -0.0298  1.1825
 5870SOL    HW229244   1.267   3.577   9.467 -0.7120  1.2794  2.2791
 5871SOL     OW29245   3.480   0.242   4.250 -0.1696  0.0568 -0.1310
 5871SOL    HW129246   3.489   0.232   4.156 -0.5806  0.8610 -0.2495
 5871SOL    HW229247   3.433   0.325   4.245  0.5224  0.6196  2.3480
 5872SOL     OW29248   2.669   0.154   3.297 -0.1858  0.3075 -0.5974
 5872SOL    HW129249   2.691   0.237   3.339 -1.6459  0.0208  0.7210
 5872SOL    HW229250   2.574   0.150   3.307 -0.0848  1.1790  0.6949
 5873SOL     OW29251   3.076   2.024   9.236  0.1313 -0.8511 -0.5531
 5873SOL    HW129252   3.137   2.012   9.164 -0.4574  0.3480 -1.2610
 5873SOL    HW229253   3.073   1.939   9.280  0.4628 -0.4122  0.3316
 5874SOL     OW29254   2.417   4.347   0.879 -0.3818  0.5596 -0.1965
 5874SOL    HW129255   2.472   4.425   0.880  1.3485 -0.6602  0.9576
 5874SOL    HW229256   2.344   4.365   0.820 -0.8902  2.5563  1.0552
 5875SOL     OW29257   3.152   3.361  16.600  0.0147  0.1493 -0.0103
 5875SOL    HW129258   3.095   3.285  16.591 -0.7477  0.6921  0.2587
 5875SOL    HW229259   3.107   3.432  16.554  1.0935  1.1888  0.5080
 5876SOL     OW29260   1.717   2.451  15.002  0.2316 -0.4499 -0.3986
 5876SOL    HW129261   1.807   2.483  14.995  1.1297 -2.5414  1.4896
 5876SOL    HW229262   1.659   2.519  14.967  0.2248 -0.2131  0.0661
 5877SOL     OW29263   2.868   0.831   9.402 -0.1443  0.2436 -0.0004
 5877SOL    HW129264   2.953   0.840   9.446 -2.2195 -1.4697  4.4075
 5877SOL    HW229265   2.863   0.906   9.344  4.5599  1.1040  0.7004
 5878SOL     OW29266   3.018   2.960   8.383  0.0849  0.0050 -0.2531
 5878SOL    HW129267   2.923   2.963   8.382  0.1399  1.4858  0.1508
 5878SOL    HW229268   3.040   2.928   8.295  0.5044  0.9531 -0.4899
 5879SOL     OW29269   0.367   3.479  17.426 -0.2833  0.1074  0.1326
 5879SOL    HW129270   0.336   3.401  17.381  1.9332 -0.9241  0.3589
 5879SOL    HW229271   0.459   3.496  17.403 -0.7120  0.9695 -0.9131
 5880SOL     OW29272   2.205   0.654  12.901 -0.4727 -0.0182  0.7441
 5880SOL    HW129273   2.222   0.605  12.821  0.3016  0.9380  0.3258
 5880SOL    HW229274   2.237   0.590  12.965 -0.8752  0.5058  1.4773
 5881SOL     OW29275   0.080   1.641   3.361 -0.3604  0.2261  0.1393
 5881SOL    HW129276   0.106   1.715   3.415  0.8193 -0.5169  0.5928
 5881SOL    HW229277   0.078   1.568   3.423 -2.2529 -0.2105 -0.4032
 5882SOL     OW29278   0.837   2.894  10.089  0.0620  0.1165 -0.7747
 5882SOL    HW129279   0.834   2.903   9.994 -0.4707  0.4309 -0.7260
 5882SOL    HW229280   0.749   2.927  10.109 -0.3715 -1.2488 -0.3978
 5883SOL     OW29281   4.648   3.709   4.092  0.3450 -0.0593  0.2809
 5883SOL    HW129282   4.723   3.651   4.086  1.0968  1.2374 -2.7601
 5883SOL    HW229283   4.647   3.748   4.179 -0.6665  1.4182 -0.3904
 5884SOL     OW29284   2.518   4.377   1.915  0.1955 -0.3562 -0.0079
 5884SOL    HW129285   2.453   4.438   1.948  1.8673  1.9060 -0.8811
 5884SOL    HW229286   2.562   4.353   1.997  1.0841 -1.2698 -0.7496
 5885SOL     OW29287   1.325   3.828   8.133  0.1598  0.0297  0.0716
 5885SOL    HW129288   1.378   3.888   8.081 -0.5470  1.6610  1.2369
 5885SOL    HW229289   1.395   3.772   8.165  0.4135  0.4719  0.2894
 5886SOL     OW29290   1.258   2.179   2.875  0.4280  0.3446 -0.1399
 5886SOL    HW129291   1.231   2.136   2.956  0.9280  3.4391  1.6838
 5886SOL    HW229292   1.186   2.159   2.816  0.6067  0.4038 -0.3785
 5887SOL     OW29293   3.552   3.121   5.625 -0.0252  0.4664 -0.3558
 5887SOL    HW129294   3.577   3.043   5.674  0.1342  0.6484 -0.1467
 5887SOL    HW229295   3.514   3.070   5.553  1.5397 -1.1498 -0.0192
 5888SOL     OW29296   0.991   3.764   9.268 -0.0325  0.3098 -0.1227
 5888SOL    HW129297   0.973   3.680   9.310  1.1301 -0.1118 -0.4568
 5888SOL    HW229298   1.039   3.815   9.333 -0.7449  1.2485 -0.3272
 5889SOL     OW29299   1.739   0.494   8.214 -0.3369 -0.5151 -0.6071
 5889SOL    HW129300   1.649   0.481   8.243 -0.0374  0.4497  0.7951
 5889SOL    HW229301   1.722   0.530   8.128 -1.5066  2.1287  0.7265
 5890SOL     OW29302   3.723   2.920  11.691  0.0452  0.5374 -0.2409
 5890SOL    HW129303   3.720   2.883  11.602  0.4312  2.0951 -0.9103
 5890SOL    HW229304   3.637   2.896  11.724  0.4287 -1.0245 -0.3711
 5891SOL     OW29305   3.243   3.092   6.781  0.1928 -0.2955  0.2198
 5891SOL    HW129306   3.310   3.138   6.832 -1.1758 -0.2279  1.9752
 5891SOL    HW229307   3.289   3.011   6.759 -0.0891 -0.8932  1.7634
 5892SOL     OW29308   0.140   2.566   0.496 -0.2329 -0.2750  0.3207
 5892SOL    HW129309   0.208   2.632   0.482  0.6347 -0.8110  1.9060
 5892SOL    HW229310   0.126   2.566   0.591  0.4336 -1.3885  0.4253
 5893SOL     OW29311   3.650   1.276  17.590  0.1909  0.2989 -0.2253
 5893SOL    HW129312   3.714   1.210  17.617 -0.8979 -1.0785 -1.0239
 5893SOL    HW229313   3.575   1.264  17.648 -1.4281  0.2015 -2.3497
 5894SOL     OW29314   0.206   1.321   7.068 -0.1454  0.5967 -0.1998
 5894SOL    HW129315   0.119   1.292   7.098  0.5921 -1.6647 -0.2314
 5894SOL    HW229316   0.246   1.250   7.118 -0.4414  1.1094  0.7901
 5895SOL     OW29317   4.661   4.553   4.568 -0.0869 -0.1922  0.5148
 5895SOL    HW129318   4.659   4.631   4.513  1.6214 -1.3622 -1.2304
 5895SOL    HW229319   4.709   4.496   4.506 -0.1041 -0.6628  0.9346
 5896SOL     OW29320   2.363   1.874   7.147 -0.1447  0.6932 -0.4858
 5896SOL    HW129321   2.339   1.967   7.156 -0.6073  0.5209  0.0892
 5896SOL    HW229322   2.284   1.851   7.098 -2.2378 -2.2888  4.2081
 5897SOL     OW29323   2.244   2.900   2.411  0.2337  0.2877 -0.0808
 5897SOL    HW129324   2.190   2.822   2.408  1.3394 -0.5764  2.8875
 5897SOL    HW229325   2.294   2.880   2.490 -0.1495 -1.6194 -0.3257
 5898SOL     OW29326   1.032   1.975   6.949  0.1327  0.1766 -0.2590
 5898SOL    HW129327   1.049   1.998   6.858 -1.4418 -1.5745 -1.0180
 5898SOL    HW229328   0.952   2.023   6.971 -0.1082 -0.2923 -0.1051
 5899SOL     OW29329   3.792   1.337   0.872 -0.1025  0.0725 -0.3278
 5899SOL    HW129330   3.802   1.314   0.964  1.4170  1.5526 -0.1094
 5899SOL    HW229331   3.843   1.419   0.872 -1.1776  0.7437  0.2258
 5900SOL     OW29332   2.731   3.380  16.150  0.0193 -0.5354  0.5233
 5900SOL    HW129333   2.726   3.317  16.222  1.0892 -0.0672  1.0052
 5900SOL    HW229334   2.654   3.357  16.097  1.7565 -1.7872 -1.4470
 5901SOL     OW29335   3.988   2.163  15.656 -0.4229  0.4516 -0.0155
 5901SOL    HW129336   4.041   2.142  15.734  1.4836  1.7077 -0.9744
 5901SOL    HW229337   3.951   2.076  15.638  4.8304 -2.0623  1.1634
 5902SOL     OW29338   4.432   1.958   3.861  0.8450 -0.1408  0.7804
 5902SOL    HW129339   4.349   1.937   3.819  1.3174 -3.3309  1.4188
 5902SOL    HW229340   4.483   1.878   3.870  1.9167  0.3650 -0.7329
 5903SOL     OW29341   2.355   3.604   6.932  0.8681 -0.0495 -0.5185
 5903SOL    HW129342   2.399   3.528   6.893 -0.7113 -0.5668 -1.3034
 5903SOL    HW229343   2.357   3.661   6.855 -0.0848 -2.5188 -2.3637
 5904SOL     OW29344   1.771   1.596   4.518 -0.1806 -0.1423  0.2453
 5904SOL    HW129345   1.860   1.583   4.488 -1.2261 -0.0560 -2.9083
 5904SOL    HW229346   1.735   1.620   4.433 -0.6717  2.3717  1.1798
 5905SOL     OW29347   1.227   4.335   1.137  0.5478  0.1908 -0.6679
 5905SOL    HW129348   1.250   4.426   1.154 -1.4501  0.7789 -1.1423
 5905SOL    HW229349   1.313   4.292   1.134  0.2997 -0.3429 -0.1612
 5906SOL     OW29350   2.867   1.712   5.193 -0.4618 -0.2678 -0.1096
 5906SOL    HW129351   2.831   1.669   5.116 -1.4159 -1.4295  0.9729
 5906SOL    HW229352   2.823   1.665   5.264 -0.6714  0.0895 -0.0037
 5907SOL     OW29353   2.949   0.548   6.478 -1.0483  0.3511  0.2299
 5907SOL    HW129354   2.980   0.571   6.390  0.5134  0.1494  0.7205
 5907SOL    HW229355   2.855   0.535   6.469 -0.8098 -0.5089 -1.1212
 5908SOL     OW29356   2.999   3.341   8.356 -0.2152 -0.1767 -0.0698
 5908SOL    HW129357   3.014   3.339   8.451 -0.6716 -0.3988 -0.0019
 5908SOL    HW229358   2.969   3.431   8.344 -1.4546 -0.0397  3.8922
 5909SOL     OW29359   3.309   3.037  12.653 -0.3721 -0.0946  0.0440
 5909SOL    HW129360   3.240   3.050  12.588 -1.0104 -1.5473  0.4265
 5909SOL    HW229361   3.311   3.126  12.688 -1.2078 -0.0429 -0.0349
 5910SOL     OW29362   0.978   2.530   4.760 -0.6058  0.6677  0.2610
 5910SOL    HW129363   1.055   2.567   4.804 -0.8393  0.5682  0.7552
 5910SOL    HW229364   1.023   2.506   4.680  0.1415  2.9360  0.0077
 5911SOL     OW29365   0.338   0.382  15.726 -0.2200 -0.4838  0.0270
 5911SOL    HW129366   0.412   0.331  15.693  0.9457  1.7793 -0.9217
 5911SOL    HW229367   0.390   0.461  15.741 -2.1371  0.6052  0.8633
 5912SOL     OW29368   1.605   4.093   1.082  0.3798 -0.1725  0.2162
 5912SOL    HW129369   1.530   4.117   1.137  1.3404 -0.1001  1.4922
 5912SOL    HW229370   1.628   4.013   1.129 -0.8564 -0.4072  0.4169
 5913SOL     OW29371   2.584   2.566   9.298 -0.4498  0.1567  0.1430
 5913SOL    HW129372   2.577   2.478   9.336  2.4353  0.3924  1.2103
 5913SOL    HW229373   2.653   2.609   9.348  1.2703 -1.4953 -0.7761
 5914SOL     OW29374   4.657   0.606   2.930 -0.1717 -0.5767 -0.6044
 5914SOL    HW129375   4.600   0.549   2.981 -1.2951  0.8589 -0.2483
 5914SOL    HW229376   4.680   0.546   2.859 -1.7383 -1.9721  0.0730
 5915SOL     OW29377   0.358   2.864   3.826 -1.0439 -0.1892 -0.3231
 5915SOL    HW129378   0.371   2.771   3.847  0.7060  0.4909  1.6779
 5915SOL    HW229379   0.299   2.889   3.898  1.1670  0.3273  1.3296
 5916SOL     OW29380   0.438   2.847   5.478 -0.4263  0.0760 -0.5654
 5916SOL    HW129381   0.472   2.924   5.524 -0.2406 -0.1511 -0.3235
 5916SOL    HW229382   0.362   2.884   5.434 -2.1805  0.5320  2.8225
 5917SOL     OW29383   1.474   3.111   7.069  0.2269  0.1260  0.1906
 5917SOL    HW129384   1.383   3.085   7.086 -0.4882  1.1332 -2.1742
 5917SOL    HW229385   1.521   3.066   7.139  0.5044 -1.0174 -0.7232
 5918SOL     OW29386   1.076   3.458  12.595  0.2073 -0.1182 -0.5240
 5918SOL    HW129387   1.059   3.446  12.502 -0.5516  0.8743 -0.5041
 5918SOL    HW229388   1.158   3.411  12.615  0.8898  1.0099 -0.7021
 5919SOL     OW29389   4.117   2.038   4.612  0.2887  0.0354 -0.2123
 5919SOL    HW129390   4.186   1.972   4.609 -2.3041 -2.5906 -1.6948
 5919SOL    HW229391   4.170   2.108   4.573 -1.4483  1.2754 -0.3908
 5920SOL     OW29392   2.200   2.332   3.972  0.1580 -0.2189 -0.0627
 5920SOL    HW129393   2.246   2.282   3.905 -2.8554 -0.7252 -1.7419
 5920SOL    HW229394   2.137   2.381   3.920 -0.0893  0.1782  0.6071
 5921SOL     OW29395   2.328   2.931   4.055 -0.1076  0.1832 -0.0762
 5921SOL    HW129396   2.374   2.894   4.130 -1.3535  0.9234  1.0580
 5921SOL    HW229397   2.276   2.995   4.104  0.1471 -1.6974  2.6747
 5922SOL     OW29398   3.625   4.676  13.580  0.3470  0.3057 -0.2845
 5922SOL    HW129399   3.638   0.019  13.628  1.7316 -0.5249  0.7269
 5922SOL    HW229400   3.690   4.690  13.511  0.2776 -0.9300 -0.5943
 5923SOL     OW29401   2.602   3.060  11.374 -0.4773  0.3389  0.6752
 5923SOL    HW129402   2.671   3.101  11.427  0.1436 -2.5999  2.1800
 5923SOL    HW229403   2.618   2.971  11.407  0.0375  0.4101  0.6251
 5924SOL     OW29404   2.900   3.856  15.403 -0.1372 -0.1144 -0.0190
 5924SOL    HW129405   2.836   3.893  15.465  0.1648 -2.1619  1.5308
 5924SOL    HW229406   2.941   3.937  15.373  1.6455 -1.5262 -1.3550
 5925SOL     OW29407   4.539   1.533   5.298 -0.0354  0.3213 -0.2195
 5925SOL    HW129408   4.538   1.554   5.392  2.5098 -0.2227 -0.0818
 5925SOL    HW229409   4.489   1.608   5.265 -0.7468  0.2459  0.6761
 5926SOL     OW29410   1.665   1.149   8.844 -0.3417  0.1595 -0.5992
 5926SOL    HW129411   1.610   1.174   8.918  0.1658  3.0692 -1.2207
 5926SOL    HW229412   1.726   1.222   8.848  3.0884 -2.6022 -1.8615
 5927SOL     OW29413   1.667   0.081  10.574  1.0715  0.4483  0.1638
 5927SOL    HW129414   1.736   0.021  10.545  2.0150  0.8208  1.6123
 5927SOL    HW229415   1.635   0.048  10.658 -1.2018  0.5728 -0.6470
 5928SOL     OW29416   0.951   3.306   2.456  0.2083  0.3053  0.3201
 5928SOL    HW129417   0.933   3.394   2.490 -0.0590  0.0831  0.7617
 5928SOL    HW229418   1.038   3.324   2.422  0.0895 -0.5772 -0.4426
 5929SOL     OW29419   3.534   1.409  15.124 -0.1610  0.0609 -0.2956
 5929SOL    HW129420   3.539   1.432  15.031 -0.3460 -0.7619 -0.5082
 5929SOL    HW229421   3.599   1.471  15.155  0.7328 -0.3675 -1.3330
 5930SOL     OW29422   3.260   2.169   9.365 -0.3366 -0.0122 -0.1296
 5930SOL    HW129423   3.192   2.115   9.324  1.9294 -2.2733 -0.9185
 5930SOL    HW229424   3.259   2.140   9.456  0.1736  1.4703  0.3448
 5931SOL     OW29425   0.479   3.307   8.765 -0.4477 -0.2871 -0.8542
 5931SOL    HW129426   0.511   3.369   8.831 -0.0337 -0.3612 -0.9861
 5931SOL    HW229427   0.564   3.293   8.722  0.1535 -2.3401  1.0127
 5932SOL     OW29428   0.950   1.977   2.589  0.4444 -0.0265 -0.4539
 5932SOL    HW129429   0.877   2.006   2.644 -0.1242 -3.4750  0.6669
 5932SOL    HW229430   0.946   1.883   2.609 -1.3068 -0.2178 -1.6933
 5933SOL     OW29431   2.394   4.565  17.429  0.0172  0.2868 -0.0181
 5933SOL    HW129432   2.400   4.660  17.431  0.2404  0.3310 -3.2757
 5933SOL    HW229433   2.308   4.551  17.470 -0.1902  1.4903 -0.0440
 5934SOL     OW29434   3.346   4.596   3.948 -0.0888 -0.3725  0.6548
 5934SOL    HW129435   3.438   4.614   3.930 -0.4308 -0.0179 -0.7810
 5934SOL    HW229436   3.314   4.555   3.867 -1.7218 -0.7952  1.5288
 5935SOL     OW29437   0.495   3.310   5.112  0.1943  0.2454 -0.0960
 5935SOL    HW129438   0.495   3.312   5.207  0.1777  3.3070 -0.1613
 5935SOL    HW229439   0.499   3.216   5.092 -2.2401  0.4291 -1.4719
 5936SOL     OW29440   1.090   0.992   9.823 -0.7292  0.1418 -0.2617
 5936SOL    HW129441   1.088   0.896   9.816  0.4795  0.0616  0.3483
 5936SOL    HW229442   1.048   1.011   9.907 -0.7112 -0.9199 -0.0029
 5937SOL     OW29443   0.765   3.737   6.492  0.4963  0.2156 -0.3015
 5937SOL    HW129444   0.741   3.825   6.462 -0.9232 -0.5387 -1.3729
 5937SOL    HW229445   0.682   3.703   6.525  0.7350  0.6669  0.7714
 5938SOL     OW29446   2.408   3.258   3.338 -0.0699  0.0670  0.2062
 5938SOL    HW129447   2.471   3.190   3.362 -0.3472 -0.6738 -1.1276
 5938SOL    HW229448   2.409   3.318   3.412 -2.3059  0.1852  0.1388
 5939SOL     OW29449   1.490   0.153  10.195 -0.1867  0.1348  0.2202
 5939SOL    HW129450   1.437   0.132  10.118 -1.0511 -1.9165  1.3779
 5939SOL    HW229451   1.567   0.096  10.192 -0.7711 -0.6447 -0.2015
 5940SOL     OW29452   1.422   4.162   2.943  0.4458 -0.3271 -0.3411
 5940SOL    HW129453   1.372   4.160   3.024 -1.2781 -0.4454 -1.4045
 5940SOL    HW229454   1.410   4.069   2.924 -3.0643 -0.2485  1.5276
 5941SOL     OW29455   4.533   2.958   4.426 -0.2086 -0.2109  0.0398
 5941SOL    HW129456   4.540   2.968   4.331  1.3132 -0.4991  0.1116
 5941SOL    HW229457   4.548   2.865   4.444 -0.2836 -0.4389 -1.0743
 5942SOL     OW29458   3.072   4.504  16.074 -0.2078  0.5742  0.4848
 5942SOL    HW129459   3.010   4.576  16.074  0.1663  0.8954  0.0036
 5942SOL    HW229460   3.153   4.551  16.094  0.6395  0.2903 -2.3008
 5943SOL     OW29461   3.375   4.648   3.413  0.2183  0.0142  0.1572
 5943SOL    HW129462   3.343   4.716   3.354  1.9871 -0.4098 -1.2942
 5943SOL    HW229463   3.378   4.571   3.356 -0.0328 -0.4802  0.8125
 5944SOL     OW29464   1.206   1.972  17.623  0.1452  0.2363  0.4437
 5944SOL    HW129465   1.151   2.018  17.559  0.3477 -2.3769 -1.5843
 5944SOL    HW229466   1.152   1.959  17.701  1.1323  0.6783  1.1922
 5945SOL     OW29467   2.927   1.129   6.514  0.1090  0.3167 -0.3480
 5945SOL    HW129468   2.868   1.203   6.498 -1.9904 -0.9887  1.4157
 5945SOL    HW229469   2.903   1.073   6.440  0.2519 -0.4963  0.2224
 5946SOL     OW29470   1.902   3.107  15.134  0.9591 -0.5399 -0.2215
 5946SOL    HW129471   1.818   3.148  15.156  0.4110 -1.8719  0.1096
 5946SOL    HW229472   1.885   3.014  15.125  1.5798 -0.5237 -1.6271
 5947SOL     OW29473   1.007   2.820   6.733 -0.9718 -0.3474  0.4371
 5947SOL    HW129474   1.039   2.889   6.676  2.1670 -0.7196  1.7643
 5947SOL    HW229475   1.084   2.795   6.784  1.2136  3.0084 -1.2977
 5948SOL     OW29476   2.530   1.111  10.759 -0.5848  0.1479 -0.1740
 5948SOL    HW129477   2.557   1.197  10.727  2.2449 -0.9991 -0.8930
 5948SOL    HW229478   2.586   1.118  10.836  0.3703  2.3819 -1.0718
 5949SOL     OW29479   2.725   0.360   4.929 -0.8360 -0.1618 -0.3160
 5949SOL    HW129480   2.674   0.422   4.876 -1.0258  0.6722  0.8527
 5949SOL    HW229481   2.752   0.305   4.855 -4.6425 -1.9561 -0.3497
 5950SOL     OW29482   1.691   1.280   7.871 -0.1303 -0.7338  0.0769
 5950SOL    HW129483   1.640   1.256   7.949 -0.2396 -0.5411  0.0650
 5950SOL    HW229484   1.761   1.325   7.919 -0.9269  0.4562  0.1471
 5951SOL     OW29485   4.261   2.163   0.808 -0.0852  0.1657 -0.3270
 5951SOL    HW129486   4.225   2.247   0.780 -0.1242 -0.4811 -2.2192
 5951SOL    HW229487   4.182   2.134   0.855 -0.3067 -0.0044 -0.8026
 5952SOL     OW29488   4.277   3.440  17.727 -0.2707  0.3007 -0.4419
 5952SOL    HW129489   4.238   3.461   0.061  0.2565 -0.0274 -0.1203
 5952SOL    HW229490   4.196   3.417  17.681 -1.9354 -0.3261  2.7521
 5953SOL     OW29491   1.723   1.833  16.675  0.1327  0.2520 -0.7836
 5953SOL    HW129492   1.812   1.866  16.663 -0.1882  1.0718 -0.8753
 5953SOL    HW229493   1.691   1.868  16.758 -0.9050  1.2810 -1.6343
 5954SOL     OW29494   2.123   4.137   9.875  0.0931  0.0284 -0.2766
 5954SOL    HW129495   2.105   4.178   9.790 -1.1928 -1.4642 -0.7207
 5954SOL    HW229496   2.217   4.152   9.884 -0.2705  1.1044  1.7696
 5955SOL     OW29497   4.354   4.593   4.023 -0.1597  0.4263  0.0200
 5955SOL    HW129498   4.336   4.587   3.929  1.8414 -1.4842 -0.2403
 5955SOL    HW229499   4.431   4.650   4.022  0.2575 -0.1679 -3.9826
 5956SOL     OW29500   4.693   1.617   2.092  0.6374 -0.6830 -0.0283
 5956SOL    HW129501   0.041   1.646   2.122 -0.4684 -0.0020  2.4759
 5956SOL    HW229502   4.703   1.524   2.075 -3.1308 -1.1393  0.3219
 5957SOL     OW29503   4.100   0.121   2.756  0.1235 -0.3248  0.0752
 5957SOL    HW129504   4.186   0.079   2.765  0.8526  0.8496 -1.3368
 5957SOL    HW229505   4.043   0.098   2.829  0.6123 -2.9732 -0.3789
 5958SOL     OW29506   0.394   4.455   5.348  0.3632  0.0715 -0.0396
 5958SOL    HW129507   0.376   4.505   5.427  3.7316 -0.3976  1.0431
 5958SOL    HW229508   0.341   4.508   5.288 -0.6376 -1.3912 -0.4343
 5959SOL     OW29509   2.018   1.802  10.257  0.3155  0.3442  0.0827
 5959SOL    HW129510   1.983   1.880  10.300 -0.1376 -0.0543  0.4343
 5959SOL    HW229511   1.984   1.813  10.168 -1.6176  2.4528  1.0905
 5960SOL     OW29512   0.970   1.929  12.346 -0.5259  0.3858 -0.0367
 5960SOL    HW129513   1.041   1.906  12.287 -2.6926 -0.4077 -2.3495
 5960SOL    HW229514   1.016   1.913  12.428 -1.8615 -0.8189  0.4862
 5961SOL     OW29515   1.564   3.144   6.159 -0.1980 -0.5213 -0.2872
 5961SOL    HW129516   1.537   3.220   6.107 -0.7165  0.1622  0.9890
 5961SOL    HW229517   1.644   3.129   6.109 -0.4005  0.2852 -0.8650
 5962SOL     OW29518   4.668   2.632   7.598 -0.2918 -0.0640 -0.3518
 5962SOL    HW129519   0.016   2.674   7.595 -0.6772  0.7222 -0.3867
 5962SOL    HW229520   4.634   2.651   7.511  0.2463 -2.5941 -1.1130
 5963SOL     OW29521   1.226   0.570   7.223  0.0980 -0.4542  0.2123
 5963SOL    HW129522   1.276   0.651   7.220 -1.9939  0.9034  1.7862
 5963SOL    HW229523   1.197   0.560   7.133  0.9807  0.6859 -0.1956
 5964SOL     OW29524   3.294   2.558   3.068  0.0511  0.2336 -0.1909
 5964SOL    HW129525   3.232   2.586   3.136  1.1507 -0.0804  0.9505
 5964SOL    HW229526   3.249   2.589   2.990 -2.1618 -0.8316  0.6673
 5965SOL     OW29527   4.598   4.519   7.074 -0.7113  0.0706 -0.1721
 5965SOL    HW129528   4.527   4.455   7.079 -1.9143  1.2546 -1.7882
 5965SOL    HW229529   4.660   4.468   7.126 -1.2155  0.8590  1.1744
 5966SOL     OW29530   0.169   0.051  17.563  0.0277 -0.1024 -0.1701
 5966SOL    HW129531   0.148   0.053  17.656  0.0800  0.0096 -0.1595
 5966SOL    HW229532   0.256   0.010  17.570  0.0619 -0.0512 -0.2867
 5967SOL     OW29533   3.843   2.499   6.173 -0.5271 -0.3408 -0.6145
 5967SOL    HW129534   3.933   2.495   6.206 -0.3308  0.7360 -0.9957
 5967SOL    HW229535   3.791   2.452   6.238 -0.0518  1.4300  1.0726
 5968SOL     OW29536   2.311   2.176   6.748 -0.7559 -0.1322  0.2602
 5968SOL    HW129537   2.298   2.244   6.815  0.5478 -0.4520  0.8469
 5968SOL    HW229538   2.223   2.139   6.751 -0.2664 -1.1675  2.1642
 5969SOL     OW29539   2.022   4.119   5.635 -0.8673 -0.4504 -0.2867
 5969SOL    HW129540   2.085   4.103   5.565 -1.5379 -1.0763 -0.7441
 5969SOL    HW229541   1.963   4.176   5.584 -0.2984  0.5647  0.1827
 5970SOL     OW29542   0.831   1.977   8.178  0.6128 -0.0076 -0.4626
 5970SOL    HW129543   0.801   1.894   8.215 -0.7261 -0.1394 -1.8514
 5970SOL    HW229544   0.922   1.978   8.208  0.6048  0.8569 -0.4683
 5971SOL     OW29545   0.623   1.595   0.525  0.5056 -0.3556  0.0024
 5971SOL    HW129546   0.539   1.603   0.480 -0.3689  2.6601  2.1603
 5971SOL    HW229547   0.613   1.665   0.590  0.6277 -0.6484  0.3348
 5972SOL     OW29548   4.625   2.049   3.538 -0.5646  0.8370 -0.3381
 5972SOL    HW129549   4.555   2.012   3.484 -0.3679  0.5948 -0.4281
 5972SOL    HW229550   4.605   2.140   3.561  1.8147  0.6865  2.3093
 5973SOL     OW29551   3.349   2.408   0.786  0.1149  0.0729  0.0097
 5973SOL    HW129552   3.405   2.372   0.718 -1.4407 -1.3739 -0.5122
 5973SOL    HW229553   3.417   2.441   0.844  0.6318 -0.6345 -0.1927
 5974SOL     OW29554   1.566   2.597   9.704  0.2232 -0.2480 -0.1288
 5974SOL    HW129555   1.638   2.534   9.693  1.9040  1.7330 -0.5497
 5974SOL    HW229556   1.592   2.670   9.648 -0.2991 -0.3559 -0.5156
 5975SOL     OW29557   4.328   1.882   7.843 -0.3958 -0.0751  0.3857
 5975SOL    HW129558   4.379   1.931   7.907  3.0281 -0.4288 -2.0585
 5975SOL    HW229559   4.284   1.952   7.793 -1.1400 -1.1184 -0.4233
 5976SOL     OW29560   1.882   4.254   8.066  0.1206  0.3791 -0.2318
 5976SOL    HW129561   1.941   4.291   8.001 -0.6624 -0.1025 -1.2238
 5976SOL    HW229562   1.797   4.279   8.029 -0.5180 -0.7636  0.4346
 5977SOL     OW29563   2.273   2.968   1.458 -0.2806  0.2571  0.1506
 5977SOL    HW129564   2.246   2.894   1.513  0.8916 -0.5169 -0.2967
 5977SOL    HW229565   2.211   3.041   1.461 -2.0319 -1.2029 -1.0095
 5978SOL     OW29566   2.648   2.311  11.405  0.3167  0.1477  0.2894
 5978SOL    HW129567   2.711   2.302  11.334  1.2649  0.1978  1.1135
 5978SOL    HW229568   2.566   2.289  11.360  1.5331 -3.0186 -0.3973
 5979SOL     OW29569   3.054   1.983  13.727  0.0641  0.5227 -0.4455
 5979SOL    HW129570   2.967   1.961  13.693  0.1182 -0.6355  0.1638
 5979SOL    HW229571   3.096   2.025  13.652  1.3521  0.8424  0.4472
 5980SOL     OW29572   2.164   1.656  13.216 -0.1742  0.0939  0.0901
 5980SOL    HW129573   2.108   1.660  13.139  0.9030  3.4922 -0.5274
 5980SOL    HW229574   2.108   1.679  13.291 -1.5364 -0.6226 -0.7166
 5981SOL     OW29575   0.424   2.054  17.201 -0.1123  0.2325 -0.3225
 5981SOL    HW129576   0.357   2.089  17.142 -1.1636  0.5527  1.0414
 5981SOL    HW229577   0.485   2.015  17.138  2.1853  0.8803  1.5082
 5982SOL     OW29578   1.074   2.871   2.198  0.0391  0.5098 -0.2783
 5982SOL    HW129579   1.170   2.863   2.194  0.1289  1.9120 -1.1090
 5982SOL    HW229580   1.057   2.940   2.134 -1.4684  2.1023  1.8756
 5983SOL     OW29581   3.989   4.134   8.634  0.3506  0.1100  0.2650
 5983SOL    HW129582   3.999   4.063   8.698  2.9059  0.6067  0.4277
 5983SOL    HW229583   4.020   4.211   8.682 -0.3692  0.9633 -0.6571
 5984SOL     OW29584   4.272   2.296  13.433  0.2361  0.1573 -0.5606
 5984SOL    HW129585   4.238   2.307  13.345 -0.6470 -0.0795 -0.2461
 5984SOL    HW229586   4.331   2.222  13.427  0.8098  0.7247 -1.7789
 5985SOL     OW29587   3.156   2.074  16.127  0.0719 -0.3627 -0.5104
 5985SOL    HW129588   3.082   2.133  16.140  2.4894  2.3989  0.8747
 5985SOL    HW229589   3.175   2.081  16.034  0.3304  0.9147 -0.3624
 5986SOL     OW29590   1.328   3.068  17.146 -0.5021  0.5503 -0.2530
 5986SOL    HW129591   1.281   3.054  17.063 -1.7235 -0.9504  0.6957
 5986SOL    HW229592   1.291   2.992  17.191  1.4673 -1.0564 -1.3179
 5987SOL     OW29593   2.033   1.419   5.825  0.4742  0.7720  1.0551
 5987SOL    HW129594   2.060   1.356   5.758  1.4746  2.9681 -0.5778
 5987SOL    HW229595   1.976   1.484   5.783  1.2075 -0.6922 -2.1797
 5988SOL     OW29596   3.669   2.300   7.866  0.2887  0.3414  0.3521
 5988SOL    HW129597   3.735   2.352   7.913 -0.8378  0.7238  1.5112
 5988SOL    HW229598   3.687   2.220   7.915  0.6737  0.8636  1.0628
 5989SOL     OW29599   0.137   3.986   8.603  0.3123  0.0645  0.1686
 5989SOL    HW129600   0.093   4.050   8.658  1.4484  2.7747 -2.1006
 5989SOL    HW229601   0.211   3.961   8.658 -0.1943 -1.7936  0.0273
 5990SOL     OW29602   2.790   4.288  11.020  0.0740  0.5941  0.2236
 5990SOL    HW129603   2.813   4.214  10.964 -1.4669 -0.3870  0.8822
 5990SOL    HW229604   2.696   4.291  11.003 -0.2057 -1.0613  1.5380
 5991SOL     OW29605   0.330   1.768   6.057 -0.3273  0.5615  0.2895
 5991SOL    HW129606   0.253   1.712   6.067  0.5790 -0.8786 -0.8982
 5991SOL    HW229607   0.358   1.793   6.146  0.0786 -0.3783  0.4244
 5992SOL     OW29608   4.383   1.365   7.538 -0.2145 -0.0920  0.1962
 5992SOL    HW129609   4.398   1.460   7.532  0.1139 -0.2029 -0.7931
 5992SOL    HW229610   4.358   1.368   7.630  3.3393  0.7166  1.1439
 5993SOL     OW29611   0.088   1.861   3.553 -0.4220 -0.7473 -0.1933
 5993SOL    HW129612   0.031   1.933   3.581  1.2798  1.0033 -1.2516
 5993SOL    HW229613   0.143   1.904   3.488  0.4300  0.4425  1.3123
 5994SOL     OW29614   1.459   0.751   2.413 -0.1621  0.0054  0.1633
 5994SOL    HW129615   1.431   0.768   2.503 -1.1203 -0.0677 -0.1227
 5994SOL    HW229616   1.452   0.840   2.377  0.3638  0.2880  0.7475
 5995SOL     OW29617   2.986   1.679   6.780  0.1688 -0.1904  0.1840
 5995SOL    HW129618   3.070   1.635   6.783  1.3783  2.2238  1.5486
 5995SOL    HW229619   2.937   1.625   6.719 -2.9270 -0.3094  2.7406
 5996SOL     OW29620   1.040   0.972   2.595 -0.1635  0.0162  0.1873
 5996SOL    HW129621   0.945   0.964   2.597 -0.0742 -1.5898 -2.0469
 5996SOL    HW229622   1.046   1.056   2.549 -1.3879  1.5982  2.9388
 5997SOL     OW29623   1.877   2.028  10.571 -0.3447 -0.6336  0.1335
 5997SOL    HW129624   1.785   2.000  10.568 -0.9490  1.3568 -0.2204
 5997SOL    HW229625   1.917   1.959  10.623  0.2752  0.5943  1.2607
 5998SOL     OW29626   3.888   4.710   0.375  0.0133  0.3119  0.1313
 5998SOL    HW129627   3.946   4.634   0.367  2.1595  2.0354 -0.5240
 5998SOL    HW229628   3.919   0.004   0.459 -1.5646 -1.1650  1.2891
 5999SOL     OW29629   1.326   2.813   9.734 -0.0150 -0.3524  0.2440
 5999SOL    HW129630   1.388   2.779   9.799 -0.0188 -0.0433  0.4098
 5999SOL    HW229631   1.385   2.881   9.701  1.6064 -2.1014 -0.4476
 6000SOL     OW29632   4.254   0.444   3.205 -0.2714  0.5833 -0.6966
 6000SOL    HW129633   4.343   0.409   3.213 -1.2334 -1.8904 -0.6662
 6000SOL    HW229634   4.205   0.369   3.240  0.9220  1.6783  3.3045
 6001SOL     OW29635   4.487   4.287  13.746  0.2361  0.7101 -0.3622
 6001SOL    HW129636   4.565   4.270  13.694  0.4626 -0.1774  0.2661
 6001SOL    HW229637   4.520   4.347  13.812 -1.8165 -1.1992  2.4209
 6002SOL     OW29638   2.746   3.964   3.964 -0.7385 -0.0930 -0.2786
 6002SOL    HW129639   2.734   4.048   3.920  2.0389  0.6284  0.3214
 6002SOL    HW229640   2.810   3.934   3.899 -0.3327 -0.1702  0.1559
 6003SOL     OW29641   2.389   2.494   3.038 -0.0670 -0.7073  0.0187
 6003SOL    HW129642   2.308   2.525   2.999  0.3400 -0.7952 -0.8992
 6003SOL    HW229643   2.450   2.531   2.975 -0.8664  1.0470  0.2816
 6004SOL     OW29644   3.354   1.744   2.483  0.2259  0.2053  0.6232
 6004SOL    HW129645   3.267   1.769   2.454 -0.2796 -0.4867  1.5372
 6004SOL    HW229646   3.400   1.712   2.405  0.5907 -0.2038  1.0068
 6005SOL     OW29647   0.343   4.148   3.079 -0.0188 -0.3089 -0.0872
 6005SOL    HW129648   0.327   4.144   2.985 -0.9518  2.8038 -0.0458
 6005SOL    HW229649   0.254   4.139   3.112  0.0814 -3.3496 -0.6431
 6006SOL     OW29650   0.968   2.472   8.037  0.2870 -0.0063  1.1678
 6006SOL    HW129651   0.878   2.448   8.056  0.3018 -0.2125  0.9831
 6006SOL    HW229652   0.993   2.501   8.125 -0.7828  0.8320  1.1907
 6007SOL     OW29653   1.479   1.609   5.831 -0.3424 -0.7722  0.3749
 6007SOL    HW129654   1.546   1.637   5.894  1.4178 -0.3305 -1.6800
 6007SOL    HW229655   1.419   1.569   5.894 -2.2390 -0.0414 -1.0148
 6008SOL     OW29656   2.361   3.396  16.296 -0.6290  0.1972  0.6840
 6008SOL    HW129657   2.314   3.369  16.217  0.1788  0.2513  0.1748
 6008SOL    HW229658   2.360   3.491  16.288  2.8735  0.1491 -0.5040
 6009SOL     OW29659   2.648   2.722  10.654  0.2756 -0.3159  0.7872
 6009SOL    HW129660   2.689   2.804  10.681  1.9682 -1.0256  0.3440
 6009SOL    HW229661   2.559   2.729  10.690  1.7655  0.9657  4.2754
 6010SOL     OW29662   2.141   3.794   2.170  0.2065 -0.4387 -0.0535
 6010SOL    HW129663   2.095   3.863   2.121 -0.8921 -0.9130  0.3108
 6010SOL    HW229664   2.231   3.825   2.172  0.4008 -1.1516  1.8344
 6011SOL     OW29665   0.415   0.754   0.109 -0.3893  0.1341  0.4311
 6011SOL    HW129666   0.385   0.840   0.080 -1.4891 -0.8579 -1.4235
 6011SOL    HW229667   0.480   0.784   0.172 -0.6147  0.0313  0.7120
 6012SOL     OW29668   3.844   3.939  14.792  0.1794 -0.4403 -0.0422
 6012SOL    HW129669   3.771   3.951  14.730 -1.1409 -1.3310  1.3412
 6012SOL    HW229670   3.820   4.001  14.861 -2.1709 -0.0541 -1.1936
 6013SOL     OW29671   0.533   3.822   7.717 -0.4138 -0.2560 -1.1571
 6013SOL    HW129672   0.463   3.884   7.738 -1.2355 -1.4951 -0.1986
 6013SOL    HW229673   0.604   3.858   7.770  0.4711 -3.0399 -0.4084
 6014SOL     OW29674   3.769   0.509   4.355 -0.2866  0.1876  0.6921
 6014SOL    HW129675   3.833   0.546   4.415 -2.4206  1.4239  2.2095
 6014SOL    HW229676   3.714   0.582   4.327  0.3290  0.8523  1.2370
 6015SOL     OW29677   4.133   4.022   3.678 -0.1115 -0.0035 -0.1264
 6015SOL    HW129678   4.138   3.945   3.620 -0.7427  0.3871 -0.6935
 6015SOL    HW229679   4.200   4.081   3.643 -0.8953  0.7566 -0.3271
 6016SOL     OW29680   1.627   2.395  10.648 -0.7083  0.0133 -0.1676
 6016SOL    HW129681   1.609   2.366  10.559 -1.4613  1.0405 -0.3543
 6016SOL    HW229682   1.718   2.369  10.659  0.1488  2.5763 -1.0987
 6017SOL     OW29683   4.234   1.385   5.760  0.1242 -0.1805 -0.0344
 6017SOL    HW129684   4.272   1.314   5.811 -0.5071  0.7319  1.6888
 6017SOL    HW229685   4.193   1.336   5.688 -2.1388  1.4358  0.1549
 6018SOL     OW29686   3.387   0.310  10.142  0.0206  0.0549  0.9007
 6018SOL    HW129687   3.330   0.318  10.066 -0.0051  3.9617  1.3006
 6018SOL    HW229688   3.465   0.335  10.094  0.2625 -0.4622  1.0312
 6019SOL     OW29689   2.805   2.905   6.433 -0.4312  0.4243  0.6362
 6019SOL    HW129690   2.805   2.948   6.518  0.3507 -3.1657  2.4692
 6019SOL    HW229691   2.759   2.973   6.384  0.4278 -0.5963 -1.5875
 6020SOL     OW29692   1.514   1.623   2.865  0.1341  1.2216  0.1419
 6020SOL    HW129693   1.592   1.675   2.885 -1.2425  3.5740 -0.5265
 6020SOL    HW229694   1.478   1.684   2.800  0.5860  0.6073 -0.6919
 6021SOL     OW29695   1.890   2.227   2.020 -0.2626 -0.5759  0.0375
 6021SOL    HW129696   1.808   2.199   1.978 -0.0978 -2.3138  0.8812
 6021SOL    HW229697   1.850   2.263   2.099 -1.0481 -0.5154 -0.3879
 6022SOL     OW29698   0.326   0.408   5.323  0.2197 -0.2988 -0.4333
 6022SOL    HW129699   0.418   0.405   5.296  0.6351  0.2190  0.9384
 6022SOL    HW229700   0.324   0.452   5.408 -1.6365  1.8770 -1.6040
 6023SOL     OW29701   2.933   1.943   7.495 -0.1965 -0.3192  0.1656
 6023SOL    HW129702   2.900   2.031   7.513 -0.8232  0.4024 -4.4770
 6023SOL    HW229703   2.886   1.885   7.555  0.7131 -0.1298  1.0656
 6024SOL     OW29704   2.021   3.102   6.464 -0.1039 -0.3412  0.7766
 6024SOL    HW129705   2.031   3.011   6.491 -0.3041 -0.6876 -0.3300
 6024SOL    HW229706   2.007   3.140   6.551 -0.0975  2.2487 -0.3667
 6025SOL     OW29707   1.986   2.182   0.638  0.0204  1.1176 -0.2526
 6025SOL    HW129708   2.023   2.232   0.711  0.1597  1.8625 -0.8329
 6025SOL    HW229709   2.056   2.200   0.575 -0.2255 -0.3795 -0.9501
 6026SOL     OW29710   1.196   3.579   8.372  0.1660  0.2822  0.4274
 6026SOL    HW129711   1.157   3.529   8.443 -0.7797  0.6789  0.1935
 6026SOL    HW229712   1.277   3.612   8.411  1.3606 -1.5329 -0.4898
 6027SOL     OW29713   1.616   0.396   3.568 -0.4177  0.0148 -0.0877
 6027SOL    HW129714   1.598   0.414   3.660 -0.6995  1.4508 -0.4338
 6027SOL    HW229715   1.545   0.335   3.547  0.3728 -0.5226 -1.1903
 6028SOL     OW29716   3.485   3.473   5.311  0.4397 -0.0967  0.3013
 6028SOL    HW129717   3.425   3.483   5.386  0.0227 -1.8350  0.1958
 6028SOL    HW229718   3.514   3.383   5.326  0.5077  0.1642  1.7854
 6029SOL     OW29719   2.679   0.581   9.020 -0.0751 -0.0989  0.0351
 6029SOL    HW129720   2.763   0.625   9.033 -1.0453  1.9448 -0.6285
 6029SOL    HW229721   2.701   0.501   9.068 -1.0625 -1.3243 -1.5076
 6030SOL     OW29722   2.747   4.323   9.662  0.0155  0.0082  0.2642
 6030SOL    HW129723   2.666   4.301   9.615  0.6140 -1.6987  0.0034
 6030SOL    HW229724   2.779   4.397   9.611 -2.6735  0.1658 -1.1977
 6031SOL     OW29725   0.313   4.642   5.834 -0.1243  0.5439 -0.4601
 6031SOL    HW129726   0.314   4.628   5.929 -1.8592  1.1287 -0.3617
 6031SOL    HW229727   0.397   4.689   5.832  1.2727 -2.0129 -1.6946
 6032SOL     OW29728   3.986   1.741   2.746 -1.0044 -0.2481 -0.1486
 6032SOL    HW129729   3.955   1.650   2.753  0.2342 -0.6227  0.5477
 6032SOL    HW229730   4.061   1.728   2.688  0.6073  1.3006  1.5926
 6033SOL     OW29731   1.951   0.855   3.465 -0.1682 -0.0260  0.6644
 6033SOL    HW129732   1.857   0.842   3.477  0.1489 -1.4675  1.6008
 6033SOL    HW229733   1.957   0.850   3.370  1.0802  1.0421  0.6855
 6034SOL     OW29734   0.857   3.659   2.119  0.2787 -0.2960 -0.7130
 6034SOL    HW129735   0.792   3.606   2.165 -0.3080 -0.5254 -1.8100
 6034SOL    HW229736   0.812   3.737   2.088 -0.6675  0.3555  2.2979
 6035SOL     OW29737   2.878   0.739   3.233  0.2798 -0.0648 -0.0490
 6035SOL    HW129738   2.879   0.711   3.325 -2.4929  2.8733  0.8964
 6035SOL    HW229739   2.784   0.748   3.221  0.0647 -1.3947  0.6593
 6036SOL     OW29740   4.236   0.644   6.170 -0.0643  0.3668 -0.1667
 6036SOL    HW129741   4.171   0.629   6.239 -1.5823 -0.5393 -1.8073
 6036SOL    HW229742   4.308   0.589   6.201 -0.3743 -0.1515 -0.3641
 6037SOL     OW29743   2.618   4.694  14.541  0.4503  0.1022 -0.3229
 6037SOL    HW129744   2.705   4.716  14.574  0.2217  0.6580 -0.0963
 6037SOL    HW229745   2.590   4.628  14.605 -1.4459 -1.5124 -2.7956
 6038SOL     OW29746   2.591   0.686   5.739  0.0931  0.0363 -0.0443
 6038SOL    HW129747   2.615   0.763   5.790  0.2409  1.2067 -1.8696
 6038SOL    HW229748   2.677   0.675   5.697 -0.9630 -0.6129 -2.0503
 6039SOL     OW29749   4.305   3.917   1.480  0.2720  0.0754  0.6130
 6039SOL    HW129750   4.309   4.010   1.457  0.8345  0.5783  2.6646
 6039SOL    HW229751   4.210   3.908   1.486  0.3502 -2.1423 -2.1201
 6040SOL     OW29752   2.181   1.609   7.867  0.2886  0.1027  0.0573
 6040SOL    HW129753   2.251   1.648   7.815  1.0554 -1.3439  0.0067
 6040SOL    HW229754   2.226   1.536   7.910  0.5227 -0.0060 -0.3650
 6041SOL     OW29755   2.337   1.338   1.540  0.4242 -0.3801 -0.1583
 6041SOL    HW129756   2.358   1.430   1.555 -1.6732  0.5354 -2.8082
 6041SOL    HW229757   2.280   1.346   1.464  2.5543 -0.9778 -1.8370
 6042SOL     OW29758   0.132   0.833   7.938 -0.6218 -0.1536  0.5436
 6042SOL    HW129759   0.158   0.913   7.983 -2.9899  1.2346 -0.5553
 6042SOL    HW229760   0.080   0.793   8.008 -3.6407  1.2184 -0.9376
 6043SOL     OW29761   4.421   3.063   9.468 -0.0972 -0.4031  0.3921
 6043SOL    HW129762   4.379   3.006   9.533  0.3432  0.6901  1.6391
 6043SOL    HW229763   4.410   3.154   9.494  0.0293  0.1821 -1.6268
 6044SOL     OW29764   0.659   3.783   3.072 -0.0382  0.1521 -0.0598
 6044SOL    HW129765   0.666   3.726   3.149 -4.8082 -1.2671 -0.6673
 6044SOL    HW229766   0.640   3.730   2.994  0.8478 -1.0274  0.5213
 6045SOL     OW29767   2.824   1.354   0.629  0.0168 -0.0124 -0.4330
 6045SOL    HW129768   2.884   1.421   0.594 -1.4588  1.7050  0.3070
 6045SOL    HW229769   2.889   1.316   0.688 -1.3346  1.4843  2.0223
 6046SOL     OW29770   2.500   4.574   5.219 -0.2079  0.0768 -0.3765
 6046SOL    HW129771   2.554   4.649   5.245  0.7750 -0.2742 -1.3753
 6046SOL    HW229772   2.487   4.583   5.124 -1.0876 -1.1654 -0.3679
 6047SOL     OW29773   3.067   1.079   3.646  0.8711 -0.0929 -0.3961
 6047SOL    HW129774   2.990   1.037   3.685  1.3704 -0.4433  0.2195
 6047SOL    HW229775   3.126   1.072   3.722 -1.9896 -0.2427  1.8410
 6048SOL     OW29776   3.697   1.350   6.365 -0.2791 -0.1550 -0.1182
 6048SOL    HW129777   3.792   1.358   6.358 -0.4861  1.0492 -1.5635
 6048SOL    HW229778   3.677   1.258   6.345 -3.3371  0.1467  1.5642
 6049SOL     OW29779   3.940   2.438   7.147 -0.2209 -0.3904 -1.0177
 6049SOL    HW129780   3.901   2.377   7.211 -1.3436  0.2015 -1.1355
 6049SOL    HW229781   4.033   2.432   7.165 -0.1264  1.6629 -0.7986
 6050SOL     OW29782   0.469   1.143   6.194 -0.3199  0.4109 -0.0613
 6050SOL    HW129783   0.391   1.133   6.139 -0.3245  1.1626 -0.1955
 6050SOL    HW229784   0.425   1.127   6.277  1.6126  0.4325  0.9490
 6051SOL     OW29785   0.250   3.113   5.143  0.6197  0.1151  0.1406
 6051SOL    HW129786   0.247   3.076   5.055 -1.5399  0.8071 -0.0816
 6051SOL    HW229787   0.329   3.167   5.140  1.7566 -1.5902 -0.6221
 6052SOL     OW29788   0.261   0.608   6.356 -0.6337  0.8126 -0.3090
 6052SOL    HW129789   0.286   0.678   6.295 -0.6594 -1.0750 -2.5080
 6052SOL    HW229790   0.192   0.564   6.306  0.2865 -0.7115 -0.2415
 6053SOL     OW29791   1.976   0.368   7.089  0.7387  0.5129  0.0604
 6053SOL    HW129792   1.985   0.426   7.013 -0.8620  1.1283  0.3301
 6053SOL    HW229793   2.055   0.390   7.139  0.7083 -0.2553  0.4412
 6054SOL     OW29794   0.295   2.269   1.890 -0.1890  0.0105 -0.1844
 6054SOL    HW129795   0.234   2.324   1.939 -0.4518  0.3446 -0.8784
 6054SOL    HW229796   0.324   2.340   1.831  0.6995 -0.7863 -0.7023
 6055SOL     OW29797   1.705   2.998   2.607 -0.7132 -0.0389  0.4774
 6055SOL    HW129798   1.690   2.966   2.518 -1.9974  0.1157  0.6337
 6055SOL    HW229799   1.647   2.942   2.659  1.0358 -2.0607  0.2262
 6056SOL     OW29800   3.450   2.430   9.712  0.7008 -0.1753  0.4502
 6056SOL    HW129801   3.523   2.486   9.686 -0.5048  1.9788  1.7745
 6056SOL    HW229802   3.397   2.438   9.633  0.3845 -0.5722  0.6246
 6057SOL     OW29803   4.135   1.946   7.069 -0.4890 -0.7222  0.0463
 6057SOL    HW129804   4.103   2.037   7.070 -1.7545 -1.1685  0.8520
 6057SOL    HW229805   4.222   1.970   7.038 -0.5343 -0.2094  0.3059
 6058SOL     OW29806   1.621   2.622   7.042  0.0845  0.0421  0.2941
 6058SOL    HW129807   1.632   2.634   7.137  1.9741 -2.7754  0.4172
 6058SOL    HW229808   1.538   2.662   7.015 -1.2085 -1.8829  1.3737
 6059SOL     OW29809   1.300   3.537   7.379  0.4567 -0.2020  0.3592
 6059SOL    HW129810   1.318   3.450   7.413  1.2864 -0.4869 -0.8006
 6059SOL    HW229811   1.223   3.518   7.325 -0.1390  1.6271  0.5569
 6060SOL     OW29812   0.812   1.928   3.805  0.0633  0.1956 -0.3465
 6060SOL    HW129813   0.899   1.966   3.794 -0.1582  0.2036 -2.0620
 6060SOL    HW229814   0.831   1.835   3.791 -1.5438 -0.1412 -0.2879
 6061SOL     OW29815   2.313   3.474   3.550 -0.4248 -0.0566 -0.3636
 6061SOL    HW129816   2.334   3.427   3.631  1.0622  2.2896  0.6365
 6061SOL    HW229817   2.228   3.514   3.567  0.0412  1.2706 -1.1048
 6062SOL     OW29818   0.713   0.154  17.731  0.0513 -0.0108  0.1722
 6062SOL    HW129819   0.791   0.171  17.679  0.0826  1.2157  0.6212
 6062SOL    HW229820   0.648   0.216  17.698 -0.3468 -0.2280  0.5473
 6063SOL     OW29821   4.044   0.646   2.497  0.2864  0.8956  0.0820
 6063SOL    HW129822   3.997   0.635   2.580 -0.7206 -0.8964 -0.7368
 6063SOL    HW229823   4.087   0.563   2.475 -1.9387 -0.4101  0.6588
 6064SOL     OW29824   2.905   1.367   5.609  0.1029  0.9119  0.3520
 6064SOL    HW129825   2.821   1.352   5.565  1.2063  0.3345 -1.5601
 6064SOL    HW229826   2.890   1.302   5.677 -1.3551 -1.4127 -2.2014
 6065SOL     OW29827   4.108   3.489   5.945  0.0920 -0.6947 -0.0009
 6065SOL    HW129828   4.037   3.512   5.885 -0.6715 -1.6374  0.5355
 6065SOL    HW229829   4.183   3.488   5.885  0.9780 -1.2053  1.1079
 6066SOL     OW29830   4.533   0.453   3.117  0.3598 -0.0356  0.0365
 6066SOL    HW129831   4.577   0.509   3.180 -2.2691  0.7764  1.1436
 6066SOL    HW229832   4.586   0.375   3.131 -2.6620 -1.7602  1.9302
 6067SOL     OW29833   0.140   3.414   7.588  0.4509 -0.3769  0.1170
 6067SOL    HW129834   0.196   3.379   7.657  0.6185  0.0853  0.2133
 6067SOL    HW229835   0.060   3.361   7.592 -0.2316  0.5896 -0.7073
 6068SOL     OW29836   3.878   2.526   9.906  0.3188 -0.2574 -0.3253
 6068SOL    HW129837   3.901   2.566   9.991  1.1697 -0.6925 -0.3512
 6068SOL    HW229838   3.832   2.449   9.939 -1.5133  1.0621  0.1704
 6069SOL     OW29839   1.743   3.561   9.606 -0.2429 -0.4655  0.6560
 6069SOL    HW129840   1.751   3.627   9.537  0.9397 -1.2496  0.0419
 6069SOL    HW229841   1.670   3.598   9.655 -0.8630 -0.6568 -0.1181
 6070SOL     OW29842   1.899   1.783   5.515  0.3752 -0.9836  0.3589
 6070SOL    HW129843   1.964   1.847   5.546  0.0729 -0.1141 -0.8171
 6070SOL    HW229844   1.870   1.824   5.434  0.2305 -0.2253  0.7922
 6071SOL     OW29845   1.573   1.774   9.036  0.4578  0.1099  0.0659
 6071SOL    HW129846   1.547   1.702   9.094  1.3785 -0.8169 -0.6656
 6071SOL    HW229847   1.495   1.829   9.046  0.0179 -0.3207 -1.0007
 6072SOL     OW29848   1.263   1.317   3.694 -0.0792  0.1788  0.6002
 6072SOL    HW129849   1.230   1.298   3.782  0.8599 -0.2608  0.8494
 6072SOL    HW229850   1.312   1.244   3.657  0.3958 -0.4076  2.3780
 6073SOL     OW29851   3.535   0.311  11.237 -0.6654 -0.0159  0.2771
 6073SOL    HW129852   3.570   0.279  11.320 -0.3540  0.2029  0.2317
 6073SOL    HW229853   3.460   0.252  11.227  0.8386 -1.3334 -3.3436
 6074SOL     OW29854   4.393   0.326   5.181  0.2411 -0.0996  0.4716
 6074SOL    HW129855   4.354   0.413   5.172  1.3438  0.3201 -0.1110
 6074SOL    HW229856   4.362   0.299   5.268  1.4161  1.2903  1.3181
 6075SOL     OW29857   3.798   1.583   7.058 -0.0159  0.4468  0.1858
 6075SOL    HW129858   3.745   1.541   6.990  0.6249  0.6843 -0.4512
 6075SOL    HW229859   3.883   1.592   7.016 -0.0544  0.1171  0.0380
 6076SOL     OW29860   2.083   2.804   4.478  0.0963  0.1776 -0.6958
 6076SOL    HW129861   2.095   2.749   4.555  2.4400  0.5730 -0.7767
 6076SOL    HW229862   2.175   2.817   4.457  0.2307 -0.2728 -0.4023
 6077SOL     OW29863   0.368   2.525   4.588  0.2246 -0.3998  0.4275
 6077SOL    HW129864   0.387   2.440   4.628 -1.7594  0.1651  2.5814
 6077SOL    HW229865   0.408   2.586   4.651  0.9026  0.2885 -0.6632
 6078SOL     OW29866   4.113   3.847   9.669  0.1357 -0.1702  0.2645
 6078SOL    HW129867   4.121   3.935   9.631 -2.2683 -0.2269 -0.3931
 6078SOL    HW229868   4.063   3.866   9.748 -0.1201 -1.0788  0.3254
 6079SOL     OW29869   2.688   0.741   7.034 -0.1276 -0.2114 -0.0002
 6079SOL    HW129870   2.640   0.658   7.031  0.7138 -0.7077  0.0448
 6079SOL    HW229871   2.727   0.735   7.121  0.1891 -0.4914 -0.1603
 6080SOL     OW29872   1.716   1.548  16.015  0.2053 -0.5128  0.5645
 6080SOL    HW129873   1.747   1.481  15.955 -1.2710 -1.2135  0.5774
 6080SOL    HW229874   1.718   1.503  16.099  2.3265  0.0067  0.7970
 6081SOL     OW29875   3.185   4.077  15.118  0.1892  0.4840 -0.0394
 6081SOL    HW129876   3.215   3.987  15.108 -1.5003  0.0688 -1.4242
 6081SOL    HW229877   3.147   4.082  15.206 -0.1342  2.8813 -0.3315
 6082SOL     OW29878   0.806   3.774   0.863 -0.2054 -0.1527 -0.3017
 6082SOL    HW129879   0.865   3.702   0.838  0.3526 -0.0388  0.6860
 6082SOL    HW229880   0.718   3.738   0.866 -1.1052  2.1817  1.1571
 6083SOL     OW29881   4.544   2.943   5.939 -0.3510  0.0959 -0.1387
 6083SOL    HW129882   4.569   2.888   5.864  0.2215  1.0455 -0.6495
 6083SOL    HW229883   4.502   3.023   5.907 -0.7435  0.6698  1.8344
 6084SOL     OW29884   2.647   1.321  16.633  0.1634  0.0253  0.1080
 6084SOL    HW129885   2.618   1.237  16.598  1.8773 -0.2160 -0.7502
 6084SOL    HW229886   2.733   1.283  16.654 -0.4514 -1.3238  0.2241
 6085SOL     OW29887   1.485   0.922   3.240  0.1743  0.0790 -0.0345
 6085SOL    HW129888   1.406   0.974   3.225  0.7709  0.2586 -2.5447
 6085SOL    HW229889   1.543   0.997   3.230 -0.1713  0.4473  0.7705
 6086SOL     OW29890   3.920   3.743   8.056 -0.4357 -0.4304 -0.6621
 6086SOL    HW129891   3.951   3.691   8.130 -2.1906 -0.3006  0.1542
 6086SOL    HW229892   3.829   3.757   8.082 -0.2398 -1.3994  0.5726
 6087SOL     OW29893   0.655   4.362  10.965  0.5459  0.1171 -0.2717
 6087SOL    HW129894   0.623   4.453  10.960  3.6150  1.2306  0.4040
 6087SOL    HW229895   0.700   4.377  11.048  0.1908  2.1221 -0.4263
 6088SOL     OW29896   2.186   0.527   8.819  0.2393 -0.6799  0.1732
 6088SOL    HW129897   2.146   0.494   8.900  2.9211 -1.3042  1.2356
 6088SOL    HW229898   2.276   0.537   8.850  0.6918  0.8068 -1.6501
 6089SOL     OW29899   3.129   1.921  14.924  0.1892  0.0657 -0.2905
 6089SOL    HW129900   3.140   1.874  15.006 -1.1790  2.4191  1.2314
 6089SOL    HW229901   3.099   2.002  14.965 -1.1876 -0.1339 -0.9062
 6090SOL     OW29902   0.831   1.256  13.265  0.1259 -0.1352  0.3027
 6090SOL    HW129903   0.850   1.340  13.223  1.0103  0.7020  2.4088
 6090SOL    HW229904   0.736   1.242  13.260  0.6806 -2.6947 -3.1579
 6091SOL     OW29905   4.125   3.617  13.962 -0.0525 -0.8285  0.4172
 6091SOL    HW129906   4.106   3.677  14.034  1.4185  0.5630 -0.3356
 6091SOL    HW229907   4.060   3.642  13.895  0.2837 -0.6129  0.1701
 6092SOL     OW29908   3.000   2.426   9.921  0.1099 -0.3430 -0.5028
 6092SOL    HW129909   3.014   2.380   9.838  0.8316  1.9077 -1.6311
 6092SOL    HW229910   3.088   2.427   9.958  0.7902 -3.1100 -2.0515
 6093SOL     OW29911   0.556   4.569   6.982 -0.3416 -0.4984  0.3704
 6093SOL    HW129912   0.578   4.480   6.955 -2.4544 -0.4028 -1.6920
 6093SOL    HW229913   0.637   4.587   7.029 -0.2516  1.3426 -0.4575
 6094SOL     OW29914   3.455   1.051   8.229  0.2286 -0.5121 -0.5553
 6094SOL    HW129915   3.415   1.120   8.176  2.6165  0.2088 -1.4297
 6094SOL    HW229916   3.539   1.095   8.246 -0.5587  1.8297 -2.5994
 6095SOL     OW29917   2.324   1.689   0.742  0.2699 -0.4599  0.5172
 6095SOL    HW129918   2.340   1.665   0.650  0.7406 -0.2748  0.5544
 6095SOL    HW229919   2.264   1.763   0.737  1.2520  0.3663  1.2378
 6096SOL     OW29920   2.726   1.804   8.452 -0.5040  0.5616 -0.3187
 6096SOL    HW129921   2.671   1.756   8.390 -1.6511  3.6166 -1.7230
 6096SOL    HW229922   2.684   1.783   8.535  0.4094  0.0267  0.0003
 6097SOL     OW29923   2.723   1.323   6.468 -0.3814 -0.3611 -0.0368
 6097SOL    HW129924   2.630   1.300   6.475 -0.7638  0.8525 -0.9934
 6097SOL    HW229925   2.727   1.344   6.375  0.1497  0.5781  0.2062
 6098SOL     OW29926   0.982   4.232   3.774 -0.0747  0.3623 -0.2895
 6098SOL    HW129927   1.011   4.143   3.795 -0.3144  0.5233  0.7390
 6098SOL    HW229928   1.039   4.251   3.699 -0.6273 -1.0066 -1.0561
 6099SOL     OW29929   1.832   2.771   8.538 -0.5078 -0.1831  0.0157
 6099SOL    HW129930   1.799   2.718   8.610  3.4796  0.2020  2.1258
 6099SOL    HW229931   1.788   2.855   8.549 -0.0330  0.5072 -3.2267
 6100SOL     OW29932   1.590   1.182   3.540 -0.1313 -0.3084 -0.2439
 6100SOL    HW129933   1.540   1.216   3.465  1.3870 -0.5373 -1.3729
 6100SOL    HW229934   1.672   1.167   3.492 -0.5380  2.9969 -2.0243
 6101SOL     OW29935   3.755   4.332  16.913  0.0463 -0.4424 -0.1803
 6101SOL    HW129936   3.677   4.328  16.858 -0.5266 -0.7165  0.6524
 6101SOL    HW229937   3.814   4.321  16.838  1.1513 -3.2047  1.1101
 6102SOL     OW29938   0.663   1.259   4.681 -0.1105 -0.2932 -0.1807
 6102SOL    HW129939   0.705   1.177   4.707  1.1443  0.0011 -1.2484
 6102SOL    HW229940   0.632   1.236   4.594 -1.4272  1.6573 -0.2248
 6103SOL     OW29941   4.581   3.611   9.481  0.3173  0.5882  0.2030
 6103SOL    HW129942   4.615   3.547   9.418 -0.5592  1.0798 -0.7720
 6103SOL    HW229943   4.489   3.584   9.491  1.0219 -1.7476  0.5441
 6104SOL     OW29944   0.555   3.711  10.092  0.0262  0.2505  0.1925
 6104SOL    HW129945   0.626   3.691  10.153 -0.4586 -0.0866  0.6448
 6104SOL    HW229946   0.501   3.760  10.153  0.2818 -1.4664  1.7990
 6105SOL     OW29947   2.582   4.149   7.560 -0.0072 -0.4388 -0.0609
 6105SOL    HW129948   2.657   4.165   7.618  1.6835  0.4031 -2.4491
 6105SOL    HW229949   2.587   4.226   7.504 -0.2137  1.3077  2.3085
 6106SOL     OW29950   1.077   0.221  13.275  0.0551 -0.2400  0.0722
 6106SOL    HW129951   1.155   0.269  13.304 -0.2434  0.1221  0.2677
 6106SOL    HW229952   1.112   0.132  13.268 -2.2738 -1.2450  1.0888
 6107SOL     OW29953   3.409   2.802   4.638  0.2404  0.4601 -0.2050
 6107SOL    HW129954   3.367   2.849   4.710 -0.2923  1.5012 -1.1992
 6107SOL    HW229955   3.498   2.837   4.636  1.3051 -2.3138 -0.9824
 6108SOL     OW29956   1.924   1.425  17.304  0.4479  0.0342  0.9057
 6108SOL    HW129957   1.891   1.507  17.339 -1.6495  0.2888 -1.6457
 6108SOL    HW229958   1.990   1.453  17.242 -0.4259  0.0566 -0.0166
 6109SOL     OW29959   1.892   4.481   0.327 -0.1453  0.1580 -0.0553
 6109SOL    HW129960   1.906   4.526   0.411 -0.3267  0.9460 -0.4439
 6109SOL    HW229961   1.983   4.468   0.303  0.1700  0.6671  0.8805
 6110SOL     OW29962   1.432   3.782  15.828 -0.0371 -0.4689 -0.7511
 6110SOL    HW129963   1.337   3.770  15.833  0.3122 -1.9900  1.7307
 6110SOL    HW229964   1.445   3.839  15.904  0.3572 -0.2429 -0.9881
 6111SOL     OW29965   2.683   2.527  15.887 -0.9690  0.2765  0.1350
 6111SOL    HW129966   2.694   2.582  15.965  0.8061  0.8605 -0.5386
 6111SOL    HW229967   2.758   2.470  15.899 -0.7839  0.9366  2.0539
 6112SOL     OW29968   4.591   1.943  13.693  0.3215  0.3978  0.1398
 6112SOL    HW129969   4.668   2.001  13.698  1.2904 -0.9721  0.9290
 6112SOL    HW229970   4.560   1.944  13.783  0.6524 -1.2271  0.2694
 6113SOL     OW29971   0.125   1.632   7.962 -0.0699  0.5284  0.0113
 6113SOL    HW129972   0.040   1.592   7.978  0.0459  1.1111  2.1407
 6113SOL    HW229973   0.178   1.574   8.016  0.6340  0.1195 -1.1125
 6114SOL     OW29974   3.286   1.315   3.559  0.1371  0.2998  0.1986
 6114SOL    HW129975   3.270   1.382   3.626  0.5307  1.1411 -0.5418
 6114SOL    HW229976   3.296   1.378   3.488  1.1816 -0.3412 -0.2197
 6115SOL     OW29977   3.093   3.640   4.769 -0.2089 -0.0704  0.1040
 6115SOL    HW129978   3.060   3.584   4.698 -1.0202  0.3824  0.1266
 6115SOL    HW229979   3.017   3.695   4.788 -1.5061 -1.0646 -2.1880
 6116SOL     OW29980   4.072   0.430  12.064 -0.1397  0.1127 -0.4573
 6116SOL    HW129981   3.991   0.472  12.093 -0.7545 -1.9295  0.7955
 6116SOL    HW229982   4.137   0.496  12.086  0.7946 -0.5323 -1.3139
 6117SOL     OW29983   1.638   4.643   5.619 -0.7224 -0.1659  0.0056
 6117SOL    HW129984   1.545   4.634   5.600 -0.5889  3.0040 -2.2551
 6117SOL    HW229985   1.668   4.559   5.586 -0.6150 -0.2184  0.2389
 6118SOL     OW29986   3.126   2.823   5.867  0.0774  0.1311  0.2124
 6118SOL    HW129987   3.220   2.836   5.855  0.1598  0.5492  1.3075
 6118SOL    HW229988   3.094   2.808   5.778  1.8929 -1.8756 -0.0937
 6119SOL     OW29989   3.487   2.775   0.978  0.2656  0.4643  0.6422
 6119SOL    HW129990   3.397   2.750   0.961  1.3769 -2.9335 -0.2599
 6119SOL    HW229991   3.487   2.840   1.048 -0.0508 -0.1139  1.1671
 6120SOL     OW29992   0.723   2.457   2.053 -0.0306  0.3978 -0.1628
 6120SOL    HW129993   0.652   2.405   2.016  0.1458 -0.0281  0.0920
 6120SOL    HW229994   0.695   2.548   2.053 -2.9009 -0.5054 -0.8630
 6121SOL     OW29995   1.820   3.723   7.266 -0.8463  0.4435 -0.1424
 6121SOL    HW129996   1.849   3.700   7.354 -2.6227 -0.0898  0.3067
 6121SOL    HW229997   1.727   3.704   7.280 -0.5553 -1.5041 -0.8853
 6122SOL     OW29998   2.226   1.322   6.800 -0.2640 -0.1824 -0.2415
 6122SOL    HW129999   2.231   1.398   6.858  0.4019 -0.8837  0.6353
 6122SOL    HW230000   2.202   1.249   6.858  0.3921  0.0031  0.2718
 6123SOL     OW30001   3.806   0.328   4.883  0.6560 -0.3711  0.5800
 6123SOL    HW130002   3.811   0.278   4.965 -0.2122 -1.8032 -0.2458
 6123SOL    HW230003   3.819   0.258   4.819 -3.2012  1.6974 -2.3712
 6124SOL     OW30004   0.078   4.397   2.863  0.1655  0.1936  0.7402
 6124SOL    HW130005   0.042   4.482   2.840 -2.6530 -1.5299 -1.2285
 6124SOL    HW230006   0.084   4.396   2.959  2.4784  0.2049  0.6047
 6125SOL     OW30007   0.122   1.626  10.470  0.6647  0.0215 -0.0345
 6125SOL    HW130008   0.210   1.654  10.493  1.0389 -0.9202 -0.3280
 6125SOL    HW230009   0.112   1.581  10.554 -0.2620  0.1286 -0.0852
 6126SOL     OW30010   3.199   0.584   0.591 -0.5229  0.0171 -0.1537
 6126SOL    HW130011   3.231   0.499   0.621 -0.7093 -0.9374 -2.6479
 6126SOL    HW230012   3.275   0.597   0.534  0.7984  1.7772  2.0276
 6127SOL     OW30013   3.833   0.502   4.076  0.4346  0.3315 -0.4666
 6127SOL    HW130014   3.801   0.519   4.164  0.1505 -1.4282 -0.2330
 6127SOL    HW230015   3.886   0.579   4.056 -0.5401  1.1655  0.1079
 6128SOL     OW30016   4.004   1.106  16.660  0.5762 -0.4673  0.0669
 6128SOL    HW130017   3.953   1.155  16.596  0.2919 -2.3080 -1.1284
 6128SOL    HW230018   3.955   1.139  16.736 -1.8026 -1.3117 -1.0885
 6129SOL     OW30019   0.022   0.520   7.466 -0.0573  0.1427 -0.1922
 6129SOL    HW130020   0.093   0.566   7.422  1.4679  0.8272  3.0030
 6129SOL    HW230021   4.709   0.469   7.404 -0.4518  1.4688 -0.9518
 6130SOL     OW30022   4.590   2.297  11.700 -0.0534 -0.3929  1.1172
 6130SOL    HW130023   4.595   2.339  11.614  4.5772 -1.6187  0.8072
 6130SOL    HW230024   4.520   2.353  11.732 -0.4221 -0.5002  0.4919
 6131SOL     OW30025   4.300   3.068   8.071 -0.4326 -0.6070  0.5955
 6131SOL    HW130026   4.292   3.070   8.166  2.8342 -0.7941  0.8500
 6131SOL    HW230027   4.253   2.987   8.052 -1.6069  0.5922 -1.6521
 6132SOL     OW30028   2.898   4.210   4.687 -0.4360  0.0160 -0.2164
 6132SOL    HW130029   2.821   4.177   4.732  0.3972  0.1568  1.3041
 6132SOL    HW230030   2.966   4.215   4.754 -0.0816 -0.7778 -0.5184
 6133SOL     OW30031   3.093   3.074  15.299  0.6011 -0.1466 -0.0245
 6133SOL    HW130032   3.025   3.051  15.363 -0.5917  1.5713 -0.6946
 6133SOL    HW230033   3.056   3.152  15.259  0.0890 -0.2475  0.2530
 6134SOL     OW30034   1.173   1.166   6.826 -0.3012  0.3357 -0.2074
 6134SOL    HW130035   1.083   1.183   6.852 -0.0764 -1.0825  1.4619
 6134SOL    HW230036   1.207   1.255   6.839 -3.4597  1.3414  0.9523
 6135SOL     OW30037   4.345   0.232   1.145 -0.1655  0.0348 -0.0082
 6135SOL    HW130038   4.354   0.175   1.068  0.4550  1.0677 -0.7009
 6135SOL    HW230039   4.388   0.314   1.120 -0.4230  0.4556  0.9598
 6136SOL     OW30040   4.482   2.005   2.940 -0.2382 -0.0367  0.1180
 6136SOL    HW130041   4.434   2.084   2.916  0.4079  0.1356 -0.6156
 6136SOL    HW230042   4.506   1.969   2.855  1.0009  1.3545 -0.1235
 6137SOL     OW30043   2.348   3.071   7.473 -0.0929 -0.1687 -0.0933
 6137SOL    HW130044   2.338   3.010   7.545 -0.2868  1.3503  1.1579
 6137SOL    HW230045   2.322   3.014   7.400  0.5887 -1.9932  1.1047
 6138SOL     OW30046   0.342   3.814   3.940  0.4705  0.1819  0.4721
 6138SOL    HW130047   0.341   3.818   4.036  1.1538 -0.0386  0.4886
 6138SOL    HW230048   0.409   3.878   3.917  0.7956 -1.2009 -2.4224
 6139SOL     OW30049   3.045   1.928   9.683  0.3208 -0.1194 -0.6202
 6139SOL    HW130050   3.031   1.874   9.761  1.4555 -0.2280 -0.5010
 6139SOL    HW230051   2.964   1.932   9.631  0.2743 -1.2639 -0.6505
 6140SOL     OW30052   2.457   1.667   1.920 -0.3148  0.0156 -0.2407
 6140SOL    HW130053   2.413   1.646   2.003  1.0931 -0.7924  0.3093
 6140SOL    HW230054   2.409   1.606   1.864 -0.5012 -0.2045  0.1577
 6141SOL     OW30055   0.100   0.262  15.564  0.2937 -0.1332 -0.5183
 6141SOL    HW130056   0.084   0.168  15.552 -0.7823  0.0147 -0.2356
 6141SOL    HW230057   0.189   0.276  15.532 -0.1517  2.0936 -0.7892
 6142SOL     OW30058   4.721   0.409   7.098 -0.0155  0.1413  0.1800
 6142SOL    HW130059   4.685   0.374   7.180  0.3452 -2.6483 -0.8673
 6142SOL    HW230060   4.720   0.336   7.036 -0.2251 -0.9417  1.4621
 6143SOL     OW30061   4.120   0.397   3.489  0.3508 -0.4335  0.0355
 6143SOL    HW130062   4.039   0.365   3.527  0.0942  0.5505  0.3076
 6143SOL    HW230063   4.088   0.474   3.442  0.8274 -0.3034 -0.0788
 6144SOL     OW30064   4.562   4.061   8.128  0.1786 -0.5622 -0.2169
 6144SOL    HW130065   4.658   4.055   8.125  0.4547  3.8128 -0.8564
 6144SOL    HW230066   4.552   4.090   8.219  0.8830 -0.1443 -0.2689
 6145SOL     OW30067   4.384   1.842   5.465 -0.2756  0.1358  0.2324
 6145SOL    HW130068   4.297   1.882   5.466 -0.0056  0.7304  0.5876
 6145SOL    HW230069   4.396   1.832   5.370  2.1426  0.5741  0.4946
 6146SOL     OW30070   2.594   2.560   2.805 -0.2332  0.5771  0.5504
 6146SOL    HW130071   2.683   2.560   2.769  0.8577 -3.0811  3.2770
 6146SOL    HW230072   2.540   2.568   2.726  2.0446  1.1070 -0.9677
 6147SOL     OW30073   0.442   0.089   2.668 -0.1814 -0.6502  0.1902
 6147SOL    HW130074   0.416   0.076   2.577  0.3624  1.1062 -0.2240
 6147SOL    HW230075   0.404   0.011   2.708 -1.2990 -0.8376 -1.1975
 6148SOL     OW30076   0.897   1.946   0.863  0.2972 -0.3474  0.1196
 6148SOL    HW130077   0.985   1.983   0.861  0.9934 -1.8495  2.6209
 6148SOL    HW230078   0.891   1.920   0.955 -0.2347 -0.9977 -0.1034
 6149SOL     OW30079   2.095   0.668   7.319  0.8346  0.3467  0.2452
 6149SOL    HW130080   2.067   0.738   7.378  0.4827  0.8492 -0.5060
 6149SOL    HW230081   2.013   0.642   7.275  1.5113  1.6383 -1.7895
 6150SOL     OW30082   3.675   1.731  16.960 -0.1652  0.2964 -0.1317
 6150SOL    HW130083   3.703   1.821  16.943 -0.6380  0.1302 -1.7428
 6150SOL    HW230084   3.652   1.734  17.053  1.4708  0.3560  0.2681
 6151SOL     OW30085   4.266   3.934   4.788  0.3735 -0.3030 -0.1125
 6151SOL    HW130086   4.292   3.967   4.873  0.6939 -1.1313  0.1166
 6151SOL    HW230087   4.299   3.996   4.723  1.5449 -0.6422  0.1523
 6152SOL     OW30088   3.334   4.052   9.393 -0.2001  0.5606  0.2283
 6152SOL    HW130089   3.367   4.026   9.307  2.4652 -0.1165  1.4725
 6152SOL    HW230090   3.354   3.982   9.455  2.5217 -0.2375 -1.5249
 6153SOL     OW30091   0.102   0.270   1.615  0.0221 -0.2554 -0.7338
 6153SOL    HW130092   0.104   0.196   1.675 -1.0781  0.5870  0.3560
 6153SOL    HW230093   0.029   0.318   1.655  0.3453  1.0049 -1.6687
 6154SOL     OW30094   1.742   4.552   8.484 -0.1395 -0.2283 -0.4612
 6154SOL    HW130095   1.834   4.547   8.458 -0.0623  1.0551 -0.4729
 6154SOL    HW230096   1.694   4.503   8.417 -0.9198 -1.3023  0.8966
 6155SOL     OW30097   0.868   4.670  15.053 -0.4583 -0.6354 -0.3029
 6155SOL    HW130098   0.899   4.595  15.003  0.6289 -0.0019 -0.5616
 6155SOL    HW230099   0.861   4.723  14.974  0.6032  0.3284  0.2434
 6156SOL     OW30100   0.603   3.736   7.425 -0.3370  0.3852  0.1750
 6156SOL    HW130101   0.646   3.815   7.392  1.0810 -0.2694  0.4536
 6156SOL    HW230102   0.571   3.770   7.509  0.1588  0.4971  0.3220
 6157SOL     OW30103   3.265   3.414   6.333 -0.3350  0.6548  0.4951
 6157SOL    HW130104   3.284   3.331   6.377  1.7348  0.5397 -0.5963
 6157SOL    HW230105   3.179   3.392   6.295  0.5237 -0.2898 -0.9030
 6158SOL     OW30106   3.835   3.790   4.124 -0.0142  0.6188 -0.3156
 6158SOL    HW130107   3.759   3.827   4.079  0.8527  0.3743 -1.9743
 6158SOL    HW230108   3.796   3.740   4.196 -1.0452  1.0831 -0.5474
 6159SOL     OW30109   4.157   1.800   4.842 -0.1386 -0.3953  0.6280
 6159SOL    HW130110   4.190   1.768   4.757 -0.9693  1.5553 -0.4240
 6159SOL    HW230111   4.223   1.863   4.871 -0.6590  0.0728  0.7799
 6160SOL     OW30112   2.801   2.738  15.068  0.5423 -0.0048  0.4304
 6160SOL    HW130113   2.756   2.713  14.987  2.6300  0.6839 -0.9480
 6160SOL    HW230114   2.793   2.833  15.077  0.3943 -0.1255  1.5261
 6161SOL     OW30115   4.151   4.533   2.664 -0.2136  0.2334 -0.0842
 6161SOL    HW130116   4.215   4.580   2.717  0.6762  0.6210 -1.5039
 6161SOL    HW230117   4.211   4.464   2.637 -1.8785 -0.6546 -1.5490
 6162SOL     OW30118   1.699   4.377   2.654  0.5370  0.1232 -0.5798
 6162SOL    HW130119   1.764   4.328   2.603  0.1643 -1.3730  0.3791
 6162SOL    HW230120   1.698   4.325   2.735 -3.4606 -0.0585 -0.7838
 6163SOL     OW30121   3.842   1.012   5.694  0.3794  0.1847  0.4786
 6163SOL    HW130122   3.848   0.923   5.658  0.1124  1.4039 -2.5316
 6163SOL    HW230123   3.935   1.033   5.701  0.7530 -1.9402  2.0234
 6164SOL     OW30124   2.964   1.127  13.129  0.6328  0.7577  0.0654
 6164SOL    HW130125   2.906   1.198  13.153  1.4323  0.9209  1.5495
 6164SOL    HW230126   2.905   1.053  13.142  2.3936 -0.5205  0.8953
 6165SOL     OW30127   3.848   1.538   4.812  0.5772  0.4082 -0.0295
 6165SOL    HW130128   3.855   1.516   4.719  1.4042  0.0001  0.1353
 6165SOL    HW230129   3.849   1.634   4.805 -0.3597  0.4980  1.0521
 6166SOL     OW30130   4.031   3.655   8.807  0.0887  0.1061 -0.0134
 6166SOL    HW130131   4.115   3.650   8.852 -0.6670 -1.5652  1.2180
 6166SOL    HW230132   3.979   3.597   8.862  3.4277 -1.2168  1.7473
 6167SOL     OW30133   4.650   4.338   8.935  0.0420  0.0989 -0.2251
 6167SOL    HW130134   4.730   4.391   8.929 -0.4211  0.6398 -1.4311
 6167SOL    HW230135   4.644   4.309   9.026  2.7473  0.0615 -0.0589
 6168SOL     OW30136   2.649   1.237   8.565 -0.6845  0.7055  0.0250
 6168SOL    HW130137   2.720   1.228   8.502  0.4670  1.8587  1.1684
 6168SOL    HW230138   2.582   1.293   8.526 -1.2982  1.2155  1.7767
 6169SOL     OW30139   1.159   0.542   6.632  0.1632  0.9574  0.3527
 6169SOL    HW130140   1.173   0.549   6.537 -0.9523  0.4612  0.1517
 6169SOL    HW230141   1.115   0.624   6.652  1.4657  1.3054  1.7600
 6170SOL     OW30142   0.426   3.811   5.730  0.1805  0.2342 -0.2645
 6170SOL    HW130143   0.371   3.743   5.768  1.3481 -0.2682  0.5536
 6170SOL    HW230144   0.403   3.890   5.779  2.7344  0.3368  0.7676
 6171SOL     OW30145   1.270   1.514  11.397  0.3244 -0.1046  0.0637
 6171SOL    HW130146   1.320   1.467  11.331 -3.3333 -2.0439 -1.3319
 6171SOL    HW230147   1.279   1.460  11.475 -1.3972 -1.2653 -0.5438
 6172SOL     OW30148   1.169   1.426  12.136 -0.6630  0.0358 -0.0654
 6172SOL    HW130149   1.144   1.433  12.228  1.0339 -0.6064  0.4439
 6172SOL    HW230150   1.224   1.504  12.128 -1.1138  0.2680 -0.8650
 6173SOL     OW30151   2.638   3.701   2.220  0.0302  0.0860  0.3068
 6173SOL    HW130152   2.693   3.626   2.244 -2.0996 -1.2164  1.2344
 6173SOL    HW230153   2.645   3.689   2.125  1.0630 -1.3489  0.5687
 6174SOL     OW30154   3.788   1.572   5.501 -0.2288 -0.2513 -0.4107
 6174SOL    HW130155   3.833   1.651   5.529 -1.3739 -0.2052  1.2950
 6174SOL    HW230156   3.749   1.549   5.585  1.7922 -2.1507  0.0175
 6175SOL     OW30157   0.615   4.425   5.602  0.4675  0.5926 -0.0670
 6175SOL    HW130158   0.679   4.399   5.668 -0.1172 -3.0359 -0.9480
 6175SOL    HW230159   0.536   4.389   5.640 -0.1711  2.8866  0.7782
 6176SOL     OW30160   4.695   2.331   0.519  0.2572  0.2258  0.4974
 6176SOL    HW130161   4.630   2.310   0.587 -0.3244 -0.3385 -0.2254
 6176SOL    HW230162   4.716   2.421   0.542 -0.3459 -0.2003  2.6924
 6177SOL     OW30163   2.955   3.431   7.053  0.0790 -0.3163 -0.1847
 6177SOL    HW130164   2.901   3.353   7.040 -0.6263  0.4384 -1.8580
 6177SOL    HW230165   2.903   3.505   7.021  0.1545  0.3483  1.2537
 6178SOL     OW30166   0.354   2.126   5.835 -0.4709 -0.0624  0.2957
 6178SOL    HW130167   0.428   2.179   5.805 -1.0300 -0.2984 -1.5145
 6178SOL    HW230168   0.367   2.039   5.797  0.3041 -0.3742  1.2615
 6179SOL     OW30169   2.284   2.388   6.539  0.6244  0.8168 -0.3151
 6179SOL    HW130170   2.378   2.405   6.538  0.3673  2.2304 -1.4706
 6179SOL    HW230171   2.272   2.328   6.612 -0.0164  1.8437  0.4169
 6180SOL     OW30172   1.004   3.758   7.606  0.6298  0.2061 -0.0738
 6180SOL    HW130173   1.093   3.733   7.578  1.0502 -0.6748  2.0204
 6180SOL    HW230174   0.949   3.688   7.572  2.2186 -1.7142  1.3241
 6181SOL     OW30175   4.517   3.932   0.451  0.0570  0.1349  0.2433
 6181SOL    HW130176   4.586   3.964   0.509  1.9421  0.3613 -2.1611
 6181SOL    HW230177   4.436   3.968   0.487 -0.9398 -1.1189 -0.7714
 6182SOL     OW30178   1.150   0.608   6.967 -0.0143 -1.0636 -0.0104
 6182SOL    HW130179   1.206   0.678   6.935 -0.1845 -0.3593  1.2440
 6182SOL    HW230180   1.065   0.618   6.924  1.0127  0.9711 -1.5668
 6183SOL     OW30181   0.852   3.555   7.460  0.0505 -0.1240  0.2131
 6183SOL    HW130182   0.897   3.562   7.376 -2.7619  1.5113 -1.1443
 6183SOL    HW230183   0.777   3.608   7.434  0.0797  1.3391  3.0615
 6184SOL     OW30184   2.650   2.705   2.555 -0.1759 -0.0105  0.4036
 6184SOL    HW130185   2.725   2.764   2.566 -0.6453  0.6378  0.1522
 6184SOL    HW230186   2.649   2.679   2.462 -4.4212  1.1300  0.1251
 6185SOL     OW30187   1.788   0.377   6.172  0.0257 -0.2243  0.7981
 6185SOL    HW130188   1.732   0.301   6.158  0.3482  0.0514 -2.0906
 6185SOL    HW230189   1.874   0.342   6.197  1.5166  0.0202 -3.8722
 6186SOL     OW30190   4.199   4.349   0.326 -0.2262 -0.4173 -0.2709
 6186SOL    HW130191   4.168   4.345   0.236  2.4506  1.8289 -1.2620
 6186SOL    HW230192   4.186   4.259   0.356  2.2514 -0.6412  0.1157
 6187SOL     OW30193   3.367   4.039  14.209  0.6965 -0.1722 -0.1779
 6187SOL    HW130194   3.448   3.990  14.198  1.1179  0.0410  2.0681
 6187SOL    HW230195   3.399   4.123  14.242  0.9540 -0.9081  1.4095
 6188SOL     OW30196   0.379   2.813   5.034 -0.6056  0.2508  0.6620
 6188SOL    HW130197   0.399   2.778   5.121  2.9703 -1.1077 -0.7314
 6188SOL    HW230198   0.283   2.821   5.035 -0.8837 -2.8454 -1.5011
 6189SOL     OW30199   4.387   4.233   4.127  0.1091 -0.3688  0.6446
 6189SOL    HW130200   4.441   4.164   4.087 -1.7725 -0.8712 -1.0272
 6189SOL    HW230201   4.461   4.286   4.155  0.3219 -0.9317  1.1728
 6190SOL     OW30202   0.423   2.178   8.982 -0.2201  0.1591 -0.3893
 6190SOL    HW130203   0.332   2.149   8.976 -0.5871  0.9866  1.1755
 6190SOL    HW230204   0.419   2.230   8.901  1.3205 -0.5968 -0.9366
 6191SOL     OW30205   4.723   2.225   2.990  0.8140 -0.2251  0.5308
 6191SOL    HW130206   0.037   2.151   2.960 -2.7739 -0.9340 -3.8856
 6191SOL    HW230207   0.052   2.285   3.023  1.2746 -0.4843  0.0630
 6192SOL     OW30208   3.679   2.677   7.841 -0.3589 -0.0525 -0.5242
 6192SOL    HW130209   3.630   2.660   7.921  1.1056  1.1018  0.6406
 6192SOL    HW230210   3.751   2.614   7.848 -1.5793 -1.3785  0.1412
 6193SOL     OW30211   4.162   0.222   0.364 -0.2095 -0.5814 -0.5398
 6193SOL    HW130212   4.160   0.263   0.451 -1.8200  0.1010 -0.9117
 6193SOL    HW230213   4.154   0.129   0.385  0.3026 -0.5619 -0.2630
 6194SOL     OW30214   3.729   3.453   2.840 -0.2807 -0.0804 -0.0916
 6194SOL    HW130215   3.779   3.372   2.844  0.9468  0.6615 -0.4381
 6194SOL    HW230216   3.651   3.417   2.798 -1.0541  0.8543  0.5430
 6195SOL     OW30217   3.389   2.919   3.942 -0.2269  0.5053  0.3228
 6195SOL    HW130218   3.448   2.896   4.013 -0.8200  0.5486  0.8304
 6195SOL    HW230219   3.374   3.007   3.977  2.1510  0.4979  1.3443
 6196SOL     OW30220   0.688   0.048  12.917 -0.1792 -0.0092 -0.5649
 6196SOL    HW130221   0.628   0.104  12.967  0.4624 -0.3566  0.6005
 6196SOL    HW230222   0.774   0.083  12.937 -0.3689 -1.0875  2.1709
 6197SOL     OW30223   2.833   0.260   1.335 -0.3521 -0.0504  0.1376
 6197SOL    HW130224   2.818   0.176   1.379  0.4364  0.0074  0.5264
 6197SOL    HW230225   2.778   0.323   1.383  0.0876  0.6316 -0.2550
 6198SOL     OW30226   2.985   0.716   8.525  0.4396 -0.0628  0.0039
 6198SOL    HW130227   2.942   0.705   8.440 -0.4224 -1.7790  0.6569
 6198SOL    HW230228   3.011   0.629   8.555 -1.9289 -0.9230 -0.4363
 6199SOL     OW30229   2.021   3.695   5.575  0.3857  0.3333  0.2758
 6199SOL    HW130230   2.114   3.716   5.564  0.9616 -1.1641  2.1908
 6199SOL    HW230231   2.013   3.606   5.543 -2.0918 -0.1808  2.3427
 6200SOL     OW30232   0.700   3.325   4.671 -0.1364 -0.5793  0.4063
 6200SOL    HW130233   0.734   3.386   4.736  1.1454 -0.4390 -0.3899
 6200SOL    HW230234   0.745   3.242   4.687 -0.6383 -0.9218  0.0471
 6201SOL     OW30235   0.811   3.975   4.756 -0.6820  0.2455  0.5514
 6201SOL    HW130236   0.833   3.961   4.664 -0.7170  0.4361  0.5154
 6201SOL    HW230237   0.780   4.065   4.761 -1.2325 -0.0009  1.6010
 6202SOL     OW30238   4.635   2.196   9.119 -0.4443  0.0250  0.2459
 6202SOL    HW130239   4.562   2.172   9.062 -0.4233 -0.7246  0.5287
 6202SOL    HW230240   4.595   2.270   9.165 -0.1093 -1.0603  2.2949
 6203SOL     OW30241   4.606   0.669   0.960 -0.5733 -1.1504 -0.0589
 6203SOL    HW130242   4.563   0.749   0.989  1.9841 -0.6008  2.2358
 6203SOL    HW230243   4.610   0.683   0.865 -2.0339 -2.6736 -0.3525
 6204SOL     OW30244   2.352   3.358  10.423  0.4405  0.0776 -0.1689
 6204SOL    HW130245   2.327   3.285  10.366 -2.3612  1.5572 -0.8186
 6204SOL    HW230246   2.320   3.425  10.363  0.5356 -0.2177 -0.5507
 6205SOL     OW30247   2.462   4.260  14.344  0.2006  0.8082  0.8367
 6205SOL    HW130248   2.390   4.314  14.310  0.8563 -0.7058 -3.0224
 6205SOL    HW230249   2.526   4.263  14.273 -0.0417  1.0479  0.6260
 6206SOL     OW30250   3.688   2.349  16.281  0.3177 -0.9444  0.6493
 6206SOL    HW130251   3.782   2.344  16.263 -0.0389 -1.5530 -1.0915
 6206SOL    HW230252   3.660   2.263  16.249  1.5935 -0.4861 -1.7131
 6207SOL     OW30253   3.408   1.691   8.968  0.0922  0.4369  0.2508
 6207SOL    HW130254   3.344   1.725   8.906 -1.5160  0.5371  1.9608
 6207SOL    HW230255   3.458   1.629   8.915  1.0867  0.1259  1.5706
 6208SOL     OW30256   0.956   3.356   1.980  0.1967  0.0751 -0.1221
 6208SOL    HW130257   0.935   3.447   2.000 -1.6308 -0.1821 -0.8267
 6208SOL    HW230258   1.014   3.327   2.050  0.7315 -1.6476 -1.2800
 6209SOL     OW30259   0.737   0.250  17.191  0.1168 -0.0418  0.0394
 6209SOL    HW130260   0.733   0.163  17.151 -1.5060  1.1523 -2.3422
 6209SOL    HW230261   0.648   0.283  17.182 -0.3936 -1.2654  0.5643
 6210SOL     OW30262   0.679   0.291  15.872  0.5863 -0.4858  0.1415
 6210SOL    HW130263   0.719   0.207  15.897 -0.3160 -1.5197 -1.9162
 6210SOL    HW230264   0.628   0.314  15.950 -0.0269 -0.5555 -0.2359
 6211SOL     OW30265   1.130   2.718  15.625 -0.0840  0.8623 -0.0814
 6211SOL    HW130266   1.065   2.741  15.558  0.2606 -0.0276 -0.7265
 6211SOL    HW230267   1.200   2.774  15.590  0.7258 -0.4575 -0.5610
 6212SOL     OW30268   1.698   0.601   7.981  0.3380  0.7663  0.4051
 6212SOL    HW130269   1.647   0.681   7.985  0.6157  1.0215 -1.0105
 6212SOL    HW230270   1.726   0.592   7.890  1.4367  0.0016  0.8144
 6213SOL     OW30271   2.009   0.992  11.924  0.0821  0.4510 -0.7575
 6213SOL    HW130272   2.005   0.958  12.013 -0.3219 -0.2141 -1.0327
 6213SOL    HW230273   2.095   1.036  11.918  0.3640  0.1625  1.2236
 6214SOL     OW30274   0.002   0.114   9.081 -0.6492  0.1824  1.1206
 6214SOL    HW130275   0.089   0.073   9.084 -0.2141  1.1051  1.2357
 6214SOL    HW230276   4.681   0.053   9.125 -0.8476  1.2428  2.3188
 6215SOL     OW30277   4.317   4.551   1.539  0.1207 -0.3674  0.1758
 6215SOL    HW130278   4.366   4.505   1.606 -0.8781 -1.0221  0.4625
 6215SOL    HW230279   4.360   4.516   1.461 -0.6450 -0.4586 -0.2055
 6216SOL     OW30280   1.690   3.609  11.846  0.0348  0.2418 -0.2954
 6216SOL    HW130281   1.741   3.556  11.785  0.2072 -2.3032  2.0685
 6216SOL    HW230282   1.719   3.570  11.929  2.4707  0.9073 -0.8269
 6217SOL     OW30283   3.889   2.544   5.167 -0.2485 -0.0208  0.0831
 6217SOL    HW130284   3.977   2.508   5.178 -1.1718 -2.1882  0.3491
 6217SOL    HW230285   3.868   2.551   5.074 -0.7483  0.9176  0.2686
 6218SOL     OW30286   3.552   4.392   6.971  0.2929  0.1639 -0.1301
 6218SOL    HW130287   3.550   4.458   6.902 -1.0586 -0.1202 -0.3660
 6218SOL    HW230288   3.638   4.350   6.966 -0.3230 -1.3764  2.2089
 6219SOL     OW30289   3.397   2.338   1.888 -0.8631  0.5896 -0.4166
 6219SOL    HW130290   3.342   2.369   1.960  1.8843 -1.3345  2.5420
 6219SOL    HW230291   3.467   2.403   1.887 -0.1528 -0.1350  2.4124
 6220SOL     OW30292   3.956   0.622   6.303 -0.4459 -0.5313  0.1224
 6220SOL    HW130293   3.999   0.597   6.385 -0.6986  0.1766  0.4632
 6220SOL    HW230294   3.874   0.573   6.311 -1.2474  0.5366 -1.5150
 6221SOL     OW30295   3.796   3.531   4.008  0.0086 -0.5284  0.2089
 6221SOL    HW130296   3.728   3.591   3.980  0.9536 -0.2464 -1.4534
 6221SOL    HW230297   3.845   3.566   4.083  0.5023  0.6839 -0.6920
 6222SOL     OW30298   0.302   4.030   7.790  0.4467  0.1417 -0.6138
 6222SOL    HW130299   0.219   4.036   7.837  1.7447 -0.9766  1.7975
 6222SOL    HW230300   0.271   4.056   7.704 -2.0490 -1.6013 -0.2151
 6223SOL     OW30301   0.709   0.696   5.462  0.0136  0.6721 -0.1935
 6223SOL    HW130302   0.736   0.687   5.554 -1.0895 -0.5821 -0.0042
 6223SOL    HW230303   0.747   0.779   5.432  1.4378  0.2715  0.4588
 6224SOL     OW30304   4.252   3.332   7.613 -0.2729  0.1325 -0.1056
 6224SOL    HW130305   4.230   3.254   7.665  1.7890  0.1128  0.7282
 6224SOL    HW230306   4.326   3.307   7.558  0.3133  1.3561  0.1345
 6225SOL     OW30307   3.222   0.447   5.107 -0.0045 -0.5555  0.1818
 6225SOL    HW130308   3.158   0.473   5.173 -0.1527 -2.3614  0.7430
 6225SOL    HW230309   3.291   0.505   5.139 -1.8544  0.9385  1.4766
 6226SOL     OW30310   0.947   0.309   3.523 -0.0575  0.1149  0.3192
 6226SOL    HW130311   0.876   0.268   3.571 -0.4370 -1.0057 -1.1867
 6226SOL    HW230312   1.009   0.347   3.585  0.9920  1.8230 -1.7572
 6227SOL     OW30313   2.245   2.994   8.845  0.6039  0.0693  0.2191
 6227SOL    HW130314   2.318   2.954   8.893  0.7090 -0.6133 -0.5184
 6227SOL    HW230315   2.175   2.982   8.909  0.4119  1.4412  0.2642
 6228SOL     OW30316   1.930   0.441   2.519 -0.0180  0.5400 -0.0238
 6228SOL    HW130317   1.984   0.499   2.465  0.9002  1.2942  1.7266
 6228SOL    HW230318   1.844   0.468   2.485 -0.6220  0.5591  1.5463
 6229SOL     OW30319   3.616   3.600   7.750 -0.0777  0.0200  0.3706
 6229SOL    HW130320   3.568   3.683   7.750 -3.7201 -2.0855 -0.0606
 6229SOL    HW230321   3.688   3.622   7.691 -0.0838 -1.8979 -0.3462
 6230SOL     OW30322   0.212   4.039   9.264 -0.0793 -0.5188  0.4666
 6230SOL    HW130323   0.286   4.099   9.250 -0.3150 -0.6800 -1.3826
 6230SOL    HW230324   0.227   3.987   9.186  1.1794  1.8070 -0.8545
 6231SOL     OW30325   1.857   4.121   3.423 -0.3801 -0.0968 -0.4635
 6231SOL    HW130326   1.932   4.179   3.437  0.7180 -1.3173 -1.3655
 6231SOL    HW230327   1.835   4.150   3.334  2.2063  1.1213 -0.7103
 6232SOL     OW30328   0.419   2.499   7.535  0.0741 -0.0797  0.2088
 6232SOL    HW130329   0.338   2.451   7.554 -1.0708  1.0024 -1.9635
 6232SOL    HW230330   0.470   2.482   7.614  1.0306 -0.0470 -0.3948
 6233SOL     OW30331   0.993   4.155   7.381  0.3155  0.1534 -0.5244
 6233SOL    HW130332   1.028   4.108   7.457 -1.4532 -1.8832 -0.9870
 6233SOL    HW230333   1.024   4.246   7.386 -0.2915  0.3683 -0.7774
 6234SOL     OW30334   3.218   2.657   2.802 -0.3488  0.1924 -0.2669
 6234SOL    HW130335   3.146   2.618   2.754 -1.6388  0.1604  1.6686
 6234SOL    HW230336   3.290   2.629   2.747 -1.6558 -1.3364 -1.1873
 6235SOL     OW30337   4.203   2.267   1.591 -0.0019  0.0018  0.0552
 6235SOL    HW130338   4.155   2.213   1.527  0.9571 -0.1836 -0.5010
 6235SOL    HW230339   4.228   2.343   1.538  0.3969 -0.8645 -1.0004
 6236SOL     OW30340   0.253   0.603   8.931  0.1486 -0.0049  0.2932
 6236SOL    HW130341   0.223   0.513   8.945  0.1056  0.4579  3.1226
 6236SOL    HW230342   0.311   0.600   8.854  0.1392  1.2452  0.2434
 6237SOL     OW30343   4.005   1.345   8.593 -0.1381  0.1475 -0.6620
 6237SOL    HW130344   4.030   1.319   8.504 -2.5092 -1.3915 -0.8821
 6237SOL    HW230345   3.999   1.438   8.573  0.7556  0.7700  2.0907
 6238SOL     OW30346   1.851   1.194   3.932 -0.1855 -0.0369 -0.1590
 6238SOL    HW130347   1.760   1.215   3.914 -0.5903 -1.0797  0.7008
 6238SOL    HW230348   1.849   1.188   4.027 -2.2903 -1.5403 -0.2988
 6239SOL     OW30349   0.371   4.534   1.667  0.3927  0.2758  0.0279
 6239SOL    HW130350   0.310   4.605   1.646 -1.1026 -0.2119  2.7730
 6239SOL    HW230351   0.458   4.570   1.649  1.6596 -1.7786  2.1652
 6240SOL     OW30352   2.372   4.019   8.300  0.2231 -0.1799  0.8912
 6240SOL    HW130353   2.324   3.978   8.228  0.0111  1.0485  0.3333
 6240SOL    HW230354   2.303   4.026   8.365  0.2068  0.1839  0.8325
 6241SOL     OW30355   0.655   4.721   5.567 -0.3618 -0.1998 -0.4297
 6241SOL    HW130356   0.639   4.629   5.590 -2.1461  0.6370  1.6642
 6241SOL    HW230357   0.743   4.719   5.531 -0.6082 -1.7802 -0.9452
 6242SOL     OW30358   1.869   3.858  12.764 -0.3291  0.0395  0.3850
 6242SOL    HW130359   1.898   3.790  12.825 -1.6350  0.5773  1.5934
 6242SOL    HW230360   1.948   3.910  12.773 -1.1989  1.2514  0.9913
 6243SOL     OW30361   4.041   0.079  13.223  0.0753  0.0218  0.1349
 6243SOL    HW130362   4.095   0.155  13.200  0.4599 -0.2088  0.2747
 6243SOL    HW230363   4.111   0.014  13.228 -1.3509 -1.3791  1.7583
 6244SOL     OW30364   4.029   3.860  17.323  0.0596 -0.0188  0.0138
 6244SOL    HW130365   3.967   3.797  17.361 -2.1652  2.4829  0.4929
 6244SOL    HW230366   3.977   3.940  17.324  1.9620  1.1773  1.8212
 6245SOL     OW30367   0.553   0.242  15.641 -0.1444 -0.4736  0.0965
 6245SOL    HW130368   0.591   0.285  15.718 -1.9676  0.4992  0.4661
 6245SOL    HW230369   0.613   0.169  15.623 -0.5993 -1.1826  1.4694
 6246SOL     OW30370   3.988   0.177   3.312 -0.2062  0.3762 -0.2650
 6246SOL    HW130371   3.928   0.114   3.351 -0.1412  0.3984 -0.1266
 6246SOL    HW230372   4.017   0.222   3.392  0.0743 -0.4274  0.0788
 6247SOL     OW30373   0.213   0.903   2.978 -0.2068  0.4588 -0.7150
 6247SOL    HW130374   0.128   0.939   3.003  0.2438  0.5824  0.6728
 6247SOL    HW230375   0.192   0.829   2.921  1.7494 -1.3431  0.8978
 6248SOL     OW30376   3.644   2.389   2.889  0.2464  0.0570 -0.0952
 6248SOL    HW130377   3.728   2.399   2.935 -1.1879  0.0424  2.4936
 6248SOL    HW230378   3.613   2.479   2.898  1.6696  0.5417 -0.0375
 6249SOL     OW30379   1.310   0.348  13.282  0.1707  0.1398  0.2564
 6249SOL    HW130380   1.316   0.444  13.283  1.0779  0.0373  5.4582
 6249SOL    HW230381   1.402   0.323  13.288  0.5796  1.5027 -0.2583
 6250SOL     OW30382   2.202   1.420  17.227 -0.0676 -0.0804  0.4215
 6250SOL    HW130383   2.158   1.372  17.157  0.5450 -1.4122  0.9427
 6250SOL    HW230384   2.292   1.390  17.213 -0.2567 -0.5049  0.1260
 6251SOL     OW30385   3.101   2.315   0.346  0.0967 -0.1035  0.0206
 6251SOL    HW130386   3.101   2.342   0.438  0.5818  1.3140 -0.3907
 6251SOL    HW230387   3.064   2.389   0.297 -0.7441 -0.0095  0.8087
 6252SOL     OW30388   4.127   0.414  13.315  0.0909  0.3544  0.3445
 6252SOL    HW130389   4.203   0.450  13.361  0.5646 -2.2050  1.5298
 6252SOL    HW230390   4.167   0.335  13.279  0.7860  0.1974  1.4656
 6253SOL     OW30391   4.666   4.285   9.183 -0.3611  0.0042 -0.0137
 6253SOL    HW130392   4.698   4.209   9.231 -0.5322 -0.8013 -1.1741
 6253SOL    HW230393   4.711   4.350   9.237 -0.3748 -0.4469  0.5409
 6254SOL     OW30394   3.859   3.790  15.469  0.2882  0.4834  0.4189
 6254SOL    HW130395   3.924   3.829  15.527  0.5477 -0.3053  0.6643
 6254SOL    HW230396   3.780   3.805  15.522 -0.8473 -0.8076 -0.8865
 6255SOL     OW30397   3.737   0.999   8.584 -0.3270 -0.1188 -0.2959
 6255SOL    HW130398   3.659   1.055   8.579 -0.4357 -0.0478  2.1828
 6255SOL    HW230399   3.704   0.910   8.589  0.0591 -0.1828  0.9001
 6256SOL     OW30400   0.310   4.608   3.022 -0.3524  0.0619 -0.5536
 6256SOL    HW130401   0.342   4.687   3.064  0.1416 -0.0500 -0.7180
 6256SOL    HW230402   0.345   4.545   3.085 -1.5779 -0.8329 -0.7593
 6257SOL     OW30403   1.276   4.450   4.543 -0.2753 -0.3355 -0.0987
 6257SOL    HW130404   1.364   4.473   4.512  0.7149 -3.2418  0.4987
 6257SOL    HW230405   1.231   4.433   4.460 -1.4927 -1.2380  0.7521
 6258SOL     OW30406   1.172   3.491   4.376  0.5450  0.3759  0.3603
 6258SOL    HW130407   1.135   3.536   4.300  0.5084 -0.1485  0.0681
 6258SOL    HW230408   1.123   3.537   4.444 -1.3808  0.5558 -1.1345
 6259SOL     OW30409   4.704   1.238   7.614  0.3025 -0.0598  0.0122
 6259SOL    HW130410   4.696   1.320   7.662 -0.0734 -0.4297  0.5847
 6259SOL    HW230411   0.061   1.242   7.603  0.3898 -1.4649  0.2197
 6260SOL     OW30412   0.272   1.346  15.826 -0.2206 -0.2126  0.1368
 6260SOL    HW130413   0.186   1.358  15.787  0.2891  0.1580 -0.8859
 6260SOL    HW230414   0.282   1.395  15.908 -1.4164 -0.6929  0.5679
 6261SOL     OW30415   1.296   1.142   9.892  0.4961 -0.1667  0.0887
 6261SOL    HW130416   1.336   1.171   9.810  1.9235 -1.9961  0.1221
 6261SOL    HW230417   1.223   1.088   9.861  1.0508 -0.2209 -1.1516
 6262SOL     OW30418   1.776   2.006  10.077 -0.8295  0.3591  0.4693
 6262SOL    HW130419   1.832   1.973  10.006 -0.6928  0.4468  0.5362
 6262SOL    HW230420   1.838   2.046  10.137 -0.9707 -2.5008  2.5279
 6263SOL     OW30421   1.874   3.105   1.858  0.2134 -0.6872 -0.7313
 6263SOL    HW130422   1.789   3.148   1.866  0.3843 -0.4505 -0.1756
 6263SOL    HW230423   1.895   3.108   1.952  0.0992  0.2063 -0.7295
 6264SOL     OW30424   0.327   4.726   4.196 -0.3496 -0.2192 -1.1030
 6264SOL    HW130425   0.238   0.009   4.169 -0.8312 -0.7493  0.0673
 6264SOL    HW230426   0.322   4.631   4.195  0.9389 -0.2706 -2.2754
 6265SOL     OW30427   1.123   4.427   3.621 -0.0569  0.0090 -0.4779
 6265SOL    HW130428   1.046   4.483   3.624  0.1577  0.2730  0.0569
 6265SOL    HW230429   1.175   4.484   3.564  0.7097  0.2084  0.4175
 6266SOL     OW30430   4.591   4.277   4.318  0.5138  0.3708 -0.4367
 6266SOL    HW130431   4.519   4.310   4.371  1.3167  1.1094  0.2026
 6266SOL    HW230432   4.650   4.230   4.378  1.6719  2.0564 -0.2504
 6267SOL     OW30433   3.664   1.743  11.012 -0.3444 -0.1601 -0.1495
 6267SOL    HW130434   3.598   1.753  11.080 -1.6725 -2.1111 -1.1447
 6267SOL    HW230435   3.634   1.813  10.954 -0.1397 -0.1168 -0.2029
 6268SOL     OW30436   0.077   0.564  11.987  0.3886 -0.0605 -0.2635
 6268SOL    HW130437   0.023   0.538  12.062  0.0962  2.5786  0.4325
 6268SOL    HW230438   0.061   0.658  11.983 -2.4192 -0.4457  1.9432
 6269SOL     OW30439   3.311   0.217   8.090  0.1039  0.7400 -0.0891
 6269SOL    HW130440   3.293   0.309   8.109 -0.0565  1.1264 -2.1208
 6269SOL    HW230441   3.373   0.235   8.019  0.8865 -0.2238  0.3514
 6270SOL     OW30442   1.313   3.378   7.789 -0.2196 -0.1205 -0.4565
 6270SOL    HW130443   1.258   3.352   7.715 -2.2439  0.3323  0.8838
 6270SOL    HW230444   1.243   3.425   7.836  0.7954  0.7210  0.2093
 6271SOL     OW30445   3.164   4.725  14.973 -0.4654 -0.0027 -0.1044
 6271SOL    HW130446   3.246   0.001  15.021 -0.7155  1.8633 -0.2321
 6271SOL    HW230447   3.098   4.726  15.043  2.2230 -1.2962  2.4392
 6272SOL     OW30448   0.288   2.703   6.066  0.8181 -0.2713  0.8472
 6272SOL    HW130449   0.230   2.671   5.997  0.1763  2.4130  0.1396
 6272SOL    HW230450   0.229   2.770   6.102 -1.1400 -1.0608 -0.9222
 6273SOL     OW30451   1.740   1.548   4.134  0.1204  0.4509  0.2151
 6273SOL    HW130452   1.786   1.544   4.050 -2.6577 -2.0523 -1.2040
 6273SOL    HW230453   1.667   1.488   4.117  2.2294 -2.6532  2.0563
 6274SOL     OW30454   0.721   2.439   6.655 -0.3702 -0.1246  0.8890
 6274SOL    HW130455   0.679   2.426   6.571 -0.1612 -0.5085  0.8433
 6274SOL    HW230456   0.649   2.416   6.714  0.9763 -0.4246  2.4315
 6275SOL     OW30457   2.299   2.512  10.785 -0.4019 -0.4310 -0.1930
 6275SOL    HW130458   2.348   2.565  10.721 -2.2018  1.7033  0.1899
 6275SOL    HW230459   2.307   2.422  10.754 -0.7279 -1.1740  1.8816
 6276SOL     OW30460   0.570   0.786   4.086  0.4174 -0.6484  0.1414
 6276SOL    HW130461   0.565   0.757   4.177 -1.9328 -0.1145  0.1671
 6276SOL    HW230462   0.641   0.727   4.059 -0.5910 -1.9290  0.3089
 6277SOL     OW30463   4.474   4.251  16.272  0.2591 -0.5960  0.3451
 6277SOL    HW130464   4.432   4.291  16.348 -0.0737  1.2189 -0.7965
 6277SOL    HW230465   4.396   4.238  16.217  0.0280  2.9497 -0.1996
 6278SOL     OW30466   1.567   2.244  10.416  0.1518  0.5557  0.3612
 6278SOL    HW130467   1.509   2.193  10.474  1.8099 -0.9192  0.7459
 6278SOL    HW230468   1.526   2.220  10.333  1.8366  0.3660 -0.4237
 6279SOL     OW30469   3.559   4.010  13.970  0.1640 -0.2749  0.2091
 6279SOL    HW130470   3.468   4.037  13.961  0.2387 -0.2134 -0.3567
 6279SOL    HW230471   3.585   3.995  13.879 -0.2195 -0.7065  0.1701
 6280SOL     OW30472   0.282   2.800   0.402  0.2067 -0.2380  0.0479
 6280SOL    HW130473   0.284   2.771   0.311  1.8008  0.4857 -0.1617
 6280SOL    HW230474   0.273   2.895   0.399 -2.5021 -0.4734  1.3038
 6281SOL     OW30475   1.114   4.328  13.612  0.3304  0.2497 -0.0583
 6281SOL    HW130476   1.036   4.314  13.667  0.0340  0.7989 -0.3480
 6281SOL    HW230477   1.111   4.255  13.550  0.4425 -1.3926  1.8566
 6282SOL     OW30478   1.755   3.802   2.427 -0.1727 -0.0471  0.5725
 6282SOL    HW130479   1.782   3.737   2.362  0.9117 -1.1845  2.1751
 6282SOL    HW230480   1.684   3.837   2.372  1.1647  2.3013  0.3414
 6283SOL     OW30481   1.106   3.534   6.877 -0.4432  0.7361 -0.1742
 6283SOL    HW130482   1.145   3.555   6.792 -2.4131 -1.9946 -1.7457
 6283SOL    HW230483   1.161   3.460   6.902  0.7781  2.0077  0.8838
 6284SOL     OW30484   2.017   4.477   0.837 -0.5166 -0.0286 -0.3107
 6284SOL    HW130485   1.958   4.507   0.768  0.0407  1.5904 -0.0956
 6284SOL    HW230486   2.071   4.409   0.798 -0.6154 -0.6232  0.5883
 6285SOL     OW30487   4.561   4.648   9.210  0.1114  0.1145 -0.1626
 6285SOL    HW130488   4.602   4.594   9.278 -3.2725 -1.7482  0.4342
 6285SOL    HW230489   4.485   4.589   9.209 -1.2762  1.8762  2.6863
 6286SOL     OW30490   1.752   3.060   7.710 -0.0184 -0.3012 -0.6506
 6286SOL    HW130491   1.739   3.002   7.785  2.2262  0.9385  0.6950
 6286SOL    HW230492   1.846   3.060   7.691 -0.0637  1.9545 -0.9132
 6287SOL     OW30493   3.545   0.377   6.091 -0.1001 -0.2527 -0.1069
 6287SOL    HW130494   3.582   0.465   6.083  1.2315 -0.5401  2.6810
 6287SOL    HW230495   3.547   0.349   6.000  2.5374 -1.4284  0.2923
 6288SOL     OW30496   4.470   1.830   6.354  0.0719 -0.2992  0.6687
 6288SOL    HW130497   4.521   1.842   6.274 -1.5564 -0.7242 -0.4340
 6288SOL    HW230498   4.540   1.823   6.419  0.9007 -0.2510 -0.2079
 6289SOL     OW30499   0.316   4.245   8.370  0.4679  0.4820 -0.3810
 6289SOL    HW130500   0.241   4.293   8.334  0.4700  1.2195  0.6004
 6289SOL    HW230501   0.328   4.292   8.452 -1.3824  1.8335 -0.8922
 6290SOL     OW30502   0.373   0.078   5.383 -0.0929  0.2523 -0.3510
 6290SOL    HW130503   0.365   0.163   5.426 -1.3385 -0.7111  1.3003
 6290SOL    HW230504   0.341   0.106   5.297  0.1548 -1.2407 -0.9220
 6291SOL     OW30505   2.510   3.369   8.039 -0.2795  0.0737  0.4791
 6291SOL    HW130506   2.465   3.398   7.959 -1.8552  1.6467  1.9316
 6291SOL    HW230507   2.439   3.385   8.101 -0.0142  2.6140  0.1144
 6292SOL     OW30508   2.932   2.900   9.189 -0.6115  0.3471  0.1120
 6292SOL    HW130509   2.906   2.989   9.165  1.1317  1.4205  2.1750
 6292SOL    HW230510   2.914   2.857   9.105 -2.4057 -0.2669  0.8064
 6293SOL     OW30511   2.700   0.030   1.487  0.2720 -0.3160 -0.4018
 6293SOL    HW130512   2.707   0.033   1.582  1.7535  0.5117 -0.5319
 6293SOL    HW230513   2.643   4.696   1.462  0.2495 -0.3685 -0.2002
 6294SOL     OW30514   2.044   3.215   6.708  0.2314 -0.0893 -0.4360
 6294SOL    HW130515   2.020   3.308   6.711  0.4702 -0.0591  0.5462
 6294SOL    HW230516   2.064   3.194   6.799 -2.7505  1.3326  0.5603
 6295SOL     OW30517   0.791   4.443   9.595 -0.2656 -0.0613  0.2095
 6295SOL    HW130518   0.876   4.400   9.588 -0.6630 -0.8468  0.2103
 6295SOL    HW230519   0.814   4.521   9.645 -0.9732  0.7300 -0.6874
 6296SOL     OW30520   3.002   3.274   6.180 -0.4524 -0.2855 -0.2393
 6296SOL    HW130521   2.980   3.253   6.271  0.8547 -2.2925 -0.4065
 6296SOL    HW230522   3.021   3.186   6.148 -0.4376 -0.3592 -0.0303
 6297SOL     OW30523   1.699   1.450  16.852 -0.4634 -0.0539  0.5405
 6297SOL    HW130524   1.619   1.467  16.803 -0.7952  1.8951  1.7470
 6297SOL    HW230525   1.693   1.507  16.929 -1.8699  0.9762 -0.3359
 6298SOL     OW30526   2.725   1.442   2.750 -0.0085  0.2644 -0.3335
 6298SOL    HW130527   2.707   1.512   2.688 -0.1441 -1.1784 -1.9114
 6298SOL    HW230528   2.690   1.359   2.717 -2.0321  1.0032 -0.0411
 6299SOL     OW30529   4.588   2.524   3.825 -0.5871 -0.6307  0.6785
 6299SOL    HW130530   4.501   2.565   3.827 -0.2176  0.1963 -0.3116
 6299SOL    HW230531   4.617   2.512   3.915 -0.7810  0.6452  0.9173
 6300SOL     OW30532   0.863   2.523   3.146 -0.4099 -0.1034  0.5407
 6300SOL    HW130533   0.952   2.537   3.180  0.5590 -1.1464 -1.5558
 6300SOL    HW230534   0.825   2.555   3.228  0.0111 -0.6978  0.9625
 6301SOL     OW30535   2.980   4.658   2.600 -0.1835 -0.7339 -0.3048
 6301SOL    HW130536   2.974   4.714   2.678 -1.0936 -0.8164 -0.3147
 6301SOL    HW230537   3.014   4.574   2.631  1.1310 -0.7819 -1.8687
 6302SOL     OW30538   2.677   3.933   9.318  0.9486 -0.2155 -0.5482
 6302SOL    HW130539   2.690   4.027   9.311 -3.0410  0.4975  1.4187
 6302SOL    HW230540   2.628   3.935   9.401  1.8311 -0.9299 -0.0138
 6303SOL     OW30541   0.269   3.039   7.318 -0.1094 -0.0018 -0.1943
 6303SOL    HW130542   0.307   3.062   7.233  2.5343 -1.2669  0.6596
 6303SOL    HW230543   0.214   3.117   7.329 -1.8930 -1.1882 -0.7097
 6304SOL     OW30544   4.583   0.974   3.479 -0.2993 -0.2067 -0.2629
 6304SOL    HW130545   4.509   1.011   3.431 -0.6829  0.6832  0.9982
 6304SOL    HW230546   4.620   0.927   3.405 -1.9045 -0.2317 -1.0608
 6305SOL     OW30547   3.335   2.865   3.134  0.2394 -0.1549 -0.2936
 6305SOL    HW130548   3.258   2.840   3.082  0.0094 -0.8115  0.3666
 6305SOL    HW230549   3.333   2.813   3.214  0.4927  0.4525  0.1023
 6306SOL     OW30550   3.026   1.978   1.859 -0.3305  0.0863 -0.0149
 6306SOL    HW130551   3.110   1.936   1.880 -0.2729  0.6148  0.7751
 6306SOL    HW230552   3.013   1.943   1.771  1.7197 -3.1809  0.9619
 6307SOL     OW30553   3.111   2.345   8.176  0.2568  0.0307  0.1016
 6307SOL    HW130554   3.017   2.331   8.164  0.3442 -0.6046  0.1340
 6307SOL    HW230555   3.134   2.263   8.133 -0.4776 -0.3408  0.3947
 6308SOL     OW30556   0.530   4.268   0.032 -0.1867  0.1640 -0.6082
 6308SOL    HW130557   0.615   4.298   0.002 -0.1188  1.2441  0.6007
 6308SOL    HW230558   0.473   4.311  17.720 -0.4006  0.3414 -0.2976
 6309SOL     OW30559   0.520   1.597   6.579  0.4592 -0.0407 -0.8485
 6309SOL    HW130560   0.505   1.649   6.500 -3.3879 -1.0958 -0.8401
 6309SOL    HW230561   0.494   1.509   6.550 -2.6373 -0.1190  2.1264
 6310SOL     OW30562   3.195   2.976   7.133 -0.1476 -0.6675  0.1232
 6310SOL    HW130563   3.262   3.033   7.172 -1.0321 -2.0235  3.6334
 6310SOL    HW230564   3.237   2.945   7.053 -0.9693  0.3454 -0.7085
 6311SOL     OW30565   1.796   0.951   0.589  0.4681 -0.7936  0.4342
 6311SOL    HW130566   1.881   0.989   0.565 -0.3048 -1.0485 -2.6854
 6311SOL    HW230567   1.787   0.907   0.505 -0.0272 -2.1659  1.2144
 6312SOL     OW30568   1.484   0.397   5.966  0.7307  0.0192  0.1632
 6312SOL    HW130569   1.516   0.310   5.990  1.7452  0.7624  1.5670
 6312SOL    HW230570   1.406   0.375   5.916 -0.2091  0.2700  1.5179
 6313SOL     OW30571   2.262   3.891   9.207  0.5159  0.0501  0.0369
 6313SOL    HW130572   2.177   3.932   9.223  0.2694  0.1557 -1.5236
 6313SOL    HW230573   2.273   3.837   9.285 -0.4874 -0.0797  0.0965
 6314SOL     OW30574   3.698   3.952   4.788  0.8776  0.2743 -0.5067
 6314SOL    HW130575   3.682   4.040   4.754 -1.5867 -0.7728 -2.0782
 6314SOL    HW230576   3.790   3.928   4.774  1.3528  1.5605  0.3563
 6315SOL     OW30577   3.814   4.584  10.095 -0.4022 -0.5510 -0.1422
 6315SOL    HW130578   3.867   4.551  10.023 -2.4825 -2.2556 -0.8817
 6315SOL    HW230579   3.821   4.679  10.091 -2.1532 -0.3675  0.8953
 6316SOL     OW30580   1.018   2.112  16.864  0.3390 -0.4463  0.4778
 6316SOL    HW130581   1.022   2.060  16.783 -2.1501  0.9820 -0.5724
 6316SOL    HW230582   1.112   2.122  16.876 -0.2184  1.9473  2.7294
 6317SOL     OW30583   1.396   2.044  12.942  0.2921  0.6991 -0.1919
 6317SOL    HW130584   1.307   2.015  12.922  0.5584 -0.8189  0.7349
 6317SOL    HW230585   1.425   2.061  12.853  0.3742  0.6520 -0.1748
 6318SOL     OW30586   0.633   4.314   6.908 -0.6306  0.1540 -0.0673
 6318SOL    HW130587   0.607   4.225   6.931  0.5754 -0.5928 -1.6430
 6318SOL    HW230588   0.725   4.315   6.935 -0.3219 -1.1304 -1.0718
 6319SOL     OW30589   0.491   3.385  15.163  0.1945  0.1694 -0.2560
 6319SOL    HW130590   0.516   3.403  15.072  3.0588 -0.5352  0.3837
 6319SOL    HW230591   0.414   3.331  15.144  0.6295 -0.5340 -0.0499
 6320SOL     OW30592   3.030   4.407   5.262 -0.3564  0.3419  0.4767
 6320SOL    HW130593   2.987   4.330   5.300 -0.5336  0.5392  0.6787
 6320SOL    HW230594   2.950   4.456   5.242  0.1801  1.3581  0.8253
 6321SOL     OW30595   1.171   1.822  10.838  0.1318 -0.1652 -0.1015
 6321SOL    HW130596   1.158   1.772  10.919  0.4379  2.5242  1.5839
 6321SOL    HW230597   1.086   1.809  10.796  0.4261  1.0696 -1.0698
 6322SOL     OW30598   1.311   4.209  15.644  0.8083  0.1545  0.1736
 6322SOL    HW130599   1.262   4.259  15.709  0.3698 -0.9989  0.7284
 6322SOL    HW230600   1.354   4.152  15.707 -1.9692 -1.1375  0.8919
 6323SOL     OW30601   4.150   4.290   3.938  0.6850  0.1957  0.2844
 6323SOL    HW130602   4.220   4.270   3.999 -0.2589 -0.1553  1.2585
 6323SOL    HW230603   4.092   4.337   3.998 -0.5185 -2.5516  1.2843
 6324SOL     OW30604   3.138   4.570   5.676 -0.4450 -0.4364 -0.2992
 6324SOL    HW130605   3.195   4.535   5.745  1.0181 -1.9632 -2.2937
 6324SOL    HW230606   3.189   4.548   5.598 -0.7788  1.1335 -0.9447
 6325SOL     OW30607   2.662   2.957   5.522 -0.2231 -0.0024  0.1432
 6325SOL    HW130608   2.617   3.017   5.581  1.2598  0.1737  1.0853
 6325SOL    HW230609   2.659   3.010   5.442 -1.1200 -2.6366 -1.5505
 6326SOL     OW30610   3.963   4.459   2.169  0.1159  0.2288 -0.2157
 6326SOL    HW130611   3.934   4.383   2.219 -0.2373  0.4581 -0.0710
 6326SOL    HW230612   4.021   4.501   2.233 -0.1976  0.6139 -0.1847
 6327SOL     OW30613   0.138   3.812   5.548  0.2681  0.0429 -0.2240
 6327SOL    HW130614   0.089   3.734   5.575  0.0380  0.7653  1.4368
 6327SOL    HW230615   0.218   3.803   5.600  0.6120 -0.1229 -0.7853
 6328SOL     OW30616   3.978   1.310   7.720 -0.6351  0.4696  0.0365
 6328SOL    HW130617   3.983   1.215   7.729 -0.3445  0.5630  0.8284
 6328SOL    HW230618   4.014   1.321   7.631  0.4651  2.8617  0.7686
 6329SOL     OW30619   3.298   3.190   9.411  0.0722  0.1676  0.6442
 6329SOL    HW130620   3.298   3.281   9.442 -1.0564 -0.0785  1.3590
 6329SOL    HW230621   3.346   3.138   9.475 -0.7699 -0.2163  0.9634
 6330SOL     OW30622   1.240   2.727  16.821  0.5847  0.2588  0.0896
 6330SOL    HW130623   1.227   2.795  16.754 -0.6407  0.8347  0.9002
 6330SOL    HW230624   1.243   2.653  16.760 -0.9138  0.3219 -0.0708
 6331SOL     OW30625   1.673   1.397   6.187 -0.0391  0.0100  0.0504
 6331SOL    HW130626   1.760   1.379   6.150 -0.4851 -1.8468 -0.0930
 6331SOL    HW230627   1.686   1.388   6.281  0.1453  1.6876  0.1921
 6332SOL     OW30628   1.242   0.384   7.591 -0.3311  0.0762  0.5532
 6332SOL    HW130629   1.245   0.334   7.673 -4.5775 -1.9620 -0.5312
 6332SOL    HW230630   1.224   0.313   7.530  1.7693  1.2606 -1.4267
 6333SOL     OW30631   2.921   3.323   3.820 -0.1251  0.4216 -0.5630
 6333SOL    HW130632   2.995   3.384   3.815 -1.9711  2.8194  0.8056
 6333SOL    HW230633   2.965   3.242   3.794 -1.4716  0.3115 -2.5083
 6334SOL     OW30634   3.717   2.089   3.281  0.5426 -0.0160  0.6019
 6334SOL    HW130635   3.773   2.020   3.318 -1.6380 -2.5862 -0.8917
 6334SOL    HW230636   3.752   2.114   3.196  0.0735  0.3114  0.5050
 6335SOL     OW30637   1.657   0.815  12.949  0.1255 -0.0904 -0.1787
 6335SOL    HW130638   1.740   0.777  12.920 -0.0465 -0.2517 -0.4580
 6335SOL    HW230639   1.611   0.752  13.006  0.5894 -0.2062  0.0712
 6336SOL     OW30640   0.297   4.040   5.838  0.0704 -0.0285  0.3971
 6336SOL    HW130641   0.366   4.088   5.884  0.4443 -0.5674  0.3991
 6336SOL    HW230642   0.235   4.029   5.910 -1.5404 -2.3117 -1.3683
 6337SOL     OW30643   2.435   2.609   8.165  0.3499  0.1089  0.1499
 6337SOL    HW130644   2.527   2.618   8.191  0.3038  0.7426  0.1119
 6337SOL    HW230645   2.401   2.690   8.203 -0.3931 -0.7758  1.3713
 6338SOL     OW30646   3.707   4.187  17.131 -0.2031 -0.1785  0.3486
 6338SOL    HW130647   3.661   4.257  17.175  2.5904  1.9682 -0.1354
 6338SOL    HW230648   3.715   4.223  17.042 -0.3651  1.4003  0.9806
 6339SOL     OW30649   3.556   0.109   3.567  0.2769  0.3656  0.4403
 6339SOL    HW130650   3.485   0.053   3.536  0.8277 -0.1246  0.0666
 6339SOL    HW230651   3.547   0.183   3.507  2.5723  1.0555  0.9226
 6340SOL     OW30652   0.328   0.919  11.345  0.2202 -0.1168 -0.4578
 6340SOL    HW130653   0.250   0.971  11.366 -0.2131 -0.2041 -1.8768
 6340SOL    HW230654   0.395   0.972  11.388  0.8777 -1.1151 -0.2533
 6341SOL     OW30655   3.097   4.502   4.993 -0.2615  0.4048  0.1662
 6341SOL    HW130656   3.089   4.473   5.084  1.2051 -0.6515 -0.0430
 6341SOL    HW230657   3.169   4.566   4.988 -0.0369  0.1324 -0.0334
 6342SOL     OW30658   2.579   3.669   8.526 -0.0375 -0.1011  0.2128
 6342SOL    HW130659   2.590   3.745   8.469  0.7064 -1.9110 -2.0329
 6342SOL    HW230660   2.582   3.599   8.461  0.1155  0.1339 -0.0345
 6343SOL     OW30661   2.128   3.774   6.367 -0.0760  0.2009  0.1478
 6343SOL    HW130662   2.040   3.760   6.334 -0.0279 -2.1636  1.0411
 6343SOL    HW230663   2.126   3.762   6.462 -0.1241 -0.3096  0.0823
 6344SOL     OW30664   3.793   0.598   9.915 -0.3250  0.2651 -0.3146
 6344SOL    HW130665   3.774   0.681   9.872 -1.6102 -0.2547 -0.7530
 6344SOL    HW230666   3.874   0.613   9.963 -0.0636 -0.1921 -0.6165
 6345SOL     OW30667   3.172   0.922   4.608 -0.2062  0.1721  0.0330
 6345SOL    HW130668   3.249   0.891   4.654 -1.0538 -3.1283 -0.7994
 6345SOL    HW230669   3.105   0.871   4.654 -0.9482  0.3810 -0.8042
 6346SOL     OW30670   3.327   2.620  16.740 -0.2001 -0.1262 -0.2552
 6346SOL    HW130671   3.234   2.637  16.752  0.2076  1.3557  0.8463
 6346SOL    HW230672   3.333   2.545  16.799 -1.7488  1.3558  1.7800
 6347SOL     OW30673   0.369   0.508   0.053 -0.4042 -0.1703 -0.0901
 6347SOL    HW130674   0.390   0.596   0.082  2.7632 -0.2059 -2.2266
 6347SOL    HW230675   0.283   0.518   0.014 -0.3754  1.5170  0.2879
 6348SOL     OW30676   0.908   0.565   0.343  0.2155 -0.5234  0.3391
 6348SOL    HW130677   0.876   0.549   0.254  1.5137 -3.1975  0.3571
 6348SOL    HW230678   0.870   0.498   0.399 -0.1342 -0.7713 -0.1973
 6349SOL     OW30679   3.536   2.909   1.741 -0.5867  0.4420 -0.2746
 6349SOL    HW130680   3.474   2.868   1.801 -0.4678  1.4424  0.5089
 6349SOL    HW230681   3.548   2.833   1.683 -0.0988  0.1704  0.1817
 6350SOL     OW30682   1.270   0.558   3.972  0.2697  0.5196 -0.1627
 6350SOL    HW130683   1.306   0.597   4.051 -0.2543  2.0732 -0.6982
 6350SOL    HW230684   1.224   0.636   3.943 -1.6221 -0.0841  1.2610
 6351SOL     OW30685   1.227   0.956   8.837  0.2426 -0.4476 -0.1558
 6351SOL    HW130686   1.188   1.028   8.788 -2.5361 -0.3611  2.1536
 6351SOL    HW230687   1.286   1.005   8.894 -1.1560 -0.0429  0.9463
 6352SOL     OW30688   0.179   1.864   4.217 -1.0537 -0.0531 -0.7264
 6352SOL    HW130689   0.184   1.949   4.260 -1.5020 -0.6679  0.5299
 6352SOL    HW230690   0.184   1.881   4.123 -2.0385  0.3253 -0.7007
 6353SOL     OW30691   3.226   1.459   8.707 -0.3242  0.4045  0.3409
 6353SOL    HW130692   3.299   1.453   8.646 -0.2226  0.1311  0.4920
 6353SOL    HW230693   3.171   1.405   8.648  0.9983  0.5002 -0.9841
 6354SOL     OW30694   0.583   3.078  11.503  0.3956  0.0066  0.4044
 6354SOL    HW130695   0.585   3.140  11.431 -0.1046 -0.1082  0.2919
 6354SOL    HW230696   0.490   3.083  11.525  0.6998  0.8718  1.5026
 6355SOL     OW30697   0.207   1.654   2.139  0.4111 -0.1209  0.1851
 6355SOL    HW130698   0.246   1.635   2.224  1.3307  1.4908  0.1119
 6355SOL    HW230699   0.233   1.745   2.126  0.0772 -0.0003  0.3787
 6356SOL     OW30700   3.356   4.431  17.027 -0.1783 -0.3471 -0.5392
 6356SOL    HW130701   3.393   4.442  16.939  1.0702 -1.5117 -0.1710
 6356SOL    HW230702   3.305   4.353  17.006 -2.4492  0.1023  3.4214
 6357SOL     OW30703   4.468   2.892   4.703  0.2880 -0.0442 -0.3429
 6357SOL    HW130704   4.497   2.829   4.637 -2.0077 -2.6977  1.1758
 6357SOL    HW230705   4.543   2.951   4.702  0.8345 -0.7079  1.5614
 6358SOL     OW30706   0.439   4.620   3.419  0.3851 -0.4151 -0.2092
 6358SOL    HW130707   0.436   4.707   3.380  1.4311 -1.0712 -1.7165
 6358SOL    HW230708   0.346   4.600   3.408  0.4695 -1.0160  0.1357
 6359SOL     OW30709   3.597   4.332   7.223  0.1233 -0.7415  0.3081
 6359SOL    HW130710   3.672   4.294   7.176 -0.6700 -1.4090 -0.4057
 6359SOL    HW230711   3.533   4.344   7.154  1.0789  0.0287 -0.4373
 6360SOL     OW30712   0.967   4.618  17.208 -0.3605 -0.7570 -0.1522
 6360SOL    HW130713   1.001   4.695  17.163  0.3276 -0.5829  0.6781
 6360SOL    HW230714   1.029   4.609  17.280 -0.5276  1.9841  0.3275
 6361SOL     OW30715   0.903   4.276   7.831  0.2935  0.3459  0.1908
 6361SOL    HW130716   0.931   4.188   7.857 -1.4725 -0.4241 -0.4917
 6361SOL    HW230717   0.853   4.291   7.911 -3.1314  2.3099 -2.3478
 6362SOL     OW30718   3.233   3.362   2.859  0.1947  0.3185 -0.4394
 6362SOL    HW130719   3.178   3.348   2.936 -0.6150  2.4855 -0.6327
 6362SOL    HW230720   3.179   3.331   2.787 -0.7368 -0.9241  0.7879
 6363SOL     OW30721   2.220   3.836  11.837 -0.1827  0.1081 -0.0886
 6363SOL    HW130722   2.173   3.830  11.754 -0.4554  0.4704  0.0413
 6363SOL    HW230723   2.162   3.895  11.886  0.4794 -0.3515  1.2501
 6364SOL     OW30724   0.519   1.367   3.278 -0.4277 -0.1666  0.1299
 6364SOL    HW130725   0.599   1.336   3.322 -0.8568  2.0327  2.4390
 6364SOL    HW230726   0.530   1.460   3.257  0.0691 -0.0254  1.0036
 6365SOL     OW30727   0.339   2.380   3.567  0.0465  0.1389  0.5261
 6365SOL    HW130728   0.249   2.375   3.598 -0.3410 -0.8888 -0.7588
 6365SOL    HW230729   0.390   2.377   3.648  0.7370  1.8359  0.1631
 6366SOL     OW30730   3.364   0.795   1.973 -0.0294 -0.2324 -0.0825
 6366SOL    HW130731   3.409   0.831   1.896 -2.5234  0.9077 -1.0233
 6366SOL    HW230732   3.297   0.863   1.986 -0.5801 -0.6472 -0.7117
 6367SOL     OW30733   4.343   0.557  10.590  0.1663  0.5945 -0.0072
 6367SOL    HW130734   4.389   0.486  10.636 -1.5764 -0.6716 -0.2135
 6367SOL    HW230735   4.320   0.520  10.505 -3.4253 -0.8883  1.5835
 6368SOL     OW30736   3.927   2.792   3.512  0.1162 -0.0745 -0.2691
 6368SOL    HW130737   3.839   2.815   3.482 -0.1988  3.0978  3.0321
 6368SOL    HW230738   3.975   2.828   3.438  1.7413 -2.1432 -0.2369
 6369SOL     OW30739   2.374   0.511   6.152 -0.3883  0.3390 -0.6873
 6369SOL    HW130740   2.436   0.564   6.102 -0.9677  1.3852 -0.2969
 6369SOL    HW230741   2.366   0.431   6.099  1.3760  0.6313 -1.3943
 6370SOL     OW30742   2.209   4.424  14.364  0.0419 -0.1633  0.0912
 6370SOL    HW130743   2.231   4.426  14.457  1.5807  0.6516 -0.3106
 6370SOL    HW230744   2.198   4.518  14.349  0.5785 -0.4823 -2.3528
 6371SOL     OW30745   0.303   3.871   4.208  0.3882 -0.1773 -0.0074
 6371SOL    HW130746   0.374   3.925   4.244  0.7674 -0.1321 -0.8239
 6371SOL    HW230747   0.286   3.809   4.279  1.0902  1.4275  1.5697
 6372SOL     OW30748   3.217   1.362  16.973  0.4464 -0.7585  0.2092
 6372SOL    HW130749   3.281   1.423  17.009  0.3970 -0.3492 -0.3903
 6372SOL    HW230750   3.220   1.393  16.882  1.3865 -1.3693  0.0396
 6373SOL     OW30751   0.311   1.073  14.964  0.3336  0.1677 -0.0750
 6373SOL    HW130752   0.397   1.034  14.944  0.5951  1.5415 -1.5362
 6373SOL    HW230753   0.330   1.164  14.985 -0.0852 -0.2934  2.3739
 6374SOL     OW30754   4.060   1.694  14.823  0.0287 -0.7472 -0.3240
 6374SOL    HW130755   3.977   1.651  14.804  0.8480 -1.9582 -1.1099
 6374SOL    HW230756   4.120   1.621  14.840  1.2842  0.0412 -1.4065
 6375SOL     OW30757   2.522   4.225   4.078 -0.0223 -0.3617  0.1027
 6375SOL    HW130758   2.605   4.239   4.125  0.4078 -1.6929 -0.2597
 6375SOL    HW230759   2.506   4.133   4.096  1.3068 -0.5014  0.5759
 6376SOL     OW30760   1.242   1.120   7.771  0.2632  0.4701 -0.6915
 6376SOL    HW130761   1.222   1.099   7.680  2.6191  1.9630 -1.5605
 6376SOL    HW230762   1.329   1.155   7.751 -0.0727  1.0879 -1.0523
 6377SOL     OW30763   2.395   0.702   7.921 -0.2263  0.1356 -0.7834
 6377SOL    HW130764   2.469   0.674   7.975  0.1522  2.5759 -0.0626
 6377SOL    HW230765   2.379   0.635   7.854 -0.5281 -1.2604  0.6710
 6378SOL     OW30766   2.635   3.316   5.763 -0.2496  0.2829  0.4811
 6378SOL    HW130767   2.571   3.387   5.760  0.0767  0.5015 -1.6706
 6378SOL    HW230768   2.712   3.369   5.778 -1.5292  1.7044  1.9905
 6379SOL     OW30769   3.182   1.777   4.788  0.4065 -0.1538  0.0822
 6379SOL    HW130770   3.228   1.696   4.766 -0.1348 -0.4654  0.0993
 6379SOL    HW230771   3.218   1.838   4.723  0.0732  0.0871  0.1298
 6380SOL     OW30772   1.053   3.676   4.532  0.1800  0.1126  0.2742
 6380SOL    HW130773   0.958   3.675   4.543  0.3927 -0.3984  2.0969
 6380SOL    HW230774   1.072   3.763   4.568 -1.6481  0.1319  1.1873
 6381SOL     OW30775   2.410   4.016  11.801  0.1602  0.1857 -0.0782
 6381SOL    HW130776   2.472   3.971  11.743  2.3712  1.6625  1.1516
 6381SOL    HW230777   2.349   3.944  11.822  0.7652 -0.6858 -1.2802
 6382SOL     OW30778   2.575   1.244   2.428  0.6966  0.3898 -0.3226
 6382SOL    HW130779   2.545   1.163   2.387 -3.6551  1.1446  1.3991
 6382SOL    HW230780   2.658   1.263   2.384  1.2048  0.2226  0.5584
 6383SOL     OW30781   2.939   1.530   8.074 -0.1335  0.6206 -0.4585
 6383SOL    HW130782   3.009   1.545   8.010  0.0876  0.9757 -0.1389
 6383SOL    HW230783   2.870   1.589   8.044 -0.0469  1.1342  0.3450
 6384SOL     OW30784   2.432   3.897   2.739  0.6653  0.8228 -0.2276
 6384SOL    HW130785   2.525   3.908   2.716  0.6032  0.6496 -0.5619
 6384SOL    HW230786   2.401   3.986   2.753 -0.0903  0.4659  0.3475
 6385SOL     OW30787   0.382   2.937   8.908  0.2219  0.4478 -0.0297
 6385SOL    HW130788   0.439   2.992   8.961 -0.4988  1.1448  0.0267
 6385SOL    HW230789   0.448   2.925   8.840  0.5004 -2.4908  0.7548
 6386SOL     OW30790   4.609   2.087  12.682  0.0442  0.2432  0.5829
 6386SOL    HW130791   4.549   2.013  12.669  1.3659 -1.0964  1.9878
 6386SOL    HW230792   4.555   2.164  12.671 -0.5163 -0.0757  1.0954
 6387SOL     OW30793   2.473   3.736  11.937  0.7218 -0.2538 -0.5476
 6387SOL    HW130794   2.381   3.754  11.915  1.5257  0.0843 -3.5890
 6387SOL    HW230795   2.519   3.714  11.856  2.0064 -1.3589  0.4912
 6388SOL     OW30796   1.011   2.074   5.181 -0.4705 -0.6402  0.1059
 6388SOL    HW130797   1.089   2.122   5.150 -1.7568 -0.2202 -2.5066
 6388SOL    HW230798   1.052   2.008   5.237  0.9179 -0.5491 -0.8037
 6389SOL     OW30799   4.570   2.462  16.205 -0.2189 -0.9751 -0.4825
 6389SOL    HW130800   4.496   2.411  16.239 -0.4432 -0.4764 -0.2282
 6389SOL    HW230801   4.557   2.528  16.272 -1.5044 -2.7949  1.0621
 6390SOL     OW30802   0.214   1.035   8.135 -0.5297  0.2006  0.3940
 6390SOL    HW130803   0.148   1.064   8.199 -0.2446  0.1030  0.7303
 6390SOL    HW230804   0.265   0.970   8.183 -1.9766  0.5895  2.4731
 6391SOL     OW30805   3.948   2.974   7.854  0.2200  0.2141 -0.1259
 6391SOL    HW130806   3.939   2.969   7.949  0.7479 -2.4040 -0.2219
 6391SOL    HW230807   3.978   3.065   7.852 -2.9175  1.2716  1.0787
 6392SOL     OW30808   2.264   1.148   9.069 -0.7169 -0.0626 -0.2244
 6392SOL    HW130809   2.335   1.183   9.122 -0.5496 -2.8342  1.3624
 6392SOL    HW230810   2.315   1.094   9.009  1.0741 -0.4992  1.6981
 6393SOL     OW30811   4.661   3.319  17.726  0.5888  0.1667 -0.3944
 6393SOL    HW130812   0.009   3.349  17.697  1.9952 -0.6507  2.9497
 6393SOL    HW230813   4.602   3.375  17.675  1.9272 -0.6389 -2.8295
 6394SOL     OW30814   1.140   4.409   7.812  0.5202 -0.1675 -0.5147
 6394SOL    HW130815   1.164   4.380   7.900 -0.6163  0.8367  0.1188
 6394SOL    HW230816   1.057   4.362   7.806  0.5662 -0.7621  3.4050
 6395SOL     OW30817   3.320   3.014  16.425 -0.0132  0.2476 -0.1907
 6395SOL    HW130818   3.324   3.102  16.386 -0.0654  0.5949  0.5832
 6395SOL    HW230819   3.307   2.965  16.344 -0.0123 -2.0840  1.2241
 6396SOL     OW30820   3.927   1.675  12.608  0.6511  0.8450  0.4219
 6396SOL    HW130821   3.983   1.690  12.531 -2.7749 -2.4913 -2.7456
 6396SOL    HW230822   3.982   1.656  12.684  2.9242 -0.5926 -1.5490
 6397SOL     OW30823   2.136   1.827   7.005  0.0191 -0.1162  0.7126
 6397SOL    HW130824   2.103   1.899   6.952  0.4918  1.6409  2.8087
 6397SOL    HW230825   2.063   1.814   7.066 -1.2110  0.9032 -0.5427
 6398SOL     OW30826   1.116   0.605   5.478 -0.3802  0.0373 -0.3576
 6398SOL    HW130827   1.108   0.660   5.400  2.1983 -0.0681 -0.6942
 6398SOL    HW230828   1.079   0.665   5.543  0.7207  3.0044 -2.4687
 6399SOL     OW30829   1.645   0.809   3.811  0.3367 -0.6292 -0.3556
 6399SOL    HW130830   1.595   0.810   3.893  0.0518  1.0293 -0.5532
 6399SOL    HW230831   1.717   0.870   3.830 -0.8389  0.3047  1.1387
 6400SOL     OW30832   1.648   0.737   5.961 -0.1200 -0.5996  0.0482
 6400SOL    HW130833   1.582   0.804   5.979  1.3976  0.6647  0.9028
 6400SOL    HW230834   1.684   0.715   6.047 -1.2425  1.2119  0.9873
 6401SOL     OW30835   3.629   4.701   3.897 -0.3042  0.3427 -0.4634
 6401SOL    HW130836   3.697   4.725   3.960 -0.0222 -2.8673  0.4160
 6401SOL    HW230837   3.620   0.035   3.835  0.9786  0.1601 -0.8619
 6402SOL     OW30838   1.810   0.644   6.174  0.8683  0.3297 -0.5547
 6402SOL    HW130839   1.789   0.551   6.172  2.3698 -0.0042 -0.8090
 6402SOL    HW230840   1.904   0.625   6.168  0.7130 -0.8615  0.7538
 6403SOL     OW30841   1.490   1.981   7.397 -0.6473  0.1193 -0.1028
 6403SOL    HW130842   1.516   2.007   7.485  0.2383  0.8787 -0.5837
 6403SOL    HW230843   1.408   1.932   7.400 -0.3539 -0.5294 -2.5995
 6404SOL     OW30844   3.663   3.903  11.282  0.1091  0.3747  0.3805
 6404SOL    HW130845   3.721   3.951  11.223  0.4989 -1.1967 -0.5054
 6404SOL    HW230846   3.718   3.874  11.355  0.6213  1.2478  0.3411
 6405SOL     OW30847   3.811   1.407   0.046  0.0163 -0.1815 -0.3011
 6405SOL    HW130848   3.775   1.383  17.711  2.3871  2.2783 -1.9838
 6405SOL    HW230849   3.898   1.371   0.028 -0.3593 -0.8755 -0.7264
 6406SOL     OW30850   0.641   0.792  11.226 -0.2510  0.1131  0.3829
 6406SOL    HW130851   0.580   0.791  11.299 -0.8559  1.9962 -0.1044
 6406SOL    HW230852   0.586   0.783  11.148 -0.3539 -0.5725  0.5368
 6407SOL     OW30853   0.071   1.491   4.661  1.0338 -0.1029 -0.6769
 6407SOL    HW130854   0.117   1.444   4.731 -0.5065  0.2643  0.5668
 6407SOL    HW230855   0.130   1.487   4.586  0.9589 -0.0260 -0.7397
 6408SOL     OW30856   4.396   2.528  12.463 -0.9254 -0.1233 -0.0628
 6408SOL    HW130857   4.429   2.494  12.379 -3.0668  0.1175 -1.0029
 6408SOL    HW230858   4.408   2.452  12.520 -2.9040 -1.2688 -1.1643
 6409SOL     OW30859   2.908   0.638   6.919 -0.4052 -0.0181  0.4935
 6409SOL    HW130860   2.829   0.684   6.946 -0.5865  0.3800 -0.7073
 6409SOL    HW230861   2.869   0.555   6.890  0.2139 -0.5222  1.0981
 6410SOL     OW30862   0.847   0.946   2.297  0.0317  0.0880  0.1187
 6410SOL    HW130863   0.923   0.987   2.257  1.2757 -2.0304  0.3088
 6410SOL    HW230864   0.782   1.017   2.300 -0.5278 -0.4625  1.1002
 6411SOL     OW30865   0.001   2.133  15.950  0.4448 -0.5474  0.2081
 6411SOL    HW130866   0.014   2.136  15.855 -0.6811  0.6249  0.0836
 6411SOL    HW230867   0.002   2.037  15.958  0.8624 -0.4763  1.0306
 6412SOL     OW30868   2.278   2.790   2.033 -0.0985 -0.0755 -0.3266
 6412SOL    HW130869   2.333   2.809   1.957 -1.5340 -2.6635 -2.0111
 6412SOL    HW230870   2.197   2.833   2.007  0.6721  0.6228 -1.5267
 6413SOL     OW30871   0.973   0.404   7.150 -0.2103  0.2156  0.1217
 6413SOL    HW130872   0.888   0.418   7.190 -0.9890  1.9742 -2.1585
 6413SOL    HW230873   1.022   0.474   7.193  0.6559  1.6298 -3.1144
 6414SOL     OW30874   0.715   4.709   3.334 -0.3112 -0.1943  0.4426
 6414SOL    HW130875   0.691   4.657   3.411  1.4056 -1.0998  0.3630
 6414SOL    HW230876   0.678   4.655   3.264 -0.8636  2.0403 -1.0003
 6415SOL     OW30877   1.927   3.604   9.162 -0.1708 -0.4050 -0.2116
 6415SOL    HW130878   1.930   3.700   9.170 -0.5371 -0.4945  1.0411
 6415SOL    HW230879   1.835   3.579   9.164 -0.3573  0.2736 -0.1226
 6416SOL     OW30880   1.526   0.029   7.554 -0.8566  0.1217 -0.4202
 6416SOL    HW130881   1.490   0.023   7.642 -3.0905  3.6321 -1.0937
 6416SOL    HW230882   1.614   4.730   7.563 -0.0194  2.2322  0.0898
 6417SOL     OW30883   2.975   3.178   6.474  0.0102 -0.1668 -0.3960
 6417SOL    HW130884   3.003   3.259   6.517  0.5126 -0.1494 -0.7533
 6417SOL    HW230885   2.889   3.163   6.514 -0.2067  1.5180 -0.2427
 6418SOL     OW30886   2.377   1.919  16.663  0.1894  0.5625 -0.7803
 6418SOL    HW130887   2.337   1.911  16.577 -0.0559 -0.2826 -0.5945
 6418SOL    HW230888   2.471   1.911  16.647  0.4726  1.4280  0.4720
 6419SOL     OW30889   3.432   3.836   2.846 -0.1418  0.1851  0.7163
 6419SOL    HW130890   3.374   3.911   2.842 -0.2106  0.1912  2.0628
 6419SOL    HW230891   3.366   3.766   2.846  1.4463 -1.3351 -0.7430
 6420SOL     OW30892   3.706   2.174   6.692  0.3755  0.2298  0.0539
 6420SOL    HW130893   3.765   2.222   6.749  0.1199  1.1066 -0.4183
 6420SOL    HW230894   3.751   2.191   6.609  0.4342 -0.6111 -0.0887
 6421SOL     OW30895   4.336   2.710   2.512 -0.5836  0.7164  0.0002
 6421SOL    HW130896   4.397   2.680   2.580  1.1935 -0.4763 -2.1134
 6421SOL    HW230897   4.293   2.789   2.545 -0.4911  1.2661 -1.1835
 6422SOL     OW30898   4.415   1.505   8.605 -0.2501  0.3112  0.1815
 6422SOL    HW130899   4.441   1.421   8.567  1.6644 -0.2717  2.8218
 6422SOL    HW230900   4.500   1.541   8.632  0.1930 -1.3561  1.0011
 6423SOL     OW30901   4.573   1.317   3.417 -0.4032 -0.3705  0.3057
 6423SOL    HW130902   4.620   1.309   3.334 -0.0467 -0.2184  0.4955
 6423SOL    HW230903   4.481   1.330   3.394  0.2179 -0.5227 -2.3087
 6424SOL     OW30904   3.818   0.912  14.993 -0.2883 -0.0759 -0.3379
 6424SOL    HW130905   3.818   0.865  15.077  0.4207  0.2553 -0.1562
 6424SOL    HW230906   3.744   0.875  14.945 -0.7844  0.9094 -0.3317
 6425SOL     OW30907   0.330   3.379   4.183 -0.0881 -0.3437 -0.5582
 6425SOL    HW130908   0.259   3.314   4.180 -1.7864  1.5345 -1.0738
 6425SOL    HW230909   0.302   3.430   4.259  2.3068  1.0229 -0.6165
 6426SOL     OW30910   3.062   4.363  15.806 -0.0328  0.7803 -0.3784
 6426SOL    HW130911   3.050   4.391  15.897 -2.4498  0.3693 -0.5898
 6426SOL    HW230912   3.086   4.447  15.765 -2.0918  1.5925  0.0565
 6427SOL     OW30913   1.685   1.410   8.987 -0.1817 -0.2598 -0.2748
 6427SOL    HW130914   1.741   1.429   9.062 -0.0255  1.8313 -0.9162
 6427SOL    HW230915   1.722   1.478   8.930  2.6779 -1.3103  0.3713
 6428SOL     OW30916   2.359   2.479   7.933 -0.1796 -0.4197 -0.3508
 6428SOL    HW130917   2.344   2.521   8.017  0.4266  0.8982 -0.9055
 6428SOL    HW230918   2.451   2.499   7.914  0.1319  0.8141  2.5003
 6429SOL     OW30919   1.122   0.252   3.929  0.6606 -0.0959  0.4146
 6429SOL    HW130920   1.151   0.200   3.854 -1.1422  1.0513 -1.0948
 6429SOL    HW230921   1.134   0.188   3.999  1.8387 -0.4364 -0.1066
 6430SOL     OW30922   2.219   2.773   2.846  0.1840 -0.1737  0.2547
 6430SOL    HW130923   2.179   2.691   2.819  2.9115 -1.8388  1.2319
 6430SOL    HW230924   2.155   2.814   2.904 -1.2349 -0.7303 -0.9541
 6431SOL     OW30925   3.507   2.718   1.552  0.1286 -0.0258  0.3200
 6431SOL    HW130926   3.420   2.680   1.558 -0.8885  2.1113 -0.7750
 6431SOL    HW230927   3.553   2.648   1.505 -1.0040 -0.6440  0.1373
 6432SOL     OW30928   3.551   1.223   0.754 -0.2058  0.3157  0.1932
 6432SOL    HW130929   3.636   1.244   0.793  0.2993  0.4944 -1.0277
 6432SOL    HW230930   3.507   1.196   0.835  1.6628  1.0131  1.4490
 6433SOL     OW30931   4.178   2.688   6.976 -0.4146  0.0297 -0.1962
 6433SOL    HW130932   4.116   2.736   6.920 -2.0460 -0.3377  1.3183
 6433SOL    HW230933   4.174   2.752   7.047  1.1092  1.1748 -1.1420
 6434SOL     OW30934   1.672   3.211  15.212 -0.7075  0.4616  0.6545
 6434SOL    HW130935   1.604   3.278  15.204 -0.1735  0.8830 -0.4061
 6434SOL    HW230936   1.664   3.199  15.306 -0.5148  0.1514  0.6310
 6435SOL     OW30937   2.446   3.939   7.586 -0.3423  0.2015 -0.1590
 6435SOL    HW130938   2.491   4.020   7.564  0.8180 -0.2195  0.6436
 6435SOL    HW230939   2.502   3.901   7.654  0.0935 -1.3365 -1.3904
 6436SOL     OW30940   0.835   2.003  10.627 -0.2685  0.0157 -0.3658
 6436SOL    HW130941   0.768   1.942  10.598 -0.9436  0.3272  0.5392
 6436SOL    HW230942   0.899   1.950  10.675 -1.0606 -0.0749  0.5965
 6437SOL     OW30943   2.909   0.355   3.043 -0.2444 -0.2032  0.0902
 6437SOL    HW130944   2.898   0.260   3.034  1.7441 -0.0525 -4.0811
 6437SOL    HW230945   2.931   0.364   3.136 -1.1267 -1.0965  0.3843
 6438SOL     OW30946   0.505   2.016   3.121 -0.0018  0.7015  0.5536
 6438SOL    HW130947   0.436   2.033   3.057  1.3076  2.3642 -0.4037
 6438SOL    HW230948   0.568   1.955   3.081 -1.2698 -1.2885  1.5860
 6439SOL     OW30949   1.210   2.800  17.512 -0.4455  0.3040 -0.6796
 6439SOL    HW130950   1.219   2.891  17.484 -1.8522  1.1509  1.5985
 6439SOL    HW230951   1.116   2.785  17.519 -0.1335 -1.5718 -0.4884
 6440SOL     OW30952   1.144   1.491  12.902 -0.1869 -0.2699  0.1181
 6440SOL    HW130953   1.145   1.511  12.809 -0.1646 -0.0468  0.1678
 6440SOL    HW230954   1.226   1.447  12.925  0.2687 -0.0706 -1.1514
 6441SOL     OW30955   3.631   3.265   8.635 -0.2353 -0.4859  0.2760
 6441SOL    HW130956   3.624   3.307   8.721  0.2776 -0.7051  0.4282
 6441SOL    HW230957   3.566   3.321   8.592  0.2055  0.0034  0.2425
 6442SOL     OW30958   1.349   1.236   5.578 -0.4856 -0.2076  0.4336
 6442SOL    HW130959   1.294   1.285   5.640 -1.4041 -0.9335  0.1887
 6442SOL    HW230960   1.433   1.280   5.590 -0.2969  0.1194 -2.2037
 6443SOL     OW30961   0.974   1.933   7.842  0.5044 -0.1999  0.2786
 6443SOL    HW130962   0.944   1.988   7.914 -0.6406 -0.0460 -0.3253
 6443SOL    HW230963   0.925   1.967   7.767  1.8413  0.1295 -0.4520
 6444SOL     OW30964   1.106   3.413  10.102  0.4444  0.4061  0.0103
 6444SOL    HW130965   1.128   3.332  10.147  1.0486  0.7456  0.3342
 6444SOL    HW230966   1.037   3.386  10.041 -1.8737  0.4341  2.6253
 6445SOL     OW30967   4.379   0.042   8.259  0.0898  0.4308  0.0361
 6445SOL    HW130968   4.372   0.134   8.286 -0.9355  0.1012  0.8842
 6445SOL    HW230969   4.287   0.027   8.241 -0.3870  2.5975  0.6836
 6446SOL     OW30970   4.606   0.570   1.449  0.1297  0.0269 -0.0323
 6446SOL    HW130971   4.689   0.522   1.444  1.1729  1.8473 -0.0753
 6446SOL    HW230972   4.639   0.657   1.470 -0.4538  0.8443 -2.5185
 6447SOL     OW30973   3.866   3.916   5.950  0.1478 -0.1667 -0.1093
 6447SOL    HW130974   3.930   3.867   5.897 -1.2783 -1.5369 -0.5551
 6447SOL    HW230975   3.792   3.855   5.955 -0.2737  0.4282  0.7467
 6448SOL     OW30976   1.444   3.952   5.168  0.0645  0.0575  0.1836
 6448SOL    HW130977   1.412   3.984   5.083 -2.4665 -0.8452  0.8059
 6448SOL    HW230978   1.384   3.997   5.227  0.9550  1.2025  0.2436
 6449SOL     OW30979   0.817   3.928  12.099  0.4305 -0.2232 -0.1007
 6449SOL    HW130980   0.728   3.895  12.113  1.3225 -1.7104  2.1022
 6449SOL    HW230981   0.824   4.000  12.162  2.8049  0.6883 -1.3974
 6450SOL     OW30982   0.191   3.304   2.275 -0.1199 -0.4244 -0.4796
 6450SOL    HW130983   0.219   3.268   2.360 -2.0555 -2.2226 -0.5978
 6450SOL    HW230984   0.263   3.292   2.214 -0.5944 -0.5797 -1.0027
 6451SOL     OW30985   2.212   1.553   3.581 -0.0842 -0.3377  0.0226
 6451SOL    HW130986   2.216   1.579   3.489  0.1882  1.5829  0.5670
 6451SOL    HW230987   2.303   1.561   3.611  0.0218 -0.1811 -0.3394
 6452SOL     OW30988   1.410   1.019   9.027  0.0287  0.1426 -0.3069
 6452SOL    HW130989   1.383   1.095   9.078 -1.9893 -0.0597 -1.0800
 6452SOL    HW230990   1.476   0.978   9.084 -1.4035  0.5971  1.6813
 6453SOL     OW30991   3.411   0.352   8.980  0.2109  0.3618 -0.1624
 6453SOL    HW130992   3.403   0.363   8.886 -0.2945  1.4510  0.0125
 6453SOL    HW230993   3.377   0.262   8.987  0.1064  0.4008 -0.1816
 6454SOL     OW30994   3.685   1.198  14.376 -0.1262 -0.2750  0.2484
 6454SOL    HW130995   3.744   1.221  14.305 -0.5563 -2.1702 -0.7262
 6454SOL    HW230996   3.729   1.217  14.459 -1.2870 -0.0876  0.8144
 6455SOL     OW30997   2.396   4.151  13.173  0.6284 -0.1401 -0.5781
 6455SOL    HW130998   2.461   4.082  13.183  0.1795 -0.2297  1.7673
 6455SOL    HW230999   2.439   4.207  13.108  0.1125 -1.3813 -1.9797
 6456SOL     OW31000   4.561   0.347   4.148  0.5957 -0.1266 -0.2621
 6456SOL    HW131001   4.474   0.359   4.186  1.5126  0.4349  1.6512
 6456SOL    HW231002   4.609   0.416   4.194  1.2000 -0.0846 -0.9612
 6457SOL     OW31003   0.619   2.092   8.748  0.1908 -0.0904  0.1518
 6457SOL    HW131004   0.645   2.072   8.658 -1.1199  0.8174 -0.4195
 6457SOL    HW231005   0.563   2.169   8.741  0.8528  0.6357  3.0084
 6458SOL     OW31006   3.009   2.818   5.399 -0.0321  0.0707  0.0619
 6458SOL    HW131007   3.055   2.898   5.427  1.1389 -0.6379  0.1551
 6458SOL    HW231008   2.958   2.851   5.325 -0.3922  0.3924  0.4499
 6459SOL     OW31009   0.416   1.314   7.370 -0.4875  0.8093  0.7198
 6459SOL    HW131010   0.485   1.375   7.345 -0.3388 -0.3520 -1.6991
 6459SOL    HW231011   0.434   1.309   7.464 -1.1121 -0.6246  0.7622
 6460SOL     OW31012   1.998   2.659   2.621 -1.0226 -0.2731 -0.8314
 6460SOL    HW131013   1.996   2.750   2.653 -4.5895 -0.6821  0.0806
 6460SOL    HW231014   1.915   2.624   2.653 -0.5265 -0.2280  0.5086
 6461SOL     OW31015   4.547   2.136  14.148 -0.6835  0.3215 -0.7964
 6461SOL    HW131016   4.533   2.136  14.243  0.5662  0.5562 -0.6037
 6461SOL    HW231017   4.625   2.190  14.137  0.1021 -0.5278  0.4654
 6462SOL     OW31018   2.652   4.012   8.698 -0.2305  0.4504 -0.3942
 6462SOL    HW131019   2.730   3.964   8.670 -1.5910 -1.3964 -1.0180
 6462SOL    HW231020   2.655   3.982   8.789  1.0097  0.7796 -0.3321
 6463SOL     OW31021   3.646   1.060  16.464 -0.2512  0.1138  0.8696
 6463SOL    HW131022   3.639   0.976  16.509 -0.5367 -1.8709 -2.9164
 6463SOL    HW231023   3.556   1.092  16.459 -0.4603 -0.7334 -0.6347
 6464SOL     OW31024   4.038   2.394   5.724 -0.1280  0.9441 -0.9076
 6464SOL    HW131025   4.004   2.305   5.735  1.2379  0.2961 -1.8991
 6464SOL    HW231026   4.075   2.395   5.636  0.5416 -0.5256 -0.6517
 6465SOL     OW31027   0.865   2.928  10.496 -0.1990  0.1126 -0.0270
 6465SOL    HW131028   0.858   2.926  10.591  1.5092  0.1209  0.0913
 6465SOL    HW231029   0.909   2.844  10.488  0.3624  0.7903 -4.1085
 6466SOL     OW31030   2.453   4.286   4.711  0.2108  0.3026 -0.5398
 6466SOL    HW131031   2.455   4.268   4.617  1.0256  0.4871 -0.5571
 6466SOL    HW231032   2.387   4.353   4.728 -0.5131 -0.7553  0.7390
 6467SOL     OW31033   1.475   0.354   6.558 -0.9081 -0.1127 -0.0032
 6467SOL    HW131034   1.436   0.378   6.642 -1.0698 -0.4533  0.0204
 6467SOL    HW231035   1.518   0.276   6.596  0.3560  1.1112  1.1206
 6468SOL     OW31036   4.205   3.094  16.792  0.8366 -0.8315  0.1808
 6468SOL    HW131037   4.148   3.170  16.777  0.5575 -1.0768  0.0183
 6468SOL    HW231038   4.291   3.136  16.797  0.5310 -0.1701 -0.0158
 6469SOL     OW31039   0.776   1.408   3.061  0.3633 -0.7812 -0.2995
 6469SOL    HW131040   0.790   1.350   3.136 -0.1271  0.6957  0.9382
 6469SOL    HW231041   0.718   1.358   3.004 -2.3406  2.8892 -0.8256
 6470SOL     OW31042   4.015   3.847   4.736  0.2057  0.1105 -0.2056
 6470SOL    HW131043   4.108   3.842   4.758  0.2901  0.5588 -0.4584
 6470SOL    HW231044   4.017   3.858   4.641 -1.0564 -1.6144 -0.4232
 6471SOL     OW31045   2.370   2.609   0.610  0.6863 -0.3043  0.5805
 6471SOL    HW131046   2.297   2.561   0.572 -0.5996  0.6772  1.7928
 6471SOL    HW231047   2.336   2.650   0.689 -0.4721 -1.9507  0.9359
 6472SOL     OW31048   4.561   3.593   4.573  0.3245 -0.5984 -0.1240
 6472SOL    HW131049   4.516   3.543   4.641 -0.9848 -1.0958 -1.3539
 6472SOL    HW231050   4.497   3.597   4.502  0.1243  2.0316  0.2184
 6473SOL     OW31051   2.171   2.810  15.350  0.0228 -0.5789  0.4755
 6473SOL    HW131052   2.228   2.847  15.282  0.3219 -1.2431  0.3659
 6473SOL    HW231053   2.207   2.721  15.354  1.2208 -0.2136 -1.7197
 6474SOL     OW31054   4.164   4.444   7.748  0.1197 -0.0768 -0.6408
 6474SOL    HW131055   4.194   4.379   7.811  0.9832  1.0185  0.0726
 6474SOL    HW231056   4.245   4.492   7.733 -1.0352  1.5661 -1.5933
 6475SOL     OW31057   3.354   3.803   0.838 -0.1068 -0.1781 -0.2399
 6475SOL    HW131058   3.424   3.772   0.895 -1.7272 -0.0355  1.7915
 6475SOL    HW231059   3.341   3.892   0.869 -2.7353 -0.8665  0.5714
 6476SOL     OW31060   0.461   1.633  15.210 -0.2743  0.2016 -1.2166
 6476SOL    HW131061   0.398   1.603  15.276 -0.3138  1.6889 -0.5618
 6476SOL    HW231062   0.460   1.729  15.214 -0.1426  0.0981  1.3228
 6477SOL     OW31063   3.246   1.734   5.033  0.2396  0.1706  0.7027
 6477SOL    HW131064   3.192   1.763   4.960  0.0796  2.2413  1.6617
 6477SOL    HW231065   3.270   1.644   5.011  1.9622  1.3605 -2.2883
 6478SOL     OW31066   3.969   2.161  10.052 -0.0010 -0.4578 -0.2342
 6478SOL    HW131067   3.890   2.208  10.023  1.4722  0.5165 -2.6910
 6478SOL    HW231068   4.021   2.156   9.972 -0.7562  0.7106 -0.8064
 6479SOL     OW31069   0.144   2.032   2.873 -0.2469 -0.1286  0.0148
 6479SOL    HW131070   0.227   2.080   2.868  0.2323 -1.0555 -0.7138
 6479SOL    HW231071   0.168   1.949   2.914 -0.6727 -0.2464  0.0236
 6480SOL     OW31072   2.536   0.856  15.677  0.0037 -0.0839  0.0763
 6480SOL    HW131073   2.628   0.835  15.657 -0.0860  0.0565 -0.5035
 6480SOL    HW231074   2.536   0.857  15.772  1.8032 -0.9756  0.0823
 6481SOL     OW31075   0.739   3.470   3.574  0.3095 -0.1997 -0.2069
 6481SOL    HW131076   0.729   3.550   3.626 -0.3385  0.1830 -0.9236
 6481SOL    HW231077   0.829   3.484   3.545 -0.8436  3.3768 -2.0052
 6482SOL     OW31078   1.819   0.242   3.498 -0.2330 -0.5694 -0.1634
 6482SOL    HW131079   1.745   0.300   3.519  1.9903  2.1356  0.2607
 6482SOL    HW231080   1.824   0.184   3.573 -0.4415  0.7126  0.8412
 6483SOL     OW31081   0.724   4.366  17.622  0.1275 -0.2704  0.4568
 6483SOL    HW131082   0.740   4.291  17.566  2.5958  1.5530 -1.2995
 6483SOL    HW231083   0.760   4.437  17.569 -2.1802  0.2257 -0.4335
 6484SOL     OW31084   3.683   1.382   7.499  0.3106  0.6576  0.0162
 6484SOL    HW131085   3.714   1.455   7.552 -1.1078  1.2733 -0.0009
 6484SOL    HW231086   3.728   1.411   7.420 -0.6728  1.1387 -0.3746
 6485SOL     OW31087   2.525   2.425  13.214  0.1312  0.1553  0.1333
 6485SOL    HW131088   2.597   2.365  13.193 -0.5525 -0.6511  0.1020
 6485SOL    HW231089   2.452   2.371  13.183  0.1936  1.3222 -2.0674
 6486SOL     OW31090   1.585   1.433   8.318  0.1041 -0.1399  0.3878
 6486SOL    HW131091   1.503   1.470   8.350 -0.0746  0.7172 -1.0619
 6486SOL    HW231092   1.598   1.489   8.241  0.2049  1.8443  1.8457
 6487SOL     OW31093   1.698   3.966   2.651 -0.3679 -0.2224 -0.6133
 6487SOL    HW131094   1.731   3.881   2.622 -1.6513 -1.4350  1.4254
 6487SOL    HW231095   1.609   3.954   2.619 -0.2976 -0.1011 -0.8512
 6488SOL     OW31096   3.666   3.917   3.005 -0.2482  0.4236 -0.3666
 6488SOL    HW131097   3.600   3.950   3.065  1.2684  2.1659  0.3361
 6488SOL    HW231098   3.609   3.862   2.952  1.2629  0.5544 -2.1516
 6489SOL     OW31099   4.026   2.020   5.706 -0.2229  0.2375  0.4548
 6489SOL    HW131100   4.118   2.045   5.708  0.2305 -1.3058 -0.6714
 6489SOL    HW231101   4.007   2.055   5.619  1.0830 -0.5912 -0.1592
 6490SOL     OW31102   0.477   0.922   3.053 -0.0833 -0.2841 -0.4174
 6490SOL    HW131103   0.530   0.869   2.993 -1.6323 -0.4208 -1.6523
 6490SOL    HW231104   0.390   0.910   3.016 -0.3887 -0.1110  0.2414
 6491SOL     OW31105   0.950   1.158   4.827  0.2222  0.1813  0.1405
 6491SOL    HW131106   0.905   1.100   4.765  0.9545 -0.3778  0.1205
 6491SOL    HW231107   0.948   1.234   4.769 -2.7513  1.2132  1.6080
 6492SOL     OW31108   0.799   3.564   6.951  0.5027  0.4421  0.0432
 6492SOL    HW131109   0.809   3.488   6.894 -0.5562  0.6744 -0.4535
 6492SOL    HW231110   0.709   3.550   6.982  1.5059 -4.5502  0.6223
 6493SOL     OW31111   3.289   3.164   6.475 -0.1061 -0.4097 -0.2721
 6493SOL    HW131112   3.323   3.089   6.426  1.4204 -0.1027  0.2957
 6493SOL    HW231113   3.196   3.144   6.472  0.2828 -2.2778  0.3173
 6494SOL     OW31114   0.826   2.593   6.005  0.3614  0.3222  0.0051
 6494SOL    HW131115   0.820   2.582   6.100  1.6906 -0.7096 -0.0352
 6494SOL    HW231116   0.741   2.555   5.981 -0.5787  1.9339  0.7783
 6495SOL     OW31117   3.727   1.516   5.755  0.1367 -0.0226  0.0397
 6495SOL    HW131118   3.792   1.511   5.825 -1.3473 -0.7021  1.3600
 6495SOL    HW231119   3.708   1.422   5.751 -1.2344  0.2102  1.1957
 6496SOL     OW31120   4.051   0.051   4.945  0.1825 -1.0429 -0.8184
 6496SOL    HW131121   4.077   4.721   4.883 -0.6530  0.8552 -3.2239
 6496SOL    HW231122   4.114   0.038   5.016  0.2374 -0.7681 -0.8185
 6497SOL     OW31123   2.361   0.919   3.963 -0.1025  0.7605 -0.6032
 6497SOL    HW131124   2.350   0.833   3.923  0.9103  0.6315 -0.5875
 6497SOL    HW231125   2.338   0.966   3.883  0.2868 -0.3386 -1.3548
 6498SOL     OW31126   4.183   2.772   4.661 -0.1329 -0.2831 -0.2310
 6498SOL    HW131127   4.242   2.780   4.736 -0.2508 -1.9337  0.0272
 6498SOL    HW231128   4.234   2.831   4.606  0.4478  0.4739  1.1187
 6499SOL     OW31129   0.915   4.225   6.922 -0.1308 -0.0399  0.0991
 6499SOL    HW131130   0.982   4.250   6.858  1.1210 -0.8206  1.0959
 6499SOL    HW231131   0.968   4.185   6.991 -1.4302  1.3355  1.9104
 6500SOL     OW31132   2.186   2.970   9.119  0.1513  0.2514  0.4973
 6500SOL    HW131133   2.112   2.973   9.181 -0.0673 -0.1873  0.2619
 6500SOL    HW231134   2.261   2.954   9.176  0.8046  2.1657  0.1640
 6501SOL     OW31135   4.069   0.186  14.908  0.4216  0.1779 -0.3044
 6501SOL    HW131136   4.060   0.108  14.852  0.1157  1.0039 -1.4148
 6501SOL    HW231137   4.103   0.153  14.991  0.2299 -1.5542 -0.9073
 6502SOL     OW31138   3.734   0.092   0.658 -0.0457  0.8290 -0.3872
 6502SOL    HW131139   3.826   0.094   0.685  0.3337  0.8777 -1.6821
 6502SOL    HW231140   3.742   0.178   0.617 -1.5603  1.4634  0.6428
 6503SOL     OW31141   2.753   2.735  17.437 -0.3120  0.2498 -0.4138
 6503SOL    HW131142   2.824   2.798  17.428  1.8088 -2.2476 -0.9962
 6503SOL    HW231143   2.745   2.704  17.347  0.1457  0.1806 -0.4278
 6504SOL     OW31144   2.983   3.523  15.166 -0.0120 -0.2108 -0.0503
 6504SOL    HW131145   2.979   3.541  15.072 -0.5064 -0.9492 -0.1706
 6504SOL    HW231146   3.078   3.516  15.179  0.1602 -1.2392 -1.9355
 6505SOL     OW31147   2.804   4.654   8.750 -0.0092 -0.0817 -0.6703
 6505SOL    HW131148   2.811   4.585   8.817  0.4011  0.4564 -0.1588
 6505SOL    HW231149   2.745   4.714   8.795  1.4118 -0.7532  2.0921
 6506SOL     OW31150   3.414   1.796  13.087  0.0929 -0.8295  0.4160
 6506SOL    HW131151   3.483   1.740  13.125  1.1971 -0.3589 -0.8953
 6506SOL    HW231152   3.455   1.829  13.007  3.2048 -1.7285  1.6114
 6507SOL     OW31153   1.481   2.637  10.410  0.0061  0.8970  0.2028
 6507SOL    HW131154   1.526   2.693  10.346 -0.8077  0.6663 -0.5638
 6507SOL    HW231155   1.392   2.637  10.375 -0.2062 -1.8778  0.7456
 6508SOL     OW31156   2.039   1.180  17.400  0.1106 -0.2194  0.0183
 6508SOL    HW131157   1.991   1.261  17.382  1.3813  0.5384  0.0546
 6508SOL    HW231158   2.087   1.153  17.322 -0.0920  2.2019 -0.9574
 6509SOL     OW31159   1.611   3.489  11.505 -0.2255 -0.0900  0.3328
 6509SOL    HW131160   1.681   3.456  11.561 -0.0506  0.4701  0.4475
 6509SOL    HW231161   1.664   3.533  11.439 -2.0286  1.6170  0.0280
 6510SOL     OW31162   3.863   1.612   0.579  0.2930  0.1771 -0.3226
 6510SOL    HW131163   3.930   1.590   0.514  0.7700 -1.6190  0.7759
 6510SOL    HW231164   3.789   1.586   0.524 -0.7451  2.5082 -0.0007
 6511SOL     OW31165   3.696   2.016   0.350  0.0414 -0.1786 -0.7893
 6511SOL    HW131166   3.619   2.064   0.319 -1.0816 -1.2676  0.3157
 6511SOL    HW231167   3.761   2.074   0.310 -0.9119 -1.3706 -4.0117
 6512SOL     OW31168   1.178   1.092  17.264  0.2976 -0.0850  0.0029
 6512SOL    HW131169   1.269   1.079  17.240  0.6650 -0.8848  1.8696
 6512SOL    HW231170   1.191   1.180  17.299  2.6820  0.6329 -2.7543
 6513SOL     OW31171   2.585   3.565   2.866  0.1413 -0.4537 -0.1713
 6513SOL    HW131172   2.612   3.652   2.895 -0.8262 -0.3001  0.2686
 6513SOL    HW231173   2.536   3.544   2.945  1.0555 -1.9998 -0.0066
 6514SOL     OW31174   1.974   0.549  11.835 -0.1440  0.2320  0.2355
 6514SOL    HW131175   2.049   0.527  11.779  1.0782  1.4191  1.4231
 6514SOL    HW231176   1.956   0.635  11.798 -0.0705  0.7012  1.2855
 6515SOL     OW31177   2.083   4.288   6.560  0.3952  0.3639  0.5995
 6515SOL    HW131178   2.124   4.219   6.508 -3.2324  0.4387 -2.3880
 6515SOL    HW231179   1.991   4.266   6.545 -0.2956  1.3618  3.5162
 6516SOL     OW31180   3.555   2.037   2.954 -0.6588  0.2161  0.0366
 6516SOL    HW131181   3.633   1.991   2.923 -1.8387 -0.8054 -1.3627
 6516SOL    HW231182   3.597   2.124   2.957 -0.0233 -0.0535 -1.3989
 6517SOL     OW31183   0.695   1.460   7.780  0.0563  0.5642 -0.4307
 6517SOL    HW131184   0.713   1.548   7.813 -0.5838  0.1305  1.0421
 6517SOL    HW231185   0.648   1.425   7.855  0.4629  1.1133  0.0764
 6518SOL     OW31186   3.364   2.706   1.894 -0.0548 -0.0121 -0.1454
 6518SOL    HW131187   3.453   2.672   1.887 -0.0729 -0.4684  1.8846
 6518SOL    HW231188   3.318   2.623   1.884 -0.5042  0.1863  0.2551
 6519SOL     OW31189   2.986   0.517   9.394  0.1756  0.5290 -0.0405
 6519SOL    HW131190   2.973   0.566   9.313  1.9714 -0.5021 -0.9605
 6519SOL    HW231191   3.000   0.434   9.349 -1.2889 -1.1267  2.5268
 6520SOL     OW31192   2.346   2.297   5.522  0.2353 -0.5500 -0.6913
 6520SOL    HW131193   2.418   2.328   5.467 -1.1488 -0.5145 -2.5136
 6520SOL    HW231194   2.373   2.206   5.533 -1.7163 -0.9764  0.5776
 6521SOL     OW31195   0.653   0.391   6.908 -0.1220 -0.7196  0.4571
 6521SOL    HW131196   0.616   0.380   6.821  2.1800  1.7286 -0.8258
 6521SOL    HW231197   0.641   0.308   6.954  1.6614  0.1463  2.4963
 6522SOL     OW31198   0.584   3.544  17.252  0.1880  0.4474 -1.0599
 6522SOL    HW131199   0.650   3.578  17.193 -0.1486  2.7661 -0.0896
 6522SOL    HW231200   0.516   3.524  17.188 -1.1837 -0.4034  0.6450
 6523SOL     OW31201   4.190   3.781   1.188  0.5313  0.3042  0.7315
 6523SOL    HW131202   4.259   3.715   1.179  0.9964  0.7671  0.8836
 6523SOL    HW231203   4.240   3.862   1.190  0.2073  0.5309 -0.6222
 6524SOL     OW31204   4.310   3.134   2.057 -0.3658  0.0763 -0.1896
 6524SOL    HW131205   4.252   3.186   2.002  1.1528  0.1611 -1.7135
 6524SOL    HW231206   4.309   3.058   1.998 -0.9591 -0.2509  0.2363
 6525SOL     OW31207   4.523   3.562  14.999 -0.3424 -0.5009  0.1210
 6525SOL    HW131208   4.588   3.565  14.929  0.1622 -1.7435  0.5250
 6525SOL    HW231209   4.455   3.622  14.968 -0.1592 -0.3069  0.0939
 6526SOL     OW31210   4.072   2.992   6.472  0.1618  0.2357 -0.2853
 6526SOL    HW131211   4.110   2.972   6.557 -0.5512  1.6800  0.3800
 6526SOL    HW231212   3.977   3.000   6.487  0.6549  0.6686  2.4651
 6527SOL     OW31213   0.213   4.509   4.897  0.5263 -0.4635 -0.0478
 6527SOL    HW131214   0.307   4.525   4.891  0.6541 -1.9530 -1.7111
 6527SOL    HW231215   0.192   4.544   4.984 -0.9292 -3.4889  0.8148
 6528SOL     OW31216   0.989   1.258  11.994 -0.3011  0.6190 -0.2863
 6528SOL    HW131217   1.030   1.317  12.057  1.7090  0.7566 -1.7482
 6528SOL    HW231218   1.011   1.179  12.044  1.1684  2.0333  1.3036
 6529SOL     OW31219   2.702   2.346   6.812 -0.2257 -0.2976 -0.6435
 6529SOL    HW131220   2.656   2.283   6.868  2.1697 -0.0598  1.5694
 6529SOL    HW231221   2.747   2.286   6.752  0.1264 -4.0716  3.4034
 6530SOL     OW31222   1.951   1.392   7.968 -0.1485  0.8647 -0.3911
 6530SOL    HW131223   1.944   1.485   7.945 -1.3067  0.3416 -2.1056
 6530SOL    HW231224   1.948   1.397   8.064  0.0160  1.6846 -0.4269
 6531SOL     OW31225   3.078   1.457   5.114  0.4385  0.0188 -0.7547
 6531SOL    HW131226   2.995   1.458   5.068 -0.8500  0.8376  1.5924
 6531SOL    HW231227   3.131   1.490   5.041  1.9658 -0.0885  0.3083
 6532SOL     OW31228   0.872   3.569   2.461  0.5872 -0.2573 -0.3967
 6532SOL    HW131229   0.799   3.560   2.400  1.2719  0.8489 -1.3927
 6532SOL    HW231230   0.883   3.662   2.482 -1.9287  0.5751 -2.8461
 6533SOL     OW31231   3.302   1.463   5.953  0.3966  0.1956 -0.4038
 6533SOL    HW131232   3.354   1.427   6.025  0.0737 -0.4862 -0.5042
 6533SOL    HW231233   3.332   1.409   5.880  2.6012  1.5358 -0.5021
 6534SOL     OW31234   1.831   1.236  12.022  0.5608 -0.2051 -0.1659
 6534SOL    HW131235   1.789   1.155  12.051 -0.7203  0.1595 -1.0117
 6534SOL    HW231236   1.810   1.220  11.930 -0.2134 -1.3577  0.2158
 6535SOL     OW31237   0.104   2.995   7.777  0.0901 -0.1113 -0.0261
 6535SOL    HW131238   0.135   2.983   7.866 -0.4586 -0.9965  0.0406
 6535SOL    HW231239   0.166   2.937   7.732  1.3859  1.2995 -0.0443
 6536SOL     OW31240   1.059   1.712   3.107  0.0672 -0.2397  0.1093
 6536SOL    HW131241   1.019   1.670   3.183  0.0313 -1.1105 -0.3846
 6536SOL    HW231242   1.074   1.637   3.049 -0.0850  0.4044 -0.7664
 6537SOL     OW31243   3.757   2.864   4.147 -0.2107 -0.3839  0.7438
 6537SOL    HW131244   3.772   2.920   4.071  0.9893  1.0935  2.0758
 6537SOL    HW231245   3.676   2.892   4.190 -1.0463  0.4261 -1.3741
 6538SOL     OW31246   0.559   2.179  16.066  0.3801  0.2720  0.1268
 6538SOL    HW131247   0.600   2.212  15.987  0.0747 -2.2252 -1.0797
 6538SOL    HW231248   0.476   2.226  16.063  0.3889  0.2340 -0.6901
 6539SOL     OW31249   1.543   2.478   7.306  0.6246  0.2537 -0.2529
 6539SOL    HW131250   1.582   2.565   7.318  0.0243  0.6094 -0.8791
 6539SOL    HW231251   1.454   2.503   7.330 -0.2884 -1.4295 -1.9339
 6540SOL     OW31252   3.212   2.401  14.042  0.6770 -0.1004  0.0825
 6540SOL    HW131253   3.149   2.328  14.037  0.1869  0.3351 -0.0702
 6540SOL    HW231254   3.250   2.388  13.955 -0.1633  3.3610 -0.7985
 6541SOL     OW31255   1.929   3.027   7.316 -0.2164 -0.1047 -0.0131
 6541SOL    HW131256   1.866   3.099   7.316 -0.1460 -0.0759  3.5222
 6541SOL    HW231257   2.009   3.076   7.338  0.7291 -2.0459  0.9291
 6542SOL     OW31258   4.255   0.080   5.110  0.3069 -0.2006  0.0384
 6542SOL    HW131259   4.268   0.031   5.191 -1.4623 -1.2369 -0.3210
 6542SOL    HW231260   4.308   0.160   5.113 -0.5879  0.4680 -2.2982
 6543SOL     OW31261   4.130   0.002   7.755  0.3526  0.0609  0.0678
 6543SOL    HW131262   4.086   4.664   7.716  1.4789 -0.9101  0.6847
 6543SOL    HW231263   4.219   4.705   7.760  0.7662  0.8559 -1.4894
 6544SOL     OW31264   3.995   0.565  11.174  0.0082 -0.2827  0.7100
 6544SOL    HW131265   4.089   0.570  11.187 -0.0504 -0.0848  1.0523
 6544SOL    HW231266   3.954   0.534  11.255 -1.3517  0.1451  0.1907
 6545SOL     OW31267   3.938   3.655   2.838 -0.9514 -0.3595  0.5629
 6545SOL    HW131268   3.865   3.596   2.857 -1.6205  1.3525  3.3424
 6545SOL    HW231269   3.932   3.714   2.914 -0.6489 -1.6014  1.5383
 6546SOL     OW31270   0.660   0.445   5.621  0.0429  0.2606  0.0871
 6546SOL    HW131271   0.570   0.448   5.589 -0.5453 -0.8318  1.6576
 6546SOL    HW231272   0.650   0.496   5.701 -1.2297 -1.2528  0.8793
 6547SOL     OW31273   1.776   4.711   7.475  0.3525 -0.2208  0.6830
 6547SOL    HW131274   1.785   4.658   7.396  0.1428  1.4170 -0.4475
 6547SOL    HW231275   1.846   4.669   7.525  0.6117  0.5736  0.9840
 6548SOL     OW31276   1.347   4.044   0.487 -0.0559 -1.1650  0.4864
 6548SOL    HW131277   1.387   4.003   0.410 -1.3977 -0.3900 -0.6144
 6548SOL    HW231278   1.412   4.019   0.553  0.3840 -2.0067 -0.2594
 6549SOL     OW31279   2.568   1.265   2.971  0.3224 -0.0601 -0.2898
 6549SOL    HW131280   2.597   1.174   2.976 -0.3437 -0.2616 -0.0414
 6549SOL    HW231281   2.554   1.259   2.876  0.4282 -1.2468 -0.2322
 6550SOL     OW31282   4.357   3.523   1.583  0.0587  0.4338 -0.4814
 6550SOL    HW131283   4.263   3.502   1.581  0.1404  0.2209 -1.5462
 6550SOL    HW231284   4.365   3.564   1.497 -1.0650 -2.6182 -2.0135
 6551SOL     OW31285   1.577   2.960   8.364  0.1217  0.1349 -0.5387
 6551SOL    HW131286   1.568   2.928   8.274 -3.8261 -2.4866  0.8055
 6551SOL    HW231287   1.672   2.969   8.368  0.0283  1.2024 -0.5837
 6552SOL     OW31288   0.616   2.214   9.961 -0.9542  0.3318 -0.0376
 6552SOL    HW131289   0.700   2.232   9.919 -1.5429 -1.1679 -1.8290
 6552SOL    HW231290   0.591   2.297  10.002  0.8325  0.8327  0.0344
 6553SOL     OW31291   1.614   4.358   9.367  0.5486 -0.0116 -0.1297
 6553SOL    HW131292   1.670   4.357   9.290  0.1588  3.5273 -0.4739
 6553SOL    HW231293   1.570   4.444   9.365  2.8959  1.2173  1.2320
 6554SOL     OW31294   2.585   3.664  15.713 -0.0071  0.0005 -0.0541
 6554SOL    HW131295   2.642   3.617  15.652 -0.0406 -1.5847  1.1493
 6554SOL    HW231296   2.558   3.592  15.770  0.4964  1.0766  1.5831
 6555SOL     OW31297   3.364   3.049   0.610  0.6437  0.4760  0.4462
 6555SOL    HW131298   3.444   3.050   0.557 -0.3638 -0.5270 -1.0758
 6555SOL    HW231299   3.374   2.960   0.645 -0.4721 -0.0828 -0.6663
 6556SOL     OW31300   3.573   3.585   2.353  0.0362  0.6688  0.6186
 6556SOL    HW131301   3.563   3.514   2.416  1.2677  0.5822  0.7311
 6556SOL    HW231302   3.560   3.659   2.412 -2.7083 -0.5753  1.5849
 6557SOL     OW31303   2.542   0.074  16.388 -0.2768 -0.3831 -0.2997
 6557SOL    HW131304   2.492   4.731  16.396 -1.4599  0.4979  1.4368
 6557SOL    HW231305   2.477   0.138  16.360  1.0263  1.2735  0.4976
 6558SOL     OW31306   4.723   3.999   2.536  0.2447 -0.1731 -0.2777
 6558SOL    HW131307   4.649   3.955   2.579  0.2080 -1.4569 -1.6562
 6558SOL    HW231308   4.724   4.084   2.580 -0.1851  0.1934 -0.9679
 6559SOL     OW31309   0.622   4.402   1.404  0.4444 -0.4926  0.5407
 6559SOL    HW131310   0.613   4.313   1.439 -0.4133 -0.3292  0.7315
 6559SOL    HW231311   0.537   4.414   1.362  0.4006  0.3565  0.8892
 6560SOL     OW31312   2.268   2.068   3.259  0.3102 -0.2491  0.6158
 6560SOL    HW131313   2.315   2.076   3.176 -0.7326  0.0781  0.0494
 6560SOL    HW231314   2.184   2.112   3.245  1.1253  1.1148  0.0509
 6561SOL     OW31315   2.740   4.435   5.387  0.6288  0.0311 -0.0428
 6561SOL    HW131316   2.777   4.504   5.443  0.7980  0.9105 -1.2318
 6561SOL    HW231317   2.689   4.493   5.332 -1.5955  0.0820  2.0779
 6562SOL     OW31318   1.149   0.485   1.799 -0.4730 -0.5608  0.5807
 6562SOL    HW131319   1.171   0.527   1.883 -0.6044  0.0336  0.3227
 6562SOL    HW231320   1.146   0.563   1.743  1.0676  0.2341  1.5994
 6563SOL     OW31321   0.993   3.037   3.197  0.0009  0.2806  0.3735
 6563SOL    HW131322   1.027   2.959   3.153  1.1974  0.4858  0.9271
 6563SOL    HW231323   0.908   3.001   3.224 -0.6285  0.1548 -1.7520
 6564SOL     OW31324   1.922   4.380   4.421  0.2396  0.0028  0.2761
 6564SOL    HW131325   1.990   4.313   4.421  1.3339  1.1426  2.4860
 6564SOL    HW231326   1.840   4.337   4.448  1.2715 -1.3663  1.2403
 6565SOL     OW31327   0.105   2.232   8.638 -0.1983 -0.1441  0.1554
 6565SOL    HW131328   0.184   2.178   8.650  1.8860  2.6343 -1.1049
 6565SOL    HW231329   0.070   2.226   8.727 -0.9406 -1.2794 -0.2135
 6566SOL     OW31330   3.617   3.479   6.507  0.0572 -0.0443 -0.3355
 6566SOL    HW131331   3.697   3.428   6.496  0.8819  1.2072 -0.1817
 6566SOL    HW231332   3.646   3.534   6.581  2.2699 -0.5365 -0.8487
 6567SOL     OW31333   0.732   1.144   7.031 -0.0558 -0.4171 -0.0840
 6567SOL    HW131334   0.728   1.102   7.116  1.6876  1.1787  0.7786
 6567SOL    HW231335   0.648   1.115   6.996  1.3539 -0.9787 -3.0145
 6568SOL     OW31336   3.366   3.440   0.079  0.7805 -0.0356  0.1581
 6568SOL    HW131337   3.448   3.488   0.066 -1.0735  2.7834 -1.0870
 6568SOL    HW231338   3.324   3.485   0.152  0.3905  0.0887 -0.1426
 6569SOL     OW31339   4.377   1.714   9.411  0.6724  0.2778  0.1298
 6569SOL    HW131340   4.432   1.775   9.461 -0.4386  0.9696  0.5159
 6569SOL    HW231341   4.397   1.727   9.318  3.6510  0.2236  0.7772
 6570SOL     OW31342   1.906   4.406  16.613  0.0920 -0.0624 -0.3645
 6570SOL    HW131343   1.965   4.434  16.544 -1.6451 -0.5292 -2.0384
 6570SOL    HW231344   1.933   4.318  16.639 -1.6909 -0.7924 -0.9985
 6571SOL     OW31345   3.968   1.885   6.838 -0.3996  0.1018  0.2116
 6571SOL    HW131346   4.000   1.912   6.924  0.4442  0.3108 -0.1631
 6571SOL    HW231347   4.055   1.867   6.803  0.2472 -0.8850  2.3386
 6572SOL     OW31348   4.320   3.409  16.197 -0.2910 -0.8561  0.4197
 6572SOL    HW131349   4.283   3.450  16.119  0.3212  2.9275  2.1236
 6572SOL    HW231350   4.412   3.437  16.195 -0.4551 -0.2956  0.8742
 6573SOL     OW31351   3.764   1.521  11.874  0.7746 -0.2905  0.3916
 6573SOL    HW131352   3.814   1.494  11.951 -3.4656 -3.5727  1.9735
 6573SOL    HW231353   3.835   1.493  11.816  1.8713  0.6588  1.2596
 6574SOL     OW31354   1.546   2.090   2.229  0.2864 -0.1326 -0.7724
 6574SOL    HW131355   1.617   2.038   2.267  0.8905  2.6221  1.9184
 6574SOL    HW231356   1.587   2.176   2.216  1.4498 -0.2919  1.7789
 6575SOL     OW31357   3.763   4.073   9.717  0.2253  0.4200  0.4518
 6575SOL    HW131358   3.778   4.152   9.769 -2.3793  1.5882 -0.5824
 6575SOL    HW231359   3.836   4.072   9.655 -1.5165  0.4347 -1.5741
 6576SOL     OW31360   1.715   1.840   3.856  0.7124 -0.0531 -0.0180
 6576SOL    HW131361   1.751   1.874   3.938  2.2792  1.8205 -1.4957
 6576SOL    HW231362   1.651   1.905   3.829  0.7989 -0.0396 -0.1895
 6577SOL     OW31363   2.768   3.954   2.233  0.4105 -0.2268 -0.0314
 6577SOL    HW131364   2.711   3.928   2.305 -0.8559  1.8504 -0.2828
 6577SOL    HW231365   2.719   4.029   2.201 -3.6450 -2.6937  0.4731
 6578SOL     OW31366   0.099   0.342   6.490  0.4058  0.5046  0.3810
 6578SOL    HW131367   0.130   0.382   6.572  0.7356  1.1921 -0.0726
 6578SOL    HW231368   0.155   0.266   6.478  1.1192  0.5967  3.0295
 6579SOL     OW31369   3.273   3.919   8.943 -0.4026 -0.8288  0.5048
 6579SOL    HW131370   3.204   3.971   8.903 -0.5529 -0.9868  0.5562
 6579SOL    HW231371   3.223   3.879   9.014 -0.2022 -2.5968 -0.3451
 6580SOL     OW31372   2.754   3.001   8.307  0.0743  0.3636  0.4355
 6580SOL    HW131373   2.740   3.015   8.213  0.0576  2.1442  0.6956
 6580SOL    HW231374   2.713   2.917   8.326 -1.1583  0.8309 -0.1122
 6581SOL     OW31375   1.070   4.393   0.301  0.9033  0.1343  0.5776
 6581SOL    HW131376   1.074   4.480   0.340  1.8246  0.1094  0.5268
 6581SOL    HW231377   1.138   4.335   0.334  2.2757  1.8378  0.7035
 6582SOL     OW31378   3.629   4.378  14.925 -0.3721 -0.1873 -0.2222
 6582SOL    HW131379   3.577   4.336  14.993 -1.8333 -1.1530 -1.9372
 6582SOL    HW231380   3.568   4.443  14.888 -2.0744 -1.8144 -0.2555
 6583SOL     OW31381   1.573   2.022  17.411  0.3021  0.2959 -0.1542
 6583SOL    HW131382   1.533   2.100  17.375 -0.8174 -0.5203 -0.6737
 6583SOL    HW231383   1.513   1.952  17.385  0.3956 -0.5942  2.0405
 6584SOL     OW31384   0.039   3.467   8.291  0.5877  0.0154  0.2092
 6584SOL    HW131385   0.049   3.432   8.202  2.1185 -0.4644  0.5607
 6584SOL    HW231386   4.682   3.469   8.297  0.4669 -2.0468 -1.2154
 6585SOL     OW31387   2.523   1.012  13.362  0.1050 -0.8565 -0.0857
 6585SOL    HW131388   2.430   1.033  13.368  0.2598  0.1082 -1.2107
 6585SOL    HW231389   2.540   1.066  13.285  1.7396 -0.9650  0.1816
 6586SOL     OW31390   2.303   3.446   4.744  0.4351 -0.7189 -0.0085
 6586SOL    HW131391   2.373   3.423   4.684  0.3601  3.7958 -1.7747
 6586SOL    HW231392   2.220   3.415   4.706  0.2182  0.8383 -0.7666
 6587SOL     OW31393   3.659   2.485   9.347 -0.2574 -0.3139 -0.0500
 6587SOL    HW131394   3.661   2.537   9.427 -0.0537  0.3108 -0.4636
 6587SOL    HW231395   3.571   2.505   9.316 -0.1761  0.1915  0.0535
 6588SOL     OW31396   1.710   3.326  13.957  0.5892 -0.5531  0.1285
 6588SOL    HW131397   1.765   3.296  13.885 -2.6669 -2.0921 -1.6983
 6588SOL    HW231398   1.767   3.308  14.032  2.0827  0.2341 -0.8159
 6589SOL     OW31399   3.998   2.554   4.703  0.4535 -0.0530  0.1431
 6589SOL    HW131400   4.040   2.632   4.665 -1.3326  1.3664  1.0803
 6589SOL    HW231401   4.079   2.504   4.706  0.1484 -0.5890 -0.4194
 6590SOL     OW31402   1.365   3.082   2.550  1.0181  0.2075 -0.2529
 6590SOL    HW131403   1.371   2.996   2.592  1.4518 -0.8413 -2.4188
 6590SOL    HW231404   1.384   3.138   2.625 -1.3837 -0.9565  1.2294
 6591SOL     OW31405   0.431   0.092   5.676 -0.0987  0.3990 -0.1936
 6591SOL    HW131406   0.492   0.108   5.748 -0.5724 -0.4730  0.3937
 6591SOL    HW231407   0.482   0.065   5.601  0.6704 -1.0189  0.8459
 6592SOL     OW31408   3.034   2.698   9.320  0.2676 -0.3610 -0.0609
 6592SOL    HW131409   3.022   2.784   9.278 -0.3639 -1.4630 -2.1764
 6592SOL    HW231410   3.125   2.683   9.295 -0.1796 -1.2365 -1.1973
 6593SOL     OW31411   0.231   4.432  16.948 -0.0264 -0.1464  0.0789
 6593SOL    HW131412   0.168   4.464  17.013 -0.9705  1.4118 -1.6032
 6593SOL    HW231413   0.166   4.413  16.879  0.6287 -2.2068  0.0235
 6594SOL     OW31414   4.190   3.952   3.946 -0.0877 -0.6788  0.2291
 6594SOL    HW131415   4.160   4.001   3.869  0.5986  1.2298  1.1766
 6594SOL    HW231416   4.117   3.890   3.942  0.6655 -1.6715  1.7184
 6595SOL     OW31417   1.737   4.147  11.776 -0.5025 -0.1165  0.2406
 6595SOL    HW131418   1.682   4.072  11.798 -1.2061  0.2235 -0.3477
 6595SOL    HW231419   1.680   4.219  11.748 -0.6792 -0.6678 -0.8343
 6596SOL     OW31420   4.596   1.287   7.365  0.5651 -0.0313  0.3595
 6596SOL    HW131421   4.529   1.322   7.424  1.9625 -0.2258  2.0645
 6596SOL    HW231422   4.681   1.284   7.409 -0.2335  0.6854  1.9813
 6597SOL     OW31423   1.511   2.011   3.815 -0.0301 -0.0137 -0.0326
 6597SOL    HW131424   1.580   2.073   3.793 -0.1594  1.2188  2.8911
 6597SOL    HW231425   1.434   2.058   3.782  0.1140 -1.0023 -1.7319
 6598SOL     OW31426   2.094   0.032   3.148 -0.3572  0.5083  0.2774
 6598SOL    HW131427   2.042   4.698   3.183  1.3866 -0.5274  0.7328
 6598SOL    HW231428   2.071   0.093   3.218 -1.5670  0.1100  0.2318
 6599SOL     OW31429   3.703   2.526   9.702  0.1878  0.0019 -0.2285
 6599SOL    HW131430   3.768   2.530   9.772 -0.5239  1.5147  0.3507
 6599SOL    HW231431   3.751   2.551   9.624 -1.1128  0.2292 -0.9562
 6600SOL     OW31432   2.953   0.249   4.551 -0.6406 -0.5215  0.1548
 6600SOL    HW131433   2.996   0.165   4.564 -2.4839 -1.6549 -1.0197
 6600SOL    HW231434   3.027   0.287   4.504 -2.1731  0.3369 -1.6115
 6601SOL     OW31435   0.301   0.346   2.667  0.0401  0.3329  0.0894
 6601SOL    HW131436   0.363   0.297   2.613  1.0094  0.4466  1.1005
 6601SOL    HW231437   0.322   0.306   2.752 -0.9470 -0.0958  0.1371
 6602SOL     OW31438   1.724   3.291   2.616  0.5989 -0.4323 -0.0392
 6602SOL    HW131439   1.729   3.204   2.655 -0.6660 -0.8630 -0.8570
 6602SOL    HW231440   1.810   3.331   2.633  1.7453 -2.2377 -1.6213
 6603SOL     OW31441   0.095   0.352   5.007 -0.3117 -1.2401 -0.3242
 6603SOL    HW131442   0.115   0.352   4.913 -1.5214  0.7787 -0.5747
 6603SOL    HW231443   0.019   0.411   5.009  0.3380 -0.3885 -0.7740
 6604SOL     OW31444   3.360   4.267   5.116  0.4740  0.0146  1.1539
 6604SOL    HW131445   3.330   4.230   5.033  0.8397  1.3799  0.4166
 6604SOL    HW231446   3.424   4.321   5.071 -1.2335  0.0890 -1.1981
 6605SOL     OW31447   1.206   3.732   7.053 -0.2894 -0.1633  0.3195
 6605SOL    HW131448   1.252   3.764   6.975 -1.9393  1.6307  0.0807
 6605SOL    HW231449   1.186   3.642   7.026  0.3246  0.1482 -1.2170
 6606SOL     OW31450   0.417   2.894   7.486 -0.1946 -0.4880 -0.4450
 6606SOL    HW131451   0.367   2.931   7.413  2.1864  0.3691 -1.6258
 6606SOL    HW231452   0.503   2.931   7.467  0.6860 -1.6615  1.1664
 6607SOL     OW31453   4.146   1.045  17.582 -0.0699  0.4963 -0.4119
 6607SOL    HW131454   4.197   0.971  17.550 -0.3273  0.4856 -0.8015
 6607SOL    HW231455   4.193   1.067  17.662 -2.9631  1.1323  1.1308
 6608SOL     OW31456   1.143   2.181  16.427  0.0683 -0.6529  0.5506
 6608SOL    HW131457   1.160   2.270  16.395  1.9360 -1.7416 -1.5395
 6608SOL    HW231458   1.108   2.148  16.345  0.1924  1.3176 -0.3085
 6609SOL     OW31459   3.574   1.496   4.388 -0.0122  0.2569 -0.1376
 6609SOL    HW131460   3.590   1.498   4.483  3.3689 -2.8636 -0.6547
 6609SOL    HW231461   3.514   1.422   4.377  0.8493 -0.1762 -1.9049
 6610SOL     OW31462   2.581   4.221   5.648  0.5932  0.4861  0.3497
 6610SOL    HW131463   2.562   4.131   5.625  0.5825 -0.0175  2.3450
 6610SOL    HW231464   2.618   4.243   5.562  1.2334 -0.2960  0.4224
 6611SOL     OW31465   2.657   4.701   1.763 -0.2600 -0.1720  0.1764
 6611SOL    HW131466   2.693   4.652   1.836  0.4674  0.3724  0.1784
 6611SOL    HW231467   2.623   0.040   1.809 -0.8940 -1.0615  1.2021
 6612SOL     OW31468   1.227   1.618   6.721  0.1427  0.0244  0.1267
 6612SOL    HW131469   1.142   1.661   6.733 -0.6918 -1.8160  0.8858
 6612SOL    HW231470   1.234   1.632   6.626  1.8208  0.8254  0.3788
 6613SOL     OW31471   3.137   1.578   2.687 -0.6145 -0.0125 -0.1572
 6613SOL    HW131472   3.136   1.673   2.685  0.1116  0.0024  0.1036
 6613SOL    HW231473   3.053   1.556   2.646 -1.2236 -0.0002  1.0872
 6614SOL     OW31474   4.106   3.866   8.367 -0.3654  0.5494  0.3570
 6614SOL    HW131475   4.031   3.924   8.357 -1.9220 -1.7791 -1.4419
 6614SOL    HW231476   4.158   3.935   8.408  1.4245  0.7308 -2.2247
 6615SOL     OW31477   4.615   1.015  10.156 -0.1175  0.4532  0.2360
 6615SOL    HW131478   4.692   1.030  10.102  0.3099 -3.4745 -0.2728
 6615SOL    HW231479   4.635   0.923  10.175  1.1252  0.7466  0.4032
 6616SOL     OW31480   4.008   4.062  16.558 -0.9628  0.1155  0.2428
 6616SOL    HW131481   3.927   4.046  16.509 -1.8310 -0.7830  2.0010
 6616SOL    HW231482   4.034   3.971  16.571  0.4976  0.5734  0.4788
 6617SOL     OW31483   1.515   1.287  14.691  0.0609  0.2113 -0.0556
 6617SOL    HW131484   1.461   1.208  14.703 -0.1593  0.7298  2.1952
 6617SOL    HW231485   1.449   1.352  14.667  0.0956  1.1041  2.3083
 6618SOL     OW31486   0.132   4.301   3.561 -0.3584  0.1500 -0.3680
 6618SOL    HW131487   0.088   4.371   3.609  0.6817 -0.9668  2.2168
 6618SOL    HW231488   0.084   4.224   3.593  0.3582  0.0982  0.5550
 6619SOL     OW31489   2.605   2.938   7.741 -0.5531  0.1694 -0.2608
 6619SOL    HW131490   2.567   2.851   7.732  0.0143  0.1836 -2.7667
 6619SOL    HW231491   2.537   2.999   7.770 -0.2338 -0.0066  0.8926
 6620SOL     OW31492   2.986   1.884   3.620 -0.6957  0.2738 -0.1012
 6620SOL    HW131493   2.942   1.842   3.694  0.4346 -1.4814 -0.4249
 6620SOL    HW231494   2.941   1.837   3.550 -0.2726  1.2013 -1.0006
 6621SOL     OW31495   4.380   0.875   3.645 -0.1943  0.1004 -0.0730
 6621SOL    HW131496   4.358   0.944   3.708  0.8984  0.7480 -0.3939
 6621SOL    HW231497   4.430   0.921   3.578  0.9188 -1.1556 -0.1101
 6622SOL     OW31498   3.357   0.137   2.633 -0.3380  0.2246  0.3729
 6622SOL    HW131499   3.288   0.155   2.697  1.6777 -0.0465  2.6317
 6622SOL    HW231500   3.375   0.043   2.642 -0.5721  0.0282 -1.3221
 6623SOL     OW31501   3.931   1.775   5.598 -0.4483 -0.1246 -0.0689
 6623SOL    HW131502   3.938   1.865   5.630  1.2084 -0.0852 -0.5537
 6623SOL    HW231503   3.984   1.729   5.663 -1.9060  1.3504  2.1769
 6624SOL     OW31504   3.002   2.413   1.915 -0.0597 -0.2054 -0.3044
 6624SOL    HW131505   2.918   2.412   1.868  0.3371  1.7518 -1.0736
 6624SOL    HW231506   2.985   2.471   1.988 -0.5025 -1.8570  0.8928
 6625SOL     OW31507   2.385   2.315   1.392  0.3197 -0.1321  0.1796
 6625SOL    HW131508   2.344   2.334   1.477 -0.3130  0.7739 -0.3315
 6625SOL    HW231509   2.428   2.395   1.364  3.4652 -1.2429  1.7815
 6626SOL     OW31510   1.755   2.714  10.565  0.3090 -0.1578 -0.5408
 6626SOL    HW131511   1.711   2.799  10.569 -0.8035 -0.9067  2.8683
 6626SOL    HW231512   1.673   2.666  10.578  0.0723  0.1175 -0.9999
 6627SOL     OW31513   4.420   3.222   4.569  0.0860  0.6059 -0.6655
 6627SOL    HW131514   4.440   3.229   4.476  1.3463 -2.0041 -0.5810
 6627SOL    HW231515   4.417   3.130   4.594 -0.2799  0.6948 -0.3753
 6628SOL     OW31516   1.655   2.614  14.084  0.0749  0.3647 -0.1255
 6628SOL    HW131517   1.589   2.635  14.151  0.4858 -0.4359  0.5278
 6628SOL    HW231518   1.659   2.689  14.025  0.5721 -0.5353 -1.2286
 6629SOL     OW31519   2.724   3.942   1.613 -0.2543  0.1345 -0.3445
 6629SOL    HW131520   2.746   3.970   1.702 -0.9943  0.0580 -0.1360
 6629SOL    HW231521   2.641   3.987   1.600  1.2456  2.7712 -0.8321
 6630SOL     OW31522   4.557   0.894   8.020 -0.4543 -0.0317 -0.0497
 6630SOL    HW131523   4.488   0.960   8.028 -1.7135 -1.0341 -2.4374
 6630SOL    HW231524   4.520   0.834   7.954 -0.1074 -0.9800  0.6142
 6631SOL     OW31525   4.630   1.912   4.176  0.0925 -0.3913  0.1559
 6631SOL    HW131526   4.651   1.877   4.089  1.4700 -1.1567  0.7978
 6631SOL    HW231527   4.709   1.876   4.216  0.1129 -0.3630  0.1414
 6632SOL     OW31528   0.925   3.296   6.761 -0.1555  0.1728 -0.1655
 6632SOL    HW131529   0.951   3.379   6.722 -0.7745 -0.2049 -1.3749
 6632SOL    HW231530   0.831   3.288   6.743  0.7826 -1.9449 -4.2309
 6633SOL     OW31531   3.283   1.300   9.267  0.1048  0.1081  0.1147
 6633SOL    HW131532   3.258   1.372   9.209  0.5293 -0.1721 -0.4242
 6633SOL    HW231533   3.376   1.319   9.258  0.0329  0.1639 -0.5625
 6634SOL     OW31534   2.751   0.093   3.559 -0.6630  0.4622  0.0534
 6634SOL    HW131535   2.739   0.112   3.652 -1.2201 -0.9164  0.2755
 6634SOL    HW231536   2.684   0.149   3.521 -1.0591 -0.6568 -0.9061
 6635SOL     OW31537   1.566   1.819   6.674  0.7518  0.0157  0.3401
 6635SOL    HW131538   1.488   1.820   6.618 -0.1218 -0.3329  1.5595
 6635SOL    HW231539   1.557   1.908   6.710  2.8233  0.7968 -1.0681
 6636SOL     OW31540   1.811   1.990   8.002  0.0468 -0.8876 -0.1371
 6636SOL    HW131541   1.835   2.042   7.926 -0.2330  0.1137  0.4657
 6636SOL    HW231542   1.883   1.928   8.015  0.6588 -0.1898 -0.1794
 6637SOL     OW31543   4.332   4.270   4.417  0.0479 -0.2754 -0.3031
 6637SOL    HW131544   4.301   4.242   4.331  0.0317 -1.4239  0.0818
 6637SOL    HW231545   4.342   4.362   4.392 -0.5327  0.0985  0.8576
 6638SOL     OW31546   4.493   2.362   8.778 -0.3358  0.1167 -0.0489
 6638SOL    HW131547   4.586   2.365   8.800 -0.0650 -0.3143 -1.1474
 6638SOL    HW231548   4.471   2.449   8.811  2.0640  1.4220 -1.9220
 6639SOL     OW31549   4.595   0.740   1.987 -0.1613 -0.0177 -0.4925
 6639SOL    HW131550   4.504   0.769   1.992 -0.4604 -0.9109 -0.6675
 6639SOL    HW231551   4.634   0.811   2.038 -0.0301 -0.0430 -0.5590
 6640SOL     OW31552   4.729   2.735   6.182  0.7148  0.5047 -0.1538
 6640SOL    HW131553   0.010   2.775   6.267 -0.2429 -3.1988  1.8050
 6640SOL    HW231554   4.644   2.694   6.201 -0.2097  2.2657 -0.4951
 6641SOL     OW31555   3.867   1.251  16.386  0.4849  0.4024  0.3790
 6641SOL    HW131556   3.877   1.311  16.460  0.1214  0.8363  0.0794
 6641SOL    HW231557   3.793   1.194  16.408  2.0855 -0.5917  3.1687
 6642SOL     OW31558   4.618   0.052  16.291 -0.4404  0.0919 -1.0536
 6642SOL    HW131559   4.631   0.147  16.295 -2.1613  0.2472  0.7089
 6642SOL    HW231560   4.557   0.059  16.217  0.8258  1.6504 -1.9391
 6643SOL     OW31561   4.268   1.237   1.680  0.0601 -0.1625  0.1864
 6643SOL    HW131562   4.358   1.212   1.702  0.5029 -0.0356 -1.4766
 6643SOL    HW231563   4.234   1.260   1.766 -0.5850 -1.3844  0.2528
 6644SOL     OW31564   2.683   2.256  17.698 -0.0314  0.2701  0.2255
 6644SOL    HW131565   2.683   2.220   0.036 -3.1622 -1.4442 -0.4670
 6644SOL    HW231566   2.699   2.349  17.709  0.2019  0.5336 -2.2931
 6645SOL     OW31567   0.108   3.646   9.598 -0.2918 -0.0599  0.4074
 6645SOL    HW131568   0.160   3.718   9.563  2.4749 -2.3803 -0.2302
 6645SOL    HW231569   0.020   3.660   9.563 -0.1642 -1.8413 -0.6181
 6646SOL     OW31570   3.540   3.649   8.929  0.0082 -0.2658 -0.2346
 6646SOL    HW131571   3.538   3.668   9.022 -0.5293 -1.0649 -0.0869
 6646SOL    HW231572   3.617   3.697   8.897 -0.0100 -0.1352 -0.0792
 6647SOL     OW31573   1.138   2.303   2.639 -0.1395  0.0584 -0.2601
 6647SOL    HW131574   1.204   2.345   2.584  1.5722  1.5297  2.9430
 6647SOL    HW231575   1.061   2.359   2.652 -0.8815 -1.3332  1.3241
 6648SOL     OW31576   0.879   3.347   5.635  0.9016  0.1078  0.3771
 6648SOL    HW131577   0.803   3.394   5.670 -0.8492 -0.3785 -2.8218
 6648SOL    HW231578   0.857   3.343   5.542  0.1672 -1.2085  0.6064
 6649SOL     OW31579   0.336   2.726  14.212  0.5108  0.3336  0.2216
 6649SOL    HW131580   0.341   2.822  14.213  0.3800  0.3650 -1.5647
 6649SOL    HW231581   0.349   2.700  14.303  0.9134 -0.2881 -0.0134
 6650SOL     OW31582   2.973   1.338   3.619  0.1548 -0.3908 -0.6790
 6650SOL    HW131583   3.041   1.273   3.598  1.0731  0.2604  0.2973
 6650SOL    HW231584   2.907   1.274   3.646 -0.7020  0.6202 -0.3841
 6651SOL     OW31585   1.343   0.783  12.643 -0.1327  0.1978 -0.3976
 6651SOL    HW131586   1.332   0.699  12.689  1.8818  1.1007  1.7430
 6651SOL    HW231587   1.439   0.783  12.640 -0.2607 -1.3272 -5.1975
 6652SOL     OW31588   1.572   0.841   7.836 -0.0976 -0.2165  0.6761
 6652SOL    HW131589   1.631   0.905   7.795 -0.2647 -0.9980 -0.7663
 6652SOL    HW231590   1.503   0.843   7.770  0.2529 -0.9183  0.2870
 6653SOL     OW31591   4.004   0.932  14.287 -0.3753  0.2666  0.4009
 6653SOL    HW131592   3.942   0.873  14.243 -0.9976  0.5408  0.9019
 6653SOL    HW231593   4.033   0.973  14.205 -0.7223 -1.8907 -0.8086
 6654SOL     OW31594   3.704   0.408   5.404  0.2071 -0.2903 -0.5963
 6654SOL    HW131595   3.692   0.344   5.335 -0.0075  0.0627 -0.8819
 6654SOL    HW231596   3.688   0.364   5.488 -1.6483 -0.3121 -0.9773
 6655SOL     OW31597   2.627   0.896  12.612  0.4687  0.5742  0.5109
 6655SOL    HW131598   2.556   0.845  12.652 -2.5526  1.4563 -3.7937
 6655SOL    HW231599   2.701   0.835  12.617 -1.3409 -1.6457  0.6070
 6656SOL     OW31600   1.193   3.781   2.560 -0.4593 -0.5992  0.7404
 6656SOL    HW131601   1.233   3.713   2.506 -0.9773 -1.9289  2.0276
 6656SOL    HW231602   1.106   3.774   2.521 -0.7981  0.2404  1.3607
 6657SOL     OW31603   1.404   3.151   2.301  0.3045  0.0895 -0.1186
 6657SOL    HW131604   1.368   3.127   2.386 -1.8999 -0.6194 -1.2591
 6657SOL    HW231605   1.481   3.202   2.327  0.2199 -0.6670  1.6085
 6658SOL     OW31606   1.555   1.210  10.040  0.2461 -0.1839 -0.4125
 6658SOL    HW131607   1.556   1.167  10.126 -0.9379 -3.7472 -2.1758
 6658SOL    HW231608   1.465   1.195  10.014  0.4374 -0.2372 -1.0294
 6659SOL     OW31609   4.370   1.373   6.304  0.1901 -0.5551 -0.2316
 6659SOL    HW131610   4.343   1.316   6.376 -1.1129  2.0631  1.3513
 6659SOL    HW231611   4.306   1.444   6.308  2.1311  1.0975  1.0470
 6660SOL     OW31612   1.377   1.925  11.743  0.1949 -0.4825 -0.2146
 6660SOL    HW131613   1.326   1.875  11.680 -0.9048 -1.6491  1.5820
 6660SOL    HW231614   1.319   1.995  11.773 -0.6208 -1.5241  0.6600
 6661SOL     OW31615   1.232   2.043   7.794  0.2335  0.2501 -0.0504
 6661SOL    HW131616   1.173   1.985   7.745  1.3782 -0.3409 -0.7418
 6661SOL    HW231617   1.161   2.104   7.815  1.0862  1.2609 -0.1168
 6662SOL     OW31618   4.525   1.709   6.751  0.4827 -0.2638 -0.0521
 6662SOL    HW131619   4.459   1.652   6.791 -1.2446  2.6464  1.2745
 6662SOL    HW231620   4.606   1.676   6.789  1.9302  0.9512 -2.0906
 6663SOL     OW31621   3.230   4.678  17.156 -0.3974  0.4177  0.4052
 6663SOL    HW131622   3.293   4.681  17.084  0.4668  3.7760  1.3242
 6663SOL    HW231623   3.290   4.648  17.225 -0.7500  0.7087  0.8332
 6664SOL     OW31624   1.561   2.508  15.334 -0.6965  0.4878  0.0737
 6664SOL    HW131625   1.620   2.454  15.281 -1.3814  0.9351 -1.1431
 6664SOL    HW231626   1.626   2.533  15.400 -3.1434  0.0950  2.6158
 6665SOL     OW31627   1.250   0.630  15.760  0.2301 -0.1642  1.0396
 6665SOL    HW131628   1.212   0.592  15.839 -0.4126  3.0665  2.3149
 6665SOL    HW231629   1.223   0.566  15.694 -0.0065 -0.2221  1.1955
 6666SOL     OW31630   3.394   2.507   4.641  0.2508 -0.0358 -0.5812
 6666SOL    HW131631   3.419   2.599   4.636  1.5619 -0.3518  0.1709
 6666SOL    HW231632   3.463   2.466   4.694  2.0376  1.6299 -1.6140
 6667SOL     OW31633   1.276   1.375   2.445  0.0570  0.0123 -0.0106
 6667SOL    HW131634   1.314   1.422   2.520 -1.2416  0.0246  0.6449
 6667SOL    HW231635   1.229   1.448   2.403  0.1870  0.0699 -0.0562
 6668SOL     OW31636   1.833   0.477  17.074 -0.5999 -0.0122  0.1223
 6668SOL    HW131637   1.837   0.521  16.989  0.5919 -1.8407 -0.7736
 6668SOL    HW231638   1.752   0.513  17.110 -1.6939 -1.5839 -0.8035
 6669SOL     OW31639   2.508   2.759   5.089  0.4431 -0.1485  0.1916
 6669SOL    HW131640   2.500   2.728   5.180 -0.7084  2.4510  0.9602
 6669SOL    HW231641   2.518   2.853   5.104 -2.7341  0.3148 -0.5460
 6670SOL     OW31642   0.715   1.189  10.128  0.3402 -0.6529  0.3906
 6670SOL    HW131643   0.730   1.196  10.222  1.7515 -1.2554  0.2203
 6670SOL    HW231644   0.620   1.201  10.133  0.3153  0.2721 -2.6762
 6671SOL     OW31645   3.607   1.036   5.162  0.1336 -0.2096 -0.1603
 6671SOL    HW131646   3.670   1.066   5.097 -1.1258 -0.4572 -1.5096
 6671SOL    HW231647   3.539   1.010   5.100 -0.3897  1.6962 -0.3911
 6672SOL     OW31648   2.553   0.044  11.446 -0.6027  0.3483 -0.4060
 6672SOL    HW131649   2.595   0.011  11.367  1.0927  3.1919 -0.6985
 6672SOL    HW231650   2.623   0.078  11.502 -1.3085  0.6384  0.2981
 6673SOL     OW31651   1.613   3.588  15.866  0.9234 -0.0671 -0.1615
 6673SOL    HW131652   1.589   3.605  15.957 -1.5434 -0.5333 -0.7433
 6673SOL    HW231653   1.557   3.650  15.820  1.7970  0.5790 -0.3609
 6674SOL     OW31654   2.479   2.373   7.640  0.3676  0.0245 -0.4691
 6674SOL    HW131655   2.433   2.325   7.572 -1.0609 -0.7179  1.0320
 6674SOL    HW231656   2.468   2.309   7.710  1.2779 -0.1283 -0.4578
 6675SOL     OW31657   2.867   1.629  17.292  0.4620 -0.0085  0.1114
 6675SOL    HW131658   2.803   1.562  17.270 -0.4405  0.2005  2.1030
 6675SOL    HW231659   2.879   1.670  17.205 -0.6491  0.1147  0.0139
 6676SOL     OW31660   2.148   2.165   4.816  0.2874  0.3240  0.2529
 6676SOL    HW131661   2.226   2.112   4.828 -0.9909 -1.0942  2.2129
 6676SOL    HW231662   2.086   2.092   4.810 -4.6909  4.6349 -0.7593
 6677SOL     OW31663   1.589   4.284   7.066 -0.0590  0.1260 -0.2447
 6677SOL    HW131664   1.571   4.312   7.156  1.6874  0.9414 -0.1450
 6677SOL    HW231665   1.668   4.330   7.039  0.0585 -0.9327 -1.6792
 6678SOL     OW31666   3.177   0.689   7.961 -0.3868 -0.3064 -0.2744
 6678SOL    HW131667   3.243   0.759   7.957  0.7801 -1.4932 -1.7965
 6678SOL    HW231668   3.170   0.675   7.866  1.8643 -0.0919 -0.4847
 6679SOL     OW31669   3.869   2.782   5.296 -0.2357  0.8143  0.2516
 6679SOL    HW131670   3.851   2.699   5.254 -2.6060  0.7412  1.3931
 6679SOL    HW231671   3.924   2.834   5.237 -0.2097 -0.3424 -0.7227
 6680SOL     OW31672   3.117   2.230   3.105  0.0795 -0.2188 -0.0263
 6680SOL    HW131673   3.181   2.159   3.111 -0.4387 -0.6703  0.1032
 6680SOL    HW231674   3.167   2.282   3.042  1.1562  0.3785  1.3089
 6681SOL     OW31675   3.125   2.058   8.516 -0.1088  0.2666  0.0449
 6681SOL    HW131676   3.048   2.115   8.511  0.5811  1.0255 -2.1155
 6681SOL    HW231677   3.137   2.039   8.423  0.9311  1.0418  0.0196
 6682SOL     OW31678   2.463   3.830   3.343 -0.7484 -0.1464  0.3864
 6682SOL    HW131679   2.393   3.822   3.408 -0.5012 -0.0033  0.6692
 6682SOL    HW231680   2.516   3.755   3.370 -1.8297 -1.4928 -1.1875
 6683SOL     OW31681   4.531   2.695   4.529 -0.2479 -0.0596  0.3425
 6683SOL    HW131682   4.527   2.621   4.590  0.3891  0.3247  0.8500
 6683SOL    HW231683   4.502   2.649   4.450 -0.2641  0.1001  0.2572
 6684SOL     OW31684   4.222   4.737   7.371  0.2063 -0.0425  0.2442
 6684SOL    HW131685   4.230   4.644   7.351 -1.8547  0.0791 -1.1531
 6684SOL    HW231686   4.128   0.003   7.382  0.2548  2.1638 -0.2336
 6685SOL     OW31687   0.548   3.245  16.786 -0.4325  0.2791  0.2105
 6685SOL    HW131688   0.464   3.288  16.795 -0.3119  0.6999 -0.6676
 6685SOL    HW231689   0.564   3.232  16.692 -1.1557 -1.3917  0.3178
 6686SOL     OW31690   0.105   4.211   0.628 -0.1296 -0.0554  0.1576
 6686SOL    HW131691   0.169   4.162   0.577  0.1267 -0.4220  0.8308
 6686SOL    HW231692   0.160   4.278   0.670  0.8458 -0.9562  0.3024
 6687SOL     OW31693   2.663   1.387   1.326 -0.5529  0.2024 -0.2625
 6687SOL    HW131694   2.644   1.295   1.346 -0.2269  0.2690  0.3530
 6687SOL    HW231695   2.596   1.406   1.260 -2.7144 -0.8312  1.6254
 6688SOL     OW31696   0.239   0.309  17.518 -0.7088 -0.0736 -0.4089
 6688SOL    HW131697   0.208   0.333  17.605  1.4513 -1.4625  0.7616
 6688SOL    HW231698   0.213   0.217  17.513 -0.2246 -0.2782  0.9329
 6689SOL     OW31699   2.011   0.354   4.773 -0.2308 -0.1084  0.3902
 6689SOL    HW131700   1.980   0.338   4.862  2.2086 -0.4008  1.1852
 6689SOL    HW231701   2.056   0.275   4.744 -2.2803 -1.4373  0.7847
 6690SOL     OW31702   4.390   2.909   5.119 -0.0111 -0.2293 -0.3777
 6690SOL    HW131703   4.327   2.837   5.124 -0.3590  0.2827  2.1499
 6690SOL    HW231704   4.367   2.956   5.199 -0.2417  2.7212 -2.1842
 6691SOL     OW31705   1.241   4.117  12.037  0.0567 -0.3709 -0.3279
 6691SOL    HW131706   1.308   4.072  11.986 -1.2178 -1.0228 -1.4220
 6691SOL    HW231707   1.171   4.091  11.977  0.3339 -0.7995 -0.4662
 6692SOL     OW31708   1.516   0.017   8.261  0.0440 -0.4206  0.0378
 6692SOL    HW131709   1.573   0.087   8.294  1.2078 -0.9386 -0.8721
 6692SOL    HW231710   1.455   0.002   8.333 -1.2429 -1.4314 -1.2608
 6693SOL     OW31711   3.540   1.497   8.838 -0.1169 -0.2459 -0.3347
 6693SOL    HW131712   3.620   1.455   8.806 -0.9093 -2.6425  0.8167
 6693SOL    HW231713   3.484   1.489   8.761 -2.0853  1.1759  0.9251
 6694SOL     OW31714   1.584   1.394   3.052 -0.4544 -0.0299 -0.3648
 6694SOL    HW131715   1.516   1.333   3.024  0.8738 -0.5761 -2.3852
 6694SOL    HW231716   1.551   1.477   3.016 -0.5703 -0.4665 -1.2465
 6695SOL     OW31717   3.675   3.126   6.874  0.3139 -0.0316  0.6868
 6695SOL    HW131718   3.720   3.072   6.939  1.1758  1.4458  1.3216
 6695SOL    HW231719   3.748   3.162   6.823  0.9420 -0.0207  1.6029
 6696SOL     OW31720   1.158   1.898  12.146 -0.3522 -0.3351  0.3165
 6696SOL    HW131721   1.161   1.951  12.066 -0.4427  0.9291  1.1595
 6696SOL    HW231722   1.226   1.942  12.197  0.7793 -0.6921 -0.8479
 6697SOL     OW31723   1.126   3.672  13.358 -0.1613  0.1926  0.4433
 6697SOL    HW131724   1.186   3.730  13.407 -0.0960  0.6939 -0.2321
 6697SOL    HW231725   1.155   3.586  13.387  2.5080  1.1322  0.6064
 6698SOL     OW31726   0.682   3.010   2.116 -0.2711 -0.9787  0.2799
 6698SOL    HW131727   0.764   3.060   2.127  0.9996 -2.5649 -1.8175
 6698SOL    HW231728   0.683   3.010   2.020  1.3887  0.6747  0.2644
 6699SOL     OW31729   3.539   0.568  10.524  0.6331  0.2612  0.4826
 6699SOL    HW131730   3.560   0.656  10.493  1.2636  0.0772  0.4000
 6699SOL    HW231731   3.485   0.537  10.451 -2.2646 -1.2028  3.2332
 6700SOL     OW31732   4.307   3.625   0.594 -0.1284 -0.3671  0.1610
 6700SOL    HW131733   4.383   3.622   0.535 -0.2516 -0.9968  0.0334
 6700SOL    HW231734   4.272   3.542   0.562  0.3759 -1.2118  1.8281
 6701SOL     OW31735   3.804   3.031  14.359  0.4465 -0.4159  0.4176
 6701SOL    HW131736   3.721   2.988  14.381  0.5448 -1.3230 -0.9501
 6701SOL    HW231737   3.832   3.043  14.449 -0.2154  2.8544  0.1840
 6702SOL     OW31738   2.537   2.392  14.535 -0.3024 -0.1073 -0.0756
 6702SOL    HW131739   2.618   2.344  14.550 -0.4901 -0.3783  0.0712
 6702SOL    HW231740   2.489   2.362  14.612  0.7026 -0.5585  0.3757
 6703SOL     OW31741   1.260   1.646   1.431  0.5768  0.1636 -0.1657
 6703SOL    HW131742   1.328   1.661   1.498 -0.7070  1.2044  0.8926
 6703SOL    HW231743   1.188   1.632   1.493 -1.0087  0.0221 -2.0474
 6704SOL     OW31744   4.676   3.338   1.196  0.0399 -0.0509  0.2750
 6704SOL    HW131745   4.692   3.392   1.273  1.7132  0.1080 -0.1787
 6704SOL    HW231746   4.674   3.400   1.123  0.1083  1.4016  1.5184
 6705SOL     OW31747   1.609   0.054   3.005  0.7264 -0.5225 -0.2310
 6705SOL    HW131748   1.602   0.089   3.094 -1.1563 -0.7739 -0.2920
 6705SOL    HW231749   1.592   0.127   2.945 -0.1128 -0.1051  0.5213
 6706SOL     OW31750   1.800   3.241   8.930  0.1407  0.7168  0.4802
 6706SOL    HW131751   1.789   3.222   9.023 -2.5228 -0.2171 -0.0132
 6706SOL    HW231752   1.861   3.315   8.935  1.5799 -0.4331 -0.1006
 6707SOL     OW31753   4.360   0.776   8.396  0.0999 -0.0274  0.2511
 6707SOL    HW131754   4.402   0.701   8.354 -0.0646  0.1026 -0.1509
 6707SOL    HW231755   4.289   0.790   8.334 -0.1956  1.2580  0.8849
 6708SOL     OW31756   0.832   0.556  16.208  0.3435 -0.3024 -0.2413
 6708SOL    HW131757   0.844   0.578  16.301 -1.5576  2.1235 -0.5546
 6708SOL    HW231758   0.745   0.595  16.197  0.4563  0.0582  0.1040
 6709SOL     OW31759   0.861   3.611  17.014 -0.0636  0.2505  0.2291
 6709SOL    HW131760   0.914   3.689  17.029 -0.6526  0.9844 -1.5344
 6709SOL    HW231761   0.893   3.555  17.085 -0.2521  0.2179  0.2891
 6710SOL     OW31762   0.915   1.698   5.817 -0.3188  0.4419 -0.4575
 6710SOL    HW131763   0.904   1.647   5.897 -0.7923 -0.3929 -1.0606
 6710SOL    HW231764   0.990   1.754   5.838  0.3127 -1.8553  3.3961
 6711SOL     OW31765   1.835   2.279   5.054 -0.3042 -0.4798  0.1747
 6711SOL    HW131766   1.760   2.319   5.099 -2.3504 -2.1704 -1.7633
 6711SOL    HW231767   1.832   2.193   5.096  0.4985 -0.0356  1.1418
 6712SOL     OW31768   1.204   2.068   1.813 -0.2802 -0.0276 -0.1003
 6712SOL    HW131769   1.166   2.027   1.891 -2.4739  2.0228 -0.0831
 6712SOL    HW231770   1.166   2.154   1.832 -2.2688 -0.3785 -2.5609
 6713SOL     OW31771   4.125   0.897  16.445  0.7217  0.7490 -0.7962
 6713SOL    HW131772   4.216   0.896  16.413  1.8256 -1.4144  2.4187
 6713SOL    HW231773   4.092   0.971  16.394 -0.3164  1.8457  1.4756
 6714SOL     OW31774   2.953   0.295   9.259 -0.0272  0.3803 -0.2010
 6714SOL    HW131775   2.979   0.203   9.254  0.0326  0.3230  1.0306
 6714SOL    HW231776   2.913   0.310   9.174  1.2043 -1.4546 -1.1062
 6715SOL     OW31777   0.721   0.552   3.457  0.1338 -0.0324  0.0247
 6715SOL    HW131778   0.642   0.594   3.491 -0.0924  0.4377 -1.0842
 6715SOL    HW231779   0.694   0.485   3.394  2.1787  0.9485 -1.8910
 6716SOL     OW31780   3.991   2.485   6.619  0.2370 -0.8558 -0.1668
 6716SOL    HW131781   4.067   2.530   6.581 -1.0294  1.6261  0.2364
 6716SOL    HW231782   4.006   2.397   6.583  1.4558 -0.1994 -1.2597
 6717SOL     OW31783   2.505   0.057   5.779 -0.1977  0.1437 -0.2331
 6717SOL    HW131784   2.557   4.716   5.788 -0.1077  0.1503 -0.7119
 6717SOL    HW231785   2.574   0.101   5.730  0.5414  0.9198  1.5051
 6718SOL     OW31786   3.410   1.093   6.572  0.0907 -0.2188  0.1251
 6718SOL    HW131787   3.322   1.126   6.589 -0.0308  0.1821 -1.2822
 6718SOL    HW231788   3.398   0.999   6.589 -3.1436  0.0924 -0.3539
 6719SOL     OW31789   1.903   2.637   9.874 -0.6232 -0.2944  0.0579
 6719SOL    HW131790   1.838   2.611   9.940  0.0609 -2.0311  0.0383
 6719SOL    HW231791   1.986   2.650   9.919 -0.7227 -1.0534  0.4445
 6720SOL     OW31792   0.099   2.217   4.122  0.4331 -0.2211 -0.0369
 6720SOL    HW131793   0.155   2.165   4.064 -1.2087 -2.7896  0.6663
 6720SOL    HW231794   0.117   2.176   4.207  1.1704  0.1275 -0.0326
 6721SOL     OW31795   1.184   2.905   0.546 -0.5217 -0.1136 -0.0903
 6721SOL    HW131796   1.155   2.982   0.497  0.9107  0.9840  0.8022
 6721SOL    HW231797   1.275   2.902   0.515 -0.6818  1.0038 -0.6467
 6722SOL     OW31798   0.278   3.601   3.501  0.1111 -0.4463 -0.3178
 6722SOL    HW131799   0.368   3.590   3.470  0.2403 -0.5725  0.1018
 6722SOL    HW231800   0.286   3.628   3.592 -0.8858  0.6183 -0.5513
 6723SOL     OW31801   1.698   2.296   2.268  0.0662  0.4356  0.3072
 6723SOL    HW131802   1.679   2.388   2.251  0.7336  0.4588 -0.3039
 6723SOL    HW231803   1.699   2.290   2.364  1.6924  2.0536  0.3721
 6724SOL     OW31804   3.515   1.573   2.292  0.1684  0.1020  0.2381
 6724SOL    HW131805   3.550   1.620   2.216 -1.3816  1.5236  0.3936
 6724SOL    HW231806   3.592   1.537   2.335  0.1675  2.8628  2.5976
 6725SOL     OW31807   2.807   0.775   8.306 -0.4787  0.3583 -0.8724
 6725SOL    HW131808   2.829   0.736   8.221 -2.0626 -1.6835 -0.3489
 6725SOL    HW231809   2.818   0.866   8.279 -2.3209  1.3403  1.7109
 6726SOL     OW31810   0.556   1.543   8.312 -0.1508  0.0357 -0.1602
 6726SOL    HW131811   0.632   1.596   8.286  0.7471 -1.4154 -0.4948
 6726SOL    HW231812   0.515   1.594   8.382  0.4165  0.6665 -0.2833
 6727SOL     OW31813   2.648   0.032   5.326  0.0734  0.2285  0.0161
 6727SOL    HW131814   2.671   0.041   5.418  0.8066 -1.9286  0.0283
 6727SOL    HW231815   2.721   0.084   5.294 -1.0151  2.3522  0.9585
 6728SOL     OW31816   0.250   3.385   5.576  0.0627 -0.5157  0.4825
 6728SOL    HW131817   0.283   3.400   5.664 -4.0390  0.0788  1.8990
 6728SOL    HW231818   0.155   3.399   5.576  0.1647  0.1651  0.8180
 6729SOL     OW31819   2.386   0.999   0.494  0.5658 -1.1423  0.4637
 6729SOL    HW131820   2.351   0.918   0.455  1.0574 -1.1561  0.0500
 6729SOL    HW231821   2.453   1.022   0.429 -0.1078  1.5485  0.7261
 6730SOL     OW31822   1.714   2.112   5.966 -0.2667  0.0810  0.7532
 6730SOL    HW131823   1.750   2.091   5.879 -1.5000  2.4700 -0.3522
 6730SOL    HW231824   1.709   2.023   5.999 -0.6882 -0.3394 -0.4343
 6731SOL     OW31825   4.206   1.205   8.774  0.6085 -0.2843  0.3995
 6731SOL    HW131826   4.221   1.118   8.736  0.4284  0.5427 -1.5695
 6731SOL    HW231827   4.141   1.245   8.717  1.0809 -1.5138 -0.9965
 6732SOL     OW31828   2.884   1.002   6.249  0.0759 -0.1465  0.4948
 6732SOL    HW131829   2.819   0.933   6.235 -1.0666  1.4096 -1.8192
 6732SOL    HW231830   2.865   1.051   6.169  3.0630  3.0861  1.7908
 6733SOL     OW31831   1.900   4.708   3.381 -0.3973  0.7677  0.1208
 6733SOL    HW131832   1.810   4.709   3.415  0.0645 -0.2117  1.3972
 6733SOL    HW231833   1.934   0.059   3.386  1.2460  0.1088  0.6124
 6734SOL     OW31834   1.489   0.318  12.959 -0.3011 -0.2336 -0.4666
 6734SOL    HW131835   1.496   0.397  13.012  0.2579 -0.7551  0.2367
 6734SOL    HW231836   1.554   0.267  13.007  1.4450  2.1631 -0.2939
 6735SOL     OW31837   3.421   1.608  10.085 -0.0037 -0.2479  0.2535
 6735SOL    HW131838   3.356   1.598  10.154 -1.0984  1.3978 -0.5436
 6735SOL    HW231839   3.449   1.518  10.067  1.3694 -0.3550  2.9786
 6736SOL     OW31840   0.738   3.988   1.016  0.1160 -0.0826 -0.3372
 6736SOL    HW131841   0.772   3.922   0.956  1.0299 -0.8582  1.0469
 6736SOL    HW231842   0.769   3.957   1.101  1.3481 -2.1071 -1.5234
 6737SOL     OW31843   3.597   2.421   4.827  0.5185  0.0178  0.0206
 6737SOL    HW131844   3.575   2.367   4.903  2.3237 -2.9931 -1.5942
 6737SOL    HW231845   3.621   2.358   4.759 -1.8186 -0.8401 -0.0318
 6738SOL     OW31846   0.860   0.633   5.193  0.2050  0.0301 -0.1210
 6738SOL    HW131847   0.821   0.569   5.251  1.6628  0.5506  1.4459
 6738SOL    HW231848   0.858   0.715   5.243 -2.1889 -0.6232  0.8563
 6739SOL     OW31849   3.756   2.578   6.773 -0.4288  0.0191  0.3844
 6739SOL    HW131850   3.846   2.550   6.755 -0.5176 -1.4940  2.3129
 6739SOL    HW231851   3.783   2.659   6.815 -1.1294  0.2801  0.3275
 6740SOL     OW31852   1.399   2.113   3.152  0.5554  0.3922  0.3116
 6740SOL    HW131853   1.372   2.205   3.149 -0.4295  0.1157  0.9627
 6740SOL    HW231854   1.314   2.070   3.151  1.8090 -2.0699 -1.1077
 6741SOL     OW31855   2.373   1.488   7.233  0.1433  0.5553  0.5918
 6741SOL    HW131856   2.286   1.480   7.193  1.2141 -1.6253 -1.2317
 6741SOL    HW231857   2.428   1.501   7.157  0.5068  3.3875  1.3522
 6742SOL     OW31858   1.394   4.264   6.696 -0.2216  0.2232  0.0253
 6742SOL    HW131859   1.412   4.347   6.740  1.1945 -0.3166  0.4511
 6742SOL    HW231860   1.454   4.264   6.621  0.3904 -1.2838  0.5112
 6743SOL     OW31861   4.153   0.945  14.601  0.0494 -0.3800 -0.0699
 6743SOL    HW131862   4.119   0.962  14.688 -1.1010 -2.7220 -0.0639
 6743SOL    HW231863   4.242   0.980  14.597  0.2602 -0.8139  0.9655
 6744SOL     OW31864   1.943   3.662   6.219 -0.2688  0.1344  0.6061
 6744SOL    HW131865   1.879   3.604   6.178 -2.7505  4.9181 -2.2878
 6744SOL    HW231866   2.026   3.624   6.190 -0.4210 -1.4249  2.2149
 6745SOL     OW31867   0.425   4.383   2.259 -0.3463 -0.1881 -0.4894
 6745SOL    HW131868   0.437   4.418   2.347  2.7509 -1.2663 -0.4848
 6745SOL    HW231869   0.494   4.421   2.204 -0.0852  0.1761  0.0878
 6746SOL     OW31870   1.979   2.060   5.396 -0.0139  0.3232  0.0194
 6746SOL    HW131871   2.010   2.149   5.381 -3.6302  1.4519 -0.7116
 6746SOL    HW231872   1.903   2.078   5.451  0.0508 -0.0961  0.2468
 6747SOL     OW31873   4.453   2.373   2.221 -0.6650 -0.2814  0.0850
 6747SOL    HW131874   4.432   2.466   2.234 -0.9236 -0.2482 -0.5917
 6747SOL    HW231875   4.368   2.337   2.198  0.1411 -2.6011  0.7059
 6748SOL     OW31876   2.317   0.853   5.924 -0.1504 -0.3171 -0.2938
 6748SOL    HW131877   2.259   0.817   5.991 -0.6157 -0.6764 -0.8841
 6748SOL    HW231878   2.297   0.803   5.844  0.3083 -1.5788  0.3929
 6749SOL     OW31879   2.680   2.911   8.054 -0.0913 -0.0938  0.4105
 6749SOL    HW131880   2.731   2.833   8.077  2.3002  1.6382  1.0306
 6749SOL    HW231881   2.712   2.915   7.963  2.4449  0.0817  1.3006
 6750SOL     OW31882   2.444   2.317   0.258 -0.2155 -0.0302 -0.1943
 6750SOL    HW131883   2.452   2.359   0.172 -1.1213  0.0603 -0.2375
 6750SOL    HW231884   2.367   2.264   0.235  0.3758  0.5428 -3.5156
 6751SOL     OW31885   0.460   0.553   6.574 -0.2139 -0.3030 -0.3009
 6751SOL    HW131886   0.392   0.545   6.508 -0.0642 -1.0011 -0.3656
 6751SOL    HW231887   0.484   0.646   6.581 -0.8387 -0.2333  0.8485
 6752SOL     OW31888   2.928   3.609   0.810  0.0987 -0.4003 -0.2504
 6752SOL    HW131889   2.877   3.561   0.745 -1.6669  1.3270 -0.1276
 6752SOL    HW231890   2.898   3.698   0.792  1.3673  0.4074  1.6440
 6753SOL     OW31891   0.658   0.335  12.246 -0.0918  0.8266  0.6664
 6753SOL    HW131892   0.624   0.401  12.306 -0.6936  1.9785 -0.9393
 6753SOL    HW231893   0.719   0.282  12.298  1.0577  1.2728 -0.2363
 6754SOL     OW31894   2.366   1.654   2.634 -0.3074 -0.1196  0.4247
 6754SOL    HW131895   2.337   1.580   2.581 -0.2943 -0.1052  0.3966
 6754SOL    HW231896   2.278   1.686   2.652  0.3415  1.6739  0.4749
 6755SOL     OW31897   0.225   1.317  10.224  0.2224 -0.1108  0.0461
 6755SOL    HW131898   0.194   1.406  10.204  1.3631 -0.0686 -1.5669
 6755SOL    HW231899   0.166   1.293  10.294 -3.1133  1.5160 -2.1888
 6756SOL     OW31900   1.732   4.025   8.490  0.1643 -0.1061 -0.1603
 6756SOL    HW131901   1.709   3.997   8.402  2.0142 -0.6579 -0.4732
 6756SOL    HW231902   1.691   4.111   8.482  1.3472  0.4668 -0.0529
 6757SOL     OW31903   3.832   4.057  17.340 -0.2257  0.1902  0.2672
 6757SOL    HW131904   3.849   4.151  17.330  0.0241  0.3452  2.1103
 6757SOL    HW231905   3.771   4.048  17.267 -1.6653  1.1083  1.3404
 6758SOL     OW31906   3.912   1.404   8.207 -0.0524  0.4453  0.5522
 6758SOL    HW131907   3.918   1.462   8.283 -1.5889 -0.3064  1.2417
 6758SOL    HW231908   3.948   1.321   8.239 -3.1337 -0.6069  1.3582
 6759SOL     OW31909   0.545   3.942   9.326 -0.0758 -0.7140 -0.0786
 6759SOL    HW131910   0.623   3.962   9.273 -0.5618 -0.7770 -0.8234
 6759SOL    HW231911   0.553   3.850   9.351 -0.2638 -0.0044  2.5823
 6760SOL     OW31912   2.733   0.696   1.808  0.2470  0.8950 -0.0844
 6760SOL    HW131913   2.820   0.664   1.784 -0.2826  0.0069 -0.8085
 6760SOL    HW231914   2.710   0.776   1.760  0.7722 -0.4717 -2.5982
 6761SOL     OW31915   3.363   3.931   6.433 -0.2490 -0.1145 -0.4993
 6761SOL    HW131916   3.283   3.984   6.433 -0.7928 -0.9672  2.8612
 6761SOL    HW231917   3.335   3.840   6.424 -0.3471 -0.2789  1.5101
 6762SOL     OW31918   3.835   1.402   3.913 -0.2068  0.1105 -0.4671
 6762SOL    HW131919   3.827   1.486   3.958  2.6884 -0.0072  0.2108
 6762SOL    HW231920   3.911   1.362   3.954 -0.3280  1.5787  1.2041
 6763SOL     OW31921   1.384   1.709   7.769  0.1156  0.0009  0.3723
 6763SOL    HW131922   1.393   1.761   7.849  0.5333  2.1835 -1.0869
 6763SOL    HW231923   1.291   1.729   7.766  0.2270  0.3110 -1.3897
 6764SOL     OW31924   2.326   3.172   5.478  0.3320 -0.2085 -0.0979
 6764SOL    HW131925   2.287   3.128   5.403 -4.0138  2.1108  0.8425
 6764SOL    HW231926   2.371   3.236   5.422  1.1158 -1.2773 -0.6760
 6765SOL     OW31927   4.388   1.250   1.282 -0.0139  0.4264 -0.1647
 6765SOL    HW131928   4.449   1.249   1.357  1.1089 -0.5753 -1.0842
 6765SOL    HW231929   4.412   1.334   1.244 -0.2790  1.1984  1.3400
 6766SOL     OW31930   4.309   1.678  11.733  0.4600 -0.9893 -0.8215
 6766SOL    HW131931   4.294   1.713  11.645  0.2941 -0.6482 -0.6561
 6766SOL    HW231932   4.395   1.709  11.760  0.1676 -1.1699  0.3241
 6767SOL     OW31933   3.393   2.080   2.084  0.2703  1.4555 -0.2296
 6767SOL    HW131934   3.424   2.154   2.136  0.3502  1.6920 -0.6133
 6767SOL    HW231935   3.394   2.011   2.150 -0.2877  2.4098  0.7697
 6768SOL     OW31936   0.728   3.628   1.111 -0.2731  0.5774 -0.5717
 6768SOL    HW131937   0.637   3.656   1.126 -0.9659 -1.1078 -1.6011
 6768SOL    HW231938   0.729   3.576   1.031  3.9301  1.6109 -1.1725
 6769SOL     OW31939   0.831   0.654   4.105 -0.4679 -0.1029 -0.0892
 6769SOL    HW131940   0.810   0.576   4.157  2.3304 -1.4010 -0.8660
 6769SOL    HW231941   0.887   0.605   4.044 -0.7312 -0.4917 -0.0237
 6770SOL     OW31942   2.215   4.403   1.993 -0.1210  0.0614  0.1779
 6770SOL    HW131943   2.265   4.475   2.034  0.1051 -0.0935  0.1722
 6770SOL    HW231944   2.215   4.441   1.905  0.7749  1.2614  0.6921
 6771SOL     OW31945   1.423   0.610   6.171 -0.2825 -0.0261  0.0423
 6771SOL    HW131946   1.477   0.569   6.104 -1.6665 -0.1334 -0.9979
 6771SOL    HW231947   1.383   0.533   6.211  2.6514 -0.3728  2.3289
 6772SOL     OW31948   1.573   0.308  10.476 -0.2618  0.6901  0.4905
 6772SOL    HW131949   1.500   0.306  10.538  1.9244  1.7428  3.0939
 6772SOL    HW231950   1.597   0.215  10.479 -2.6895 -0.0405 -2.1932
 6773SOL     OW31951   0.410   2.912  14.832 -0.3354  0.5210 -0.1468
 6773SOL    HW131952   0.346   2.900  14.762  0.6684 -0.2468 -0.9150
 6773SOL    HW231953   0.470   2.846  14.798 -0.1784  0.7435 -0.2982
 6774SOL     OW31954   1.528   3.481   9.408  0.5407 -0.0537 -0.7970
 6774SOL    HW131955   1.531   3.514   9.498  0.3993 -1.7800 -0.1575
 6774SOL    HW231956   1.619   3.502   9.389  0.2193  2.6628  0.7369
 6775SOL     OW31957   4.617   1.736   0.743  0.3176 -0.2347 -0.3120
 6775SOL    HW131958   4.619   1.741   0.648 -2.5123 -3.2725 -0.5678
 6775SOL    HW231959   4.525   1.756   0.762  0.3257  0.6965 -1.2535
 6776SOL     OW31960   3.697   3.071   7.580  0.0809  0.1443  0.3261
 6776SOL    HW131961   3.605   3.049   7.566  0.5794 -0.3013 -2.3237
 6776SOL    HW231962   3.689   3.146   7.638  0.1866 -0.2246  0.8136
 6777SOL     OW31963   1.567   1.400   4.671 -0.1850  0.1634  0.0817
 6777SOL    HW131964   1.611   1.442   4.597 -0.0956  1.9893  1.1793
 6777SOL    HW231965   1.638   1.391   4.734  0.4566  0.4123 -0.6112
 6778SOL     OW31966   0.304   0.404  11.209 -0.2303  0.0674  0.4838
 6778SOL    HW131967   0.298   0.489  11.253  0.3498  1.3293 -1.8988
 6778SOL    HW231968   0.385   0.376  11.253  0.6520 -0.8811 -1.7823
 6779SOL     OW31969   1.611   1.484   7.139 -0.3299 -0.8628  0.0710
 6779SOL    HW131970   1.548   1.415   7.119  0.8052 -2.1245  0.9012
 6779SOL    HW231971   1.635   1.525   7.056  0.8224 -1.0710  0.3027
 6780SOL     OW31972   0.038   0.380  16.612  0.1604  0.0106  0.5437
 6780SOL    HW131973   0.022   0.472  16.591  1.6613 -0.4742 -2.7350
 6780SOL    HW231974   0.133   0.377  16.628  0.6656  1.8669 -2.1710
 6781SOL     OW31975   1.019   2.356   6.914 -0.1614 -0.0539 -0.7825
 6781SOL    HW131976   1.011   2.337   6.821 -0.1176  0.5668 -0.9121
 6781SOL    HW231977   1.112   2.373   6.930  0.3656 -3.2059 -0.4313
 6782SOL     OW31978   1.009   1.564   5.082 -0.6032  0.1975 -0.3420
 6782SOL    HW131979   1.022   1.496   5.016  1.2000 -1.2009  1.4956
 6782SOL    HW231980   1.070   1.544   5.152 -1.3169 -2.0521 -0.3835
 6783SOL     OW31981   3.443   0.538   5.566  0.2619  0.2051  0.3471
 6783SOL    HW131982   3.356   0.560   5.597  0.5819 -0.5513  1.7789
 6783SOL    HW231983   3.418   0.465   5.510 -2.6332  1.0558  0.5396
 6784SOL     OW31984   1.251   4.631   8.118 -0.0150 -0.3826 -0.2786
 6784SOL    HW131985   1.251   4.715   8.164 -1.6130 -0.8414  0.5741
 6784SOL    HW231986   1.162   4.602   8.095 -0.2236  0.1784 -0.1845
 6785SOL     OW31987   3.421   0.089  12.014  0.6804 -0.4866 -0.2385
 6785SOL    HW131988   3.469   0.100  12.096 -0.9657  1.2103  0.4970
 6785SOL    HW231989   3.426   0.177  11.976  2.0273 -0.4305  0.0796
 6786SOL     OW31990   1.471   2.393   3.952 -0.0127  0.0114  0.0218
 6786SOL    HW131991   1.442   2.411   3.863 -0.1242  0.6142  0.1822
 6786SOL    HW231992   1.388   2.397   4.001 -1.2156 -1.1648 -1.9012
 6787SOL     OW31993   1.600   4.147   8.177  0.4283  0.9317 -0.3678
 6787SOL    HW131994   1.521   4.101   8.148  0.6292  0.0616  0.4357
 6787SOL    HW231995   1.661   4.073   8.174  0.2680  0.6622  2.5653
 6788SOL     OW31996   1.353   2.675   3.085  0.2366 -0.2873 -0.1563
 6788SOL    HW131997   1.425   2.705   3.140  1.2264 -1.2222 -0.9439
 6788SOL    HW231998   1.388   2.703   3.001  2.2353  0.7224  1.0151
 6789SOL     OW31999   4.504   1.259   9.867 -0.5054 -0.2019 -0.1035
 6789SOL    HW132000   4.539   1.347   9.878 -1.6399  0.0123  1.7633
 6789SOL    HW232001   4.495   1.233   9.959  1.6895 -3.3744 -0.7762
 6790SOL     OW32002   4.692   0.822   3.259  0.3483 -0.0467 -0.4289
 6790SOL    HW132003   0.047   0.821   3.238  0.5685  0.9762  0.5435
 6790SOL    HW232004   4.644   0.838   3.178 -3.5387  0.1365  1.9306
 6791SOL     OW32005   2.370   0.551   5.626 -0.5424 -0.3363  0.1494
 6791SOL    HW132006   2.390   0.514   5.540  1.5925  0.0717  0.4819
 6791SOL    HW232007   2.459   0.574   5.653 -0.4319 -2.0888  1.2235
 6792SOL     OW32008   3.110   3.005   4.082 -0.2383  0.3089  0.3358
 6792SOL    HW132009   3.125   2.927   4.135  2.1844  1.5034  1.3907
 6792SOL    HW232010   3.015   3.014   4.089 -0.2805  0.0687  0.0906
 6793SOL     OW32011   3.057   1.230   5.386  0.8272  0.9494  0.3642
 6793SOL    HW132012   3.026   1.259   5.471 -1.3327  1.8150 -0.7054
 6793SOL    HW232013   3.003   1.150   5.380 -0.7012  1.8745  1.9037
 6794SOL     OW32014   0.494   2.906   2.614 -0.1227  0.1225  0.0153
 6794SOL    HW132015   0.577   2.914   2.568 -0.8291  0.0085 -1.2824
 6794SOL    HW232016   0.448   2.842   2.559 -4.2584  1.5837  1.7721
 6795SOL     OW32017   2.090   2.163   9.524  0.4753  0.2003 -0.0672
 6795SOL    HW132018   2.161   2.163   9.460 -0.2446 -0.9601 -0.8662
 6795SOL    HW232019   2.125   2.093   9.580 -1.8543  0.7873  2.1929
 6796SOL     OW32020   3.638   0.486   2.820  0.0296 -0.4546 -0.2415
 6796SOL    HW132021   3.562   0.526   2.777  0.3340  0.4785  0.0914
 6796SOL    HW232022   3.623   0.393   2.801  0.7939 -0.4371 -0.9333
 6797SOL     OW32023   3.796   3.691   9.204  0.5852  0.4759  0.1515
 6797SOL    HW132024   3.713   3.739   9.195 -0.9423 -1.9187  1.1801
 6797SOL    HW232025   3.759   3.607   9.232  0.6229 -0.4904 -2.6755
 6798SOL     OW32026   1.417   3.623  14.416  0.2608 -0.2116  0.1412
 6798SOL    HW132027   1.469   3.573  14.479 -0.7583 -1.3592  0.0992
 6798SOL    HW232028   1.455   3.597  14.333 -1.1178  0.7347 -0.7808
 6799SOL     OW32029   1.282   0.637   3.467  0.7902 -0.6589  0.3257
 6799SOL    HW132030   1.251   0.558   3.509 -0.1960  0.5930  1.9439
 6799SOL    HW232031   1.279   0.692   3.545 -0.3407  0.1088 -0.2502
 6800SOL     OW32032   0.210   2.438   6.835 -0.0941  0.2331  0.4311
 6800SOL    HW132033   0.123   2.479   6.836 -0.1644  0.0647  1.3762
 6800SOL    HW232034   0.178   2.360   6.789 -0.5843  0.5063  0.3134
 6801SOL     OW32035   3.870   0.801   7.599 -0.3821  0.1803 -0.1367
 6801SOL    HW132036   3.889   0.711   7.624 -2.0300  0.1627  1.0378
 6801SOL    HW232037   3.893   0.795   7.507  1.3364  1.7820  0.1819
 6802SOL     OW32038   2.257   4.112   0.210  0.8893  0.3712 -0.2822
 6802SOL    HW132039   2.165   4.112   0.235  0.7114  1.7462 -0.9012
 6802SOL    HW232040   2.246   4.144   0.120 -0.9442 -0.9392 -0.5209
 6803SOL     OW32041   4.440   0.362   1.440 -0.3582 -0.0017  0.5109
 6803SOL    HW132042   4.444   0.317   1.355 -1.0943  2.8613 -1.0224
 6803SOL    HW232043   4.493   0.436   1.411  1.0343 -0.4792  1.9231
 6804SOL     OW32044   1.811   1.652  15.687  0.0848 -0.4151 -0.3600
 6804SOL    HW132045   1.836   1.652  15.595 -1.8634 -1.6363 -0.8844
 6804SOL    HW232046   1.825   1.744  15.709 -0.0974 -0.3382 -0.5624
 6805SOL     OW32047   0.591   4.281  12.179 -0.0626 -0.0409  0.4313
 6805SOL    HW132048   0.566   4.188  12.173 -1.5073  0.4134 -0.7577
 6805SOL    HW232049   0.683   4.270  12.202  0.5289 -0.5427 -2.0883
 6806SOL     OW32050   2.927   0.087   2.391  0.3651  0.5562  0.2045
 6806SOL    HW132051   2.962   0.023   2.453  1.2946  0.7274 -0.1442
 6806SOL    HW232052   3.005   0.136   2.366  1.0505 -1.0858 -0.9086
 6807SOL     OW32053   0.003   3.131  11.142 -0.1972 -0.1291  0.5489
 6807SOL    HW132054   4.685   3.188  11.194 -1.1409  0.6857 -1.3903
 6807SOL    HW232055   0.086   3.179  11.147 -1.0767  1.5135 -1.1267
 6808SOL     OW32056   4.456   0.055   0.910 -0.2249  0.9938  0.4198
 6808SOL    HW132057   4.551   0.064   0.902 -0.1744 -1.0553 -1.4607
 6808SOL    HW232058   4.447   4.734   0.835 -1.2714 -0.0546  1.3697
 6809SOL     OW32059   2.073   2.748   3.834  0.2806 -0.3568  0.3718
 6809SOL    HW132060   2.134   2.675   3.824 -1.6435 -1.9138  0.2031
 6809SOL    HW232061   2.068   2.742   3.930 -1.4869 -1.6543  0.2005
 6810SOL     OW32062   0.308   4.323   7.742 -0.7940  0.2744 -1.2033
 6810SOL    HW132063   0.335   4.232   7.726  0.5791  0.3221  0.7524
 6810SOL    HW232064   0.396   4.362   7.737  0.0191 -1.1848  1.5821
 6811SOL     OW32065   0.644   2.559   8.934  0.5686  0.0411  0.1469
 6811SOL    HW132066   0.702   2.620   8.889 -0.1933  1.2529  0.8133
 6811SOL    HW232067   0.687   2.476   8.913 -1.6336 -0.3806 -2.7619
 6812SOL     OW32068   3.997   4.526   8.647  0.3984 -0.5694 -0.1089
 6812SOL    HW132069   4.050   4.522   8.728 -1.9859 -1.1791  1.4055
 6812SOL    HW232070   3.970   4.617   8.634 -0.1705 -0.6595  0.4474
 6813SOL     OW32071   0.829   4.711  15.932  0.2059 -0.0598 -0.0637
 6813SOL    HW132072   0.765   4.641  15.939 -0.6684  0.7469  0.0420
 6813SOL    HW232073   0.889   4.680  16.000 -1.3656 -2.2248  0.3482
 6814SOL     OW32074   2.826   1.768   7.677 -0.0585  0.5707  0.1065
 6814SOL    HW132075   2.740   1.729   7.662  0.1865  0.6807 -1.5301
 6814SOL    HW232076   2.849   1.710   7.750  1.5162 -2.3497 -2.7154
 6815SOL     OW32077   0.211   1.732  10.905  0.0043 -0.4623 -0.1239
 6815SOL    HW132078   0.125   1.768  10.881  1.0973  0.6605 -2.3529
 6815SOL    HW232079   0.200   1.715  10.998 -1.3988  0.4581 -0.1217
 6816SOL     OW32080   2.311   0.190  16.679 -0.0451 -0.3885 -0.5576
 6816SOL    HW132081   2.375   0.222  16.742 -2.9521 -3.0792  3.7409
 6816SOL    HW232082   2.230   0.188  16.729  0.7113  2.7720  0.7771
 6817SOL     OW32083   2.757   1.071  11.793 -0.3692  0.0626 -0.0443
 6817SOL    HW132084   2.748   1.158  11.754  0.8070  1.4252  2.6919
 6817SOL    HW232085   2.753   1.018  11.714  1.7968  1.7682 -1.2924
 6818SOL     OW32086   2.234   0.303  17.049 -0.3215  0.2242  0.2253
 6818SOL    HW132087   2.172   0.309  17.121 -0.6670  2.0832 -0.2339
 6818SOL    HW232088   2.187   0.241  16.993  1.6974 -0.6676 -0.5191
 6819SOL     OW32089   4.711   3.486  12.528 -0.1424 -0.3194  0.0388
 6819SOL    HW132090   4.702   3.429  12.604 -1.2892  0.0143  0.1497
 6819SOL    HW232091   4.649   3.437  12.474 -1.9769  2.8623 -0.7095
 6820SOL     OW32092   0.684   2.680   3.374 -0.3208 -0.2020 -0.1722
 6820SOL    HW132093   0.727   2.612   3.426  0.0512  0.2626  0.1273
 6820SOL    HW232094   0.594   2.648   3.375 -0.0388 -1.0252 -0.6376
 6821SOL     OW32095   2.720   0.869   5.898  0.4077  0.5173  0.1379
 6821SOL    HW132096   2.666   0.900   5.970  1.8862  1.5097  0.8328
 6821SOL    HW232097   2.784   0.816   5.946 -1.0433 -0.0057  1.4575
 6822SOL     OW32098   2.552   2.242   5.915 -0.0752 -0.1505  0.4837
 6822SOL    HW132099   2.463   2.209   5.924  0.1116 -0.2848  1.8572
 6822SOL    HW232100   2.560   2.311   5.980  1.4596 -0.3849  0.5413
 6823SOL     OW32101   0.132   3.701  12.469 -0.6015  0.7324 -0.1529
 6823SOL    HW132102   0.181   3.735  12.544 -1.1196 -1.3843  1.1454
 6823SOL    HW232103   0.075   3.629  12.497 -0.3851  1.1606  1.3705
 6824SOL     OW32104   4.085   2.046   2.793  0.4942  0.5086 -0.1112
 6824SOL    HW132105   4.117   1.984   2.859 -1.8282  1.0960  1.5803
 6824SOL    HW232106   4.050   1.991   2.723  1.9491  1.2607 -1.4121
 6825SOL     OW32107   2.438   2.923   3.786  0.4405 -0.1259 -0.0227
 6825SOL    HW132108   2.391   2.909   3.868 -1.3101 -0.8709 -1.1418
 6825SOL    HW232109   2.489   2.842   3.781  0.2558 -0.1864 -0.9771
 6826SOL     OW32110   2.613   3.403  17.602  0.2923 -0.9575 -0.3590
 6826SOL    HW132111   2.529   3.376  17.565 -0.3250  3.2570 -1.9897
 6826SOL    HW232112   2.661   3.323  17.582  0.4437 -1.3024  1.3434
 6827SOL     OW32113   2.189   4.077   3.670  0.4895  0.2570 -0.3981
 6827SOL    HW132114   2.093   4.073   3.669  0.6192 -4.0215  1.5817
 6827SOL    HW232115   2.203   4.090   3.764 -1.4435 -0.7732  0.0537
 6828SOL     OW32116   4.052   3.181  12.587 -0.0249  0.1151  0.5200
 6828SOL    HW132117   4.115   3.248  12.559 -0.0680 -1.0233 -2.3180
 6828SOL    HW232118   4.102   3.100  12.573 -0.4163  0.0421 -0.5216
 6829SOL     OW32119   3.188   2.791   8.487 -0.1406 -0.4553 -0.4195
 6829SOL    HW132120   3.142   2.860   8.440 -1.0463 -1.1745 -0.5922
 6829SOL    HW232121   3.151   2.706   8.463  0.4422 -0.6869 -0.5108
 6830SOL     OW32122   0.451   2.204  16.873  0.1578  0.0608  0.2277
 6830SOL    HW132123   0.466   2.201  16.778 -0.3706  0.4021  0.1323
 6830SOL    HW232124   0.479   2.115  16.894  0.3013 -0.4777 -2.2005
 6831SOL     OW32125   2.139   2.514   2.872 -0.3281  0.2792 -0.1024
 6831SOL    HW132126   2.092   2.496   2.791  0.1029 -1.7781  0.0869
 6831SOL    HW232127   2.143   2.426   2.911  2.3887  1.2206  1.7808
 6832SOL     OW32128   0.497   3.323   2.340 -0.2663  0.1670  0.3690
 6832SOL    HW132129   0.493   3.229   2.354 -0.8844  0.1081 -0.1706
 6832SOL    HW232130   0.424   3.354   2.394 -0.9217 -1.1425  0.2313
 6833SOL     OW32131   1.568   0.796   4.096 -0.5298  0.0878 -0.0878
 6833SOL    HW132132   1.617   0.720   4.129  0.5657  0.5283 -0.7100
 6833SOL    HW232133   1.547   0.844   4.176 -0.6421 -0.6479  0.3305
 6834SOL     OW32134   3.269   3.150   4.779 -0.0230 -0.6575 -0.0333
 6834SOL    HW132135   3.276   3.201   4.860 -1.9757  0.6618 -0.6780
 6834SOL    HW232136   3.326   3.078   4.806  1.8761  0.5036 -0.8919
 6835SOL     OW32137   1.932   3.397   7.424  0.5075 -0.0726 -0.4521
 6835SOL    HW132138   1.983   3.316   7.422  0.5360 -0.0956  0.9593
 6835SOL    HW232139   1.999   3.462   7.442 -0.8844  1.7443 -1.8977
 6836SOL     OW32140   0.087   1.858   7.426  0.4156 -0.1266 -0.1737
 6836SOL    HW132141   4.735   1.886   7.435 -0.0922 -2.2835  1.4631
 6836SOL    HW232142   0.097   1.870   7.331 -0.2948 -1.8669 -0.4729
 6837SOL     OW32143   3.700   0.438   8.908 -0.4494 -0.5214  0.0912
 6837SOL    HW132144   3.621   0.427   8.960 -0.5851  1.3530  0.2840
 6837SOL    HW232145   3.766   0.385   8.952  0.6238 -1.1275 -2.2450
 6838SOL     OW32146   0.791   3.369   8.246 -0.1674 -0.0824  0.1326
 6838SOL    HW132147   0.708   3.342   8.206  0.0101 -0.0133 -0.2817
 6838SOL    HW232148   0.847   3.294   8.228  0.9867  1.0082 -0.8404
 6839SOL     OW32149   0.481   0.365   3.539 -0.1082  0.0081  0.0427
 6839SOL    HW132150   0.476   0.269   3.537  0.3287 -0.0343  0.8728
 6839SOL    HW232151   0.553   0.372   3.601  0.0268  0.6777 -0.1899
 6840SOL     OW32152   0.188   3.399   4.831 -0.7371 -1.0216 -0.1530
 6840SOL    HW132153   0.237   3.374   4.753  0.4931 -0.0366  0.3070
 6840SOL    HW232154   0.254   3.451   4.876 -0.9404 -1.0510  0.1805
 6841SOL     OW32155   0.056   0.309  14.609 -0.7272  0.2998 -0.1949
 6841SOL    HW132156   0.057   0.217  14.581  0.2523 -0.4646  2.4211
 6841SOL    HW232157   0.037   0.355  14.527  0.6669 -1.6683 -1.6554
 6842SOL     OW32158   1.141   3.897   9.447 -0.1719  0.3643 -0.4519
 6842SOL    HW132159   1.205   3.949   9.495 -1.8193  0.6934  1.3649
 6842SOL    HW232160   1.180   3.811   9.462 -1.8587 -0.4781 -0.9269
 6843SOL     OW32161   0.519   1.732   8.061  0.2798  0.0865 -0.4423
 6843SOL    HW132162   0.600   1.742   8.009  1.5581 -0.0930  1.5158
 6843SOL    HW232163   0.510   1.808   8.118 -2.5343 -0.8200  0.3077
 6844SOL     OW32164   4.656   3.328   3.194 -0.3875  0.1391  0.1258
 6844SOL    HW132165   4.703   3.263   3.141  1.1570 -0.1195  1.7945
 6844SOL    HW232166   4.708   3.320   3.274  3.0541  0.0568 -2.0886
 6845SOL     OW32167   1.395   3.230   2.776  0.3800 -0.3490  0.4568
 6845SOL    HW132168   1.310   3.273   2.783  0.8748  0.8120 -0.6128
 6845SOL    HW232169   1.453   3.299   2.809  3.6791 -1.9970 -1.9332
 6846SOL     OW32170   4.177   0.752   3.260  0.2207  0.0342 -0.6336
 6846SOL    HW132171   4.129   0.683   3.306 -1.2623  0.3885 -1.6181
 6846SOL    HW232172   4.240   0.695   3.217  0.4474 -1.2948  1.4985
 6847SOL     OW32173   3.368   0.341   9.256  0.2785  0.1024 -0.1637
 6847SOL    HW132174   3.444   0.307   9.303  2.1304  1.0700 -2.3880
 6847SOL    HW232175   3.389   0.336   9.162 -2.4186 -2.3598 -0.6187
 6848SOL     OW32176   1.849   1.514   2.894 -0.5420 -0.2451  0.1869
 6848SOL    HW132177   1.768   1.468   2.915 -1.4538  1.3007  0.0485
 6848SOL    HW232178   1.843   1.600   2.936  0.3745  0.0674 -0.3095
 6849SOL     OW32179   3.862   4.310   6.431 -0.6440  0.1864 -0.4190
 6849SOL    HW132180   3.839   4.333   6.521  1.7498  1.2528 -0.0721
 6849SOL    HW232181   3.778   4.323   6.387 -1.9365  2.0768  2.5912
 6850SOL     OW32182   4.454   1.002   7.762  0.3546  0.0590  0.2533
 6850SOL    HW132183   4.543   0.972   7.746  0.2322 -0.5901  0.8320
 6850SOL    HW232184   4.420   0.915   7.780 -0.5300  0.3492  0.0332
 6851SOL     OW32185   2.830   2.238   1.010 -0.5715 -0.0815  0.6462
 6851SOL    HW132186   2.841   2.236   1.105  0.3439 -0.5876  0.5351
 6851SOL    HW232187   2.757   2.298   0.997  0.7491  0.8934 -2.3067
 6852SOL     OW32188   1.853   3.777   1.718 -0.5415  0.0624  0.0728
 6852SOL    HW132189   1.935   3.743   1.683 -0.2254  0.8654  0.0321
 6852SOL    HW232190   1.874   3.803   1.808 -1.0819  0.7255  0.0079
 6853SOL     OW32191   4.265   1.456   2.930 -0.3495 -0.5144 -0.5542
 6853SOL    HW132192   4.326   1.469   3.003  0.0867  0.4648 -1.0854
 6853SOL    HW232193   4.184   1.459   2.980  0.6146  0.0520  0.9793
 6854SOL     OW32194   1.728   2.425   2.620 -0.4521 -0.1947 -0.3284
 6854SOL    HW132195   1.719   2.513   2.658  0.5737 -1.1055  2.0612
 6854SOL    HW232196   1.660   2.382   2.672 -2.5782  2.6467 -0.7656
 6855SOL     OW32197   1.874   1.466   2.253  0.1289  0.2589  0.4282
 6855SOL    HW132198   1.883   1.558   2.275 -3.1025  0.7919 -0.5756
 6855SOL    HW232199   1.787   1.454   2.290 -1.6823  0.2514 -3.8482
 6856SOL     OW32200   3.446   3.030   9.560  0.0136 -0.6291 -0.3170
 6856SOL    HW132201   3.439   2.952   9.615  0.6346 -0.5890 -0.1798
 6856SOL    HW232202   3.479   3.097   9.621  1.4215  0.3509 -2.1586
 6857SOL     OW32203   0.719   2.522   5.310  0.0741  0.5073  0.4262
 6857SOL    HW132204   0.693   2.442   5.356 -0.8301  0.9987  0.7654
 6857SOL    HW232205   0.797   2.490   5.265 -0.8264 -0.7140 -0.2645
 6858SOL     OW32206   3.531   0.594   0.562  0.2151 -0.4397  0.5310
 6858SOL    HW132207   3.589   0.542   0.617  0.7494  0.8685  1.1977
 6858SOL    HW232208   3.583   0.607   0.483 -0.9255  2.1581  0.2194
 6859SOL     OW32209   4.575   4.713  16.939  0.1481  0.5349  0.1070
 6859SOL    HW132210   4.654   0.022  16.966 -1.3864  2.8324  0.5673
 6859SOL    HW232211   4.570   4.721  16.843 -2.7552 -0.0228  0.2298
 6860SOL     OW32212   2.015   4.631   4.342 -0.2949  0.2155  0.2484
 6860SOL    HW132213   1.980   4.546   4.369  0.7278 -0.0738  0.6537
 6860SOL    HW232214   1.937   4.686   4.356 -0.6915 -0.7196  1.6687
 6861SOL     OW32215   3.723   3.447   6.089  0.1830  0.2425 -0.1545
 6861SOL    HW132216   3.762   3.523   6.134 -0.1926  0.7776 -0.7403
 6861SOL    HW232217   3.638   3.442   6.132  0.2142 -1.7875 -0.3110
 6862SOL     OW32218   3.334   2.660   3.915  0.2611  0.0258 -0.3683
 6862SOL    HW132219   3.353   2.753   3.902 -0.4776 -0.2098 -3.1837
 6862SOL    HW232220   3.269   2.649   3.846 -1.5484  2.0370  1.0384
 6863SOL     OW32221   4.305   0.185   9.259 -0.4533 -0.5959  0.5809
 6863SOL    HW132222   4.292   0.276   9.284 -0.0396 -1.2789  3.2680
 6863SOL    HW232223   4.310   0.190   9.163  3.8616  0.0933  0.8246
 6864SOL     OW32224   1.582   0.180   3.242 -0.3917  0.0018  1.0240
 6864SOL    HW132225   1.498   0.195   3.284 -1.7858  0.6292 -2.0424
 6864SOL    HW232226   1.617   0.269   3.242 -0.3037 -0.0381 -0.9439
 6865SOL     OW32227   3.539   4.066   5.904 -0.1447 -0.2761 -0.2396
 6865SOL    HW132228   3.601   4.008   5.860  1.6642  0.4187  1.3849
 6865SOL    HW232229   3.597   4.138   5.928 -0.7450 -0.0081  0.4142
 6866SOL     OW32230   0.700   0.934   9.560  0.5308 -0.1625  0.1361
 6866SOL    HW132231   0.694   0.997   9.488  0.9120  1.5508  1.5955
 6866SOL    HW232232   0.750   0.987   9.623 -0.8465 -0.2272  1.2892
 6867SOL     OW32233   4.694   2.271   7.462  0.8535  0.4802 -0.2807
 6867SOL    HW132234   0.040   2.241   7.429  1.5711 -0.5114  2.4500
 6867SOL    HW232235   4.674   2.236   7.549  1.8672 -0.8001 -0.5820
 6868SOL     OW32236   4.490   2.983  11.655 -0.1151 -0.4380  1.2564
 6868SOL    HW132237   4.449   3.062  11.621 -1.0107 -1.2566  0.4231
 6868SOL    HW232238   4.486   2.934  11.573  2.8299 -0.8519  1.3500
 6869SOL     OW32239   2.894   3.022   1.969  0.1030 -0.1542 -0.0561
 6869SOL    HW132240   2.834   2.994   2.037 -0.2455  0.3410 -0.1607
 6869SOL    HW232241   2.839   3.031   1.891 -0.9841 -0.8627  0.6256
 6870SOL     OW32242   0.063   2.288   6.282  0.6090 -0.2993  0.7532
 6870SOL    HW132243   0.005   2.319   6.213  1.0265 -2.6268 -0.6404
 6870SOL    HW232244   0.099   2.371   6.314 -1.3523  0.7947  0.0959
 6871SOL     OW32245   4.208   3.502   3.442 -0.2263  0.6445  0.5506
 6871SOL    HW132246   4.235   3.514   3.351 -2.3650 -1.0160 -0.3070
 6871SOL    HW232247   4.290   3.509   3.491 -0.3349  1.3885  0.6280
 6872SOL     OW32248   4.341   3.145   5.756 -0.6481  0.2954 -0.5386
 6872SOL    HW132249   4.342   3.141   5.852 -1.9698  0.4330 -0.5115
 6872SOL    HW232250   4.405   3.210   5.728 -1.5517  0.5573 -1.9653
 6873SOL     OW32251   4.369   2.025   9.323 -0.1747 -0.1021  0.8099
 6873SOL    HW132252   4.427   2.007   9.396  1.1634  1.8755  0.2276
 6873SOL    HW232253   4.402   1.952   9.270  0.7038 -0.7866  2.3202
 6874SOL     OW32254   2.999   0.241  15.977  0.2510 -0.0358 -0.6103
 6874SOL    HW132255   2.941   0.291  15.920 -1.3463  0.7066  1.6692
 6874SOL    HW232256   2.997   0.296  16.055 -0.0675  0.2282 -0.8078
 6875SOL     OW32257   0.786   3.568   5.384  0.2255 -0.7126  0.1456
 6875SOL    HW132258   0.874   3.551   5.420  0.4057 -0.2981 -0.0989
 6875SOL    HW232259   0.775   3.488   5.333 -0.2407 -0.0480 -0.7838
 6876SOL     OW32260   1.976   2.170   4.017 -0.0621  0.5774  0.0953
 6876SOL    HW132261   1.961   2.225   4.094  0.7863  2.2180 -0.9139
 6876SOL    HW232262   2.069   2.170   3.994  0.2992  0.3490  1.5153
 6877SOL     OW32263   1.049   0.613   7.721 -0.6312 -0.4799 -0.4569
 6877SOL    HW132264   1.085   0.559   7.791 -2.3453  0.5115  1.1799
 6877SOL    HW232265   1.123   0.605   7.661  0.5878  0.0577  0.9918
 6878SOL     OW32266   4.646   2.575   4.999 -0.5871 -0.1131 -0.2163
 6878SOL    HW132267   4.625   2.668   4.988 -0.9809  0.0502  1.9317
 6878SOL    HW232268   4.576   2.557   5.062  0.4460 -2.1934  0.3178
 6879SOL     OW32269   4.254   4.207   7.302 -0.1609  0.4450 -0.4598
 6879SOL    HW132270   4.211   4.131   7.263 -1.0284  0.5698  0.2583
 6879SOL    HW232271   4.325   4.166   7.352 -1.7161 -1.6810  0.0021
 6880SOL     OW32272   1.538   3.017   4.137  0.2595 -0.5326 -0.2586
 6880SOL    HW132273   1.528   3.109   4.112 -0.2663 -0.9300 -1.4979
 6880SOL    HW232274   1.611   2.992   4.081  1.3461  0.2314  0.8127
 6881SOL     OW32275   1.445   2.805  15.308 -0.3829  0.1131 -0.0859
 6881SOL    HW132276   1.467   2.715  15.285 -1.1523 -0.4713  1.4569
 6881SOL    HW232277   1.414   2.846  15.227 -3.4077  0.9481  1.4749
 6882SOL     OW32278   0.956   3.249  11.462 -0.2934  0.0750  0.8766
 6882SOL    HW132279   0.989   3.161  11.483 -1.9817 -0.6955  0.2951
 6882SOL    HW232280   0.899   3.257  11.538  1.0043  1.0346  1.7480
 6883SOL     OW32281   0.180   2.216   6.704  0.5777 -0.0358  0.4501
 6883SOL    HW132282   0.100   2.188   6.659  1.4368  0.1132 -1.1642
 6883SOL    HW232283   0.223   2.135   6.733 -0.8002 -1.1000 -0.4576
 6884SOL     OW32284   0.963   1.549  13.471 -0.1441  1.0530  0.7173
 6884SOL    HW132285   0.976   1.561  13.377  0.4289  0.0234  0.6574
 6884SOL    HW232286   1.029   1.604  13.513 -0.7907  0.0892  2.9752
 6885SOL     OW32287   3.512   2.729  14.455  0.4852 -0.0245  0.5219
 6885SOL    HW132288   3.464   2.647  14.465 -0.3235  0.5341  1.2213
 6885SOL    HW232289   3.592   2.685  14.427 -0.1066 -0.0959 -1.0763
 6886SOL     OW32290   0.400   3.686  14.210 -0.1407 -0.3236  0.4647
 6886SOL    HW132291   0.346   3.705  14.287 -2.3716  0.4585 -1.2840
 6886SOL    HW232292   0.477   3.640  14.244 -0.0101  0.7865  1.6512
 6887SOL     OW32293   4.028   2.020  12.533 -0.4154 -0.1278  0.3735
 6887SOL    HW132294   4.075   2.011  12.615  0.0876  1.6627  0.2728
 6887SOL    HW232295   4.076   1.960  12.476 -0.9805 -0.7050  0.4976
 6888SOL     OW32296   0.150   1.312   7.377 -0.9135 -0.3758  0.1876
 6888SOL    HW132297   0.240   1.301   7.346 -0.9546  0.1535 -0.1249
 6888SOL    HW232298   0.154   1.404   7.404 -1.3887  0.1413 -1.4984
 6889SOL     OW32299   3.295   1.124   2.732 -0.5071 -0.0733 -0.4012
 6889SOL    HW132300   3.280   1.216   2.750  2.0936  0.2027  0.4007
 6889SOL    HW232301   3.322   1.134   2.641 -1.9434  1.4539 -0.6484
 6890SOL     OW32302   1.945   0.478   1.100  0.2272 -0.0353  0.1462
 6890SOL    HW132303   2.021   0.434   1.139  0.0087  1.0518  1.7710
 6890SOL    HW232304   1.975   0.565   1.074  0.2319  0.1647  0.8232
 6891SOL     OW32305   1.180   3.511   3.942  0.1012  0.7267  0.1529
 6891SOL    HW132306   1.112   3.556   3.892 -0.3235  1.7309  1.6471
 6891SOL    HW232307   1.185   3.562   4.023  1.3121  0.8595  0.0043
 6892SOL     OW32308   2.787   0.948  13.243 -0.0008  0.4575 -0.0259
 6892SOL    HW132309   2.842   0.923  13.317  1.2728 -0.9982 -1.4672
 6892SOL    HW232310   2.708   0.976  13.289 -0.6148  1.8806 -1.9086
 6893SOL     OW32311   0.076   1.087   2.485 -0.2068 -0.1209  0.4297
 6893SOL    HW132312   4.730   1.051   2.512  0.8283 -2.7864  0.1084
 6893SOL    HW232313   0.052   1.178   2.468  3.2277  0.7909  0.5246
 6894SOL     OW32314   4.718   3.692   3.189  0.0165 -0.1532  0.5197
 6894SOL    HW132315   0.016   3.749   3.257 -2.3744  0.0368  1.6097
 6894SOL    HW232316   4.672   3.757   3.137  1.5728  0.7439  0.2522
 6895SOL     OW32317   0.055   0.624   1.159 -0.2667 -0.0791 -0.4892
 6895SOL    HW132318   0.003   0.561   1.209  0.8264  0.2724  1.0893
 6895SOL    HW232319   4.737   0.646   1.084  0.4850  0.8035 -0.8047
 6896SOL     OW32320   3.307   4.737   5.333 -0.6156 -0.2988 -0.9743
 6896SOL    HW132321   3.295   4.722   5.240 -1.4139  2.3664 -1.3095
 6896SOL    HW232322   3.355   4.659   5.362 -0.9512  0.6362  2.0859
 6897SOL     OW32323   0.557   2.183   3.512  0.3197  0.0982  0.2194
 6897SOL    HW132324   0.481   2.240   3.520 -0.6043 -0.7194 -2.9869
 6897SOL    HW232325   0.577   2.188   3.419  1.1479  1.6191  0.4786
 6898SOL     OW32326   0.225   2.433   0.268 -0.3794  0.4897  0.1743
 6898SOL    HW132327   0.188   2.471   0.347  0.3561  0.8342  0.3507
 6898SOL    HW232328   0.227   2.513   0.216 -1.0995  1.5646  1.8082
 6899SOL     OW32329   1.476   3.290   4.064 -0.2542 -0.0932  0.4641
 6899SOL    HW132330   1.402   3.295   4.004  0.5366  1.1670 -0.3799
 6899SOL    HW232331   1.497   3.383   4.060  1.2812 -0.3912  1.3877
 6900SOL     OW32332   3.876   2.553   3.008  0.1004  0.0193 -0.0741
 6900SOL    HW132333   3.951   2.528   2.954  0.0701 -0.6721  0.1963
 6900SOL    HW232334   3.872   2.647   2.993 -0.0316 -0.0376 -0.3915
 6901SOL     OW32335   3.803   4.188   7.760 -0.0267  0.3847  0.0722
 6901SOL    HW132336   3.720   4.190   7.807  0.3921  3.5045  0.6708
 6901SOL    HW232337   3.867   4.235   7.813  2.5376 -2.4354 -0.4989
 6902SOL     OW32338   3.054   3.210  11.537  0.0623 -0.6591 -0.0748
 6902SOL    HW132339   3.014   3.290  11.504 -0.4856 -0.9371 -0.0756
 6902SOL    HW232340   3.100   3.255  11.608 -3.6668 -1.2330  2.6623
 6903SOL     OW32341   3.447   3.288   1.462 -0.9904 -0.6655  0.1626
 6903SOL    HW132342   3.406   3.248   1.538 -0.8676  0.2407  0.7086
 6903SOL    HW232343   3.373   3.304   1.403  0.2456  0.4834 -1.0762
 6904SOL     OW32344   2.331   2.875   7.302  0.4755 -0.4883  0.8453
 6904SOL    HW132345   2.367   2.866   7.213  1.6066  4.0872  0.8579
 6904SOL    HW232346   2.255   2.816   7.299 -1.5791  2.2721 -1.8546
 6905SOL     OW32347   0.983   0.670   8.573 -0.2274 -0.5813 -0.0682
 6905SOL    HW132348   1.068   0.692   8.611 -0.8976  2.9138 -0.5682
 6905SOL    HW232349   0.940   0.756   8.580 -1.6021 -1.0740 -2.3150
 6906SOL     OW32350   4.288   2.212   3.692  0.3685  0.6326 -0.5518
 6906SOL    HW132351   4.259   2.124   3.668  0.3696  0.5890 -0.3989
 6906SOL    HW232352   4.230   2.267   3.640  1.4582 -1.9119 -4.4265
 6907SOL     OW32353   1.501   2.666  10.675 -0.0229  0.2973 -0.0006
 6907SOL    HW132354   1.474   2.639  10.587  0.4844 -0.6623  0.1413
 6907SOL    HW232355   1.538   2.580  10.693  0.0727  0.3321 -0.0331
 6908SOL     OW32356   2.681   4.415   2.284 -0.7743 -0.6351 -0.0043
 6908SOL    HW132357   2.663   4.451   2.371  1.5232 -1.5102  0.8351
 6908SOL    HW232358   2.690   4.497   2.235  1.5295  0.1672  1.7666
 6909SOL     OW32359   3.761   2.680   8.626 -0.1271 -0.4248 -1.1057
 6909SOL    HW132360   3.673   2.716   8.638 -0.9521 -3.0670  0.8093
 6909SOL    HW232361   3.747   2.586   8.616  2.4179 -0.8861 -0.4355
 6910SOL     OW32362   4.529   3.709   0.148 -0.5079 -0.1249  0.2612
 6910SOL    HW132363   4.459   3.773   0.163 -0.4344  0.2049 -0.7635
 6910SOL    HW232364   4.503   3.677   0.062  0.1424  1.1679 -0.4214
 6911SOL     OW32365   1.059   2.271   4.580  0.2796 -0.1792 -0.2851
 6911SOL    HW132366   1.011   2.191   4.598  0.9831 -0.9374 -1.7097
 6911SOL    HW232367   1.094   2.259   4.491 -2.4654 -1.5162 -1.1838
 6912SOL     OW32368   3.284   3.921   6.857  0.4743 -0.4691  0.6703
 6912SOL    HW132369   3.231   3.959   6.786  1.3278 -2.0583 -0.8244
 6912SOL    HW232370   3.312   4.003   6.895 -1.4959  0.1066  0.9101
 6913SOL     OW32371   4.286   0.871   4.679  0.1626 -0.3223  0.4902
 6913SOL    HW132372   4.360   0.923   4.648 -0.1493 -0.5188 -0.5632
 6913SOL    HW232373   4.217   0.920   4.634 -0.6642  0.5651  2.7174
 6914SOL     OW32374   1.400   0.548   5.557  0.0890  0.0324 -0.3132
 6914SOL    HW132375   1.308   0.558   5.533  0.1940  0.4435 -0.5467
 6914SOL    HW232376   1.416   0.469   5.506 -1.4300  1.7836 -3.5093
 6915SOL     OW32377   0.126   3.824   9.805 -0.2746 -0.0869 -0.9754
 6915SOL    HW132378   0.075   3.786   9.734  0.6041 -2.0694 -0.5487
 6915SOL    HW232379   0.154   3.749   9.857  0.7412 -0.0065 -1.4133
 6916SOL     OW32380   2.548   1.262   7.954 -0.0851  0.2245  0.5996
 6916SOL    HW132381   2.607   1.315   8.008  1.3635 -1.8203  1.0224
 6916SOL    HW232382   2.600   1.191   7.917 -0.1923  0.0396  0.8034
 6917SOL     OW32383   1.332   2.500  15.457 -0.4141 -0.1933 -0.4884
 6917SOL    HW132384   1.364   2.564  15.521 -0.3522 -1.4354  0.7275
 6917SOL    HW232385   1.407   2.493  15.398  1.3155  2.3091  1.4346
 6918SOL     OW32386   3.116   3.311   5.447  0.2131 -0.0267 -0.1736
 6918SOL    HW132387   3.178   3.376   5.481 -0.5664  0.0926  1.0028
 6918SOL    HW232388   3.051   3.361   5.398 -1.3389 -1.2676  0.6372
 6919SOL     OW32389   3.430   2.923   2.288  0.2469 -0.0523 -0.0846
 6919SOL    HW132390   3.521   2.910   2.264  0.0348 -0.3651 -0.7163
 6919SOL    HW232391   3.428   3.018   2.279  0.1396 -0.0898 -0.4490
 6920SOL     OW32392   0.166   3.356  15.150  0.5688  0.4357  0.2809
 6920SOL    HW132393   0.172   3.361  15.246  0.2012  1.4015  0.2456
 6920SOL    HW232394   0.127   3.269  15.141 -0.1210  0.8462 -0.7027
 6921SOL     OW32395   2.714   3.861  11.177 -0.1907 -0.5882  0.2900
 6921SOL    HW132396   2.675   3.878  11.092  0.7326 -0.1977 -0.0587
 6921SOL    HW232397   2.804   3.856  11.145  0.0655 -0.4588  0.9749
 6922SOL     OW32398   1.716   1.647   5.114 -0.5356 -0.7513 -0.2509
 6922SOL    HW132399   1.723   1.709   5.186  1.4669 -1.6539  0.3349
 6922SOL    HW232400   1.803   1.649   5.075  0.0338  0.3539  1.0854
 6923SOL     OW32401   3.924   3.862   1.710 -0.2083 -0.5555 -0.2038
 6923SOL    HW132402   3.964   3.876   1.624  0.0815  0.1265  0.0427
 6923SOL    HW232403   3.833   3.840   1.688 -0.3627 -0.4013  0.2898
 6924SOL     OW32404   3.008   3.492   5.219 -0.4640  0.0883 -0.4223
 6924SOL    HW132405   3.039   3.552   5.150 -1.1006  0.9568  0.0546
 6924SOL    HW232406   3.009   3.404   5.181  1.5437 -0.3169  0.6057
 6925SOL     OW32407   0.289   4.363   9.705  0.0716  0.6130 -0.0773
 6925SOL    HW132408   0.299   4.336   9.796  1.3346  0.2512 -0.3218
 6925SOL    HW232409   0.321   4.296   9.644  4.1383  2.0216  0.4701
 6926SOL     OW32410   1.210   0.989   7.069 -0.0610 -0.1521  0.1478
 6926SOL    HW132411   1.130   0.979   7.120  0.9149  0.8005  1.8638
 6926SOL    HW232412   1.206   1.080   7.039 -0.9694  0.8218  3.2014
 6927SOL     OW32413   3.835   2.360   8.917  0.5658  0.3766  0.4485
 6927SOL    HW132414   3.772   2.290   8.933  0.2695  0.9184  1.6192
 6927SOL    HW232415   3.851   2.388   9.007  1.0915 -0.8173  0.7274
 6928SOL     OW32416   3.088   4.431   3.785  0.7655 -0.0910 -0.0039
 6928SOL    HW132417   3.144   4.491   3.735 -1.8535  1.0990 -1.5443
 6928SOL    HW232418   3.017   4.416   3.722  0.7482 -1.4245  0.3367
 6929SOL     OW32419   0.799   2.173   1.860 -0.0069 -0.2044  0.0111
 6929SOL    HW132420   0.832   2.085   1.875  1.5395  0.0222 -2.0537
 6929SOL    HW232421   0.856   2.229   1.913  1.5724 -0.1473 -1.7478
 6930SOL     OW32422   1.776   2.345   9.000 -0.4963 -0.9464 -0.2350
 6930SOL    HW132423   1.706   2.335   8.936  0.2748 -0.9875 -1.0664
 6930SOL    HW232424   1.728   2.297   9.067 -1.6692  0.8678  0.2318
 6931SOL     OW32425   2.271   2.402   6.246 -0.1634  0.7012  0.0254
 6931SOL    HW132426   2.361   2.375   6.262 -0.1416 -0.3873 -2.0546
 6931SOL    HW232427   2.240   2.393   6.336  0.0575  0.9266  0.1237
 6932SOL     OW32428   0.308   3.277  16.963 -0.0259 -0.2025  0.2025
 6932SOL    HW132429   0.265   3.308  16.883  0.9712  0.4551 -0.0820
 6932SOL    HW232430   0.282   3.184  16.962  6.0629 -1.9021  0.7198
 6933SOL     OW32431   1.103   0.741  12.843  0.0197  0.0399  0.4618
 6933SOL    HW132432   1.126   0.791  12.765 -1.4232  2.3723  1.5467
 6933SOL    HW232433   1.038   0.675  12.819  0.7196  0.5103 -2.7643
 6934SOL     OW32434   1.104   3.863   1.819 -0.3437  0.1073 -0.1657
 6934SOL    HW132435   1.085   3.807   1.895 -0.9102  1.7694  0.9051
 6934SOL    HW232436   1.119   3.795   1.753 -0.5473 -0.9115  0.8214
 6935SOL     OW32437   1.487   1.722   3.923 -0.0289  0.0791 -0.3450
 6935SOL    HW132438   1.435   1.797   3.953 -0.6954 -1.7493  3.0711
 6935SOL    HW232439   1.574   1.755   3.945 -0.5880  1.9995 -1.0281
 6936SOL     OW32440   0.391   3.120   4.442 -0.1849 -0.3226 -0.0563
 6936SOL    HW132441   0.480   3.083   4.441 -1.1508 -2.6314 -1.2327
 6936SOL    HW232442   0.354   3.086   4.361 -1.6815 -1.7545  1.2352
 6937SOL     OW32443   1.879   2.589   2.985  0.3473 -0.3669 -0.1847
 6937SOL    HW132444   1.964   2.633   2.991 -0.1712  0.8199 -1.4800
 6937SOL    HW232445   1.900   2.527   3.055  0.3125 -2.2361 -1.8482
 6938SOL     OW32446   3.528   1.117  16.060  0.5392  0.3102  0.0941
 6938SOL    HW132447   3.618   1.085  16.060  0.4508  0.0511  0.8709
 6938SOL    HW232448   3.506   1.123  16.153  1.3341 -1.4763  0.3975
 6939SOL     OW32449   4.078   0.138  10.359  0.2155 -0.2447  0.2151
 6939SOL    HW132450   4.040   0.209  10.308 -1.0737  1.0933  3.0062
 6939SOL    HW232451   4.115   0.188  10.432  2.6224 -1.4586 -0.1922
 6940SOL     OW32452   4.079   2.680   3.743 -0.1406 -0.2344  0.3360
 6940SOL    HW132453   4.065   2.725   3.660 -0.6547  0.6917  0.9253
 6940SOL    HW232454   4.001   2.675   3.797 -1.1280 -0.6583 -1.1363
 6941SOL     OW32455   3.403   2.147   7.271 -0.5081  0.0383  0.1046
 6941SOL    HW132456   3.415   2.131   7.177  0.9771 -1.2897  0.5225
 6941SOL    HW232457   3.329   2.087   7.285 -0.4990 -0.2929 -1.2242
 6942SOL     OW32458   4.261   2.974   8.622 -0.2280 -0.2575  0.0675
 6942SOL    HW132459   4.303   3.049   8.581  1.3836 -0.8470  0.6190
 6942SOL    HW232460   4.185   2.954   8.567 -0.6657 -0.7951  0.8667
 6943SOL     OW32461   3.524   3.574   4.536  0.0846 -0.1329 -0.0516
 6943SOL    HW132462   3.556   3.576   4.626  1.3487  2.7116 -0.5635
 6943SOL    HW232463   3.488   3.486   4.529 -2.0134  0.8669 -2.2358
 6944SOL     OW32464   1.154   3.144   0.119  0.4214  0.2264  0.0177
 6944SOL    HW132465   1.171   3.055   0.090 -1.2678 -0.6946  1.7998
 6944SOL    HW232466   1.079   3.180   0.071  0.8823  0.6842 -0.3530
 6945SOL     OW32467   4.500   3.144   1.460 -0.3382 -0.3404 -0.0040
 6945SOL    HW132468   4.595   3.140   1.468 -0.4504 -0.0012  1.4443
 6945SOL    HW232469   4.484   3.233   1.428  1.6581 -1.0369 -2.9607
 6946SOL     OW32470   2.440   0.521   5.156 -0.3808 -0.0145  0.9968
 6946SOL    HW132471   2.420   0.428   5.145  3.4102 -0.6384 -0.6420
 6946SOL    HW232472   2.356   0.552   5.123  0.7799  1.2484 -0.7597
 6947SOL     OW32473   4.086   3.052   3.813  0.5076 -0.1895 -0.0177
 6947SOL    HW132474   4.035   3.096   3.746  0.1643  0.2457  0.5286
 6947SOL    HW232475   4.056   2.963   3.797  0.7456 -0.1540 -0.6649
 6948SOL     OW32476   0.093   0.633   6.576 -0.1059  0.0986 -0.3640
 6948SOL    HW132477   0.161   0.624   6.510  0.8705 -1.6920  0.9012
 6948SOL    HW232478   0.132   0.591   6.653 -0.3153  0.8087  0.1326
 6949SOL     OW32479   3.494   4.337  14.078  0.0400  0.0689  0.1666
 6949SOL    HW132480   3.431   4.402  14.110  0.3476  1.5603 -2.2381
 6949SOL    HW232481   3.535   4.390  14.009 -0.4883 -1.9640 -1.7029
 6950SOL     OW32482   1.122   1.451  12.387  0.2078  0.0897  0.5483
 6950SOL    HW132483   1.129   1.429  12.480 -0.2874 -0.1718  0.5242
 6950SOL    HW232484   1.174   1.530  12.395 -0.2315  0.4758 -0.4605
 6951SOL     OW32485   0.759   4.650   6.098 -0.2369 -0.5931  0.9520
 6951SOL    HW132486   0.850   4.665   6.074 -0.2928  1.0204  1.7389
 6951SOL    HW232487   0.744   4.560   6.068  1.3856  0.1239 -1.9864
 6952SOL     OW32488   0.326   0.237   7.087  0.1312  0.4851  0.6393
 6952SOL    HW132489   0.349   0.166   7.027  0.6249  0.8252  0.4298
 6952SOL    HW232490   0.410   0.237   7.132  0.5706  0.6484 -0.1865
 6953SOL     OW32491   4.539   2.715   4.200  0.2275 -0.1210 -0.2447
 6953SOL    HW132492   4.453   2.705   4.159  0.6011 -1.5602 -0.6979
 6953SOL    HW232493   4.564   2.801   4.167 -1.8306  0.5283 -0.0832
 6954SOL     OW32494   4.337   1.074  10.185 -0.3259 -0.5166 -0.2862
 6954SOL    HW132495   4.364   1.164  10.205  0.0427 -1.1886  2.2266
 6954SOL    HW232496   4.424   1.035  10.182 -0.9515 -2.0396  1.5202
 6955SOL     OW32497   3.044   3.821   2.860  0.5829  0.3881  0.7759
 6955SOL    HW132498   3.100   3.745   2.877 -0.1128 -0.0866  0.9335
 6955SOL    HW232499   3.055   3.878   2.936  0.5931 -0.0784  1.1227
 6956SOL     OW32500   1.932   0.263   8.213  0.0937 -0.2477  0.2735
 6956SOL    HW132501   1.916   0.177   8.173  0.3044  0.1921 -0.7356
 6956SOL    HW232502   1.863   0.320   8.181  0.3704 -1.0730 -1.7715
 6957SOL     OW32503   0.860   0.218   1.111  0.3930 -0.2826  0.3804
 6957SOL    HW132504   0.800   0.210   1.038  1.3483 -1.4226 -0.2737
 6957SOL    HW232505   0.902   0.133   1.104  2.6373  0.8827 -0.4976
 6958SOL     OW32506   4.483   1.953   9.536  0.4242  0.3485 -0.8801
 6958SOL    HW132507   4.574   1.948   9.567  0.1141  2.3761  0.3814
 6958SOL    HW232508   4.437   1.918   9.612 -0.2760  2.4355 -0.3351
 6959SOL     OW32509   0.188   2.341   7.913  0.4726 -0.9414  0.0087
 6959SOL    HW132510   0.270   2.307   7.949  1.8688 -0.1357 -2.4161
 6959SOL    HW232511   0.152   2.400   7.979 -0.7998 -1.7513  0.0281
 6960SOL     OW32512   2.246   1.378   6.044 -0.5300 -0.3245 -0.4289
 6960SOL    HW132513   2.266   1.468   6.019  0.2878 -0.1369  0.8843
 6960SOL    HW232514   2.161   1.383   6.001 -1.5108  1.7544  1.6700
 6961SOL     OW32515   1.171   4.260  12.529  0.1512  0.2015  0.0091
 6961SOL    HW132516   1.123   4.211  12.463 -0.5841 -1.6606  1.9320
 6961SOL    HW232517   1.254   4.271  12.483 -0.7705  0.1732 -1.6469
 6962SOL     OW32518   1.149   3.059  15.096  0.5253 -0.6230 -0.8733
 6962SOL    HW132519   1.057   3.039  15.079 -0.1174  0.7563  0.9943
 6962SOL    HW232520   1.157   3.147  15.060 -3.2477  0.9598  2.1889
 6963SOL     OW32521   1.070   2.002   7.419 -0.3160 -0.2546 -0.3416
 6963SOL    HW132522   1.148   1.949   7.433  0.4152  0.5174 -1.5102
 6963SOL    HW232523   1.027   1.968   7.340  0.6376 -1.7024 -0.2120
 6964SOL     OW32524   3.281   1.113  17.027 -0.5667  0.7916  0.2574
 6964SOL    HW132525   3.267   1.199  16.986 -1.5282  0.6100  0.2040
 6964SOL    HW232526   3.287   1.131  17.121  1.8922 -2.1487  0.6493
 6965SOL     OW32527   0.833   1.612  16.574 -0.2375 -0.5934 -0.4646
 6965SOL    HW132528   0.901   1.679  16.563 -1.4411  1.1017  2.3535
 6965SOL    HW232529   0.887   1.533  16.568  1.1360  0.3425 -0.4190
 6966SOL     OW32530   2.244   0.142  11.624  0.2620  0.2173 -0.2258
 6966SOL    HW132531   2.216   0.057  11.591 -2.0777  0.9593 -0.1533
 6966SOL    HW232532   2.188   0.205  11.578 -1.3332  0.0070  1.4226
 6967SOL     OW32533   0.966   3.510   3.425  0.1988 -0.6474 -0.0147
 6967SOL    HW132534   1.061   3.527   3.421 -0.2893  2.2827  0.8869
 6967SOL    HW232535   0.964   3.418   3.399 -0.9044 -0.0259 -2.0905
 6968SOL     OW32536   1.789   1.841   9.271  0.4141 -0.5369  0.2727
 6968SOL    HW132537   1.801   1.763   9.216  0.2579  0.1623 -0.7449
 6968SOL    HW232538   1.759   1.788   9.345  1.6609 -0.8627  0.5469
 6969SOL     OW32539   0.365   3.870   1.703  0.7909  0.4069  0.0346
 6969SOL    HW132540   0.334   3.841   1.789 -1.1814  0.5273 -0.6496
 6969SOL    HW232541   0.280   3.895   1.668  0.3457 -0.1907  0.6912
 6970SOL     OW32542   4.010   1.364   3.060  0.6882 -0.2093 -0.1428
 6970SOL    HW132543   4.022   1.415   3.140 -1.1702 -0.3224  0.2070
 6970SOL    HW232544   4.065   1.287   3.077  2.6094  1.2816  0.3853
 6971SOL     OW32545   2.926   0.494  13.371  0.1014 -0.0446  0.0125
 6971SOL    HW132546   2.934   0.405  13.406  1.3397 -0.2072 -0.6528
 6971SOL    HW232547   3.012   0.491  13.327 -0.2055  1.5788 -0.7025
 6972SOL     OW32548   1.808   3.059   9.757  0.2024  0.4350  0.4261
 6972SOL    HW132549   1.850   2.982   9.719  0.5527  0.1198  1.4488
 6972SOL    HW232550   1.820   3.128   9.692 -1.9877 -0.8836 -1.3738
 6973SOL     OW32551   1.737   0.317   4.392  0.3931  0.2665  0.4090
 6973SOL    HW132552   1.827   0.310   4.363 -0.3392 -1.9662 -1.3667
 6973SOL    HW232553   1.714   0.264   4.469  1.6578 -0.1986  0.4604
 6974SOL     OW32554   3.160   1.184   3.124  0.3148  0.0361  0.4444
 6974SOL    HW132555   3.082   1.197   3.069  0.1268  0.0442  0.7131
 6974SOL    HW232556   3.124   1.157   3.208 -0.5462  2.0252  0.7191
 6975SOL     OW32557   1.631   4.354  11.556  0.3017  0.5872 -0.1291
 6975SOL    HW132558   1.564   4.358  11.624  2.1643  2.2034  1.6048
 6975SOL    HW232559   1.682   4.431  11.584  0.0128  0.7354 -0.0117
 6976SOL     OW32560   0.113   3.208   7.053  0.1128  0.8722 -0.3342
 6976SOL    HW132561   0.148   3.265   7.121  0.9442  1.4935 -1.2690
 6976SOL    HW232562   0.188   3.153   7.035  1.5580  2.8129 -0.2235
 6977SOL     OW32563   0.706   3.646   8.347 -0.2793  0.1719 -0.0329
 6977SOL    HW132564   0.757   3.575   8.308 -0.0865  0.2806  0.0239
 6977SOL    HW232565   0.617   3.613   8.357  0.3534 -1.5250 -0.0681
 6978SOL     OW32566   1.397   1.455   4.946  0.0706  0.1572  0.5544
 6978SOL    HW132567   1.405   1.396   4.871 -0.1856 -0.5352  1.0733
 6978SOL    HW232568   1.345   1.521   4.900  0.1592  1.3572  2.1806
 6979SOL     OW32569   2.474   2.071  12.790  0.0755  0.2731  0.1625
 6979SOL    HW132570   2.495   2.130  12.863  0.7394 -0.4892  0.5948
 6979SOL    HW232571   2.553   2.083  12.738 -1.1145  0.3271 -1.6305
 6980SOL     OW32572   2.708   2.877   3.618  0.1353  0.4061 -0.6116
 6980SOL    HW132573   2.783   2.874   3.678  0.5841 -0.4497 -1.2121
 6980SOL    HW232574   2.746   2.866   3.530 -1.4153 -0.8247 -1.1264
 6981SOL     OW32575   4.065   0.990   3.884  0.9307 -0.3820 -0.1122
 6981SOL    HW132576   4.077   0.948   3.969  1.8979 -0.2355 -0.1674
 6981SOL    HW232577   4.156   1.012   3.864  1.1746 -2.0103 -0.7210
 6982SOL     OW32578   3.233   4.114   7.131 -0.2651 -0.5727 -0.6392
 6982SOL    HW132579   3.225   4.069   7.215 -1.9834  1.1187  0.1010
 6982SOL    HW232580   3.316   4.089   7.092  1.3076  1.5114  1.3444
 6983SOL     OW32581   1.155   2.896   4.026  0.8507 -0.3993  0.5018
 6983SOL    HW132582   1.136   2.944   3.945  1.3862 -1.7668 -0.4431
 6983SOL    HW232583   1.194   2.819   3.984 -0.7653 -1.1619  0.3960
 6984SOL     OW32584   3.811   0.345   0.595  0.1858 -0.1178  0.1321
 6984SOL    HW132585   3.869   0.401   0.647  1.4569 -0.1277 -1.2788
 6984SOL    HW232586   3.822   0.380   0.507 -3.1013  2.6284  0.8319
 6985SOL     OW32587   3.141   0.555   1.859 -0.6070 -0.0897 -0.6370
 6985SOL    HW132588   3.142   0.625   1.924 -2.9200 -0.4536 -0.2311
 6985SOL    HW232589   3.075   0.594   1.802 -0.7538 -0.0379 -0.4298
 6986SOL     OW32590   4.721   1.171   9.744 -0.4291 -0.1781 -0.2418
 6986SOL    HW132591   4.644   1.212   9.784  0.3903  0.1543  0.9782
 6986SOL    HW232592   4.714   1.080   9.771  2.9442 -1.0291 -2.2319
 6987SOL     OW32593   1.613   3.982   5.717 -0.2461 -0.4992  0.0966
 6987SOL    HW132594   1.690   3.930   5.693 -0.5207 -0.8105 -0.1115
 6987SOL    HW232595   1.658   4.043   5.775  0.6251 -0.8023 -0.2658
 6988SOL     OW32596   0.108   0.087   4.080 -0.1331 -0.2666 -0.4437
 6988SOL    HW132597   0.030   0.031   4.082  2.0443 -3.1941  1.7606
 6988SOL    HW232598   0.118   0.124   3.992 -2.7714 -0.0796 -0.6513
 6989SOL     OW32599   0.520   4.338   4.435  0.4209 -0.3490 -0.3353
 6989SOL    HW132600   0.431   4.306   4.418 -0.3495  1.9996 -0.6537
 6989SOL    HW232601   0.496   4.418   4.482 -0.8188 -0.7332 -0.3189
 6990SOL     OW32602   3.877   2.471   3.586  0.2293 -0.2390 -0.5703
 6990SOL    HW132603   3.807   2.526   3.550  0.2844 -0.6193 -1.2499
 6990SOL    HW232604   3.848   2.457   3.676  0.9430 -0.4458 -0.3766
 6991SOL     OW32605   2.880   2.437  17.238 -0.2601  0.0050 -0.2348
 6991SOL    HW132606   2.802   2.490  17.220  0.5605  1.2413 -0.2178
 6991SOL    HW232607   2.952   2.501  17.233 -1.1938  1.0801  0.1141
 6992SOL     OW32608   2.053   3.151   8.617  0.0130  0.5928 -0.2021
 6992SOL    HW132609   1.978   3.110   8.661  0.6091 -0.2308  0.0433
 6992SOL    HW232610   2.117   3.141   8.688 -1.3756  1.0521  1.1151
 6993SOL     OW32611   0.564   4.474  17.323 -0.5611 -0.6051 -0.0091
 6993SOL    HW132612   0.648   4.490  17.366  0.2453  0.7978 -2.1321
 6993SOL    HW232613   0.587   4.388  17.288 -0.5734 -0.5093 -0.2544
 6994SOL     OW32614   3.427   0.595   2.665 -0.0597  0.1329  0.0930
 6994SOL    HW132615   3.338   0.600   2.631 -0.2560 -0.9164  0.4579
 6994SOL    HW232616   3.468   0.557   2.587 -1.6961 -1.7323  0.1756
 6995SOL     OW32617   4.661   1.901   2.751 -0.7300  0.2277 -0.1872
 6995SOL    HW132618   4.690   1.820   2.793 -1.6061  0.4254  0.7865
 6995SOL    HW232619   0.004   1.952   2.756 -1.2977  1.3777 -2.3551
 6996SOL     OW32620   2.352   4.615   6.823  0.9711  0.1096 -0.4461
 6996SOL    HW132621   2.368   4.571   6.906 -0.4001 -1.6491 -1.1096
 6996SOL    HW232622   2.296   4.687   6.853  2.9836  1.7750 -0.7201
 6997SOL     OW32623   4.733   3.189   4.490 -0.5943 -0.2335  0.3794
 6997SOL    HW132624   4.666   3.135   4.448 -1.8546  0.8134  1.0381
 6997SOL    HW232625   4.733   3.269   4.437 -1.4038  0.3214  1.2008
 6998SOL     OW32626   4.324   4.542   8.518  0.5319 -0.3389  0.5014
 6998SOL    HW132627   4.330   4.608   8.450  0.2701 -0.0340  0.7758
 6998SOL    HW232628   4.333   4.463   8.464  0.1112 -0.8382  1.1574
 6999SOL     OW32629   4.500   4.613   7.456  0.5132 -0.4403 -0.2885
 6999SOL    HW132630   4.507   4.658   7.371  0.6980  1.2615  0.6340
 6999SOL    HW232631   4.584   4.631   7.499  1.1467 -1.5625 -1.0366
 7000SOL     OW32632   3.353   0.997   5.044  0.1151  0.2943  0.8118
 7000SOL    HW132633   3.304   1.079   5.035 -1.4164 -0.7835 -0.6532
 7000SOL    HW232634   3.280   0.937   5.060  0.6066 -0.3441  0.6774
 7001SOL     OW32635   1.474   3.735   8.822  0.2240  0.4523 -0.2885
 7001SOL    HW132636   1.541   3.689   8.771  2.2621  2.2421  0.7444
 7001SOL    HW232637   1.461   3.802   8.756  0.8995  1.4160  0.5597
 7002SOL     OW32638   0.908   2.581   5.506 -0.4714 -0.1389  0.4801
 7002SOL    HW132639   0.905   2.676   5.518 -1.3617 -0.1204  0.1010
 7002SOL    HW232640   0.830   2.563   5.454  0.4185 -3.9067  0.4015
 7003SOL     OW32641   3.333   0.269   5.624 -0.1693  0.5344  0.3925
 7003SOL    HW132642   3.262   0.328   5.598  0.8301  0.7028 -1.9650
 7003SOL    HW232643   3.283   0.191   5.648  0.9322 -0.0863  0.6244
 7004SOL     OW32644   4.672   2.857  11.182  0.4126  0.2657 -0.0710
 7004SOL    HW132645   4.617   2.882  11.108  1.7512  2.8457 -0.1753
 7004SOL    HW232646   4.721   2.938  11.191  0.7628  0.0622 -0.1146
 7005SOL     OW32647   1.655   4.130  15.621  0.3797  0.4870 -0.1156
 7005SOL    HW132648   1.626   4.140  15.712  1.1087  0.5914  0.1078
 7005SOL    HW232649   1.609   4.052  15.590  0.3790 -0.6322  2.6806
 7006SOL     OW32650   2.466   3.015  10.611 -0.9564 -0.0750  0.6270
 7006SOL    HW132651   2.521   2.999  10.687 -1.5574 -1.8614  0.7041
 7006SOL    HW232652   2.522   3.054  10.544 -1.2858  0.1080  0.4535
 7007SOL     OW32653   4.045   3.600   2.121 -0.6572  0.4588  0.3994
 7007SOL    HW132654   4.003   3.649   2.051 -2.2154  0.3103  1.2490
 7007SOL    HW232655   3.972   3.562   2.169  0.5390 -2.1577  0.1467
 7008SOL     OW32656   2.542   2.083   9.090  0.1357 -0.5292  0.0964
 7008SOL    HW132657   2.459   2.130   9.097  0.2415 -0.4731  0.9361
 7008SOL    HW232658   2.598   2.135   9.148 -0.7632  0.3078  0.2121
 7009SOL     OW32659   3.477   2.289   9.924  0.4573 -0.3536 -0.0087
 7009SOL    HW132660   3.478   2.342   9.844  1.9544  1.5105  1.2664
 7009SOL    HW232661   3.464   2.198   9.896  0.5685 -0.2094 -0.5302
 7010SOL     OW32662   3.570   3.741   6.363  0.4699 -0.0890 -0.5031
 7010SOL    HW132663   3.511   3.757   6.289 -2.7664 -2.7194  1.4935
 7010SOL    HW232664   3.561   3.647   6.373 -0.8010  0.0847 -0.0057
 7011SOL     OW32665   2.040   3.087   2.429  0.1009  0.4565 -0.2544
 7011SOL    HW132666   2.112   3.024   2.430  0.2972  0.7030  0.6331
 7011SOL    HW232667   1.968   3.036   2.465  0.0319  1.5701  1.1769
 7012SOL     OW32668   0.970   1.400   3.673 -0.4833 -0.1397  0.7488
 7012SOL    HW132669   1.028   1.324   3.666  1.0859  1.0536  0.8985
 7012SOL    HW232670   1.028   1.465   3.712  1.2861 -1.2579 -0.0159
 7013SOL     OW32671   2.680   3.821   8.919  0.2396 -0.1710  0.1997
 7013SOL    HW132672   2.723   3.895   8.961  0.2084  0.6846 -1.2836
 7013SOL    HW232673   2.602   3.822   8.974  1.0197  1.4276  1.2488
 7014SOL     OW32674   4.079   1.117  16.260 -0.5922  0.2149  0.2344
 7014SOL    HW132675   4.131   1.193  16.235 -2.1806  1.2017 -0.0898
 7014SOL    HW232676   4.010   1.164  16.308 -0.2371 -3.0262  3.9340
 7015SOL     OW32677   0.944   3.866   3.325 -0.0664  0.2874 -0.8421
 7015SOL    HW132678   0.937   3.836   3.235 -1.9836 -0.0737 -0.5691
 7015SOL    HW232679   0.874   3.932   3.328 -1.5921 -1.2426 -3.1686
 7016SOL     OW32680   2.120   2.676   6.954  0.0227 -0.3752 -0.1218
 7016SOL    HW132681   2.034   2.710   6.928 -0.1665 -1.1703 -0.5325
 7016SOL    HW232682   2.170   2.690   6.873  0.5435  0.2639  0.3120
 7017SOL     OW32683   1.916   1.795   6.377 -0.2170 -0.1147  0.2390
 7017SOL    HW132684   1.846   1.740   6.412  0.8095 -1.8228 -0.3764
 7017SOL    HW232685   1.986   1.782   6.440  0.3365  1.3673 -0.0819
 7018SOL     OW32686   4.238   3.672   4.554  0.0591  0.5205 -0.5488
 7018SOL    HW132687   4.284   3.618   4.488  0.3367 -1.8891  1.6137
 7018SOL    HW232688   4.292   3.750   4.558  2.3991 -1.0159 -2.0477
 7019SOL     OW32689   2.769   0.217   4.340 -0.5972  0.1182 -0.0089
 7019SOL    HW132690   2.702   0.197   4.405  0.6854  0.2853  1.3652
 7019SOL    HW232691   2.836   0.245   4.402  1.1251 -4.2129  0.0652
 7020SOL     OW32692   3.449   0.834   6.952 -0.0764  0.3713  0.2942
 7020SOL    HW132693   3.458   0.785   6.870  0.2452  0.6297  0.1770
 7020SOL    HW232694   3.469   0.918   6.910  1.7739 -0.0737  0.2592
 7021SOL     OW32695   2.334   0.062   2.994  0.1249  0.4250  0.3543
 7021SOL    HW132696   2.281   0.036   3.069 -1.3112  2.0193 -0.1094
 7021SOL    HW232697   2.270   0.123   2.957 -1.4773  0.6042  3.4123
 7022SOL     OW32698   4.333   2.615   3.776  0.2974  0.6239 -0.1139
 7022SOL    HW132699   4.364   2.680   3.713 -0.3743  0.0381 -1.0445
 7022SOL    HW232700   4.239   2.630   3.768  0.0276 -1.3879 -0.8370
 7023SOL     OW32701   4.114   4.207  17.547  0.3453 -0.3429  0.2110
 7023SOL    HW132702   4.092   4.221  17.455 -1.0633  4.3600  1.2268
 7023SOL    HW232703   4.039   4.254  17.585  0.3596 -0.3217  0.2130
 7024SOL     OW32704   0.582   3.118   6.915 -0.0450  0.6074  0.6599
 7024SOL    HW132705   0.595   3.024   6.900  0.1393  0.8358 -0.6361
 7024SOL    HW232706   0.599   3.156   6.829 -2.9732  2.6683  1.0004
 7025SOL     OW32707   4.341   3.498   4.375 -0.4184 -0.5802  0.6467
 7025SOL    HW132708   4.367   3.411   4.344  0.1694  0.2579 -1.2048
 7025SOL    HW232709   4.284   3.522   4.302  0.0283  0.3179  0.5994
 7026SOL     OW32710   2.255   3.582   7.266 -0.0969 -0.7173 -0.2259
 7026SOL    HW132711   2.325   3.648   7.271  0.9491 -1.7594 -1.1069
 7026SOL    HW232712   2.222   3.582   7.355 -0.3750 -0.2320 -0.3258
 7027SOL     OW32713   0.437   0.960   1.250 -0.3111  0.2675 -0.4895
 7027SOL    HW132714   0.461   1.038   1.200  1.4120 -0.6827 -1.1665
 7027SOL    HW232715   0.342   0.960   1.237 -0.2974 -0.4822 -0.5903
 7028SOL     OW32716   4.211   4.719   5.436  0.3247  0.7887 -0.3564
 7028SOL    HW132717   4.241   4.717   5.527 -0.6274 -1.5881 -0.0864
 7028SOL    HW232718   4.256   4.638   5.412 -1.0040  0.2204 -0.9376
 7029SOL     OW32719   1.649   3.245   1.903  0.2512 -1.2236 -0.1678
 7029SOL    HW132720   1.611   3.278   1.822  2.1370  1.9622  0.2295
 7029SOL    HW232721   1.586   3.284   1.965  1.6262  1.0151 -0.1680
 7030SOL     OW32722   0.968   4.440  13.020 -0.2094  0.1983  0.2174
 7030SOL    HW132723   0.965   4.396  13.105  2.6797 -1.0111 -0.2926
 7030SOL    HW232724   1.037   4.503  13.042 -0.2992 -0.2658  1.8181
 7031SOL     OW32725   3.970   3.136   3.275 -0.1217 -0.8632 -0.0101
 7031SOL    HW132726   3.975   3.212   3.334  0.5010  1.1663 -2.6491
 7031SOL    HW232727   3.994   3.185   3.196 -1.7135 -0.7151 -0.4005
 7032SOL     OW32728   3.908   0.797  10.475  0.4517  0.4199 -0.1472
 7032SOL    HW132729   3.899   0.771  10.566  1.5018 -1.6031 -0.6282
 7032SOL    HW232730   3.814   0.807  10.460  0.2629 -1.7928 -0.4041
 7033SOL     OW32731   1.271   4.363   4.986 -0.1099 -0.2557  0.0746
 7033SOL    HW132732   1.298   4.448   4.951  0.3409 -0.9742 -1.3452
 7033SOL    HW232733   1.356   4.321   4.997 -0.9089 -2.3901 -1.9287
 7034SOL     OW32734   1.013   1.262   9.726 -0.5763  0.7091 -0.0045
 7034SOL    HW132735   1.022   1.181   9.776  0.8672 -0.0115 -1.4416
 7034SOL    HW232736   0.957   1.308   9.788 -1.2127 -1.3243  0.9238
 7035SOL     OW32737   2.152   4.609  13.626 -0.1877  0.1009 -0.5775
 7035SOL    HW132738   2.099   4.549  13.573 -1.4517 -0.8066  1.6929
 7035SOL    HW232739   2.239   4.593  13.590  1.1745  0.4048  2.5980
 7036SOL     OW32740   1.054   2.117  17.455 -0.3353 -0.9304 -0.0576
 7036SOL    HW132741   1.048   2.212  17.453 -1.4109 -1.0752 -3.3782
 7036SOL    HW232742   1.011   2.093  17.373 -0.2428 -0.9328 -0.1054
 7037SOL     OW32743   3.237   4.424  14.786  0.4933  0.8485 -0.1890
 7037SOL    HW132744   3.201   4.383  14.708  0.8854 -3.2049  1.7357
 7037SOL    HW232745   3.208   4.515  14.789 -0.6506  0.4871 -0.6042
 7038SOL     OW32746   2.862   0.687   4.117 -0.2260  0.0953  0.9005
 7038SOL    HW132747   2.771   0.715   4.103 -0.8036 -0.6829  3.1971
 7038SOL    HW232748   2.851   0.594   4.139 -3.1243 -0.5944 -3.3325
 7039SOL     OW32749   2.083   1.188   7.512 -0.1384 -0.0461 -0.3134
 7039SOL    HW132750   2.070   1.216   7.603 -1.9577  0.5261 -0.7287
 7039SOL    HW232751   2.168   1.222   7.485  0.1348 -1.0653 -0.7222
 7040SOL     OW32752   4.686   3.033   0.091  0.1103  0.7782 -0.0286
 7040SOL    HW132753   4.696   3.128   0.104 -0.7776  1.2163 -2.4747
 7040SOL    HW232754   4.709   3.014   0.000  0.6539 -2.3781  0.7847
 7041SOL     OW32755   3.372   2.610   1.247 -0.1784  0.3444 -0.3665
 7041SOL    HW132756   3.442   2.577   1.305 -0.6145  1.3024  0.7126
 7041SOL    HW232757   3.354   2.694   1.288 -0.7470 -0.1523  0.4096
 7042SOL     OW32758   0.769   2.689  12.841 -0.5750  0.0643  0.1817
 7042SOL    HW132759   0.858   2.690  12.875 -0.6415  2.8258  0.2256
 7042SOL    HW232760   0.722   2.750  12.898  1.9178  2.5507 -0.4750
 7043SOL     OW32761   2.680   3.424   9.252 -0.8819 -0.2459  0.3046
 7043SOL    HW132762   2.770   3.426   9.218 -1.6818 -0.2195 -1.8549
 7043SOL    HW232763   2.644   3.464   9.172 -0.1040 -0.1435  0.0029
 7044SOL     OW32764   4.090   2.727   9.324  0.0471 -0.1685 -0.0997
 7044SOL    HW132765   4.028   2.699   9.256 -1.5994  3.1449  0.0625
 7044SOL    HW232766   4.158   2.761   9.265 -0.6548  0.9910 -0.2286
 7045SOL     OW32767   0.591   3.293  17.055 -0.4173  0.3873  0.1916
 7045SOL    HW132768   0.555   3.275  16.969  1.9710  0.5759 -0.8550
 7045SOL    HW232769   0.523   3.272  17.119 -0.9160  1.3178 -0.0358
 7046SOL     OW32770   0.135   2.939  11.491  0.0910  0.2477 -0.2901
 7046SOL    HW132771   0.071   2.875  11.523  1.1692 -0.3127  0.7210
 7046SOL    HW232772   0.225   2.916  11.513 -0.3556 -2.2992 -1.0949
 7047SOL     OW32773   4.186   3.954   6.747 -0.5625  0.1866 -0.3324
 7047SOL    HW132774   4.214   3.997   6.828  1.5562 -1.2410 -0.3272
 7047SOL    HW232775   4.139   4.030   6.712  2.4450  3.1342  2.0648
 7048SOL     OW32776   0.252   1.939   3.337  0.2529 -0.0607 -0.2076
 7048SOL    HW132777   0.330   1.983   3.371  1.9589 -2.9752 -0.3037
 7048SOL    HW232778   0.213   2.020   3.305  1.2664  0.4628 -0.1174
 7049SOL     OW32779   2.434   2.527   8.719  0.3714  0.7627  0.0339
 7049SOL    HW132780   2.420   2.477   8.638 -3.4990 -0.7897  1.6564
 7049SOL    HW232781   2.359   2.585   8.722 -0.0085  0.2808 -0.1345
 7050SOL     OW32782   0.518   1.074   6.902 -0.7768  0.2604 -0.1169
 7050SOL    HW132783   0.472   1.029   6.972  0.7413 -1.9089 -0.5140
 7050SOL    HW232784   0.476   1.027   6.830 -1.9768  0.6222  0.3582
 7051SOL     OW32785   4.212   4.637   0.662 -0.4976  0.0843  0.4280
 7051SOL    HW132786   4.275   4.639   0.591 -1.8012 -1.9754 -0.7876
 7051SOL    HW232787   4.259   4.588   0.730 -0.9170 -2.5789 -1.1929
 7052SOL     OW32788   2.489   2.433   5.314  0.0739 -0.2634 -0.4603
 7052SOL    HW132789   2.462   2.454   5.225 -2.2457 -1.0916  0.0392
 7052SOL    HW232790   2.494   2.521   5.351  1.4376 -0.6892  0.3701
 7053SOL     OW32791   0.368   4.345   3.448 -0.3952  0.0174  0.2889
 7053SOL    HW132792   0.387   4.439   3.439  0.2298 -0.3084 -1.6135
 7053SOL    HW232793   0.281   4.342   3.489  0.2035 -1.1405  1.4624
 7054SOL     OW32794   1.845   2.014   9.072 -0.0391 -0.3304  0.0324
 7054SOL    HW132795   1.938   2.022   9.051 -0.2022 -0.9704 -0.9567
 7054SOL    HW232796   1.835   1.922   9.100  1.2489 -0.0803  1.3197
 7055SOL     OW32797   1.376   4.665   5.633  0.0747  0.3470 -1.2253
 7055SOL    HW132798   1.302   4.612   5.604  1.1765 -1.0998 -1.3963
 7055SOL    HW232799   1.374   4.627   5.721  3.3917 -0.6597 -1.5655
 7056SOL     OW32800   4.480   1.304   6.941 -0.5982  0.3929 -0.1933
 7056SOL    HW132801   4.427   1.370   6.898 -1.4587  1.0576  1.9077
 7056SOL    HW232802   4.520   1.359   7.009  1.1399 -0.5296 -0.4462
 7057SOL     OW32803   4.105   4.490  10.292 -0.1392  0.4875  0.2516
 7057SOL    HW132804   4.102   4.496  10.387 -0.8637 -1.2179  0.3433
 7057SOL    HW232805   4.200   4.494  10.282 -0.2721  0.2125 -1.1778
 7058SOL     OW32806   3.385   3.791   8.760  0.3193  0.3295 -0.4424
 7058SOL    HW132807   3.426   3.718   8.804  1.8398  1.3730 -0.1335
 7058SOL    HW232808   3.338   3.837   8.830  0.5461  1.5331 -1.0670
 7059SOL     OW32809   0.717   0.335  16.358 -0.4540 -0.6242  0.1394
 7059SOL    HW132810   0.762   0.317  16.441 -0.1036  0.4218  0.1856
 7059SOL    HW232811   0.793   0.361  16.306 -0.3103 -2.3026 -0.4764
 7060SOL     OW32812   2.654   2.241   4.157 -0.9149  0.1257 -0.6540
 7060SOL    HW132813   2.695   2.261   4.072 -1.0736 -0.9674 -0.9823
 7060SOL    HW232814   2.680   2.319   4.205 -0.9223  0.6932 -1.5640
 7061SOL     OW32815   0.198   2.872   1.381 -0.0557  0.1558 -0.0069
 7061SOL    HW132816   0.133   2.823   1.330  0.8717 -0.8966 -0.1949
 7061SOL    HW232817   0.240   2.803   1.432 -1.5065 -2.0224 -1.7503
 7062SOL     OW32818   0.416   1.251   2.446 -0.7577  0.0716  0.4918
 7062SOL    HW132819   0.425   1.218   2.357 -1.2321  0.4888  0.2946
 7062SOL    HW232820   0.330   1.291   2.455 -0.2751  0.6927  2.3506
 7063SOL     OW32821   3.842   2.981   7.054  0.9923 -0.0369  0.3344
 7063SOL    HW132822   3.820   2.917   7.122  0.1608  0.3587  0.4312
 7063SOL    HW232823   3.926   3.012   7.088  1.2494  2.5363 -2.6474
 7064SOL     OW32824   1.732   2.589   1.653 -0.2009  0.4363  0.6296
 7064SOL    HW132825   1.766   2.506   1.686  1.0349  0.0199 -1.6851
 7064SOL    HW232826   1.660   2.557   1.598 -0.1870 -0.3506  1.0772
 7065SOL     OW32827   0.137   4.698   1.662  0.0451  0.0882  0.2259
 7065SOL    HW132828   0.054   4.651   1.669  0.6545 -1.1696 -0.9472
 7065SOL    HW232829   0.149   4.731   1.751 -1.9745 -2.3149  1.3606
 7066SOL     OW32830   4.146   3.735   5.035 -0.3171  0.1699 -0.5013
 7066SOL    HW132831   4.168   3.671   4.967 -0.6936  0.2216 -0.6701
 7066SOL    HW232832   4.069   3.773   4.992  0.0664  1.7125  0.2008
 7067SOL     OW32833   1.977   1.282   3.008 -0.3445 -0.0348  0.0040
 7067SOL    HW132834   1.893   1.293   2.963 -0.7936 -0.2530  0.7915
 7067SOL    HW232835   2.037   1.246   2.943  0.1631 -0.4975  0.7222
 7068SOL     OW32836   2.783   4.121   8.267  0.0741  0.7632  0.9509
 7068SOL    HW132837   2.757   4.035   8.298  1.6742 -1.4235 -3.7513
 7068SOL    HW232838   2.862   4.130   8.321 -0.5365 -1.2339  2.1738
 7069SOL     OW32839   2.063   2.470   6.102 -0.1605 -0.5984 -0.2649
 7069SOL    HW132840   2.144   2.439   6.141  0.9590  0.7855 -1.4783
 7069SOL    HW232841   2.092   2.498   6.015  0.2308  0.8324  0.3328
 7070SOL     OW32842   3.306   4.454   4.275 -0.2253 -0.3097 -0.3674
 7070SOL    HW132843   3.287   4.457   4.368 -0.1784  1.0806 -0.3937
 7070SOL    HW232844   3.379   4.516   4.270 -0.0885 -0.5354 -1.1560
 7071SOL     OW32845   1.429   2.356   9.927 -0.0738  0.3633  0.5633
 7071SOL    HW132846   1.452   2.278   9.876 -0.7774  2.4834 -3.0395
 7071SOL    HW232847   1.493   2.349   9.998  0.2330 -0.8086  0.1656
 7072SOL     OW32848   0.038   4.072  11.864  0.0971 -0.4763 -0.2847
 7072SOL    HW132849   0.129   4.046  11.849  0.6790  2.4284 -1.8373
 7072SOL    HW232850   0.028   4.144  11.802  0.2430 -1.6215 -1.6423
 7073SOL     OW32851   3.336   2.042   4.280 -0.2337  0.2223  0.2954
 7073SOL    HW132852   3.252   2.074   4.313 -0.3752  1.0799 -0.8650
 7073SOL    HW232853   3.334   2.072   4.189  2.1765 -1.3477 -0.2696
 7074SOL     OW32854   0.282   4.458  16.246 -0.3802  0.7985  0.5618
 7074SOL    HW132855   0.247   4.508  16.320 -0.0193  1.7799  0.0630
 7074SOL    HW232856   0.373   4.484  16.258 -0.0643 -0.3640  0.5980
 7075SOL     OW32857   4.720   3.969   7.514  0.9030 -0.0247  0.4810
 7075SOL    HW132858   0.013   4.000   7.599 -2.4606 -0.0128  1.7253
 7075SOL    HW232859   0.033   3.889   7.504  2.4983  0.9155  0.9741
 7076SOL     OW32860   1.832   2.066  17.388  0.2765 -0.4341  0.1070
 7076SOL    HW132861   1.812   2.140  17.444  2.2465  0.9063 -0.9680
 7076SOL    HW232862   1.744   2.031  17.375 -0.0099  0.6267 -0.8068
 7077SOL     OW32863   1.779   2.282  15.221  0.3258 -0.3074 -0.1387
 7077SOL    HW132864   1.724   2.205  15.216  0.4069 -0.3675 -0.1145
 7077SOL    HW232865   1.767   2.324  15.136 -0.2819  1.9021  1.0281
 7078SOL     OW32866   4.702   2.322   4.424  0.1758 -0.0486  0.2239
 7078SOL    HW132867   4.618   2.307   4.381 -0.2022  4.7118 -0.6996
 7078SOL    HW232868   0.003   2.399   4.384  0.0043 -0.1304 -0.1034
 7079SOL     OW32869   3.503   3.753  14.927 -0.0513  0.4593  0.1775
 7079SOL    HW132870   3.553   3.740  14.846  0.4440  1.0443  0.3896
 7079SOL    HW232871   3.578   3.759  14.986 -0.5608 -2.1523  1.0790
 7080SOL     OW32872   0.311   4.255  15.014  0.1843 -0.4797 -0.3995
 7080SOL    HW132873   0.356   4.324  15.063 -0.2593  0.7664 -1.7450
 7080SOL    HW232874   0.376   4.187  14.997  0.4253 -0.6195  1.1022
 7081SOL     OW32875   3.469   3.546   6.222 -0.3978 -0.7286  0.1226
 7081SOL    HW132876   3.414   3.484   6.271 -1.1238  0.7649  1.2150
 7081SOL    HW232877   3.401   3.590   6.170 -0.4482 -0.4009  0.4718
 7082SOL     OW32878   0.787   2.503   8.370  0.2392  0.1104  0.0350
 7082SOL    HW132879   0.745   2.585   8.396 -1.3643 -0.1657 -1.6636
 7082SOL    HW232880   0.880   2.521   8.357  0.3110  1.0295  1.8391
 7083SOL     OW32881   1.244   3.550   3.338  0.1727 -0.5870 -0.0760
 7083SOL    HW132882   1.272   3.528   3.249 -0.8564 -0.6305 -0.3886
 7083SOL    HW232883   1.324   3.530   3.386  1.1166  1.1148 -0.9674
 7084SOL     OW32884   2.394   2.640   6.755  0.1513 -0.3063  0.3473
 7084SOL    HW132885   2.305   2.675   6.751 -0.7764 -2.5416  1.3194
 7084SOL    HW232886   2.419   2.648   6.663 -1.4334  3.2751  0.2003
 7085SOL     OW32887   0.349   2.398   6.492 -0.0085 -0.6487 -0.3816
 7085SOL    HW132888   0.265   2.444   6.492  0.2778 -0.1002  2.2175
 7085SOL    HW232889   0.309   2.325   6.539  0.7506 -0.0731  1.1504
 7086SOL     OW32890   4.548   4.715   3.550  0.2027  0.4795  0.1565
 7086SOL    HW132891   4.563   0.069   3.530  0.4547  0.2081 -0.9332
 7086SOL    HW232892   4.453   4.702   3.546 -0.1105  2.9102 -0.4180
 7087SOL     OW32893   4.121   1.863   3.001  0.0594 -0.1342  0.3834
 7087SOL    HW132894   4.072   1.782   3.018 -1.3442  1.2931  3.1576
 7087SOL    HW232895   4.125   1.902   3.088 -0.7740  0.9086 -0.0500
 7088SOL     OW32896   3.251   3.207  13.291  0.1854 -0.1116  0.3718
 7088SOL    HW132897   3.254   3.298  13.263  0.3574 -1.0530 -2.7731
 7088SOL    HW232898   3.253   3.216  13.386  2.1983 -0.9868  0.4007
 7089SOL     OW32899   2.921   2.611   3.904  0.2582 -0.6518  0.2468
 7089SOL    HW132900   2.967   2.625   3.821  1.4549  0.0423  1.0251
 7089SOL    HW232901   2.893   2.699   3.926 -3.9672 -2.3073  1.4213
 7090SOL     OW32902   1.557   1.709   1.828  0.1836  0.5415 -0.0100
 7090SOL    HW132903   1.524   1.771   1.894  0.0047  1.0493 -0.5669
 7090SOL    HW232904   1.645   1.683   1.853  0.0765 -0.7133 -0.9213
 7091SOL     OW32905   3.526   4.667   8.034 -0.0437  0.2455 -0.3795
 7091SOL    HW132906   3.587   4.687   7.963  1.6560  0.0177  1.0068
 7091SOL    HW232907   3.460   4.731   8.005 -1.1170 -0.2116  1.0642
 7092SOL     OW32908   2.484   4.379   3.837 -0.0296 -0.0208 -0.5313
 7092SOL    HW132909   2.493   4.317   3.909  1.2031  0.3367 -0.3795
 7092SOL    HW232910   2.574   4.407   3.824 -0.4757  2.1305  1.1067
 7093SOL     OW32911   0.548   3.005   1.605 -0.6333 -0.1496  0.8356
 7093SOL    HW132912   0.479   3.046   1.553  0.2315  0.4278  0.1513
 7093SOL    HW232913   0.629   3.039   1.566  0.0986 -0.2720  2.2416
 7094SOL     OW32914   2.157   4.527   7.499  0.1866  0.8360  0.2539
 7094SOL    HW132915   2.090   4.593   7.518 -0.5471  0.2637 -0.3672
 7094SOL    HW232916   2.201   4.516   7.583 -2.2389  1.7403  1.6487
 7095SOL     OW32917   1.890   2.554   3.965 -0.2544 -0.3318 -0.1539
 7095SOL    HW132918   1.845   2.518   4.041  1.8330 -1.3186  0.6054
 7095SOL    HW232919   1.952   2.615   4.005 -1.4145  0.9344 -0.2846
 7096SOL     OW32920   1.766   4.287   0.476 -0.0335  0.4063  0.3009
 7096SOL    HW132921   1.780   4.361   0.416  4.1842 -0.0484  0.7353
 7096SOL    HW232922   1.746   4.215   0.415 -0.2554  0.8623 -0.1697
 7097SOL     OW32923   4.412   1.508   0.813  0.1674  0.0245  0.7525
 7097SOL    HW132924   4.464   1.442   0.768  0.8483  0.0134  1.5667
 7097SOL    HW232925   4.473   1.581   0.821  2.9201 -2.2398  0.2693
 7098SOL     OW32926   2.115   2.959   1.884 -0.3728 -0.1566 -0.6582
 7098SOL    HW132927   2.036   3.010   1.869 -0.3101  0.0661 -0.2235
 7098SOL    HW232928   2.142   2.958   1.792  1.9513  1.6485 -0.0145
 7099SOL     OW32929   0.124   3.795   3.397  0.7746  0.4166  0.0839
 7099SOL    HW132930   0.171   3.716   3.423 -1.1687  0.0364  2.4349
 7099SOL    HW232931   0.055   3.789   3.464  1.1358  0.1810  0.4297
 7100SOL     OW32932   4.317   4.057   0.603 -0.0956  0.5714 -0.0074
 7100SOL    HW132933   4.236   4.072   0.555 -0.2223  2.3794  0.7505
 7100SOL    HW232934   4.333   4.149   0.623  0.0711  0.2358  1.4324
 7101SOL     OW32935   1.806   1.353   8.698 -0.5582 -0.3369  0.3451
 7101SOL    HW132936   1.786   1.286   8.634 -1.3018  1.0939 -0.9124
 7101SOL    HW232937   1.833   1.418   8.634 -0.6957 -0.8567 -0.2349
 7102SOL     OW32938   1.366   2.764   2.429  0.5890 -0.3532  0.2374
 7102SOL    HW132939   1.344   2.808   2.346  1.9140 -1.1938 -0.5673
 7102SOL    HW232940   1.282   2.753   2.472  0.3398  0.4027 -0.0499
 7103SOL     OW32941   0.105   4.537   2.155  0.1401  0.0538  0.5101
 7103SOL    HW132942   0.074   4.602   2.218  2.2902 -0.6063  2.2224
 7103SOL    HW232943   0.181   4.580   2.115  0.4910 -2.7930 -1.9006
 7104SOL     OW32944   4.182   4.253   2.011  0.0028 -0.1079  0.0826
 7104SOL    HW132945   4.140   4.254   2.097 -1.5535  0.1380 -0.6629
 7104SOL    HW232946   4.119   4.206   1.956  1.1805  0.7527 -2.0182
 7105SOL     OW32947   0.836   4.006   6.715  0.2938  0.1372 -0.0072
 7105SOL    HW132948   0.879   3.921   6.727  0.4792  0.1341 -0.6530
 7105SOL    HW232949   0.846   4.045   6.802 -0.5248  1.3123 -0.4310
 7106SOL     OW32950   2.856   4.516   9.485  0.2556 -0.0896 -0.5767
 7106SOL    HW132951   2.869   4.590   9.426  0.5660 -1.5813 -2.3541
 7106SOL    HW232952   2.943   4.491   9.515  0.6184 -1.0884 -2.4693
 7107SOL     OW32953   1.092   3.153   6.957  0.1110  0.6946 -0.3586
 7107SOL    HW132954   1.027   3.160   6.888  1.9248  1.8604 -1.9711
 7107SOL    HW232955   1.153   3.218   6.921 -0.2715  0.8501 -0.7234
 7108SOL     OW32956   1.677   4.135  11.143  0.1648 -0.3823 -0.2444
 7108SOL    HW132957   1.679   4.214  11.090 -2.1265 -0.4298 -0.3756
 7108SOL    HW232958   1.762   4.103  11.112 -0.3192 -1.8518 -0.0779
 7109SOL     OW32959   1.207   2.925  15.856  0.0346 -0.0791 -0.4445
 7109SOL    HW132960   1.198   3.000  15.797  0.3497  0.1281 -0.2312
 7109SOL    HW232961   1.168   2.861  15.798 -2.1945 -2.1505  3.3757
 7110SOL     OW32962   1.954   3.953   7.151  0.4221  0.1368 -0.1545
 7110SOL    HW132963   2.049   3.944   7.155  0.6614  1.3663 -3.5284
 7110SOL    HW232964   1.925   3.865   7.177  1.5722 -0.3959 -0.6996
 7111SOL     OW32965   1.252   3.575   8.827 -0.0665  0.7333 -0.5481
 7111SOL    HW132966   1.210   3.629   8.894  0.4416 -0.3635  0.6664
 7111SOL    HW232967   1.341   3.610   8.836 -0.8720  1.9682  2.4552
 7112SOL     OW32968   0.482   4.021   4.291  0.6210 -0.0291 -0.2500
 7112SOL    HW132969   0.539   4.033   4.367 -1.0065 -2.8406  1.4123
 7112SOL    HW232970   0.541   4.039   4.218  1.2499 -0.0103  0.2640
 7113SOL     OW32971   0.002   2.421  17.737  0.3899  0.2190  0.1699
 7113SOL    HW132972   4.691   2.376   0.054  0.0046  1.2487  0.5736
 7113SOL    HW232973   4.715   2.513  17.751  1.5997  0.5114  0.4755
 7114SOL     OW32974   1.874   1.410   8.238  0.8142  0.4873  0.2402
 7114SOL    HW132975   1.856   1.337   8.297 -0.4914 -0.2996 -1.1397
 7114SOL    HW232976   1.839   1.487   8.283  0.1788 -0.6141  1.6307
 7115SOL     OW32977   2.323   0.259   0.708 -0.0683 -0.1490 -0.3967
 7115SOL    HW132978   2.251   0.210   0.748  0.0977 -0.4110 -0.4209
 7115SOL    HW232979   2.290   0.349   0.707  1.4021  0.3869 -0.7385
 7116SOL     OW32980   4.137   3.303   9.471 -0.4844 -0.3542  0.2254
 7116SOL    HW132981   4.196   3.377   9.479  1.3261 -1.8309  0.5134
 7116SOL    HW232982   4.186   3.250   9.408  0.3998 -0.6744  1.1788
 7117SOL     OW32983   1.821   0.669   4.002 -0.3364  0.1310  0.3913
 7117SOL    HW132984   1.827   0.654   3.908  0.2406  0.5411  0.3581
 7117SOL    HW232985   1.883   0.743   4.007 -0.6126  0.3332  0.8684
 7118SOL     OW32986   2.744   1.447  10.815 -0.1642 -0.4488  0.4055
 7118SOL    HW132987   2.817   1.389  10.838 -0.5512 -0.9856  0.2810
 7118SOL    HW232988   2.678   1.414  10.876  0.1386 -0.9062  0.4854
 7119SOL     OW32989   2.280   4.511   4.739  0.2176 -0.0010  0.8221
 7119SOL    HW132990   2.256   4.560   4.661  1.9642 -2.8516 -1.5398
 7119SOL    HW232991   2.203   4.455   4.747 -0.1668  0.0706 -2.3343
 7120SOL     OW32992   1.949   4.182   8.306 -0.3227  0.3439 -0.2878
 7120SOL    HW132993   1.910   4.201   8.220  0.5638  0.2658 -0.7112
 7120SOL    HW232994   1.985   4.095   8.290  0.6681  0.3241  2.1228
 7121SOL     OW32995   4.117   4.377   0.089 -0.3736 -0.2760 -0.3307
 7121SOL    HW132996   4.086   4.395   0.001 -0.7249  0.8657  0.0215
 7121SOL    HW232997   4.072   4.455   0.122  2.7945  1.9331 -1.1575
 7122SOL     OW32998   0.510   4.041   7.366 -0.3180 -0.4222 -0.3732
 7122SOL    HW132999   0.471   4.115   7.412  2.2659  1.2153 -0.8140
 7122SOL    HW233000   0.602   4.066   7.366  0.1125 -1.9489 -1.2235
 7123SOL     OW33001   0.890   1.628  15.188  0.3576 -0.3561  0.7918
 7123SOL    HW133002   0.985   1.640  15.200  0.7459 -2.1582 -0.5181
 7123SOL    HW233003   0.863   1.603  15.277  0.7700 -3.1493  0.1299
 7124SOL     OW33004   1.469   3.405   5.114  0.2156  0.0859  0.1340
 7124SOL    HW133005   1.446   3.497   5.101 -0.4519 -0.1022 -0.0657
 7124SOL    HW233006   1.393   3.364   5.073  1.8818 -0.9675 -1.8820
 7125SOL     OW33007   0.726   0.920   5.892  0.3992 -0.5542 -0.1485
 7125SOL    HW133008   0.820   0.931   5.878  0.8215 -0.8774  2.4277
 7125SOL    HW233009   0.723   0.931   5.987  2.0545  2.9431 -0.4918
 7126SOL     OW33010   2.590   1.952  11.445 -0.1413 -0.0677 -0.3126
 7126SOL    HW133011   2.530   1.943  11.519  1.9820  0.7825  1.5179
 7126SOL    HW233012   2.652   2.017  11.478  1.1568 -1.3874 -0.1370
 7127SOL     OW33013   3.682   1.035   5.996  0.2640  0.2611 -0.2731
 7127SOL    HW133014   3.732   1.033   5.914  1.1693 -0.7177  0.3118
 7127SOL    HW233015   3.677   0.943   6.021 -1.9250  0.8797  1.5150
 7128SOL     OW33016   2.203   0.627  17.433 -0.1361 -0.3892 -0.2331
 7128SOL    HW133017   2.195   0.532  17.425 -0.2046 -0.3193 -0.9486
 7128SOL    HW233018   2.110   0.647  17.443 -0.8276 -2.9528 -1.6356
 7129SOL     OW33019   2.733   2.783   2.941 -0.0381 -0.3525 -0.6892
 7129SOL    HW133020   2.754   2.854   2.879  0.0175 -0.9826 -1.3953
 7129SOL    HW233021   2.678   2.719   2.895  0.8019 -1.1050 -0.6462
 7130SOL     OW33022   1.312   2.345   7.207 -0.2689  0.0482  0.6191
 7130SOL    HW133023   1.256   2.328   7.282 -2.3246  0.8084 -0.7465
 7130SOL    HW233024   1.373   2.271   7.212  1.4039  1.3493 -0.2726
 7131SOL     OW33025   3.462   3.764   2.006  0.3423  0.0433  0.6783
 7131SOL    HW133026   3.476   3.785   2.098  0.9088  1.7686  0.2067
 7131SOL    HW233027   3.508   3.835   1.960 -1.6772 -0.2350 -1.7839
 7132SOL     OW33028   3.627   3.116   7.941 -0.2150  0.4263 -0.4784
 7132SOL    HW133029   3.578   3.038   7.915  1.6911 -0.6264 -0.8973
 7132SOL    HW233030   3.687   3.131   7.868  0.7491 -1.5914 -0.1113
 7133SOL     OW33031   0.953   0.157  12.911 -0.4331 -0.1555 -0.0291
 7133SOL    HW133032   0.959   0.251  12.894 -0.7877 -0.3043 -0.9635
 7133SOL    HW233033   1.023   0.138  12.974 -0.6611 -1.1697 -0.0899
 7134SOL     OW33034   3.665   0.095   0.270 -0.0162  0.2101 -0.1800
 7134SOL    HW133035   3.706   0.176   0.238 -2.2967  0.6890 -1.8273
 7134SOL    HW233036   3.747   0.053   0.297 -0.3304  0.2485  0.8376
 7135SOL     OW33037   4.423   2.011   2.093  0.5476  0.3244  0.1000
 7135SOL    HW133038   4.375   2.022   2.175 -0.5976  0.4433 -0.5893
 7135SOL    HW233039   4.457   1.922   2.105  0.8266  0.3879 -0.2296
 7136SOL     OW33040   1.333   4.091   8.348  0.6400  0.7073 -0.2301
 7136SOL    HW133041   1.274   4.018   8.329  0.2537  0.9215  0.1431
 7136SOL    HW233042   1.276   4.165   8.328 -0.5196  0.2689  1.5291
 7137SOL     OW33043   3.721   0.546   7.816  0.7446 -0.4941 -0.4013
 7137SOL    HW133044   3.690   0.534   7.727  1.8994  0.6874 -0.9598
 7137SOL    HW233045   3.676   0.630   7.825 -1.5635 -1.9125  1.2470
 7138SOL     OW33046   2.320   1.825   3.418 -0.3944 -0.2253  0.3079
 7138SOL    HW133047   2.338   1.767   3.344 -1.3059  1.1208 -0.9744
 7138SOL    HW233048   2.282   1.899   3.371  2.4673 -0.8020 -2.8744
 7139SOL     OW33049   2.348   2.704  15.986 -0.1105 -0.3217 -0.0583
 7139SOL    HW133050   2.393   2.699  16.070  0.0479  3.3354  0.0620
 7139SOL    HW233051   2.338   2.612  15.960 -0.1963  0.2964 -2.2404
 7140SOL     OW33052   4.215   0.582   9.845 -0.2584  0.4643  0.0626
 7140SOL    HW133053   4.266   0.594   9.765 -0.9166 -0.5546 -0.5108
 7140SOL    HW233054   4.128   0.602   9.811 -0.1310 -0.0277 -0.5487
 7141SOL     OW33055   0.520   1.571   5.257 -0.4789 -0.3193 -0.2216
 7141SOL    HW133056   0.434   1.612   5.245 -0.1872 -0.1892 -1.8644
 7141SOL    HW233057   0.591   1.628   5.228 -0.1299  0.2450  1.7102
 7142SOL     OW33058   3.963   2.344  16.246  0.2277  0.3240  0.1802
 7142SOL    HW133059   4.038   2.388  16.286  0.1024  1.3548 -0.7167
 7142SOL    HW233060   3.992   2.253  16.238  1.7870  1.0606 -2.3264
 7143SOL     OW33061   4.174   1.539   6.622  0.4530 -1.0892 -0.6759
 7143SOL    HW133062   4.218   1.584   6.550  1.6173  0.3942  0.9604
 7143SOL    HW233063   4.185   1.451   6.588 -1.8494 -0.9148 -1.8845
 7144SOL     OW33064   3.306   0.111   3.226  0.2606  0.5174 -0.1860
 7144SOL    HW133065   3.284   0.181   3.165 -0.1494  0.9589  0.4670
 7144SOL    HW233066   3.398   0.085   3.211 -0.0181 -0.2862 -0.5190
 7145SOL     OW33067   2.076   2.587   5.204  0.0774  0.8232 -0.1573
 7145SOL    HW133068   2.040   2.672   5.175  0.6286  0.9345 -0.5093
 7145SOL    HW233069   2.103   2.608   5.293 -0.9253 -0.7497  0.5161
 7146SOL     OW33070   0.963   2.043   4.662 -0.1480  0.7713  0.1115
 7146SOL    HW133071   1.001   1.966   4.704 -2.2157  0.3083  1.1457
 7146SOL    HW233072   0.871   2.046   4.689 -0.6841 -1.7514 -1.4110
 7147SOL     OW33073   3.161   2.441   6.240 -0.4787  0.0867 -0.0045
 7147SOL    HW133074   3.236   2.383   6.248  0.2915  1.1612  0.5510
 7147SOL    HW233075   3.087   2.384   6.220  0.8609 -2.0056  0.9959
 7148SOL     OW33076   0.909   1.519   7.098 -0.0779 -0.3285  0.6753
 7148SOL    HW133077   0.966   1.597   7.099  2.4099 -2.1203 -1.1457
 7148SOL    HW233078   0.902   1.503   7.004 -1.3316 -0.2039  0.7522
 7149SOL     OW33079   2.591   0.732   4.548  0.7078 -0.5212  0.0733
 7149SOL    HW133080   2.517   0.733   4.487 -0.4225 -1.8798  1.4149
 7149SOL    HW233081   2.662   0.753   4.487 -0.9963 -0.8188 -2.0217
 7150SOL     OW33082   2.547   1.723   6.027 -0.1107 -0.3485 -0.4090
 7150SOL    HW133083   2.637   1.752   6.039  0.0702 -0.5333 -1.2940
 7150SOL    HW233084   2.541   1.664   6.103  2.2727 -1.8025 -1.3572
 7151SOL     OW33085   1.241   3.640  10.100  0.0981  0.2650 -0.4073
 7151SOL    HW133086   1.241   3.670  10.009 -0.5656  1.0194 -0.1565
 7151SOL    HW233087   1.189   3.561  10.085 -0.8567  1.1122 -1.5146
 7152SOL     OW33088   0.125   3.228  12.479 -0.1408  0.7823  0.1514
 7152SOL    HW133089   0.126   3.322  12.460  0.1737  0.4766 -1.3626
 7152SOL    HW233090   0.063   3.223  12.552 -1.4708 -0.6198 -1.0986
 7153SOL     OW33091   0.278   0.647   2.224 -0.0647 -0.4037 -0.0158
 7153SOL    HW133092   0.318   0.615   2.305 -0.6159  0.2687  0.5337
 7153SOL    HW233093   0.231   0.727   2.249 -0.7249 -0.8663  0.2083
 7154SOL     OW33094   0.579   2.000  13.783  0.3191  0.4665 -0.2827
 7154SOL    HW133095   0.501   1.969  13.738  1.5575  0.8089 -2.6839
 7154SOL    HW233096   0.649   1.957  13.733  1.1577  2.0185 -0.4469
 7155SOL     OW33097   4.694   2.271  11.218  0.0458  0.1259 -0.1960
 7155SOL    HW133098   4.651   2.303  11.139  0.4335  1.0149 -0.0449
 7155SOL    HW233099   4.662   2.182  11.233  0.3110  0.1257  0.3685
 7156SOL     OW33100   0.482   0.472  14.311 -0.1984 -0.4341  0.5801
 7156SOL    HW133101   0.457   0.433  14.395 -1.0596  0.4621  0.7344
 7156SOL    HW233102   0.565   0.428  14.293  0.6871  0.6329  2.0670
 7157SOL     OW33103   2.327   3.803  13.185  0.1254 -0.7469  0.5013
 7157SOL    HW133104   2.306   3.778  13.095  0.5667  0.0908  0.1697
 7157SOL    HW233105   2.415   3.839  13.175 -0.4165  0.2606 -0.5736
 7158SOL     OW33106   1.224   4.502   5.901  0.8157  0.2134  0.1877
 7158SOL    HW133107   1.216   4.451   5.982  0.5613  0.4586  0.3164
 7158SOL    HW233108   1.190   4.587   5.930  1.3949  1.0677 -1.6441
 7159SOL     OW33109   2.698   1.985   5.506  0.0329  0.4737 -0.0473
 7159SOL    HW133110   2.728   2.066   5.466  3.0253 -0.0389  1.1356
 7159SOL    HW233111   2.774   1.952   5.554  0.2545 -1.2291 -1.5755
 7160SOL     OW33112   0.883   3.489  12.980 -0.3534  0.7340 -0.1678
 7160SOL    HW133113   0.808   3.539  12.949 -0.3156  1.0519  0.2581
 7160SOL    HW233114   0.906   3.552  13.048 -0.1899 -0.4434  0.8773
 7161SOL     OW33115   1.499   2.467   1.515  0.0205 -0.2645 -0.9474
 7161SOL    HW133116   1.490   2.544   1.458  0.6547 -0.0150 -0.7032
 7161SOL    HW233117   1.460   2.397   1.463  0.7260 -1.1406 -0.2890
 7162SOL     OW33118   4.331   4.371   8.298 -0.3839 -0.0853  0.5976
 7162SOL    HW133119   4.402   4.379   8.234 -1.5740 -0.3424 -0.7428
 7162SOL    HW233120   4.268   4.423   8.247  0.0510 -0.1908 -0.0470
 7163SOL     OW33121   2.416   4.119  17.610 -0.0774 -0.6667  0.3179
 7163SOL    HW133122   2.413   4.023  17.613  3.8695 -0.7941  0.6201
 7163SOL    HW233123   2.499   4.140  17.653 -0.7710  1.4007  0.6110
 7164SOL     OW33124   0.019   1.814   5.062  0.2578  0.0670 -0.2354
 7164SOL    HW133125   0.106   1.846   5.037 -0.6107  0.9530 -2.1646
 7164SOL    HW233126   0.011   1.860   5.145  1.0447  0.2364 -0.2476
 7165SOL     OW33127   0.134   2.559  10.943  0.3426  0.5578  0.1613
 7165SOL    HW133128   0.043   2.534  10.925  1.0496 -1.7447 -0.2273
 7165SOL    HW233129   0.134   2.569  11.039  3.3131  0.5891  0.1711
 7166SOL     OW33130   3.333   2.159   8.095 -0.1547  0.3679 -0.2366
 7166SOL    HW133131   3.326   2.216   8.018  1.7811 -2.7213 -2.7349
 7166SOL    HW233132   3.406   2.198   8.143  0.3326  0.0564 -0.7215
 7167SOL     OW33133   2.801   0.690  15.854  0.6866 -0.3622  0.6060
 7167SOL    HW133134   2.724   0.702  15.909 -0.7298  1.3546 -1.7189
 7167SOL    HW233135   2.813   0.777  15.815 -0.1456 -0.8193 -0.6820
 7168SOL     OW33136   3.924   0.747   3.987 -0.2203 -0.1200 -0.0234
 7168SOL    HW133137   3.846   0.795   4.014  0.9282  2.4590 -1.2553
 7168SOL    HW233138   3.989   0.778   4.049 -0.6259 -0.0192  0.3445
 7169SOL     OW33139   3.793   1.166   7.363 -0.2553 -0.0232  0.0070
 7169SOL    HW133140   3.735   1.207   7.427 -2.1273 -0.6227 -1.3056
 7169SOL    HW233141   3.878   1.187   7.402 -0.2269  0.9510 -0.5973
 7170SOL     OW33142   3.494   1.788   4.437 -0.3842  0.4817  0.3033
 7170SOL    HW133143   3.539   1.710   4.405 -0.5565 -0.4546  2.3513
 7170SOL    HW233144   3.504   1.852   4.367  2.6237  1.2465  1.3794
 7171SOL     OW33145   0.059   0.033   2.566 -0.0180 -0.4621  0.2002
 7171SOL    HW133146   0.115   0.010   2.641  1.2821  0.4958 -0.4813
 7171SOL    HW233147   4.718   0.072   2.601 -1.2532 -3.5842  0.9073
 7172SOL     OW33148   2.816   3.502   9.498  0.6796 -0.3566 -0.0085
 7172SOL    HW133149   2.791   3.451   9.575  2.5105  2.2737  2.3294
 7172SOL    HW233150   2.841   3.440   9.430  1.9280 -0.3541  0.4394
 7173SOL     OW33151   1.764   3.431   6.334  0.0462  0.0323  0.2095
 7173SOL    HW133152   1.697   3.417   6.267 -1.4757  0.3996  1.6563
 7173SOL    HW233153   1.719   3.380   6.401  1.8641 -1.3910  0.3632
 7174SOL     OW33154   4.045   1.045  14.044 -0.0800 -0.3595 -0.6734
 7174SOL    HW133155   4.038   1.071  13.953  0.9159 -0.8312 -0.8905
 7174SOL    HW233156   3.976   1.092  14.090 -0.6430  0.6717 -2.6159
 7175SOL     OW33157   0.245   1.692   6.686  0.0442  0.4466  0.1468
 7175SOL    HW133158   0.309   1.621   6.691 -1.8591 -1.1852  1.4894
 7175SOL    HW233159   0.191   1.685   6.765  0.5082  0.3206  0.4526
 7176SOL     OW33160   0.949   0.612  17.210  0.7748 -0.4334  0.3251
 7176SOL    HW133161   1.009   0.680  17.240 -0.7666  2.3797 -2.9692
 7176SOL    HW233162   0.897   0.616  17.290  2.2825  0.9238  1.2353
 7177SOL     OW33163   1.095   0.755  15.171  0.2742 -0.3204  0.3179
 7177SOL    HW133164   1.006   0.725  15.191 -0.2099 -0.2072 -1.6478
 7177SOL    HW233165   1.071   0.825  15.110  1.1967 -0.5405 -0.3053
 7178SOL     OW33166   2.306   2.896   7.682  0.1863  0.4125  0.0887
 7178SOL    HW133167   2.279   2.880   7.773  1.7565 -0.7964  0.3347
 7178SOL    HW233168   2.377   2.832   7.683 -2.2557 -2.3212 -2.4865
 7179SOL     OW33169   4.478   2.610   9.412 -0.2759  0.7376 -0.4145
 7179SOL    HW133170   4.518   2.697   9.407  3.6028 -1.0264  0.2316
 7179SOL    HW233171   4.443   2.607   9.501 -0.5055 -2.0876 -0.6093
 7180SOL     OW33172   2.961   2.019   7.034  0.0797 -0.1411 -0.3519
 7180SOL    HW133173   2.955   1.951   7.100 -2.8779  0.2505 -0.2477
 7180SOL    HW233174   2.901   1.996   6.963  0.7147  0.7865 -1.2070
 7181SOL     OW33175   3.702   0.695  11.099  0.3409  0.0007 -0.2145
 7181SOL    HW133176   3.651   0.616  11.116 -1.8705  1.5713  0.4224
 7181SOL    HW233177   3.782   0.676  11.149 -0.6240 -0.2090  1.2494
 7182SOL     OW33178   1.708   3.986  13.557 -0.3454 -0.2610  0.2983
 7182SOL    HW133179   1.615   4.009  13.560 -0.9732 -2.7349 -0.4259
 7182SOL    HW233180   1.735   4.063  13.507  0.0276 -0.0537  0.8129
 7183SOL     OW33181   2.515   0.240   1.454 -0.7588 -0.4060  0.5066
 7183SOL    HW133182   2.540   0.245   1.362 -1.4952 -1.7773  0.2345
 7183SOL    HW233183   2.584   0.181   1.486 -1.4014 -1.3132  0.2230
 7184SOL     OW33184   2.017   3.346   6.050 -0.6399 -0.3944 -0.2161
 7184SOL    HW133185   2.042   3.343   6.142  3.0884  1.8165 -1.1452
 7184SOL    HW233186   2.097   3.307   6.014 -0.3173  1.7719 -1.8133
 7185SOL     OW33187   3.445   0.844   6.110  0.7042  0.5868  0.7627
 7185SOL    HW133188   3.466   0.823   6.019 -2.9562  0.1846  0.0054
 7185SOL    HW233189   3.352   0.869   6.105  0.0108 -2.0055  0.5779
 7186SOL     OW33190   0.730   0.288   2.220 -0.6001  0.3253 -0.1170
 7186SOL    HW133191   0.803   0.315   2.275  1.5777 -1.0797 -2.3526
 7186SOL    HW233192   0.751   0.204   2.180 -1.7080  0.9620 -2.0643
 7187SOL     OW33193   1.512   2.700   6.292  0.1258  0.4761  0.1386
 7187SOL    HW133194   1.516   2.666   6.382  0.1937  1.6640  0.5887
 7187SOL    HW233195   1.576   2.646   6.246 -0.9645 -1.4270  0.8521
 7188SOL     OW33196   2.095   1.929   8.705 -0.4850  0.8063 -0.3265
 7188SOL    HW133197   2.128   2.010   8.667 -0.1230  0.9585  0.3160
 7188SOL    HW233198   2.094   1.960   8.795  0.4008 -0.7169  0.2198
 7189SOL     OW33199   2.465   1.567   6.250  0.2488 -0.2551 -0.6397
 7189SOL    HW133200   2.456   1.479   6.286 -0.2830  0.6180  1.3200
 7189SOL    HW233201   2.378   1.601   6.267  0.6166  0.2940  0.1339
 7190SOL     OW33202   0.825   3.002   9.107 -1.3629 -0.5277  0.6417
 7190SOL    HW133203   0.869   2.925   9.073 -0.2493  0.5104 -0.2737
 7190SOL    HW233204   0.829   2.989   9.202 -0.5696  0.7605  0.7898
 7191SOL     OW33205   3.539   0.809   3.697 -0.0997 -0.3308 -0.5890
 7191SOL    HW133206   3.480   0.853   3.635 -0.1436  1.4739  0.7433
 7191SOL    HW233207   3.588   0.750   3.639  1.4763  0.5833 -0.1713
 7192SOL     OW33208   0.332   1.963   6.767  0.1210 -0.2008 -0.0368
 7192SOL    HW133209   0.303   1.881   6.725  0.9343  0.2325 -1.4356
 7192SOL    HW233210   0.310   1.944   6.858 -1.5194  0.4940 -0.2935
 7193SOL     OW33211   0.727   2.493   4.687  0.2793  0.0382 -0.2079
 7193SOL    HW133212   0.815   2.503   4.724 -0.6305  0.6707  1.7980
 7193SOL    HW233213   0.681   2.554   4.746  1.4746  1.0924 -0.3672
 7194SOL     OW33214   3.224   3.950   2.632  0.2033  0.0456  0.4082
 7194SOL    HW133215   3.139   3.991   2.647  0.0153 -0.2105  0.0652
 7194SOL    HW233216   3.209   3.856   2.619 -0.3171 -0.0550  1.7616
 7195SOL     OW33217   0.091   1.183   4.285  0.1247 -0.7071 -0.0800
 7195SOL    HW133218   0.179   1.192   4.321  0.4856 -1.0805 -0.8646
 7195SOL    HW233219   0.106   1.201   4.192  1.2630 -0.6799  0.1119
 7196SOL     OW33220   2.810   0.462   7.410 -0.1680  0.0413  0.1535
 7196SOL    HW133221   2.899   0.434   7.388 -0.5165  0.4164 -1.7080
 7196SOL    HW233222   2.767   0.380   7.387  0.6855 -0.1489 -0.7249
 7197SOL     OW33223   3.900   0.125   2.120  0.4695 -0.4727  0.1489
 7197SOL    HW133224   3.983   0.095   2.156 -0.0087 -2.1507 -0.1471
 7197SOL    HW233225   3.839   0.057   2.150  2.5466 -2.5635 -0.3383
 7198SOL     OW33226   4.036   0.715   9.695 -0.2781  0.2103  0.3226
 7198SOL    HW133227   4.118   0.748   9.658  0.2893 -2.5954 -0.9254
 7198SOL    HW233228   3.995   0.793   9.733 -2.5696 -1.0614  0.4435
 7199SOL     OW33229   3.479   3.038   3.639 -0.8446 -0.1980 -0.3860
 7199SOL    HW133230   3.466   3.117   3.586 -2.4217 -0.9846 -1.1914
 7199SOL    HW233231   3.496   3.071   3.727  0.8027  2.9375 -1.8736
 7200SOL     OW33232   0.098   2.955   3.653  0.1140  0.4369  0.2084
 7200SOL    HW133233   0.192   2.946   3.669  0.3247  1.6178 -0.3088
 7200SOL    HW233234   0.060   2.886   3.708  0.7313  0.6150  0.8716
 7201SOL     OW33235   3.811   0.903   7.338 -0.3175  0.4770 -0.1623
 7201SOL    HW133236   3.808   0.998   7.331 -2.6017  0.4204 -0.1419
 7201SOL    HW233237   3.789   0.891   7.246 -1.8447  0.9759  0.1337
 7202SOL     OW33238   1.302   4.616   3.468 -0.4397  0.7144  0.0684
 7202SOL    HW133239   1.341   4.558   3.403 -0.5489  0.4221  0.2629
 7202SOL    HW233240   1.217   4.622   3.423 -1.1889 -1.2697  1.2472
 7203SOL     OW33241   3.654   1.586   6.538 -0.3041 -0.1563 -0.1032
 7203SOL    HW133242   3.676   1.495   6.516  1.2444 -0.2612  1.8848
 7203SOL    HW233243   3.731   1.608   6.589 -0.4157 -1.9259  0.8505
 7204SOL     OW33244   2.754   0.518   5.184 -0.8976  0.5198  0.1596
 7204SOL    HW133245   2.688   0.578   5.148  0.6118  1.8222 -0.4493
 7204SOL    HW233246   2.767   0.468   5.103 -1.6612 -0.0059  0.3596
 7205SOL     OW33247   0.282   0.927  14.663 -0.1394 -0.3303  0.0842
 7205SOL    HW133248   0.235   0.945  14.581 -3.2189 -2.0053  1.5206
 7205SOL    HW233249   0.374   0.945  14.642 -0.9893  2.2768 -1.5286
 7206SOL     OW33250   3.317   2.657   5.546  0.6546 -0.1560 -0.3981
 7206SOL    HW133251   3.236   2.610   5.529  0.9141  0.0130 -2.1514
 7206SOL    HW233252   3.361   2.641   5.462  1.4495 -2.9550  0.5099
 7207SOL     OW33253   2.894   0.138   5.810  0.5089  0.1266  0.1989
 7207SOL    HW133254   2.881   0.217   5.757 -3.4106  0.6319  1.9481
 7207SOL    HW233255   2.929   0.157   5.897  0.7844 -1.1311  0.3698
 7208SOL     OW33256   3.640   3.771   6.015  0.0012  0.0170  0.3752
 7208SOL    HW133257   3.560   3.757   6.065  0.0944  0.8374  0.7424
 7208SOL    HW233258   3.629   3.701   5.950 -0.9908  1.3309 -0.8756
 7209SOL     OW33259   3.267   3.657   6.442 -0.0007 -0.0683 -0.0479
 7209SOL    HW133260   3.308   3.621   6.522  1.5215 -0.3163 -0.9338
 7209SOL    HW233261   3.268   3.581   6.385  0.6447  0.7592 -1.1365
 7210SOL     OW33262   4.191   4.305   0.693  0.1966  0.8560  0.3837
 7210SOL    HW133263   4.124   4.238   0.679  1.7713 -0.2720 -1.5741
 7210SOL    HW233264   4.145   4.348   0.766 -1.2529  2.1639 -1.2953
 7211SOL     OW33265   0.427   1.289   5.230  0.0107  0.7179  0.5326
 7211SOL    HW133266   0.457   1.378   5.214  0.1201  0.6968  0.6206
 7211SOL    HW233267   0.414   1.279   5.324  0.0875  1.8172  0.6583
 7212SOL     OW33268   4.588   3.064   7.312 -0.0859  0.1141  0.4058
 7212SOL    HW133269   4.644   3.132   7.351 -1.5113  1.4907  0.0522
 7212SOL    HW233270   4.649   2.994   7.290 -1.6486 -0.9694 -0.4873
 7213SOL     OW33271   4.114   3.517   4.189 -0.0992 -0.4530 -0.3172
 7213SOL    HW133272   4.111   3.421   4.191 -0.1574 -0.4204  1.2222
 7213SOL    HW233273   4.055   3.542   4.260 -0.5394 -0.5117 -0.6637
 7214SOL     OW33274   3.850   4.398   1.556 -0.4941  0.0176 -0.0261
 7214SOL    HW133275   3.826   4.483   1.593  0.6541 -0.1835  1.1606
 7214SOL    HW233276   3.785   4.396   1.486 -1.8649 -2.4293  1.3239
 7215SOL     OW33277   3.093   0.923  16.671  0.6919 -0.9160  0.1108
 7215SOL    HW133278   3.129   0.901  16.757 -1.1358  0.8549  1.3336
 7215SOL    HW233279   2.998   0.907  16.670  0.7048 -1.0142  0.6647
 7216SOL     OW33280   0.361   4.188  16.094  0.5378  0.5699  0.3665
 7216SOL    HW133281   0.324   4.263  16.141  1.9994  0.9363  0.9440
 7216SOL    HW233282   0.401   4.141  16.168  0.0055 -0.9029 -0.2886
 7217SOL     OW33283   4.191   1.312   0.883  0.1869 -0.3382  0.3276
 7217SOL    HW133284   4.258   1.370   0.845 -1.3315  0.8945 -0.4670
 7217SOL    HW233285   4.120   1.376   0.883  0.1636 -0.3571 -1.0705
 7218SOL     OW33286   1.607   3.598   4.753 -0.4447 -0.2368  0.6062
 7218SOL    HW133287   1.574   3.517   4.790 -0.8501 -0.2067  0.3122
 7218SOL    HW233288   1.608   3.582   4.658 -1.0804 -1.5189  0.8176
 7219SOL     OW33289   2.525   1.277   2.059 -0.1007 -0.4525 -0.0361
 7219SOL    HW133290   2.588   1.285   2.130  2.3690  0.2524 -2.2957
 7219SOL    HW233291   2.534   1.183   2.044  1.5345  0.0754 -2.3948
 7220SOL     OW33292   0.173   1.223   4.003 -0.3183  0.0812 -0.5231
 7220SOL    HW133293   0.101   1.278   3.972  1.1850  2.6215  0.5040
 7220SOL    HW233294   0.196   1.166   3.930 -0.3880 -0.2057 -0.3211
 7221SOL     OW33295   1.130   2.465   2.230  0.2389 -0.4776 -0.5732
 7221SOL    HW133296   1.210   2.440   2.185  0.8582 -1.4386  1.0614
 7221SOL    HW233297   1.091   2.380   2.254  0.2593  0.3437  2.3420
 7222SOL     OW33298   3.784   0.069   9.250  0.0544 -0.7310  0.5959
 7222SOL    HW133299   3.786   0.122   9.330  1.6760 -1.2711  0.9014
 7222SOL    HW233300   3.838   4.734   9.279 -1.3996 -1.4233  1.5643
 7223SOL     OW33301   3.673   2.150   5.595  0.4197 -0.6130  0.5851
 7223SOL    HW133302   3.592   2.098   5.597 -0.3062  0.4933 -0.3644
 7223SOL    HW233303   3.626   2.233   5.604 -0.6503 -0.9915 -1.5549
 7224SOL     OW33304   0.147   0.655   3.996  0.3978  0.0294 -0.0615
 7224SOL    HW133305   0.104   0.623   3.918  0.9112  1.4756 -0.9391
 7224SOL    HW233306   0.071   0.678   4.050  0.7778  0.0424  0.4766
 7225SOL     OW33307   1.204   2.333   3.147 -0.1676 -0.3241  0.3651
 7225SOL    HW133308   1.163   2.307   3.064 -1.5327  1.2175  0.5516
 7225SOL    HW233309   1.169   2.422   3.148  0.7189  0.0075  2.2292
 7226SOL     OW33310   3.145   4.042   6.307  0.0540  0.3817  0.0294
 7226SOL    HW133311   3.085   3.970   6.286  0.2256 -0.1795  1.4308
 7226SOL    HW233312   3.088   4.077   6.376 -0.9094 -0.8002 -0.1807
 7227SOL     OW33313   2.655   0.340  12.867 -0.0856 -0.4888 -0.2011
 7227SOL    HW133314   2.669   0.434  12.866  0.6646 -0.5992  0.1837
 7227SOL    HW233315   2.743   0.306  12.852 -0.3335 -0.6172 -1.3625
 7228SOL     OW33316   1.785   3.092   5.405  0.3331 -0.2762  0.0296
 7228SOL    HW133317   1.832   3.110   5.324 -2.0805  2.0020 -0.8690
 7228SOL    HW233318   1.712   3.153   5.390  1.5695  1.3419  0.5752
 7229SOL     OW33319   4.080   4.438   0.902  0.2468 -0.3463 -0.2168
 7229SOL    HW133320   4.131   4.467   0.978 -2.1603  1.1119  0.8352
 7229SOL    HW233321   4.017   4.509   0.897  0.8766  0.4271  2.7020
 7230SOL     OW33322   1.048   3.650  11.669 -1.0152 -0.2248  0.1162
 7230SOL    HW133323   1.059   3.734  11.713  2.1829  0.3564 -1.7247
 7230SOL    HW233324   1.113   3.596  11.715 -1.9040 -1.2553  0.1569
 7231SOL     OW33325   1.418   2.321   7.607 -0.0131 -0.3681  0.5358
 7231SOL    HW133326   1.363   2.360   7.675  2.6464  1.8193  1.3844
 7231SOL    HW233327   1.364   2.336   7.529  1.1851  1.6646  0.0992
 7232SOL     OW33328   3.740   1.823   7.180 -0.2504 -0.5546  0.0500
 7232SOL    HW133329   3.726   1.755   7.114  0.5159 -1.3645  0.7250
 7232SOL    HW233330   3.701   1.785   7.259 -1.1391 -0.5206 -0.3679
 7233SOL     OW33331   2.971   1.992   4.544 -0.0260  0.3468 -0.3026
 7233SOL    HW133332   2.878   1.975   4.533 -0.0530  0.8914 -0.8922
 7233SOL    HW233333   2.978   1.989   4.640 -1.2136  0.0661 -0.2315
 7234SOL     OW33334   0.324   3.197   3.442  0.0436 -0.1680  0.9764
 7234SOL    HW133335   0.352   3.248   3.366 -0.2264 -0.5172  0.6421
 7234SOL    HW233336   0.356   3.109   3.423 -0.3457  0.2996 -1.7377
 7235SOL     OW33337   2.421   4.443   8.513 -0.7443 -0.0418 -0.1104
 7235SOL    HW133338   2.512   4.449   8.482 -0.4154  1.5951  1.1673
 7235SOL    HW233339   2.377   4.381   8.455 -1.8457  0.6146  0.0235
 7236SOL     OW33340   3.760   3.038   9.552  0.4025  0.3453  0.1012
 7236SOL    HW133341   3.847   3.043   9.513  0.5652 -2.4367  0.1302
 7236SOL    HW233342   3.767   2.969   9.618  1.7135  0.1081 -0.2824
 7237SOL     OW33343   1.158   3.975   1.133  0.2844  0.1212 -0.1271
 7237SOL    HW133344   1.109   4.043   1.180 -1.4483  0.5066 -2.4424
 7237SOL    HW233345   1.094   3.904   1.144  0.8809 -0.7947 -2.6165
 7238SOL     OW33346   2.836   1.044   2.459  0.4421  0.0576 -0.1720
 7238SOL    HW133347   2.803   1.090   2.382 -0.0934 -1.2335 -0.7104
 7238SOL    HW233348   2.896   1.109   2.495  0.6404  1.7495 -3.5436
 7239SOL     OW33349   1.502   1.169  12.763  0.1753  0.1776 -0.6053
 7239SOL    HW133350   1.553   1.243  12.795  2.5175 -2.0772  0.8939
 7239SOL    HW233351   1.428   1.162  12.823 -0.1936 -1.1492 -1.1946
 7240SOL     OW33352   3.006   1.514  13.177  0.7115 -0.3806 -0.1987
 7240SOL    HW133353   3.077   1.570  13.143 -0.7536  1.5902  0.0116
 7240SOL    HW233354   3.002   1.540  13.269  0.3428 -2.5011  0.3670
 7241SOL     OW33355   4.495   4.338   8.078 -0.3092  0.2086  0.1091
 7241SOL    HW133356   4.467   4.316   7.989  0.2781  0.0414 -0.0353
 7241SOL    HW233357   4.547   4.260   8.098 -1.8005 -1.0455 -0.9106
 7242SOL     OW33358   0.858   0.404   5.413  0.2443  0.4135 -0.7784
 7242SOL    HW133359   0.946   0.435   5.437 -0.0606  0.1805  0.6292
 7242SOL    HW233360   0.830   0.382   5.502  0.6511  0.4330 -0.6420
 7243SOL     OW33361   3.483   1.018   3.489 -0.1352 -0.2850 -0.5337
 7243SOL    HW133362   3.449   1.100   3.454  3.6660  1.9432  0.9134
 7243SOL    HW233363   3.510   0.987   3.402 -0.6916  3.9146 -2.1801
 7244SOL     OW33364   2.920   2.117   0.439 -0.3705  0.1784  0.2923
 7244SOL    HW133365   2.999   2.106   0.493 -0.3151  2.3601  0.6546
 7244SOL    HW233366   2.958   2.178   0.375  0.3975 -0.6765 -0.0718
 7245SOL     OW33367   1.019   2.790  12.907 -0.7027 -0.6117 -0.6727
 7245SOL    HW133368   1.109   2.777  12.937 -0.7897  0.5365  0.1034
 7245SOL    HW233369   1.024   2.882  12.881 -1.5401 -0.4236 -0.1832
 7246SOL     OW33370   0.524   4.658  11.751 -0.1050  0.2068  0.3829
 7246SOL    HW133371   0.495   4.706  11.829  0.0459 -0.3723  0.7936
 7246SOL    HW233372   0.532   4.720  11.679 -1.2551  1.6927  1.5375
 7247SOL     OW33373   1.887   4.476   6.306  0.1445 -0.6690  0.2765
 7247SOL    HW133374   1.910   4.384   6.301  2.0416 -0.1169 -1.6078
 7247SOL    HW233375   1.798   4.472   6.273  0.9137 -0.3588 -1.8539
 7248SOL     OW33376   0.228   2.935   6.463 -0.4271 -0.3395 -0.3021
 7248SOL    HW133377   0.263   3.020   6.436 -0.3397 -0.4439 -0.5185
 7248SOL    HW233378   0.289   2.864   6.444  1.3417  1.0839  0.0194
 7249SOL     OW33379   2.634   1.736   6.505 -0.2791 -0.2167  0.1285
 7249SOL    HW133380   2.604   1.663   6.557 -2.1226  1.1526  0.9838
 7249SOL    HW233381   2.624   1.819   6.553  0.0464  1.3449 -2.4793
 7250SOL     OW33382   1.406   3.965   0.212  0.0336  0.9399  0.4085
 7250SOL    HW133383   1.404   4.030   0.141  2.2107  2.0493  1.3590
 7250SOL    HW233384   1.318   3.928   0.218  0.1379  0.7366  0.6960
 7251SOL     OW33385   4.452   0.888   1.021 -0.0638 -0.2277 -0.4287
 7251SOL    HW133386   4.414   0.962   0.973 -1.7022  1.5558  3.5497
 7251SOL    HW233387   4.397   0.904   1.098  2.5906  1.0388  1.1912
 7252SOL     OW33388   0.568   0.750  14.196  0.1041  0.1592 -0.3596
 7252SOL    HW133389   0.578   0.655  14.203  1.0657  0.2641 -0.2913
 7252SOL    HW233390   0.542   0.774  14.107  2.3204 -1.6209 -1.4785
 7253SOL     OW33391   1.854   1.608   3.878 -0.6179  0.5553 -0.4733
 7253SOL    HW133392   1.843   1.562   3.795  0.5307 -0.1005 -0.2630
 7253SOL    HW233393   1.807   1.689   3.860 -0.0035  1.1489  0.5935
 7254SOL     OW33394   0.112   0.753   4.362 -0.3456  0.0257 -0.5303
 7254SOL    HW133395   0.119   0.838   4.320  0.8211 -1.1733 -2.7238
 7254SOL    HW233396   0.199   0.755   4.401 -0.7486 -1.1867  0.4328
 7255SOL     OW33397   3.088   3.108  17.217 -0.7216 -0.2843  0.0868
 7255SOL    HW133398   3.031   3.170  17.172  1.3198  1.7144  0.2133
 7255SOL    HW233399   3.166   3.164  17.224 -2.1650  1.7160  0.1864
 7256SOL     OW33400   0.000   0.593  15.102 -0.0592 -0.1559 -0.0718
 7256SOL    HW133401   0.012   0.535  15.026 -0.0284 -2.0143  1.3457
 7256SOL    HW233402   4.707   0.533  15.170 -1.8819 -1.3142 -1.9277
 7257SOL     OW33403   2.489   1.554  14.960  0.1279 -0.1780 -0.1902
 7257SOL    HW133404   2.543   1.539  15.038 -0.6947 -1.1410  0.2012
 7257SOL    HW233405   2.400   1.534  14.990  0.2797 -1.7508 -0.7515
 7258SOL     OW33406   2.604   3.655   4.402  0.4654 -0.2420  0.1523
 7258SOL    HW133407   2.605   3.658   4.498 -0.7137  1.9939  0.0884
 7258SOL    HW233408   2.657   3.577   4.382 -0.2725 -0.8440  0.5618
 7259SOL     OW33409   1.237   1.034   3.771 -0.8134 -0.4982  0.5626
 7259SOL    HW133410   1.303   1.019   3.838  0.4675 -1.0806 -0.8313
 7259SOL    HW233411   1.188   1.097   3.823 -0.9638  0.7072 -1.0141
 7260SOL     OW33412   0.758   2.095   5.275 -0.6397 -0.1632  0.1883
 7260SOL    HW133413   0.844   2.108   5.234 -0.3656 -0.1410  0.7612
 7260SOL    HW233414   0.765   2.161   5.344  0.9305  0.7596 -0.8490
 7261SOL     OW33415   1.514   1.625   7.370 -0.1311 -0.3815 -0.1916
 7261SOL    HW133416   1.536   1.593   7.283  0.9419 -1.2087  0.3747
 7261SOL    HW233417   1.598   1.644   7.412  0.1847  1.6854 -1.8120
 7262SOL     OW33418   1.223   0.795   8.634 -0.1473 -0.5694 -0.4808
 7262SOL    HW133419   1.212   0.836   8.721 -3.3384 -1.3792 -0.4893
 7262SOL    HW233420   1.253   0.871   8.585 -3.7190  0.8424 -0.4991
 7263SOL     OW33421   1.823   3.479  14.676 -0.2568  0.5841  0.2758
 7263SOL    HW133422   1.782   3.396  14.701  1.5476 -0.4394 -0.1328
 7263SOL    HW233423   1.829   3.535  14.753  1.3159  1.1152 -0.2327
 7264SOL     OW33424   4.094   1.035   2.761  0.1271  0.4988  0.0520
 7264SOL    HW133425   4.114   0.994   2.676  2.2687  0.3366  0.6376
 7264SOL    HW233426   4.059   0.961   2.811 -0.2655  0.1459 -0.7452
 7265SOL     OW33427   0.027   1.094  15.054 -0.4110 -0.7835  0.0273
 7265SOL    HW133428   0.118   1.066  15.044 -1.2128 -2.9963 -0.9245
 7265SOL    HW233429   4.715   1.019  15.024 -0.7432 -0.2834 -0.6768
 7266SOL     OW33430   3.146   4.258   5.890  0.2568  0.5356  0.0215
 7266SOL    HW133431   3.198   4.337   5.879  1.0788 -0.2175 -1.5275
 7266SOL    HW233432   3.190   4.232   5.971  0.6085  0.4168 -0.2071
 7267SOL     OW33433   3.540   2.985  14.427 -0.1600  0.0110 -0.2353
 7267SOL    HW133434   3.542   2.890  14.431 -2.4770 -0.0691 -0.8077
 7267SOL    HW233435   3.509   2.998  14.337  1.1518 -0.8321 -0.7988
 7268SOL     OW33436   4.100   2.857   8.413  0.0454  0.3212  0.1042
 7268SOL    HW133437   4.018   2.870   8.366 -0.8109 -1.2199  1.1726
 7268SOL    HW233438   4.084   2.778   8.464 -0.5384  0.9661  0.9228
 7269SOL     OW33439   2.732   4.071  11.843  0.5412  0.3358  0.2594
 7269SOL    HW133440   2.711   4.066  11.749 -1.9390  0.0522  0.8264
 7269SOL    HW233441   2.746   4.163  11.865  2.1711 -0.2821  1.7247
 7270SOL     OW33442   0.205   1.318   9.772  0.3964 -0.3702 -0.2062
 7270SOL    HW133443   0.167   1.403   9.797  3.2425  0.8332  0.1062
 7270SOL    HW233444   0.134   1.255   9.768 -0.1148  0.0634  1.8177
 7271SOL     OW33445   3.355   4.001   1.154  0.4153  0.0797 -0.3492
 7271SOL    HW133446   3.271   3.956   1.165 -0.0423  0.9883 -0.1083
 7271SOL    HW233447   3.341   4.039   1.068 -1.8306 -1.3508 -0.5973
 7272SOL     OW33448   2.912   3.749  15.768 -0.1017  0.2757 -0.3525
 7272SOL    HW133449   2.981   3.815  15.774 -0.9690  1.1439  0.1785
 7272SOL    HW233450   2.961   3.687  15.715 -0.3019  0.6231 -0.9440
 7273SOL     OW33451   0.972   0.499   3.309 -0.2804  0.9168  0.1717
 7273SOL    HW133452   0.896   0.546   3.345 -1.5547 -0.8501 -0.1767
 7273SOL    HW233453   0.979   0.426   3.371  1.6919  1.5087  0.6432
 7274SOL     OW33454   2.472   3.797   5.440  0.3746  0.0066  0.5701
 7274SOL    HW133455   2.454   3.807   5.347  1.2337 -1.4466  0.2518
 7274SOL    HW233456   2.512   3.710   5.435 -0.0201 -0.0767 -0.9069
 7275SOL     OW33457   0.229   1.896   2.023  0.5096  0.0612  0.6245
 7275SOL    HW133458   0.180   1.978   2.012  0.0958 -0.2727 -0.0041
 7275SOL    HW233459   0.190   1.849   1.950 -0.8170  2.7568 -0.4305
 7276SOL     OW33460   2.069   2.216  11.820 -0.3558 -0.5882 -0.0632
 7276SOL    HW133461   2.011   2.262  11.759 -1.2401 -1.4411  0.1429
 7276SOL    HW233462   2.012   2.174  11.884 -1.2263 -2.3249 -1.9523
 7277SOL     OW33463   4.005   1.704   2.368  0.2690  0.1975 -0.7091
 7277SOL    HW133464   4.050   1.679   2.448 -0.8070  0.5836  0.0065
 7277SOL    HW233465   4.009   1.799   2.364 -1.2278  0.2191 -1.6006
 7278SOL     OW33466   4.017   0.285   5.172  0.1088  0.3489 -0.3989
 7278SOL    HW133467   3.972   0.222   5.229 -0.1799  0.8390 -0.0899
 7278SOL    HW233468   4.044   0.233   5.096  0.0440  2.3603 -1.7889
 7279SOL     OW33469   0.038   0.538  10.117 -0.7951 -0.2157  0.5650
 7279SOL    HW133470   0.010   0.628  10.102 -1.6214 -0.7224 -0.9048
 7279SOL    HW233471   0.060   0.543  10.210 -0.5627 -1.0617  0.5539
 7280SOL     OW33472   2.439   1.412   1.178 -0.5189  0.2027 -0.2231
 7280SOL    HW133473   2.408   1.394   1.089 -1.6389  1.2657 -0.0480
 7280SOL    HW233474   2.355   1.422   1.224 -0.3075 -1.7346  0.5796
 7281SOL     OW33475   1.417   0.365   4.046  0.4439  0.0211 -0.0253
 7281SOL    HW133476   1.347   0.429   4.033 -1.0212 -0.9526  3.3254
 7281SOL    HW233477   1.356   0.294   4.061 -0.2777 -0.3616 -4.6738
 7282SOL     OW33478   1.560   2.991   9.724 -0.4649  0.0367 -0.3939
 7282SOL    HW133479   1.650   3.010   9.751 -0.3296 -0.1806 -0.6965
 7282SOL    HW233480   1.571   2.952   9.637 -0.0379  0.3408 -0.4805
 7283SOL     OW33481   0.133   0.592  15.564 -0.0245 -0.4208  0.1949
 7283SOL    HW133482   0.215   0.600  15.516  1.2437 -1.5587  2.1479
 7283SOL    HW233483   0.074   0.653  15.520  0.0220  1.0768  2.2192
 7284SOL     OW33484   3.232   4.149   5.427 -0.1353 -0.3428 -0.2355
 7284SOL    HW133485   3.204   4.066   5.388  1.6705 -1.5712  1.1012
 7284SOL    HW233486   3.290   4.182   5.358  2.6932 -0.3988  2.1173
 7285SOL     OW33487   3.824   4.332  10.325 -0.3446  0.5022  0.2657
 7285SOL    HW133488   3.851   4.407  10.272 -2.5932  1.0265 -0.1421
 7285SOL    HW233489   3.789   4.280  10.253  1.6149  1.3934 -1.3342
 7286SOL     OW33490   4.654   0.642   6.200  0.3169 -0.3211 -0.2561
 7286SOL    HW133491   4.735   0.590   6.192  0.0095 -1.1294  1.8987
 7286SOL    HW233492   4.588   0.572   6.202  0.6245 -0.6298 -0.6893
 7287SOL     OW33493   2.519   4.654   3.129  0.1359  0.3690 -0.4271
 7287SOL    HW133494   2.609   4.683   3.117  0.2235  0.0503 -0.5473
 7287SOL    HW233495   2.476   4.701   3.057  0.1853  0.2866 -0.5099
 7288SOL     OW33496   2.531   1.002   3.513  0.2263 -0.3487  0.5046
 7288SOL    HW133497   2.438   0.983   3.510  0.5556 -1.7815 -0.3937
 7288SOL    HW233498   2.531   1.093   3.482 -0.8958 -1.1290 -1.7447
 7289SOL     OW33499   3.430   2.959   7.548 -0.3455  0.1645 -0.0328
 7289SOL    HW133500   3.475   2.876   7.565  1.4286  0.7835 -1.6620
 7289SOL    HW233501   3.394   2.937   7.462  0.7343 -1.1120 -0.1584
 7290SOL     OW33502   2.147   4.212  16.464 -0.1006 -0.4090 -0.0594
 7290SOL    HW133503   2.080   4.156  16.504 -0.2972 -1.2602 -1.5523
 7290SOL    HW233504   2.215   4.206  16.530  0.1927 -0.2028 -0.3456
 7291SOL     OW33505   0.814   0.289   7.992 -0.1150  0.2382  0.1177
 7291SOL    HW133506   0.893   0.252   7.952 -0.5061  0.2935 -0.7039
 7291SOL    HW233507   0.794   0.363   7.935 -1.9478 -0.2639  0.1289
 7292SOL     OW33508   2.622   0.988   9.143  0.5496  0.5180 -0.3257
 7292SOL    HW133509   2.570   1.068   9.140  0.1860  0.3005  0.1239
 7292SOL    HW233510   2.672   1.000   9.063  0.0640  0.9905 -0.5578
 7293SOL     OW33511   0.558   2.257   7.389  0.1796 -0.5132 -0.5941
 7293SOL    HW133512   0.555   2.169   7.351 -3.9405 -1.0684  1.0483
 7293SOL    HW233513   0.574   2.229   7.479 -0.3415 -1.8529 -0.9176
 7294SOL     OW33514   3.574   1.450   5.379  0.2184 -0.3223 -0.2322
 7294SOL    HW133515   3.643   1.507   5.414  0.2377 -1.0620  0.9257
 7294SOL    HW233516   3.615   1.430   5.295  0.3738  1.6145 -0.6196
 7295SOL     OW33517   1.818   2.715   6.304 -0.9972  0.0559  0.9448
 7295SOL    HW133518   1.783   2.734   6.217 -0.9445  0.0236  0.9174
 7295SOL    HW233519   1.838   2.805   6.332  0.7777 -0.4922  1.4415
 7296SOL     OW33520   0.095   1.843  11.797 -0.3832 -0.0087  0.0494
 7296SOL    HW133521   0.141   1.926  11.808  1.3551 -1.0277  0.3838
 7296SOL    HW233522   0.134   1.791  11.867 -1.3633  1.8142  1.9444
 7297SOL     OW33523   3.479   3.779  16.772  0.1480  0.2723  0.0814
 7297SOL    HW133524   3.463   3.685  16.779 -1.4287  0.3742 -2.1300
 7297SOL    HW233525   3.418   3.800  16.701 -0.8433  3.4982  1.8674
 7298SOL     OW33526   4.240   3.535   8.418 -0.3062  0.2871 -0.0613
 7298SOL    HW133527   4.192   3.617   8.407  0.5405  0.7699 -0.1885
 7298SOL    HW233528   4.171   3.469   8.417 -0.3795  0.3972 -1.5148
 7299SOL     OW33529   1.351   3.113  11.595  0.0042 -0.7043  0.1798
 7299SOL    HW133530   1.342   3.185  11.658 -0.3566 -1.6465  1.2081
 7299SOL    HW233531   1.264   3.074  11.597 -0.1286 -0.3846  0.8000
 7300SOL     OW33532   2.746   3.381   4.004  0.3028 -0.5319 -0.7134
 7300SOL    HW133533   2.821   3.354   3.952  1.8355  0.3298  1.0231
 7300SOL    HW233534   2.703   3.295   4.002 -0.2677 -0.2091 -1.9661
 7301SOL     OW33535   1.012   3.201   8.987  0.1816  0.1177 -0.3873
 7301SOL    HW133536   1.008   3.242   9.073 -2.7248 -0.1571 -0.3857
 7301SOL    HW233537   0.939   3.139   8.986  0.7756 -0.5878  0.3675
 7302SOL     OW33538   0.626   2.710   2.065 -0.2985 -0.1383 -0.5249
 7302SOL    HW133539   0.676   2.780   2.024  1.2338 -0.1632  1.3623
 7302SOL    HW233540   0.544   2.730   2.018  0.7761  0.7345 -2.0139
 7303SOL     OW33541   2.986   4.230   9.483  0.0582 -0.6502  0.1101
 7303SOL    HW133542   3.007   4.286   9.559  0.7955 -0.8844  0.0790
 7303SOL    HW233543   3.008   4.143   9.517  0.2653 -1.6397 -2.6271
 7304SOL     OW33544   1.710   0.241   2.402 -0.2856 -0.1918 -0.0841
 7304SOL    HW133545   1.630   0.242   2.456  1.1650  1.8821  2.0220
 7304SOL    HW233546   1.774   0.248   2.473  0.1679  0.4841 -0.5719
 7305SOL     OW33547   1.914   1.355  15.464 -0.6233 -0.2153 -0.1819
 7305SOL    HW133548   1.824   1.326  15.450 -2.1947  3.6827  1.6761
 7305SOL    HW233549   1.943   1.362  15.373  0.4309 -1.1066  0.0832
 7306SOL     OW33550   0.335   3.677  12.281 -0.3487  0.0918  0.0414
 7306SOL    HW133551   0.348   3.584  12.300 -1.7937  0.0565  0.8830
 7306SOL    HW233552   0.263   3.695  12.342 -0.4304 -1.1628  0.3122
 7307SOL     OW33553   1.249   0.557  16.189  0.4857 -0.2376  0.2120
 7307SOL    HW133554   1.325   0.552  16.131  1.7182  3.6726  1.5152
 7307SOL    HW233555   1.183   0.508  16.142 -0.6909 -0.5125  2.1404
 7308SOL     OW33556   2.577   0.899   0.734  0.6311 -0.3631  0.2223
 7308SOL    HW133557   2.481   0.899   0.727  0.6806 -0.0805 -0.3842
 7308SOL    HW233558   2.583   0.979   0.682  4.1973 -1.4819 -1.0570
 7309SOL     OW33559   4.205   2.459   7.105 -0.0225  0.5695 -1.3323
 7309SOL    HW133560   4.185   2.545   7.068 -0.2666  1.7368  1.4939
 7309SOL    HW233561   4.286   2.471   7.155  0.1473 -0.6830 -1.3051
 7310SOL     OW33562   4.236   3.124   7.791  0.2115  0.7929  0.2518
 7310SOL    HW133563   4.276   3.052   7.741 -0.4067 -0.2286  1.2217
 7310SOL    HW233564   4.290   3.127   7.870 -2.7308 -0.1673  2.2972
 7311SOL     OW33565   3.667   3.453   9.210  0.7876 -0.3220  0.6112
 7311SOL    HW133566   3.578   3.480   9.233  0.2504 -1.6377  0.0871
 7311SOL    HW233567   3.668   3.358   9.225 -0.0437 -0.2001  1.4427
 7312SOL     OW33568   3.246   2.674   2.475 -0.4289 -0.9233  0.2634
 7312SOL    HW133569   3.278   2.660   2.386 -1.0273  0.5931 -0.1859
 7312SOL    HW233570   3.322   2.653   2.530 -1.4024  2.2867  2.8872
 7313SOL     OW33571   1.548   0.863   8.449  0.1867 -0.1186  0.3117
 7313SOL    HW133572   1.492   0.887   8.375  1.2657  0.1260 -0.4093
 7313SOL    HW233573   1.499   0.892   8.526 -3.1421 -2.6299 -0.8338
 7314SOL     OW33574   0.055   2.217  14.230  0.3313  0.2213  0.4819
 7314SOL    HW133575   0.104   2.211  14.148 -2.1520  0.1973 -0.9778
 7314SOL    HW233576   0.076   2.308  14.254  0.8711 -0.1718  1.5004
 7315SOL     OW33577   3.524   0.714   6.709  0.6192 -0.4220 -0.1482
 7315SOL    HW133578   3.520   0.689   6.617 -0.1070 -0.5813 -0.0737
 7315SOL    HW233579   3.578   0.642   6.742 -2.1625 -1.5871  1.8261
 7316SOL     OW33580   4.021   2.823   2.864  0.4139 -0.3606  0.0640
 7316SOL    HW133581   4.091   2.881   2.837 -1.4532  0.7898 -2.3519
 7316SOL    HW233582   4.016   2.761   2.790  1.5717 -1.0149  0.5429
 7317SOL     OW33583   1.976   2.073   2.408 -0.1547  0.0386 -0.2083
 7317SOL    HW133584   2.064   2.105   2.428 -0.0506 -1.1859  1.2703
 7317SOL    HW233585   1.995   2.028   2.325 -0.9198 -0.7006  0.0180
 7318SOL     OW33586   4.329   2.824  11.064 -0.2011  0.0728  0.0908
 7318SOL    HW133587   4.362   2.901  11.111 -0.6461 -0.4519  1.2600
 7318SOL    HW233588   4.270   2.870  11.004  1.1648 -0.6634 -1.8125
 7319SOL     OW33589   4.580   1.197   1.069  0.2120  0.0025  0.1441
 7319SOL    HW133590   4.532   1.162   0.994 -0.2466  0.5048  0.2008
 7319SOL    HW233591   4.520   1.266   1.098  0.3378  0.6162 -1.0563
 7320SOL     OW33592   2.339   2.014  11.300 -0.2172 -0.3445  0.1730
 7320SOL    HW133593   2.429   1.985  11.318 -0.9399 -1.8395  1.3729
 7320SOL    HW233594   2.334   2.007  11.205  0.6279 -3.4029  0.3430
 7321SOL     OW33595   1.791   1.355   6.586  0.7746  0.2373 -0.1260
 7321SOL    HW133596   1.848   1.426   6.617  1.7822 -0.1560 -1.0816
 7321SOL    HW233597   1.819   1.342   6.495  0.3777 -1.0068 -0.0697
 7322SOL     OW33598   0.821   1.747   5.015 -0.0721  0.1239 -0.1064
 7322SOL    HW133599   0.908   1.708   5.020 -0.8970 -1.7566 -0.2350
 7322SOL    HW233600   0.797   1.740   5.107 -0.0819  2.4950  0.0572
 7323SOL     OW33601   3.089   0.833  17.608  0.0818  0.2796 -0.0812
 7323SOL    HW133602   3.099   0.809  17.516 -1.8371  0.6964 -0.3986
 7323SOL    HW233603   3.116   0.924  17.614 -1.8649  0.8228  0.5561
 7324SOL     OW33604   3.353   0.270  10.436 -0.2431 -0.1240  0.2580
 7324SOL    HW133605   3.350   0.274  10.340  0.9492  0.3541  0.2422
 7324SOL    HW233606   3.263   0.291  10.461  0.6952  1.6298  2.0581
 7325SOL     OW33607   1.187   0.188   8.488  0.1997  0.0031 -0.6257
 7325SOL    HW133608   1.108   0.189   8.433 -0.3797  4.0122  0.2900
 7325SOL    HW233609   1.160   0.256   8.551  0.6247  0.5887 -1.0770
 7326SOL     OW33610   2.801   2.057   8.295  0.1187 -0.4635 -0.2318
 7326SOL    HW133611   2.792   1.975   8.345 -0.9832 -2.3082 -3.4789
 7326SOL    HW233612   2.896   2.062   8.298  0.2590 -2.8672 -0.6679
 7327SOL     OW33613   3.748   2.603   2.098 -0.1988 -0.1454 -0.0568
 7327SOL    HW133614   3.721   2.672   2.038  0.7187 -1.4154 -1.9100
 7327SOL    HW233615   3.761   2.652   2.180  2.0036 -1.0917  0.1593
 7328SOL     OW33616   3.787   2.714  15.565 -0.4466  1.1449  0.3855
 7328SOL    HW133617   3.781   2.800  15.523 -1.2703  0.5356 -0.7594
 7328SOL    HW233618   3.855   2.737  15.628  1.2351  0.5927 -1.2469
 7329SOL     OW33619   0.466   3.534   9.917  0.3603  0.1306 -0.0716
 7329SOL    HW133620   0.490   3.604   9.978 -0.0795  0.7842 -0.6518
 7329SOL    HW233621   0.450   3.468   9.984 -0.0594  2.0665  1.7612
 7330SOL     OW33622   4.524   3.816   2.634  0.8617 -0.2310  0.3520
 7330SOL    HW133623   4.499   3.744   2.575 -0.0312 -1.6822  2.4856
 7330SOL    HW233624   4.433   3.842   2.649  1.0453  0.0193  1.0304
 7331SOL     OW33625   2.848   2.489   7.704 -0.2140  0.4038  0.5083
 7331SOL    HW133626   2.940   2.465   7.712 -0.0966  0.5035 -0.4899
 7331SOL    HW233627   2.848   2.524   7.615  0.1414  0.7424  0.6431
 7332SOL     OW33628   0.820   1.706   8.270  0.2521  0.0182  0.0758
 7332SOL    HW133629   0.870   1.683   8.192 -2.3090 -1.0913 -1.2273
 7332SOL    HW233630   0.849   1.635   8.327  1.5657  0.1995 -0.3748
 7333SOL     OW33631   3.676   3.501   5.066 -0.4035 -0.2079  0.2312
 7333SOL    HW133632   3.771   3.491   5.057 -0.6515 -3.4305  1.0658
 7333SOL    HW233633   3.662   3.488   5.160  1.6877 -0.6660  0.4974
 7334SOL     OW33634   1.224   4.525   5.468  0.1888 -0.4115 -0.1230
 7334SOL    HW133635   1.268   4.574   5.398  1.9928 -2.4575 -0.4228
 7334SOL    HW233636   1.147   4.481   5.432  0.0312 -0.7920  0.6854
 7335SOL     OW33637   1.646   1.422   5.264 -0.0146 -0.0664 -0.1136
 7335SOL    HW133638   1.674   1.491   5.204  1.5849 -0.8629 -0.2937
 7335SOL    HW233639   1.563   1.463   5.288  1.6453  0.7500  4.3051
 7336SOL     OW33640   3.419   0.715  11.948 -0.3013 -0.4950 -0.5866
 7336SOL    HW133641   3.336   0.758  11.927 -1.1586 -1.6486  0.4424
 7336SOL    HW233642   3.468   0.788  11.985 -0.9705  0.3422 -1.3413
 7337SOL     OW33643   3.173   0.755   9.277 -0.0049 -0.0781  0.4285
 7337SOL    HW133644   3.173   0.760   9.182  1.1532  1.9536  0.5211
 7337SOL    HW233645   3.217   0.839   9.290 -1.9872  0.8526  1.1884
 7338SOL     OW33646   0.543   0.899   2.159 -0.2841 -0.4606 -0.0489
 7338SOL    HW133647   0.558   0.977   2.106  0.8565  0.4428  1.5980
 7338SOL    HW233648   0.628   0.856   2.149  0.0801  0.4560 -0.8424
 7339SOL     OW33649   2.813   4.581   8.062 -0.1387 -0.5581  0.2068
 7339SOL    HW133650   2.825   4.658   8.007 -0.4062 -0.1931  0.6558
 7339SOL    HW233651   2.907   4.568   8.071 -0.1752 -1.1358 -0.2279
 7340SOL     OW33652   3.556   2.378   5.634 -0.3149 -0.1922  0.6227
 7340SOL    HW133653   3.488   2.387   5.701 -0.0426 -1.6081  1.0938
 7340SOL    HW233654   3.495   2.366   5.561  0.1750  0.5827  0.0913
 7341SOL     OW33655   3.675   1.260   5.696 -1.0396  0.0404  0.0310
 7341SOL    HW133656   3.628   1.264   5.612 -0.9852  0.7587  0.0353
 7341SOL    HW233657   3.736   1.189   5.676 -2.1852 -0.6056 -1.2101
 7342SOL     OW33658   0.914   2.252  17.714  0.0322  0.1224  0.0287
 7342SOL    HW133659   0.924   2.320  17.647 -0.2494  1.2860  1.1517
 7342SOL    HW233660   0.990   2.196  17.699  0.5941  1.3010 -1.6390
 7343SOL     OW33661   3.479   2.623   5.330  0.1998  0.4723 -0.0893
 7343SOL    HW133662   3.543   2.552   5.337  0.5795  0.7017 -1.4135
 7343SOL    HW233663   3.428   2.598   5.254 -0.3393  0.4676  0.2731
 7344SOL     OW33664   2.554   0.988   3.132 -0.0913  0.0938  0.5545
 7344SOL    HW133665   2.463   0.993   3.102  0.5747 -3.3461 -2.0286
 7344SOL    HW233666   2.587   0.921   3.073 -2.8104 -0.1893 -0.6753
 7345SOL     OW33667   0.853   3.009  15.079  0.2681 -0.1299  0.2647
 7345SOL    HW133668   0.822   2.928  15.038 -2.1069  2.1084 -2.2937
 7345SOL    HW233669   0.824   3.079  15.021  2.0111  0.4838  0.1312
 7346SOL     OW33670   0.420   3.580  17.046 -0.0680  0.1187 -0.0495
 7346SOL    HW133671   0.330   3.613  17.042  0.4121  1.2605 -1.4018
 7346SOL    HW233672   0.407   3.496  17.002  0.2854  0.9579 -1.7642
 7347SOL     OW33673   2.020   1.599   4.371 -0.3653  0.9124  0.0975
 7347SOL    HW133674   2.027   1.642   4.286 -0.0382 -0.8738 -0.7713
 7347SOL    HW233675   2.074   1.663   4.417  0.8240 -1.5773  2.1564
 7348SOL     OW33676   2.690   3.535   1.162  0.3439  0.4070  0.4621
 7348SOL    HW133677   2.639   3.454   1.165 -0.2025  0.7334  0.2376
 7348SOL    HW233678   2.671   3.561   1.071  0.4311  0.9426  0.6014
 7349SOL     OW33679   1.952   2.764   8.842  0.1354 -0.3261  0.1118
 7349SOL    HW133680   1.898   2.842   8.840 -0.5553 -0.7933  0.6176
 7349SOL    HW233681   1.914   2.716   8.915 -0.9027  0.4860  0.1048
 7350SOL     OW33682   1.704   0.187   5.648 -0.5657 -0.6503 -0.0236
 7350SOL    HW133683   1.684   0.096   5.626  1.3373 -0.8798 -0.8638
 7350SOL    HW233684   1.742   0.216   5.565 -0.9901 -1.2965 -0.4513
 7351SOL     OW33685   1.873   1.592   5.699  0.0124  0.0866  0.1355
 7351SOL    HW133686   1.802   1.532   5.679  0.4957 -0.7700  1.0379
 7351SOL    HW233687   1.870   1.675   5.650 -1.3371 -0.1914 -0.2421
 7352SOL     OW33688   4.524   0.648   1.733 -0.6277  0.3309  0.2085
 7352SOL    HW133689   4.565   0.708   1.795  0.2469  0.2984 -0.3225
 7352SOL    HW233690   4.579   0.659   1.655 -2.1739  1.0727 -0.7570
 7353SOL     OW33691   3.292   2.613   9.231  0.1417  0.5174  0.0738
 7353SOL    HW133692   3.375   2.661   9.226  0.6923 -0.5785 -1.2336
 7353SOL    HW233693   3.333   2.530   9.207  0.3725  0.2646  1.3269
 7354SOL     OW33694   3.843   0.376  16.851  0.4317 -0.0148 -0.4286
 7354SOL    HW133695   3.865   0.427  16.929  0.1208  0.1952 -0.4802
 7354SOL    HW233696   3.928   0.369  16.808  0.4967 -1.5250 -0.0578
 7355SOL     OW33697   2.294   1.790   8.914  0.1237  0.0998  0.2885
 7355SOL    HW133698   2.304   1.740   8.833 -0.6437  0.2216  0.1195
 7355SOL    HW233699   2.387   1.813   8.923  0.3960 -1.5527  1.7806
 7356SOL     OW33700   4.698   3.664   7.000  0.3388  0.2759  0.2466
 7356SOL    HW133701   4.629   3.633   7.058  0.3451  1.2047  0.7444
 7356SOL    HW233702   4.648   3.724   6.944 -0.2401 -2.3522 -2.0255
 7357SOL     OW33703   2.095   3.131  15.777 -0.5529  0.2189 -0.3179
 7357SOL    HW133704   2.187   3.138  15.752 -0.2665  0.9250  0.9381
 7357SOL    HW233705   2.061   3.115  15.689  1.0378 -2.1121 -0.5098
 7358SOL     OW33706   1.062   1.763  17.450 -0.2692  0.8506 -0.3383
 7358SOL    HW133707   1.040   1.760  17.543  1.6639  1.7794  0.1436
 7358SOL    HW233708   0.983   1.725  17.412 -0.6071  0.9362  0.2657
 7359SOL     OW33709   4.052   3.322   9.121 -0.4043  0.6690 -0.1042
 7359SOL    HW133710   4.041   3.248   9.061  0.1218  0.3970  0.1339
 7359SOL    HW233711   4.116   3.284   9.181 -0.4111  1.1401  0.1913
 7360SOL     OW33712   2.157   3.049   9.770 -0.0902  0.5867 -0.4582
 7360SOL    HW133713   2.094   2.989   9.730 -0.2491  0.5758 -0.1877
 7360SOL    HW233714   2.231   3.039   9.710  1.1543 -0.3002  1.2230
 7361SOL     OW33715   0.871   3.499   8.969 -0.8424  0.5393 -0.1746
 7361SOL    HW133716   0.946   3.554   8.989  1.1299 -1.4095 -2.0575
 7361SOL    HW233717   0.849   3.471   9.058 -0.1803 -2.1174 -0.8327
 7362SOL     OW33718   1.927   3.472   4.837  0.2197  0.2124  0.7842
 7362SOL    HW133719   1.847   3.436   4.876 -0.6846  0.0094 -1.2607
 7362SOL    HW233720   1.907   3.565   4.824  0.4277  0.4584  2.2646
 7363SOL     OW33721   4.145   1.861   3.471 -0.3305  0.4949  0.1290
 7363SOL    HW133722   4.150   1.900   3.558  2.0307 -1.1031  0.7086
 7363SOL    HW233723   4.215   1.902   3.420  0.9765 -1.1808  0.5757
 7364SOL     OW33724   1.419   0.473   9.346 -0.1259  0.0641  0.3943
 7364SOL    HW133725   1.438   0.564   9.322 -0.4323  0.2623  0.9182
 7364SOL    HW233726   1.483   0.417   9.302 -1.0873 -0.6611 -0.0913
 7365SOL     OW33727   0.375   2.471   1.745  0.2986  0.3339 -0.9679
 7365SOL    HW133728   0.317   2.546   1.739 -0.6003 -0.1631  1.4817
 7365SOL    HW233729   0.455   2.512   1.711  3.0566 -3.5352  0.7941
 7366SOL     OW33730   2.076   4.643   8.333  0.1391 -0.1550  0.2291
 7366SOL    HW133731   1.992   4.676   8.301  0.9980  1.0546 -0.7844
 7366SOL    HW233732   2.067   4.558   8.291  0.7074 -0.7837  1.3661
 7367SOL     OW33733   2.280   0.880   7.242 -0.2993 -0.2274  0.1220
 7367SOL    HW133734   2.220   0.881   7.317 -1.0976 -2.3056 -0.4829
 7367SOL    HW233735   2.215   0.849   7.179  0.7018 -2.1907  0.0253
 7368SOL     OW33736   3.271   3.707   3.150  0.5029 -0.3307  0.0633
 7368SOL    HW133737   3.357   3.670   3.167 -0.2122 -2.0244  0.0220
 7368SOL    HW233738   3.212   3.631   3.150 -1.2746  1.0323 -0.8506
 7369SOL     OW33739   0.142   0.124   1.894  0.5156 -0.0045 -0.1013
 7369SOL    HW133740   0.195   0.203   1.900 -0.6923  0.6869  1.2666
 7369SOL    HW233741   0.055   0.149   1.922 -0.0929 -1.9730 -0.2130
 7370SOL     OW33742   0.928   1.284   6.873 -0.0959  0.4790  0.0994
 7370SOL    HW133743   0.874   1.303   6.796  0.8562 -1.1106 -0.9456
 7370SOL    HW233744   0.873   1.237   6.936 -1.4404  2.4032  0.3736
 7371SOL     OW33745   1.121   0.306  16.387  0.3292  0.6826 -0.3727
 7371SOL    HW133746   1.149   0.397  16.396  0.4048  0.7666 -1.4283
 7371SOL    HW233747   1.087   0.310  16.298  0.0315  1.6909 -0.2159
 7372SOL     OW33748   0.353   1.512   8.112  0.0801  0.8491  0.1443
 7372SOL    HW133749   0.393   1.596   8.092 -2.4322  1.7944 -1.0303
 7372SOL    HW233750   0.411   1.485   8.182  0.1535 -0.1810 -0.3075
 7373SOL     OW33751   3.647   0.811  13.010 -1.2655  0.8841  0.8871
 7373SOL    HW133752   3.725   0.780  12.963  0.1905  2.1798  2.4265
 7373SOL    HW233753   3.679   0.798  13.099 -1.9858 -1.6355  0.7925
 7374SOL     OW33754   0.526   0.766   5.191 -0.4184 -0.2959 -0.6591
 7374SOL    HW133755   0.541   0.672   5.201 -1.4295 -0.3281  0.5464
 7374SOL    HW233756   0.461   0.771   5.261  3.1037  2.2873  2.4218
 7375SOL     OW33757   0.355   0.727   3.658  0.8692 -0.7621  0.1884
 7375SOL    HW133758   0.444   0.716   3.692  0.9001 -0.1476  0.3024
 7375SOL    HW233759   0.322   0.781   3.730 -0.2439 -1.5455  0.2727
 7376SOL     OW33760   0.775   4.499   0.134  0.2436  0.6908 -0.1633
 7376SOL    HW133761   0.846   4.558   0.157 -0.6928  1.8975 -0.3515
 7376SOL    HW233762   0.792   4.485   0.041 -2.8820  1.9276 -0.9131
 7377SOL     OW33763   2.558   3.178  14.947  0.7519  0.4810 -0.4237
 7377SOL    HW133764   2.500   3.127  14.891  0.9379 -1.0272  0.7458
 7377SOL    HW233765   2.629   3.213  14.894  0.6582  1.2920 -0.0056
 7378SOL     OW33766   1.047   3.773  15.044  0.1135  0.4276 -0.1568
 7378SOL    HW133767   1.136   3.736  15.039 -0.7068 -1.6683  0.8461
 7378SOL    HW233768   1.020   3.731  14.963  0.7640  1.6091 -0.9815
 7379SOL     OW33769   1.970   1.466  15.228  0.5589 -0.0450 -0.4202
 7379SOL    HW133770   1.941   1.428  15.145  1.0662 -1.2439 -0.0432
 7379SOL    HW233771   1.924   1.550  15.229 -0.1741 -0.4532  0.4895
 7380SOL     OW33772   2.002   4.689   5.931  0.0911  0.3819 -0.2736
 7380SOL    HW133773   1.979   0.010   5.859 -0.3995  0.0121 -0.4179
 7380SOL    HW233774   2.095   4.671   5.919 -0.1036  0.4086 -1.8279
 7381SOL     OW33775   2.058   1.469   6.637 -0.3259 -0.1004 -0.0989
 7381SOL    HW133776   2.129   1.445   6.696 -0.1973 -0.0190 -0.2231
 7381SOL    HW233777   2.082   1.441   6.549 -2.1022  2.9664 -1.5903
 7382SOL     OW33778   0.813   4.416   7.587  0.1135 -0.1252  0.0714
 7382SOL    HW133779   0.821   4.339   7.644 -0.9906  0.3290  0.8405
 7382SOL    HW233780   0.893   4.417   7.534 -0.6480 -0.1063 -1.0687
 7383SOL     OW33781   0.206   2.206  17.037  0.5569  0.6708  0.7308
 7383SOL    HW133782   0.161   2.275  17.085 -1.1187 -1.4344  2.2140
 7383SOL    HW233783   0.285   2.245  17.000 -0.4580  0.2236 -1.9236
 7384SOL     OW33784   3.662   2.924   5.782  0.0288  0.0896 -0.2437
 7384SOL    HW133785   3.661   2.852   5.719  0.9258 -0.2049  0.0762
 7384SOL    HW233786   3.661   2.863   5.856 -0.6448  0.8634  0.3907
 7385SOL     OW33787   1.214   4.301   6.116 -0.2272 -0.4714  0.1439
 7385SOL    HW133788   1.191   4.231   6.055 -0.4695 -0.4426  0.2005
 7385SOL    HW233789   1.258   4.260   6.190 -4.9117  0.1451  3.2481
 7386SOL     OW33790   3.569   1.687   8.116 -0.1564 -0.3900 -0.5763
 7386SOL    HW133791   3.536   1.757   8.061  2.3010 -0.8408 -2.6078
 7386SOL    HW233792   3.631   1.644   8.057  2.7286 -0.4049  2.4742
 7387SOL     OW33793   3.072   1.173   4.588  0.5950  0.3501 -0.5064
 7387SOL    HW133794   3.007   1.185   4.519 -0.6618  0.8378  0.7477
 7387SOL    HW233795   3.096   1.081   4.581 -1.7140 -0.1771 -1.6027
 7388SOL     OW33796   1.046   1.844   8.617 -0.3164  0.3210  0.3821
 7388SOL    HW133797   1.115   1.899   8.652 -0.5835  0.2206  1.0665
 7388SOL    HW233798   1.043   1.872   8.526  2.0235 -2.3107 -0.4833
 7389SOL     OW33799   2.745   3.507   7.710  0.0350  0.0262  0.0358
 7389SOL    HW133800   2.769   3.456   7.633  1.8884  0.2011  0.4966
 7389SOL    HW233801   2.716   3.445   7.777 -0.6519  1.1820  0.8064
 7390SOL     OW33802   3.519   1.446   6.182 -0.1352  0.2044 -0.5296
 7390SOL    HW133803   3.583   1.425   6.115 -0.0253 -0.0242 -0.3564
 7390SOL    HW233804   3.571   1.418   6.258  1.4510 -0.4151 -1.8463
 7391SOL     OW33805   1.128   3.535   2.924  0.4358 -0.0328 -0.1176
 7391SOL    HW133806   1.085   3.526   3.009 -0.2965  1.1581 -0.3600
 7391SOL    HW233807   1.110   3.625   2.898 -0.8020 -0.8645 -2.2408
 7392SOL     OW33808   0.769   4.114  14.279 -0.0887  0.0089 -0.0848
 7392SOL    HW133809   0.819   4.047  14.326 -0.5376 -0.5860 -0.4471
 7392SOL    HW233810   0.707   4.068  14.222  0.8825 -0.9444 -0.3657
 7393SOL     OW33811   0.623   1.374   0.090 -0.3428 -0.3763  0.2189
 7393SOL    HW133812   0.698   1.333   0.047 -0.3870 -0.5116  0.2706
 7393SOL    HW233813   0.652   1.399   0.178  0.3270  0.5657 -0.2754
 7394SOL     OW33814   2.865   3.472   5.738 -0.2249  0.1386 -0.2967
 7394SOL    HW133815   2.886   3.472   5.832 -0.1083 -1.6041 -0.3246
 7394SOL    HW233816   2.888   3.561   5.709  2.1626  0.3131  2.0735
 7395SOL     OW33817   3.145   0.361  11.205 -0.0839 -0.4631 -0.6216
 7395SOL    HW133818   3.052   0.382  11.204  0.2253  1.0397  1.3101
 7395SOL    HW233819   3.199   0.441  11.207 -0.5421 -0.1756  0.2409
 7396SOL     OW33820   2.194   3.918   4.015 -0.4615  0.4452  0.4415
 7396SOL    HW133821   2.263   3.858   3.988 -1.9862 -0.6952 -1.0021
 7396SOL    HW233822   2.123   3.868   3.974  1.5393 -1.6822 -0.4359
 7397SOL     OW33823   1.157   2.258   7.429  0.4089 -0.4129 -0.3620
 7397SOL    HW133824   1.098   2.297   7.494 -1.8146 -3.9622 -0.2412
 7397SOL    HW233825   1.125   2.170   7.410 -1.7852  0.1893  0.5640
 7398SOL     OW33826   1.133   0.908   1.520  0.4727 -0.6190  0.3239
 7398SOL    HW133827   1.216   0.917   1.566  1.4154 -2.5093 -0.9825
 7398SOL    HW233828   1.155   0.844   1.452  0.7527 -0.1536 -0.0283
 7399SOL     OW33829   2.146   0.426   7.920 -0.2174  0.1873 -0.1556
 7399SOL    HW133830   2.121   0.413   8.012 -1.9612 -2.1925 -0.9354
 7399SOL    HW233831   2.133   0.520   7.920  1.9500  0.4991  2.1899
 7400SOL     OW33832   1.107   4.703  14.718 -0.0096 -0.1093  0.4807
 7400SOL    HW133833   1.183   4.715  14.775 -1.5191  0.3875  2.3714
 7400SOL    HW233834   1.144   4.712  14.630  0.1667  0.5640  0.6238
 7401SOL     OW33835   1.647   1.606  17.452 -0.4734  0.5268  0.1380
 7401SOL    HW133836   1.600   1.638  17.375  1.1064 -1.6579 -1.7448
 7401SOL    HW233837   1.573   1.565  17.497  0.4614 -0.2025  1.0089
 7402SOL     OW33838   0.899   2.435   2.867 -0.2073  0.3839  0.1307
 7402SOL    HW133839   0.908   2.341   2.855  0.9175  0.8262 -2.4731
 7402SOL    HW233840   0.872   2.441   2.959  0.1482  0.5712  0.2232
 7403SOL     OW33841   0.751   0.226   5.218  0.1179 -0.8827 -0.0266
 7403SOL    HW133842   0.769   0.262   5.131 -2.5603  2.1147  0.6498
 7403SOL    HW233843   0.804   0.282   5.275  2.0725 -0.3187 -2.4065
 7404SOL     OW33844   0.278   4.378   0.831  0.0860  0.0539  0.6511
 7404SOL    HW133845   0.272   4.352   0.923 -3.4433 -2.2905 -0.2301
 7404SOL    HW233846   0.356   4.331   0.802 -0.5740 -0.4277 -0.3742
 7405SOL     OW33847   2.578   0.538   4.760 -0.0127 -0.1732  0.0335
 7405SOL    HW133848   2.494   0.576   4.788  0.3879  1.1885 -0.5857
 7405SOL    HW233849   2.589   0.595   4.684 -0.6716 -3.2270 -2.3418
 7406SOL     OW33850   3.952   3.810   0.382  0.3939 -0.5737  0.2134
 7406SOL    HW133851   3.873   3.756   0.385  0.7991 -1.0241  2.4264
 7406SOL    HW233852   3.907   3.894   0.368  0.2801 -0.4311  1.4554
 7407SOL     OW33853   0.794   4.250   4.742 -0.0002  0.1286  0.2615
 7407SOL    HW133854   0.841   4.329   4.770  1.1648  0.9055 -4.0213
 7407SOL    HW233855   0.714   4.253   4.794 -0.1198 -1.9311  0.1876
 7408SOL     OW33856   0.934   4.193   9.281  0.8097 -0.2324 -0.4435
 7408SOL    HW133857   0.870   4.122   9.267  1.7170 -1.2406  0.5336
 7408SOL    HW233858   1.004   4.173   9.218  0.8363 -0.4260 -0.3531
 7409SOL     OW33859   2.776   4.061   9.045 -0.1361 -0.3945  0.2198
 7409SOL    HW133860   2.715   4.130   9.019  0.1321  0.4168  1.7984
 7409SOL    HW233861   2.781   4.075   9.139  2.5438  0.2606 -0.0029
 7410SOL     OW33862   3.894   1.168  14.549  0.4372 -0.0295 -0.0962
 7410SOL    HW133863   3.947   1.106  14.500 -1.3987 -2.3476  0.8311
 7410SOL    HW233864   3.944   1.250  14.551 -0.0531  0.2595  0.4175
 7411SOL     OW33865   1.586   3.702  14.832 -1.1075  0.3525 -0.5552
 7411SOL    HW133866   1.680   3.692  14.848 -1.5723 -0.4704  1.6769
 7411SOL    HW233867   1.578   3.708  14.737 -2.5197  2.3191 -0.2923
 7412SOL     OW33868   2.890   0.841   7.841  0.1337  0.1192 -0.1597
 7412SOL    HW133869   2.822   0.795   7.792 -0.9046 -0.0530  1.4254
 7412SOL    HW233870   2.941   0.774   7.886  1.6471  1.3218 -0.0662
 7413SOL     OW33871   3.083   2.436   2.513  0.1021 -0.2519 -0.4672
 7413SOL    HW133872   3.161   2.388   2.540 -0.1648 -0.9342 -0.8939
 7413SOL    HW233873   3.119   2.525   2.505 -1.2580  0.3404 -0.0850
 7414SOL     OW33874   2.965   4.569   4.321  0.4215  0.7126 -0.2436
 7414SOL    HW133875   2.963   4.477   4.345  1.1589  0.1934 -2.2217
 7414SOL    HW233876   3.008   4.574   4.235 -0.3491 -1.2231 -0.7344
 7415SOL     OW33877   2.705   0.965   5.162  0.1858  0.8074 -0.3229
 7415SOL    HW133878   2.734   1.033   5.101 -1.8477  0.4500 -1.6679
 7415SOL    HW233879   2.656   0.908   5.103  1.9807 -2.8151  1.7492
 7416SOL     OW33880   1.431   3.700  11.891 -0.1076  0.3642  0.1814
 7416SOL    HW133881   1.426   3.640  11.816 -0.2905 -1.6170  1.7669
 7416SOL    HW233882   1.526   3.701  11.886 -0.2452 -0.7377 -2.3733
 7417SOL     OW33883   2.396   4.382  12.507  0.6742  0.5796  0.1224
 7417SOL    HW133884   2.315   4.427  12.485  0.7937  0.7859  0.1068
 7417SOL    HW233885   2.456   4.438  12.458  1.5718  0.3163  0.9248
 7418SOL     OW33886   3.032   2.429   2.223 -0.0039  0.5632 -0.1312
 7418SOL    HW133887   2.942   2.453   2.201  0.0547 -0.2839 -1.3151
 7418SOL    HW233888   3.043   2.405   2.315 -0.4715  0.2628 -0.1534
 7419SOL     OW33889   3.404   4.373  13.777 -0.5936 -0.0862  0.0049
 7419SOL    HW133890   3.455   4.337  13.704  1.1153 -1.0506  1.6788
 7419SOL    HW233891   3.406   4.464  13.747 -1.3454  0.2517  0.9969
 7420SOL     OW33892   0.639   3.182   7.157  0.0275  0.2331 -0.0029
 7420SOL    HW133893   0.613   3.170   7.065  0.8041 -1.0425 -0.0553
 7420SOL    HW233894   0.583   3.112   7.191 -1.5778  2.1142  1.2753
 7421SOL     OW33895   0.484   2.390   6.809  0.1701  1.0476  0.0465
 7421SOL    HW133896   0.488   2.315   6.750 -0.5064  0.4135  0.8174
 7421SOL    HW233897   0.409   2.435   6.769  0.8014  1.5876 -0.5321
 7422SOL     OW33898   1.974   1.144   3.670 -0.1716  0.2338  0.2239
 7422SOL    HW133899   1.921   1.146   3.749 -1.4251  0.8340 -0.6343
 7422SOL    HW233900   2.000   1.236   3.676 -4.8583  1.5946 -0.6498
 7423SOL     OW33901   1.420   2.499   0.407 -0.2496 -0.0681 -0.1358
 7423SOL    HW133902   1.499   2.497   0.352 -0.2417 -0.5859 -0.1084
 7423SOL    HW233903   1.349   2.476   0.347  1.1260 -0.0111 -1.7945
 7424SOL     OW33904   1.554   1.881   2.050  0.9668  0.2604  0.4645
 7424SOL    HW133905   1.538   1.946   2.118 -2.8577 -1.6420  1.3957
 7424SOL    HW233906   1.647   1.897   2.035  1.6022 -1.4898  2.4733
 7425SOL     OW33907   4.694   4.079   9.374  0.1756  0.1878  0.2341
 7425SOL    HW133908   4.674   4.094   9.466  0.2848 -1.4780  0.5289
 7425SOL    HW233909   0.051   4.082   9.364 -0.0587 -1.1095 -2.3978
 7426SOL     OW33910   4.003   0.265   9.721 -0.4509  0.1173 -0.1165
 7426SOL    HW133911   4.082   0.231   9.679  0.7416  1.4822  0.9986
 7426SOL    HW233912   4.013   0.231   9.810  0.5004  0.1693 -0.2016
 7427SOL     OW33913   3.009   0.983   5.735 -0.5588  0.4708 -0.2082
 7427SOL    HW133914   2.940   1.049   5.730 -0.1754  0.8407 -0.5666
 7427SOL    HW233915   3.085   1.040   5.750 -0.4104 -0.0440  0.9858
 7428SOL     OW33916   2.960   4.702  10.485 -0.0911  0.8279 -0.3064
 7428SOL    HW133917   2.881   4.647  10.483  0.0610  0.5519  1.3314
 7428SOL    HW233918   3.000   4.675  10.403 -0.1362 -1.4212  0.3956
 7429SOL     OW33919   4.466   3.983   8.424  0.0990 -0.0821 -0.2579
 7429SOL    HW133920   4.386   4.035   8.426 -0.3856 -0.8616  0.6472
 7429SOL    HW233921   4.526   4.041   8.377  1.3525 -1.2425 -0.1003
 7430SOL     OW33922   3.050   2.152   6.204  0.4492  1.0071 -0.3067
 7430SOL    HW133923   3.044   2.057   6.218 -2.0404  1.4618  1.6566
 7430SOL    HW233924   3.060   2.149   6.109 -2.0123 -0.2234 -0.5269
 7431SOL     OW33925   3.375   2.059   1.828  0.3816 -0.1847 -0.1747
 7431SOL    HW133926   3.389   2.149   1.854  0.2123  0.0178 -0.7736
 7431SOL    HW233927   3.361   2.030   1.918 -0.3831  1.3559  0.2030
 7432SOL     OW33928   1.822   1.181   9.196  0.3442 -0.8531  0.7201
 7432SOL    HW133929   1.897   1.207   9.142 -0.5962 -0.0873 -0.2302
 7432SOL    HW233930   1.785   1.104   9.152 -2.0131  0.5859  0.1618
 7433SOL     OW33931   4.514   3.820   6.658 -0.4684  0.0845 -0.1140
 7433SOL    HW133932   4.436   3.862   6.622  0.0040  1.3997  0.3979
 7433SOL    HW233933   4.492   3.729   6.638  1.5431 -0.6250  0.9160
 7434SOL     OW33934   3.406   2.894   8.016  0.4492  0.3055  0.1902
 7434SOL    HW133935   3.418   2.925   8.105 -0.0015  0.0219  0.3502
 7434SOL    HW233936   3.432   2.802   8.014 -0.7706 -0.0411 -0.2976
 7435SOL     OW33937   4.551   4.310   7.540  0.3160  0.5264  0.1206
 7435SOL    HW133938   4.516   4.385   7.493  1.0053 -0.4552 -1.9789
 7435SOL    HW233939   4.536   4.240   7.476  1.4719 -0.7732  1.2581
 7436SOL     OW33940   4.317   4.295   6.519  0.0725 -0.5239  0.0500
 7436SOL    HW133941   4.398   4.248   6.539  0.2552  0.2590  1.1546
 7436SOL    HW233942   4.336   4.343   6.438  1.6268 -1.5057 -0.1727
 7437SOL     OW33943   0.718   1.724   6.745 -0.6006 -0.4189  0.4280
 7437SOL    HW133944   0.650   1.687   6.688  2.3243 -0.4879 -3.0098
 7437SOL    HW233945   0.705   1.819   6.736  1.0341 -0.3051 -0.7018
 7438SOL     OW33946   3.395   3.590   4.143  0.3345 -0.2005 -0.1911
 7438SOL    HW133947   3.388   3.516   4.205 -1.1869 -0.1518 -0.2872
 7438SOL    HW233948   3.355   3.658   4.197  0.8877 -0.3761  0.4356
 7439SOL     OW33949   3.333   1.567   4.695 -0.1887 -0.4469 -0.3721
 7439SOL    HW133950   3.307   1.579   4.604  0.5527 -0.7186 -0.6138
 7439SOL    HW233951   3.423   1.596   4.702 -0.6463  0.9847 -0.5055
 7440SOL     OW33952   1.239   2.373   5.813  0.4954  0.4767  0.3053
 7440SOL    HW133953   1.314   2.376   5.873  0.4680 -2.0018  0.4736
 7440SOL    HW233954   1.168   2.403   5.869 -0.6133 -0.3737 -0.6564
 7441SOL     OW33955   0.561   1.843   9.342 -0.2577 -0.2513  0.4746
 7441SOL    HW133956   0.637   1.852   9.399 -1.5248  0.7160  2.0231
 7441SOL    HW233957   0.496   1.869   9.407 -0.4043  0.2081  0.1453
 7442SOL     OW33958   4.615   1.006   5.904  0.0954 -0.1167  0.0765
 7442SOL    HW133959   4.550   1.013   5.834  0.5710  0.5452 -0.3068
 7442SOL    HW233960   4.628   0.912   5.913  1.0907  0.0919  0.8044
 7443SOL     OW33961   2.227   1.992  11.825 -0.4650  0.4807 -0.4085
 7443SOL    HW133962   2.187   2.078  11.808 -0.8892  0.7881  2.0794
 7443SOL    HW233963   2.169   1.931  11.780  0.7423 -1.9517  1.3181
 7444SOL     OW33964   3.827   0.328  13.483  0.0804 -0.2613  0.4402
 7444SOL    HW133965   3.813   0.393  13.413  0.8912  0.6537  1.1259
 7444SOL    HW233966   3.856   0.258  13.425  0.9016  1.2292 -0.9535
 7445SOL     OW33967   0.502   2.375   3.780 -0.0222 -0.4528 -0.4801
 7445SOL    HW133968   0.478   2.457   3.824  0.1960 -1.1295  0.8859
 7445SOL    HW233969   0.596   2.380   3.762 -0.0582  2.0220  0.0922
 7446SOL     OW33970   0.008   3.388   6.864 -0.3816 -0.4369 -0.7122
 7446SOL    HW133971   0.030   3.477   6.893 -0.4875 -1.0081  1.1044
 7446SOL    HW233972   0.030   3.344   6.946 -0.3785 -1.4315 -1.2496
 7447SOL     OW33973   0.019   3.507   5.337  0.2371  0.1985 -0.6814
 7447SOL    HW133974   0.020   3.594   5.296  1.0351 -0.4187 -1.9651
 7447SOL    HW233975   0.067   3.513   5.420  0.1343  1.2602 -0.6944
 7448SOL     OW33976   1.143   0.021   1.336  0.0551  0.0837 -0.1003
 7448SOL    HW133977   1.217   4.699   1.331 -0.5375 -0.5442 -1.5841
 7448SOL    HW233978   1.109   0.018   1.425  0.3904 -1.0086 -0.0079
 7449SOL     OW33979   1.078   2.007   8.289  0.1226  0.4133  0.5448
 7449SOL    HW133980   1.126   2.084   8.258 -1.7993  0.1728 -3.0650
 7449SOL    HW233981   1.139   1.936   8.271 -2.4039 -2.0035  1.3749
 7450SOL     OW33982   0.622   0.461   0.486 -0.4133  0.7410  0.4877
 7450SOL    HW133983   0.558   0.464   0.415 -0.8678  0.4706  0.8862
 7450SOL    HW233984   0.567   0.505   0.551  0.4113  1.3765  0.7635
 7451SOL     OW33985   1.761   4.000   0.241 -0.5356  0.0940  0.1655
 7451SOL    HW133986   1.742   3.939   0.170  1.0651 -0.7347  0.4360
 7451SOL    HW233987   1.722   3.958   0.317  0.8683  1.7327  1.8175
 7452SOL     OW33988   3.757   4.425   8.260 -0.0098  0.3542  0.0558
 7452SOL    HW133989   3.820   4.497   8.274 -0.0924  0.4884 -0.2688
 7452SOL    HW233990   3.799   4.357   8.313  2.9464  1.0775 -1.3601
 7453SOL     OW33991   2.319   0.432  13.630 -0.7056  0.2404 -0.2304
 7453SOL    HW133992   2.228   0.403  13.620 -1.1575  1.5470  0.0884
 7453SOL    HW233993   2.339   0.416  13.722 -1.5686 -2.5828 -0.5113
 7454SOL     OW33994   3.678   2.412   5.312 -0.2124 -0.2665  0.4647
 7454SOL    HW133995   3.757   2.430   5.261 -0.7034  1.3551  0.2785
 7454SOL    HW233996   3.662   2.323   5.279 -0.0478 -0.9960  2.3603
 7455SOL     OW33997   3.376   3.025   5.929 -0.6318  0.4891  0.2819
 7455SOL    HW133998   3.393   2.992   5.840  0.0924  1.6624 -0.0197
 7455SOL    HW233999   3.448   2.991   5.981 -1.0918 -2.1622 -0.8098
 7456SOL     OW34000   0.197   4.152   4.168  0.1359  0.3103 -0.2082
 7456SOL    HW134001   0.253   4.156   4.245  0.4561 -3.1703 -0.2470
 7456SOL    HW234002   0.208   4.058   4.150  0.3612 -0.3603  3.2941
 7457SOL     OW34003   2.290   2.707  10.307  0.1499  0.2245  0.3107
 7457SOL    HW134004   2.252   2.784  10.265 -2.9269 -0.7340  1.3260
 7457SOL    HW234005   2.378   2.737  10.284  0.4704  0.2614  1.5869
 7458SOL     OW34006   4.540   4.296   5.711  0.2026 -0.5239 -0.5855
 7458SOL    HW134007   4.484   4.219   5.697 -0.2798 -0.3990  0.6848
 7458SOL    HW234008   4.538   4.330   5.800 -0.3855  0.3570 -0.9377
 7459SOL     OW34009   0.093   3.187   3.020 -0.2180  0.8256 -0.0362
 7459SOL    HW134010   0.030   3.199   2.949  1.2008  1.3705 -1.2154
 7459SOL    HW234011   0.151   3.257   2.989  1.0572  0.6707  1.9827
 7460SOL     OW34012   4.711   0.801   1.545  0.1922  0.0781 -0.4286
 7460SOL    HW134013   4.651   0.875   1.542  2.8491  2.2324 -0.0270
 7460SOL    HW234014   0.047   0.835   1.593  0.7068  1.5928 -2.3021
 7461SOL     OW34015   1.654   1.916   9.656 -0.3737  0.1999 -0.2136
 7461SOL    HW134016   1.644   1.825   9.629 -0.9474  0.0119  0.6352
 7461SOL    HW234017   1.711   1.949   9.586  1.2626 -0.2021  0.9165
 7462SOL     OW34018   1.058   4.074  15.745  0.1400 -0.2547 -0.6006
 7462SOL    HW134019   1.136   4.080  15.689 -0.2224 -0.2306 -1.1059
 7462SOL    HW234020   0.995   4.028  15.690 -1.0166  1.6361 -0.8638
 7463SOL     OW34021   3.629   0.901  11.381 -0.4524  0.0528 -0.1217
 7463SOL    HW134022   3.714   0.935  11.409 -0.4540 -2.2920  2.6896
 7463SOL    HW234023   3.575   0.977  11.359  1.6541  0.8778 -2.4985
 7464SOL     OW34024   3.313   3.362   7.704 -0.2099  0.5600 -0.5033
 7464SOL    HW134025   3.278   3.394   7.621 -0.8309 -2.4261 -1.4037
 7464SOL    HW234026   3.303   3.438   7.762  0.0396  0.6668 -0.6004
 7465SOL     OW34027   0.576   4.701   5.184  0.6485  0.4986 -0.4059
 7465SOL    HW134028   0.608   0.052   5.198  0.2183  0.1793  2.5905
 7465SOL    HW234029   0.511   4.703   5.254  1.2998 -1.0046  0.2404
 7466SOL     OW34030   2.722   1.286   5.175  0.2776  0.1452 -0.3442
 7466SOL    HW134031   2.751   1.278   5.265 -0.5184  3.1275  0.1684
 7466SOL    HW234032   2.790   1.231   5.137 -0.2598 -0.3619 -0.5705
 7467SOL     OW34033   1.458   0.264   8.492  0.9497  0.1670  0.3246
 7467SOL    HW134034   1.527   0.204   8.520  1.3550  1.0296  1.1701
 7467SOL    HW234035   1.380   0.211   8.504 -1.1125  3.0370 -0.3087
 7468SOL     OW34036   4.055   4.279  17.300 -0.0282  0.6982 -0.2909
 7468SOL    HW134037   4.060   4.225  17.221  1.3527  2.0305 -1.1126
 7468SOL    HW234038   4.017   4.360  17.268 -2.4056  0.0616  0.8375
 7469SOL     OW34039   0.423   1.753   6.337  0.0481 -0.7490  0.0414
 7469SOL    HW134040   0.329   1.740   6.347 -0.3598  3.3053  1.6294
 7469SOL    HW234041   0.424   1.834   6.387 -0.2188 -0.3587 -0.5788
 7470SOL     OW34042   4.515   4.383   1.003 -0.2527 -0.2969 -0.0051
 7470SOL    HW134043   4.476   4.296   1.011  1.8541 -1.1523  0.9869
 7470SOL    HW234044   4.525   4.396   0.909 -0.7893 -2.0834 -0.3089
 7471SOL     OW34045   4.130   4.102   0.148  0.2411 -0.7092  0.7693
 7471SOL    HW134046   4.057   4.088   0.088 -0.4374  0.3806  1.3279
 7471SOL    HW234047   4.162   4.191   0.131 -1.0551 -1.2279 -4.3273
 7472SOL     OW34048   3.806   0.710   8.497 -0.2176  0.1144 -0.1742
 7472SOL    HW134049   3.780   0.644   8.560 -0.1477  1.5837  1.3873
 7472SOL    HW234050   3.733   0.708   8.435  0.3558  1.2670 -0.9165
 7473SOL     OW34051   0.170   1.638  15.054 -0.9097 -0.6719 -0.7678
 7473SOL    HW134052   0.232   1.587  15.001 -0.1628 -0.5130 -0.0495
 7473SOL    HW234053   0.111   1.679  14.990 -0.6076  0.8677 -0.0737
 7474SOL     OW34054   4.306   4.352   2.523 -0.1483 -0.4694  0.2219
 7474SOL    HW134055   4.351   4.269   2.537  0.1378 -0.0798  1.5787
 7474SOL    HW234056   4.247   4.330   2.451  0.9546 -1.5479 -0.3385
 7475SOL     OW34057   0.303   0.099   4.869 -0.0565 -0.3831 -0.1177
 7475SOL    HW134058   0.304   0.019   4.816 -0.0875 -0.3203 -0.2149
 7475SOL    HW234059   0.228   0.137   4.822 -1.0099 -2.8106 -0.5622
 7476SOL     OW34060   2.124   3.733   7.939 -0.1714  0.2055  0.3545
 7476SOL    HW134061   2.050   3.676   7.917  1.0737 -0.1447 -2.9330
 7476SOL    HW234062   2.192   3.665   7.938 -1.0379 -0.6211 -1.2599
 7477SOL     OW34063   4.726   2.774   2.962  0.1538  0.1991  0.0519
 7477SOL    HW134064   4.718   2.687   2.923  2.4126  0.2682 -0.5699
 7477SOL    HW234065   0.061   2.810   2.913 -0.9608  0.7491 -1.1946
 7478SOL     OW34066   0.407   0.155   0.124 -0.1393 -0.3416 -0.2622
 7478SOL    HW134067   0.318   0.182   0.102 -0.6700 -0.7845  1.2970
 7478SOL    HW234068   0.425   0.063   0.104 -0.4752 -0.1118 -1.5739
 7479SOL     OW34069   1.273   4.113   2.472 -0.2627  0.2958 -0.0282
 7479SOL    HW134070   1.264   4.085   2.380 -1.5589 -1.8978  0.7624
 7479SOL    HW234071   1.201   4.176   2.466 -0.0853  0.4099 -1.1360
 7480SOL     OW34072   0.099   4.090  16.903 -0.8186  0.2949  0.0923
 7480SOL    HW134073   0.052   4.122  16.826 -1.1911 -0.0809  0.1647
 7480SOL    HW234074   0.154   4.027  16.857 -3.0854 -1.4852 -0.1448
 7481SOL     OW34075   0.762   2.486   8.688 -0.5745  0.4730  0.1980
 7481SOL    HW134076   0.777   2.429   8.764 -1.1615 -1.7927 -1.3943
 7481SOL    HW234077   0.848   2.478   8.647 -0.6621  0.4188  0.0286
 7482SOL     OW34078   2.114   2.308   7.896  0.4244  0.9107  0.3069
 7482SOL    HW134079   2.151   2.373   7.836 -0.1440  0.0429 -0.9851
 7482SOL    HW234080   2.098   2.360   7.974  0.6849 -0.9481  1.5916
 7483SOL     OW34081   2.201   4.077   6.419  0.6574 -0.2642  0.1826
 7483SOL    HW134082   2.289   4.040   6.432  0.5768 -0.7789 -0.6999
 7483SOL    HW234083   2.158   3.996   6.393  1.5096 -0.5022 -0.5036
 7484SOL     OW34084   1.790   1.715   3.058  0.5263 -1.0207  0.0208
 7484SOL    HW134085   1.849   1.788   3.076 -0.1991 -0.2257 -0.8506
 7484SOL    HW234086   1.714   1.751   3.104  2.1923  1.8109  0.5531
 7485SOL     OW34087   0.775   1.115   3.104  0.3432 -0.2875 -0.0125
 7485SOL    HW134088   0.689   1.142   3.071  0.9392  0.1554 -1.2027
 7485SOL    HW234089   0.755   1.096   3.196 -1.3972 -1.1541 -0.5790
 7486SOL     OW34090   4.294   3.737   8.089  0.7644 -0.2314  0.4933
 7486SOL    HW134091   4.365   3.749   8.151  0.9828  0.3861  0.1226
 7486SOL    HW234092   4.224   3.718   8.153  0.2642  0.3034  0.1022
 7487SOL     OW34093   4.674   2.117  14.923 -0.4286 -0.3223 -0.0313
 7487SOL    HW134094   0.025   2.088  14.904  0.3820  1.1695  1.6161
 7487SOL    HW234095   4.672   2.121  15.018 -0.1598  3.6740 -0.1874
 7488SOL     OW34096   2.494   1.681  16.001  0.3400 -0.4732  0.0950
 7488SOL    HW134097   2.496   1.618  16.074  1.6016 -1.5184 -0.8356
 7488SOL    HW234098   2.509   1.621  15.928  2.1873  0.0795  0.0219
 7489SOL     OW34099   0.871   1.511   8.436  0.7180 -0.2421  0.2319
 7489SOL    HW134100   0.900   1.520   8.526  2.0372  0.8938 -0.3094
 7489SOL    HW234101   0.814   1.434   8.438  0.7620 -0.2566  0.9979
 7490SOL     OW34102   2.285   0.625  15.031  0.0817  0.0350  0.0377
 7490SOL    HW134103   2.331   0.585  15.105  1.6233 -1.8365 -1.9390
 7490SOL    HW234104   2.238   0.700  15.068  1.7046 -0.0316  2.2147
 7491SOL     OW34105   3.414   0.835   0.581 -0.0961  0.1229  0.1408
 7491SOL    HW134106   3.419   0.740   0.585 -1.6800  0.0730  0.7766
 7491SOL    HW234107   3.359   0.854   0.505 -2.2277 -2.3352  1.0859
 7492SOL     OW34108   1.880   2.278  10.687  0.6746  0.2274  0.3522
 7492SOL    HW134109   1.872   2.272  10.783 -0.5032 -2.0198  0.0981
 7492SOL    HW234110   1.851   2.189  10.669  0.9450  0.6335 -2.0459
 7493SOL     OW34111   4.155   2.041   7.683  0.3153 -0.6995 -0.2155
 7493SOL    HW134112   4.177   2.085   7.601 -0.2024  0.3703  0.2071
 7493SOL    HW234113   4.073   2.003   7.649 -0.7205 -0.2533  1.7839
 7494SOL     OW34114   1.583   0.186   9.833 -0.5897  0.0832 -0.3700
 7494SOL    HW134115   1.493   0.156   9.818 -1.5539  2.9562 -0.4384
 7494SOL    HW234116   1.583   0.271   9.788 -4.3767 -0.8298 -2.1553
 7495SOL     OW34117   1.391   1.195   7.319 -0.2312  0.4868  0.0681
 7495SOL    HW134118   1.408   1.233   7.233 -0.2097  0.0129 -0.1356
 7495SOL    HW234119   1.456   1.125   7.321  0.6503  1.3073 -0.3082
 7496SOL     OW34120   0.922   1.912   1.897 -0.1351  0.1299  0.0003
 7496SOL    HW134121   0.988   1.922   1.966 -2.0639  1.1379  1.6903
 7496SOL    HW234122   0.975   1.866   1.832  1.0608  1.2832  0.1482
 7497SOL     OW34123   0.234   1.571   4.454  0.0626  0.7339 -0.0703
 7497SOL    HW134124   0.276   1.537   4.376  0.8221  1.9228 -0.1822
 7497SOL    HW234125   0.255   1.665   4.456  0.9441  0.5230  0.3512
 7498SOL     OW34126   2.057   0.833  11.707  0.2980  0.1690 -0.1349
 7498SOL    HW134127   2.046   0.888  11.785 -0.1466 -1.6721  1.0878
 7498SOL    HW234128   2.150   0.813  11.704  0.1221 -1.0625  2.4549
 7499SOL     OW34129   3.162   0.973   6.330  0.1218 -0.4683  0.3655
 7499SOL    HW134130   3.077   0.990   6.289 -0.6220 -0.1701  2.0199
 7499SOL    HW234131   3.210   1.055   6.316  2.6877 -2.3067 -1.5357
 7500SOL     OW34132   4.441   4.691   4.642 -0.3965 -0.2406  0.2714
 7500SOL    HW134133   4.513   4.631   4.626  0.4415  0.3589  1.7760
 7500SOL    HW234134   4.379   4.643   4.697  2.1035 -0.5532  2.8250
 7501SOL     OW34135   0.075   3.583   4.638 -0.1293 -0.3749 -0.4148
 7501SOL    HW134136   0.102   3.507   4.691 -0.9461 -0.7526 -0.5268
 7501SOL    HW234137   4.720   3.575   4.617 -0.2035 -0.0699 -0.2031
 7502SOL     OW34138   0.212   1.007   7.618 -0.1156 -0.0934 -0.0718
 7502SOL    HW134139   0.215   1.086   7.672  0.4397 -0.3081  0.2122
 7502SOL    HW234140   0.294   0.959   7.632 -0.4719 -0.1944  1.6084
 7503SOL     OW34141   2.405   0.001   2.320 -0.4354 -0.2374  0.2204
 7503SOL    HW134142   2.437   0.051   2.395  0.8805  0.1645 -0.6017
 7503SOL    HW234143   2.317   4.724   2.353 -1.7506  0.7620 -2.8802
 7504SOL     OW34144   3.997   1.457   1.881 -0.3787 -0.2221  0.3815
 7504SOL    HW134145   3.941   1.417   1.814  0.1313 -0.5507  0.1591
 7504SOL    HW234146   3.976   1.550   1.868 -2.1395 -0.5940  0.5201
 7505SOL     OW34147   0.769   2.794   2.533 -0.0341  0.6717 -0.4007
 7505SOL    HW134148   0.753   2.717   2.587  0.3261  1.0525  0.2530
 7505SOL    HW234149   0.793   2.757   2.448 -0.6990  0.3129 -0.4268
 7506SOL     OW34150   4.330   2.612   3.216 -0.6403  0.4537  0.3131
 7506SOL    HW134151   4.379   2.541   3.176 -1.4096  0.6280 -0.9309
 7506SOL    HW234152   4.391   2.635   3.286  0.8864 -0.6263 -0.6628
 7507SOL     OW34153   3.050   3.030   8.906 -0.2617  0.2724 -0.2941
 7507SOL    HW134154   3.080   2.946   8.873 -3.1384 -0.9892  0.2970
 7507SOL    HW234155   3.127   3.065   8.951  0.0994 -1.4936  0.4419
 7508SOL     OW34156   2.898   1.283   4.765 -0.2715 -0.5461  0.3933
 7508SOL    HW134157   2.922   1.372   4.791  0.8814 -0.5513 -0.6900
 7508SOL    HW234158   2.955   1.273   4.689 -0.0743  0.0792  0.4567
 7509SOL     OW34159   3.337   1.512   3.050 -0.0935 -0.1992 -0.3102
 7509SOL    HW134160   3.284   1.470   2.983  1.2806 -3.8144  0.8747
 7509SOL    HW234161   3.420   1.474   3.020  0.0486  0.7592 -1.1408
 7510SOL     OW34162   1.677   0.545   2.469 -0.0291  0.2700  0.0766
 7510SOL    HW134163   1.646   0.635   2.470 -2.5625 -0.6044  3.2016
 7510SOL    HW234164   1.651   0.511   2.555  1.2595 -0.0945  0.3308
 7511SOL     OW34165   1.599   1.709   6.090  0.0065 -0.4007 -0.0866
 7511SOL    HW134166   1.579   1.617   6.106  0.3281 -0.0338  2.4948
 7511SOL    HW234167   1.693   1.707   6.104  0.0222 -1.3533 -0.3714
 7512SOL     OW34168   4.051   1.989   2.398 -0.3797  0.0543  0.2467
 7512SOL    HW134169   3.990   2.062   2.408 -1.1813 -0.7815  1.4837
 7512SOL    HW234170   4.138   2.028   2.386 -0.0182 -0.9419 -0.4080
 7513SOL     OW34171   1.846   1.953   4.111  0.0275  0.3148  0.4774
 7513SOL    HW134172   1.916   2.014   4.087 -1.0346  1.4610  0.3402
 7513SOL    HW234173   1.767   2.006   4.112  2.2125  3.5589  0.4718
 7514SOL     OW34174   3.675   4.107   6.700 -0.4454 -0.9919  0.2553
 7514SOL    HW134175   3.747   4.095   6.761  0.9979  1.8603 -0.8979
 7514SOL    HW234176   3.693   4.024   6.656 -1.8385 -0.2368 -1.7939
 7515SOL     OW34177   2.204   2.165   3.538  0.0715  0.0797 -0.7542
 7515SOL    HW134178   2.259   2.150   3.461  2.6500  0.6450  0.9491
 7515SOL    HW234179   2.240   2.247   3.573  0.7961 -1.0145  1.0485
 7516SOL     OW34180   0.696   2.676   1.408 -0.1590  0.0246  0.6652
 7516SOL    HW134181   0.655   2.710   1.329  3.0761  0.2661 -0.9209
 7516SOL    HW234182   0.738   2.753   1.448 -2.4131  2.0592 -0.9554
 7517SOL     OW34183   1.769   4.596   3.960 -0.0783 -0.0619 -0.1453
 7517SOL    HW134184   1.826   4.531   3.920 -0.2536 -0.8168  0.8502
 7517SOL    HW234185   1.835   4.658   3.991 -1.0785  1.3138 -0.7361
 7518SOL     OW34186   2.378   3.646  12.218  0.0397  0.5905  0.7220
 7518SOL    HW134187   2.417   3.695  12.145  0.2729 -2.4314 -1.1941
 7518SOL    HW234188   2.289   3.649  12.183  1.2657  0.0648 -2.4901
 7519SOL     OW34189   3.154   3.292  12.441  0.0163  0.2135  0.0109
 7519SOL    HW134190   3.196   3.306  12.526  0.8373 -1.1945 -0.1615
 7519SOL    HW234191   3.101   3.371  12.446 -0.4865 -0.2045  1.2565
 7520SOL     OW34192   1.120   1.535   5.323  0.0767  0.3238  0.4846
 7520SOL    HW134193   1.126   1.535   5.418 -0.8403  0.4296  0.5495
 7520SOL    HW234194   1.132   1.444   5.296 -0.2246  0.6391 -0.7267
 7521SOL     OW34195   0.499   2.633   7.826 -0.6474  0.2084 -1.1955
 7521SOL    HW134196   0.509   2.547   7.784 -0.8774 -1.0949  1.3860
 7521SOL    HW234197   0.472   2.592   7.909 -0.3870  1.7994 -0.3313
 7522SOL     OW34198   1.652   4.409   7.616  0.5488  0.3371  0.1856
 7522SOL    HW134199   1.563   4.389   7.644 -0.2044 -0.1877 -2.5127
 7522SOL    HW234200   1.683   4.477   7.676  2.7998 -1.2187  0.8016
 7523SOL     OW34201   2.541   1.837   3.577  0.3798  0.2663  0.0328
 7523SOL    HW134202   2.462   1.850   3.523  0.3518  0.5211  0.1334
 7523SOL    HW234203   2.570   1.747   3.564 -1.8018 -0.5287  0.7557
 7524SOL     OW34204   4.521   3.934   6.892 -0.2812 -0.3210 -0.5629
 7524SOL    HW134205   4.609   3.955   6.861 -0.9776  1.7343 -1.1559
 7524SOL    HW234206   4.497   3.885   6.813 -1.8394 -1.1235  0.4123
 7525SOL     OW34207   2.098   4.126  10.498 -0.1730 -0.5089  0.3572
 7525SOL    HW134208   2.105   4.103  10.405  0.0245  0.5824  0.1120
 7525SOL    HW234209   2.012   4.166  10.499 -0.2609 -0.6644 -0.3263
 7526SOL     OW34210   0.661   1.458  15.105  0.2267  0.0395 -0.2568
 7526SOL    HW134211   0.592   1.524  15.101  0.2886  0.1025 -0.2905
 7526SOL    HW234212   0.734   1.514  15.131 -0.1989 -0.2420  1.5052
 7527SOL     OW34213   3.827   3.615   6.303  0.4685 -0.0712 -0.1121
 7527SOL    HW134214   3.884   3.612   6.381 -0.7308 -1.8201  0.6936
 7527SOL    HW234215   3.742   3.627   6.344  0.2840  0.5187 -0.6792
 7528SOL     OW34216   4.595   2.904   2.590  0.0644 -0.1561 -0.0913
 7528SOL    HW134217   4.503   2.924   2.573 -0.0052  0.4151  0.9688
 7528SOL    HW234218   4.591   2.819   2.634 -1.0611  1.0588  2.1320
 7529SOL     OW34219   0.098   4.056   5.165  0.0421  0.0174 -0.2092
 7529SOL    HW134220   0.163   4.006   5.215  0.2529 -1.8924 -2.4262
 7529SOL    HW234221   0.114   4.149   5.180  0.5733  0.2448 -2.1851
 7530SOL     OW34222   2.046   1.639  15.472 -0.0906 -0.6667  0.7347
 7530SOL    HW134223   1.958   1.637  15.434  0.2802  0.2584 -0.1646
 7530SOL    HW234224   2.081   1.564  15.423  0.8814  1.0247 -1.1129
 7531SOL     OW34225   4.254   0.563   8.009 -0.2823  0.1287  0.5713
 7531SOL    HW134226   4.252   0.607   8.094  0.5282  0.5975  0.3541
 7531SOL    HW234227   4.207   0.482   8.030  3.4944 -1.4584  2.9777
 7532SOL     OW34228   1.024   0.396   0.624 -0.3340 -0.0072 -0.8354
 7532SOL    HW134229   1.053   0.418   0.713 -0.2049  0.8803 -1.0950
 7532SOL    HW234230   0.935   0.362   0.632 -0.6337  0.9979  0.1163
 7533SOL     OW34231   2.628   0.346   3.514 -0.5065 -0.2944 -0.2016
 7533SOL    HW134232   2.557   0.402   3.482  1.1882  1.1473 -1.4317
 7533SOL    HW234233   2.665   0.394   3.588 -2.3594 -0.6386  0.9624
 7534SOL     OW34234   0.533   0.328   5.045 -0.0960  0.1455  0.0374
 7534SOL    HW134235   0.585   0.385   5.101 -0.8778 -0.3258  1.2281
 7534SOL    HW234236   0.459   0.388   5.040  0.2340  0.3568 -2.3837
 7535SOL     OW34237   1.400   0.382   9.757  0.7966 -0.0916  0.1546
 7535SOL    HW134238   1.489   0.405   9.728  0.7051  1.6010  1.1917
 7535SOL    HW234239   1.351   0.384   9.675 -2.7055 -1.0618  2.2196
 7536SOL     OW34240   1.909   0.033   2.926 -0.1850  0.1129 -0.0178
 7536SOL    HW134241   1.816   0.051   2.915  0.0645  2.6294  2.1024
 7536SOL    HW234242   1.916   0.055   3.019 -0.5282 -0.1960  0.0807
 7537SOL     OW34243   3.483   3.592   1.332 -0.3054 -0.1756 -0.0231
 7537SOL    HW134244   3.433   3.661   1.376 -0.2969 -0.7270  0.8545
 7537SOL    HW234245   3.457   3.516   1.384 -1.9768  0.3505 -0.1017
 7538SOL     OW34246   3.326   4.270   1.530  0.3416  0.0599  0.4899
 7538SOL    HW134247   3.400   4.330   1.541  0.6676 -0.1116 -0.6935
 7538SOL    HW234248   3.255   4.305   1.583 -0.3835  1.1099 -1.1772
 7539SOL     OW34249   1.125   2.820   5.647 -0.3850 -0.0990 -0.3778
 7539SOL    HW134250   1.121   2.761   5.572  0.8881  0.3906 -0.8289
 7539SOL    HW234251   1.219   2.801   5.655 -0.0402  0.8677 -2.3946
 7540SOL     OW34252   2.258   3.744   9.837  0.2917  0.1573 -0.3483
 7540SOL    HW134253   2.166   3.726   9.859  0.9182  0.9557  2.9388
 7540SOL    HW234254   2.307   3.662   9.841  1.8159  1.0542 -0.5472
 7541SOL     OW34255   2.618   3.368   6.652 -0.6348 -0.7450 -0.5002
 7541SOL    HW134256   2.617   3.426   6.728  0.6828  0.0203 -1.0739
 7541SOL    HW234257   2.626   3.278   6.684  1.2839  0.0750  1.3386
 7542SOL     OW34258   3.515   1.717   8.588  0.1116 -0.1936 -0.2358
 7542SOL    HW134259   3.548   1.778   8.654 -1.0511 -0.7906  0.9053
 7542SOL    HW234260   3.422   1.739   8.576 -0.0180 -1.3261 -1.2975
 7543SOL     OW34261   4.631   4.692   8.357 -0.2866 -0.2713 -0.0431
 7543SOL    HW134262   4.547   4.712   8.316 -1.1045 -0.3198  1.6025
 7543SOL    HW234263   4.664   0.043   8.365 -1.0829 -0.0430  0.7382
 7544SOL     OW34264   2.507   1.354   4.894  0.6075 -0.1059 -0.5860
 7544SOL    HW134265   2.468   1.328   4.977  1.2651 -0.2823 -0.3266
 7544SOL    HW234266   2.541   1.270   4.862  3.1115  1.2241 -1.4487
 7545SOL     OW34267   1.068   1.289   7.948  0.3209  0.5924  0.0358
 7545SOL    HW134268   1.099   1.353   7.883  3.8476  0.9252  2.0041
 7545SOL    HW234269   1.129   1.218   7.926 -0.8191  0.1346 -1.5942
 7546SOL     OW34270   1.030   4.651   5.643  0.1860 -0.5311 -0.0398
 7546SOL    HW134271   1.086   4.596   5.588  0.6084 -0.4824  0.3480
 7546SOL    HW234272   0.963   4.666   5.576  0.2240 -2.1439 -0.4365
 7547SOL     OW34273   3.257   2.466   6.670 -0.2684 -0.1999 -0.3545
 7547SOL    HW134274   3.344   2.472   6.630 -0.3531  2.8913 -0.1273
 7547SOL    HW234275   3.275   2.386   6.719 -1.0024  0.9757  1.8833
 7548SOL     OW34276   1.529   3.604   3.976  0.3602 -0.6113 -0.4377
 7548SOL    HW134277   1.465   3.672   3.995  3.4913  1.9187  1.0822
 7548SOL    HW234278   1.504   3.592   3.885 -1.6109  0.3881 -0.0289
 7549SOL     OW34279   3.515   0.562   2.390  0.3090  0.5267  0.0613
 7549SOL    HW134280   3.483   0.653   2.388  1.9329  1.0872 -0.5597
 7549SOL    HW234281   3.554   0.549   2.304 -1.5724  0.7999 -0.8434
 7550SOL     OW34282   4.620   3.995   5.799  0.1576  0.1699  0.0982
 7550SOL    HW134283   4.593   3.934   5.730  0.5403  1.7346 -1.4519
 7550SOL    HW234284   4.539   4.046   5.805 -0.2429 -0.8223  3.1816
 7551SOL     OW34285   3.330   3.264  16.274  0.0350 -0.1554  0.3933
 7551SOL    HW134286   3.310   3.217  16.193  0.6603  3.0241 -1.5644
 7551SOL    HW234287   3.397   3.319  16.234 -0.5949  0.6849  0.4811
 7552SOL     OW34288   0.212   3.668  14.014  0.8235 -0.3840 -0.2791
 7552SOL    HW134289   0.148   3.680  14.084 -0.7324 -1.9128 -1.4354
 7552SOL    HW234290   0.295   3.677  14.061 -0.7736 -1.9946  2.8169
 7553SOL     OW34291   2.252   3.963   6.817 -1.1368  0.2946  0.2280
 7553SOL    HW134292   2.247   4.058   6.807  1.3707  0.6520  2.3482
 7553SOL    HW234293   2.185   3.945   6.884  0.8056  1.2669  2.4098
 7554SOL     OW34294   3.830   3.489   2.283  0.3392  0.2452  0.0426
 7554SOL    HW134295   3.821   3.471   2.377 -1.4241  2.2078  0.2525
 7554SOL    HW234296   3.754   3.547   2.273 -0.3307 -0.3451  1.7320
 7555SOL     OW34297   2.601   2.274   7.260 -0.1285  0.2208 -0.1803
 7555SOL    HW134298   2.578   2.366   7.243 -2.5500 -0.3472  0.0144
 7555SOL    HW234299   2.534   2.259   7.326  0.9556  1.2361  1.1497
 7556SOL     OW34300   2.124   4.255   7.029 -0.0799  0.1824  0.3418
 7556SOL    HW134301   2.128   4.225   7.120  0.5567 -2.5760 -0.6115
 7556SOL    HW234302   2.049   4.213   6.988 -0.3473  0.9808  0.0063
 7557SOL     OW34303   2.184   0.646   2.522 -0.1409 -0.3531 -0.0590
 7557SOL    HW134304   2.272   0.680   2.534 -0.5089  0.2216  1.0615
 7557SOL    HW234305   2.158   0.696   2.444 -5.1280  2.5228  3.3717
 7558SOL     OW34306   3.640   4.229  12.389 -0.3139  0.4534  0.2385
 7558SOL    HW134307   3.724   4.184  12.399 -0.0786  0.2935 -2.3697
 7558SOL    HW234308   3.582   4.167  12.432 -2.6574  1.4356 -1.5261
 7559SOL     OW34309   2.098   1.278   2.327  0.3120  0.2014 -0.2379
 7559SOL    HW134310   2.139   1.219   2.263 -0.1438  0.8234 -1.1081
 7559SOL    HW234311   2.017   1.305   2.283  1.2429 -0.0152 -2.1048
 7560SOL     OW34312   4.094   3.740   6.105 -0.5082 -0.4868 -0.0438
 7560SOL    HW134313   4.104   3.683   6.182 -1.2215 -0.2362  0.2336
 7560SOL    HW234314   4.091   3.664   6.046  1.0491 -0.2148 -0.4654
 7561SOL     OW34315   0.100   3.417  12.211  0.1742 -0.5263  0.1570
 7561SOL    HW134316   0.188   3.435  12.178 -0.3201 -2.3318 -2.1776
 7561SOL    HW234317   0.112   3.326  12.236 -0.7116 -0.8513 -0.5646
 7562SOL     OW34318   2.425   0.341   8.112  0.3487  0.7395  0.4937
 7562SOL    HW134319   2.378   0.272   8.159  1.1082  0.2669  0.5705
 7562SOL    HW234320   2.396   0.413   8.167 -1.4496  1.3016 -1.1747
 7563SOL     OW34321   1.587   2.613   8.664 -0.1852  0.1491 -0.1166
 7563SOL    HW134322   1.651   2.558   8.618 -0.1453  0.2190 -0.1455
 7563SOL    HW234323   1.574   2.572   8.749 -3.1396 -0.7614 -0.9976
 7564SOL     OW34324   3.630   0.707   8.258  0.3955 -0.3706 -0.5157
 7564SOL    HW134325   3.634   0.729   8.164  0.9291 -0.6785 -0.5676
 7564SOL    HW234326   3.643   0.612   8.261 -1.7512 -0.6123  0.4588
 7565SOL     OW34327   3.544   1.926   5.520  0.2614  0.4498  0.3269
 7565SOL    HW134328   3.555   1.874   5.441  1.7270 -0.2800  1.0256
 7565SOL    HW234329   3.546   1.863   5.593 -1.1368 -0.4092 -0.3753
 7566SOL     OW34330   2.312   0.780  10.031 -0.0360 -0.5612 -0.0932
 7566SOL    HW134331   2.256   0.807  10.104 -1.0412  1.0926 -1.4463
 7566SOL    HW234332   2.263   0.704  10.000  1.7764 -1.5747 -0.3962
 7567SOL     OW34333   1.683   1.591  17.063 -0.0866 -0.1207 -0.0621
 7567SOL    HW134334   1.767   1.635  17.051  0.5085 -1.5903 -1.1306
 7567SOL    HW234335   1.624   1.659  17.098 -1.3575 -1.3672  0.2081
 7568SOL     OW34336   0.291   4.121  10.378  0.2384 -0.1049  0.1802
 7568SOL    HW134337   0.225   4.059  10.347  0.3564 -0.9311  1.6233
 7568SOL    HW234338   0.279   4.118  10.472  0.7096  2.1604  0.3093
 7569SOL     OW34339   2.557   4.205   8.975  0.1685  0.2727 -0.0016
 7569SOL    HW134340   2.511   4.240   8.898 -1.0786  1.0908  1.1087
 7569SOL    HW234341   2.509   4.126   8.998 -1.4706  0.8033 -1.5759
 7570SOL     OW34342   0.737   0.918   2.637 -0.5839 -0.4283 -0.7237
 7570SOL    HW134343   0.669   0.885   2.579  0.7175 -3.4433 -0.5381
 7570SOL    HW234344   0.706   1.007   2.653 -0.2224 -0.0875 -1.9084
 7571SOL     OW34345   1.835   0.056  11.789 -0.2343  0.1524 -0.3883
 7571SOL    HW134346   1.883   0.052  11.706 -0.9430  1.1701 -0.8488
 7571SOL    HW234347   1.773   0.128  11.779 -0.7279 -0.1966  0.1411
 7572SOL     OW34348   1.043   0.433  12.867  0.5206  0.2445  0.0397
 7572SOL    HW134349   1.046   0.467  12.777 -0.0203  0.8634  0.2580
 7572SOL    HW234350   1.114   0.479  12.912 -1.9647  1.8063  2.3380
 7573SOL     OW34351   1.308   1.411   6.871 -0.5380  0.4562 -0.1691
 7573SOL    HW134352   1.389   1.411   6.818 -0.5538  1.0823 -0.2007
 7573SOL    HW234353   1.258   1.466   6.810 -0.6123  2.0499  1.3146
 7574SOL     OW34354   0.826   4.395   7.191  0.1820  0.0037 -0.3732
 7574SOL    HW134355   0.815   4.322   7.252  0.4039 -0.0650 -0.4150
 7574SOL    HW234356   0.766   4.463   7.220  0.7935  0.2177  0.4059
 7575SOL     OW34357   2.633   4.242   3.593  0.1201 -0.5198 -0.2091
 7575SOL    HW134358   2.594   4.188   3.661  1.0891 -0.4244  0.4264
 7575SOL    HW234359   2.583   4.323   3.588  1.7341  0.4131 -1.3249
 7576SOL     OW34360   0.861   0.043  14.791 -0.5267 -0.4545 -0.3357
 7576SOL    HW134361   0.921   0.114  14.814  1.3165 -1.9437 -0.6103
 7576SOL    HW234362   0.928   4.738  14.739 -0.3224  0.2542 -0.6705
 7577SOL     OW34363   1.801   4.184   4.723 -0.0778  0.0477  0.0695
 7577SOL    HW134364   1.868   4.131   4.765  0.1736 -2.1879 -3.1878
 7577SOL    HW234365   1.781   4.149   4.636 -1.4338 -0.6710  0.6641
 7578SOL     OW34366   3.816   0.996   3.761 -0.2414 -0.7050 -0.1907
 7578SOL    HW134367   3.902   1.009   3.801 -0.7535  1.5948  0.1679
 7578SOL    HW234368   3.828   0.905   3.737  3.1968 -0.6207  1.2748
 7579SOL     OW34369   4.489   3.796   3.810  0.6860 -0.4182 -0.0627
 7579SOL    HW134370   4.440   3.714   3.812  2.6846 -1.6155 -0.5721
 7579SOL    HW234371   4.478   3.833   3.898 -0.5068  0.8304 -0.7373
 7580SOL     OW34372   3.069   2.578   8.981  0.7175 -0.2857  0.3875
 7580SOL    HW134373   3.138   2.512   8.989  0.3031 -0.7039  0.4497
 7580SOL    HW234374   3.085   2.610   8.892  1.0453 -0.0596  0.5281
 7581SOL     OW34375   3.054   2.390   9.346  0.2301  0.3307 -0.2192
 7581SOL    HW134376   3.002   2.322   9.389  0.1621 -1.3458 -2.8732
 7581SOL    HW234377   2.988   2.457   9.327  0.7420  0.8842 -0.0315
 7582SOL     OW34378   1.363   1.184  10.441  0.0180  0.9400  0.5194
 7582SOL    HW134379   1.374   1.278  10.453 -2.9564  1.7913 -3.7512
 7582SOL    HW234380   1.435   1.170  10.379 -0.8541  2.9772 -0.9600
 7583SOL     OW34381   4.657   2.432   4.066 -0.3209  0.6580 -0.3874
 7583SOL    HW134382   4.716   2.356   4.067  1.2771  1.9420  2.2588
 7583SOL    HW234383   4.602   2.406   4.140 -1.6160 -0.9599 -1.9195
 7584SOL     OW34384   3.811   0.765   5.543 -0.7801 -0.2527 -0.2068
 7584SOL    HW134385   3.736   0.767   5.483  0.5852 -0.6503 -1.9323
 7584SOL    HW234386   3.883   0.767   5.480 -1.4822 -0.4515 -1.0105
 7585SOL     OW34387   1.495   2.982   0.047  0.0154 -0.5197  0.1454
 7585SOL    HW134388   1.591   2.975   0.052 -0.0530  0.4502  2.5516
 7585SOL    HW234389   1.492   2.986  17.702  0.5093 -1.1944  0.1001
 7586SOL     OW34390   0.825   0.409   2.672  0.3233 -0.2362 -0.4075
 7586SOL    HW134391   0.770   0.352   2.725  0.9430 -0.6582 -0.2124
 7586SOL    HW234392   0.766   0.480   2.648  0.4753  0.2692  0.6940
 7587SOL     OW34393   3.091   0.155   7.905  0.0931 -0.1273  0.1554
 7587SOL    HW134394   3.138   0.161   7.988  0.1300  1.1774  0.0405
 7587SOL    HW234395   3.105   0.246   7.881 -0.1517 -0.5090 -1.4199
 7588SOL     OW34396   4.604   3.220   1.898 -0.4554 -0.2214 -0.8035
 7588SOL    HW134397   4.566   3.293   1.850 -2.1117  0.2213  1.2000
 7588SOL    HW234398   4.624   3.266   1.979 -4.2434 -1.7150  0.9752
 7589SOL     OW34399   1.834   1.321   5.496 -0.7614  0.3079  0.1940
 7589SOL    HW134400   1.758   1.376   5.518 -1.3019  0.1840 -1.4028
 7589SOL    HW234401   1.816   1.239   5.543  2.4210  0.2159  1.2202
 7590SOL     OW34402   4.733   2.005   8.821 -0.0886 -0.0602 -0.0598
 7590SOL    HW134403   4.690   1.987   8.738 -1.3208  0.3363  0.4872
 7590SOL    HW234404   4.681   2.078   8.855  1.0185  0.6857  0.0220
 7591SOL     OW34405   4.116   1.715   6.165 -0.4852  0.1629 -0.0424
 7591SOL    HW134406   4.167   1.687   6.089 -0.0082  3.8718 -1.1118
 7591SOL    HW234407   4.023   1.709   6.144 -0.1662 -0.4421 -1.2480
 7592SOL     OW34408   0.686   4.001   4.091 -0.0801 -0.0774  0.1891
 7592SOL    HW134409   0.744   3.926   4.077 -1.3702 -1.1780  0.7300
 7592SOL    HW234410   0.752   4.065   4.117  2.0952 -3.5833  3.2154
 7593SOL     OW34411   3.564   2.953   9.026  0.0577 -0.0876  0.4965
 7593SOL    HW134412   3.644   2.937   8.977  0.0669  1.5166 -0.0044
 7593SOL    HW234413   3.595   3.020   9.087  0.6932  2.8096 -3.0266
 7594SOL     OW34414   1.129   3.872  11.811 -0.4922 -0.3528  0.1138
 7594SOL    HW134415   1.075   3.950  11.823 -0.2991  0.1422 -2.2540
 7594SOL    HW234416   1.206   3.928  11.802 -1.6442  1.2312  0.1198
 7595SOL     OW34417   2.575   3.121   3.501 -0.9385 -0.1835  0.4764
 7595SOL    HW134418   2.634   3.178   3.551 -0.2444  0.4336 -1.0278
 7595SOL    HW234419   2.609   3.039   3.535  0.9601 -0.6893 -2.6661
 7596SOL     OW34420   0.639   1.170   4.381  0.0794 -0.0553  0.1636
 7596SOL    HW134421   0.646   1.076   4.372  1.0764  0.0520 -0.1182
 7596SOL    HW234422   0.547   1.191   4.366 -1.0811 -3.4686  2.5604
 7597SOL     OW34423   1.707   3.462   5.504  0.1047  0.2208 -0.2466
 7597SOL    HW134424   1.801   3.454   5.486  0.4142 -1.5532  2.1506
 7597SOL    HW234425   1.672   3.378   5.471 -0.6998  0.4940 -0.0763
 7598SOL     OW34426   0.520   0.275  17.511  0.1171 -0.2147 -0.0407
 7598SOL    HW134427   0.554   0.235  17.431 -1.8031 -2.2393  0.1590
 7598SOL    HW234428   0.426   0.293  17.500  0.0513  0.3998  1.5490
 7599SOL     OW34429   3.401   4.552   9.370 -0.1243 -0.1837  0.5788
 7599SOL    HW134430   3.376   4.472   9.417  0.9436 -1.7079 -1.4432
 7599SOL    HW234431   3.428   4.602   9.447 -2.1791 -2.7284  2.9468
 7600SOL     OW34432   0.127   0.862  17.033  0.1640 -0.1114  0.0187
 7600SOL    HW134433   0.208   0.844  16.984  1.2687  1.1152  1.4059
 7600SOL    HW234434   0.158   0.937  17.084 -3.0366  0.1568  1.5543
 7601SOL     OW34435   4.615   3.331   3.640 -0.1917  0.3532  0.0010
 7601SOL    HW134436   4.650   3.391   3.705 -1.1591 -0.1738  1.0119
 7601SOL    HW234437   4.680   3.353   3.574 -0.4082 -0.5355 -0.5135
 7602SOL     OW34438   2.533   2.601   3.250 -0.1603 -0.3477  0.3021
 7602SOL    HW134439   2.497   2.532   3.194  0.9351 -1.2209  0.6627
 7602SOL    HW234440   2.459   2.661   3.255  0.3922  0.1612  2.3096
 7603SOL     OW34441   3.334   1.830   7.184 -0.0676 -0.0804 -0.2033
 7603SOL    HW134442   3.387   1.751   7.198 -1.0301 -1.2942 -3.4878
 7603SOL    HW234443   3.246   1.811   7.217  0.4223 -0.5718  0.8212
 7604SOL     OW34444   3.032   4.038   8.880  0.3476 -0.2718 -0.3718
 7604SOL    HW134445   2.991   4.106   8.826  0.6313  1.9357  2.1583
 7604SOL    HW234446   2.986   4.055   8.962 -0.8592 -0.3510 -1.0392
 7605SOL     OW34447   0.088   0.308   5.292  0.2592 -0.2327  0.1419
 7605SOL    HW134448   0.086   0.311   5.197 -0.6795  0.2358  0.1809
 7605SOL    HW234449   0.171   0.350   5.315  0.5101  1.1105 -3.3534
 7606SOL     OW34450   3.670   0.333   3.403 -0.1208  0.3890  0.0798
 7606SOL    HW134451   3.641   0.335   3.312  1.5873 -3.3541 -0.5609
 7606SOL    HW234452   3.739   0.398   3.391  0.4480 -0.5100 -1.5828
 7607SOL     OW34453   3.214   3.586   0.762  0.1704 -0.1141  0.2509
 7607SOL    HW134454   3.276   3.656   0.779  0.5614 -0.1096 -1.2245
 7607SOL    HW234455   3.153   3.590   0.837 -0.8346 -1.9129 -0.4684
 7608SOL     OW34456   1.539   0.131   6.028  0.0622  0.4039 -0.1225
 7608SOL    HW134457   1.505   0.057   5.978  0.3357  0.7373 -0.7915
 7608SOL    HW234458   1.604   0.084   6.081  1.2932  1.2042 -0.9242
 7609SOL     OW34459   1.386   0.446   0.324  0.4280  0.0135 -0.5676
 7609SOL    HW134460   1.352   0.369   0.278  1.3359 -1.1724  0.7446
 7609SOL    HW234461   1.308   0.484   0.365  0.3553 -1.4846  0.7263
 7610SOL     OW34462   4.505   3.922   5.563 -0.2166  0.4646  0.4071
 7610SOL    HW134463   4.575   3.977   5.528 -0.2102  1.6925  2.3250
 7610SOL    HW234464   4.433   3.984   5.553  0.5375  1.3598  0.4104
 7611SOL     OW34465   4.617   1.487   6.555  0.3336 -0.5601  0.1436
 7611SOL    HW134466   4.697   1.463   6.508 -0.3090 -1.2578 -0.6006
 7611SOL    HW234467   4.625   1.581   6.572 -1.6688  0.0311 -2.2907
 7612SOL     OW34468   3.731   1.884   7.817 -0.4862 -0.4692 -0.1614
 7612SOL    HW134469   3.708   1.900   7.726 -2.0620 -0.1955  0.2894
 7612SOL    HW234470   3.654   1.838   7.852  0.7254 -1.0997  1.6905
 7613SOL     OW34471   2.285   4.675   5.896 -0.1136  0.3302  0.1711
 7613SOL    HW134472   2.342   4.599   5.903 -0.7112 -0.1750 -0.4640
 7613SOL    HW234473   2.359   4.733   5.876 -1.2112  1.5783 -0.2735
 7614SOL     OW34474   1.444   0.631   5.273 -0.0782 -0.7459 -0.0378
 7614SOL    HW134475   1.524   0.618   5.222  0.6744  0.3642  0.8624
 7614SOL    HW234476   1.411   0.544   5.249  0.3153  0.2001 -4.0528
 7615SOL     OW34477   1.536   0.376  10.048  0.1293 -0.2695 -0.9540
 7615SOL    HW134478   1.567   0.327   9.972  1.7976  0.1768 -0.5562
 7615SOL    HW234479   1.517   0.311  10.116 -0.2995  0.9415  0.0903
 7616SOL     OW34480   3.326   1.123  11.838 -0.0163  0.0409  0.2695
 7616SOL    HW134481   3.354   1.143  11.927  0.9688  0.7228 -0.2009
 7616SOL    HW234482   3.267   1.193  11.809 -0.3880 -0.6353 -0.6009
 7617SOL     OW34483   4.729   1.949   5.288 -0.3474  0.0104 -0.0083
 7617SOL    HW134484   0.071   1.992   5.316 -1.1629  2.0052 -0.7279
 7617SOL    HW234485   4.709   1.901   5.369  0.3978  0.4203  0.4181
 7618SOL     OW34486   3.306   2.938  10.523 -0.1211  0.5862  0.9416
 7618SOL    HW134487   3.211   2.938  10.524 -0.1075  0.9850  2.5160
 7618SOL    HW234488   3.327   2.926  10.616 -0.2344  3.0205  1.3036
 7619SOL     OW34489   4.481   4.070   7.386  0.2040  0.2336  0.0811
 7619SOL    HW134490   4.421   3.996   7.373 -0.0094  0.4783 -0.3365
 7619SOL    HW234491   4.553   4.026   7.431 -0.7302  0.7918  2.1154
 7620SOL     OW34492   1.383   4.246   0.082  0.4038  0.5306  0.1186
 7620SOL    HW134493   1.421   4.327   0.049  0.1291  0.3946 -0.5218
 7620SOL    HW234494   1.358   4.260   0.174  0.2511  1.0157  0.0031
 7621SOL     OW34495   2.630   3.502   3.789 -0.2406  0.1792  0.2390
 7621SOL    HW134496   2.682   3.466   3.861 -0.0253  0.4885  0.2362
 7621SOL    HW234497   2.659   3.455   3.711 -0.4265  0.2499  0.1272
 7622SOL     OW34498   1.944   1.673  13.398  0.2457  0.2972 -0.2488
 7622SOL    HW134499   1.874   1.681  13.334 -1.4370  0.3818  1.6137
 7622SOL    HW234500   1.943   1.580  13.423 -1.1572  0.3405 -0.1803
 7623SOL     OW34501   3.521   3.722   2.583 -0.2970  0.5766 -0.5102
 7623SOL    HW134502   3.471   3.752   2.659 -0.2333 -0.5677 -0.0094
 7623SOL    HW234503   3.607   3.713   2.622  0.2557  2.1917 -1.3480
 7624SOL     OW34504   4.354   2.327  16.313  0.0550 -0.3187 -0.1049
 7624SOL    HW134505   4.274   2.379  16.325 -0.0875 -0.0596 -2.2416
 7624SOL    HW234506   4.381   2.325  16.405  1.3186  3.0928 -0.4096
 7625SOL     OW34507   1.982   0.715  14.600  0.7709  0.6699 -0.7297
 7625SOL    HW134508   1.904   0.743  14.648 -0.0345 -0.3455 -1.4640
 7625SOL    HW234509   1.992   0.637  14.653 -2.1303  0.9624  0.2445
 7626SOL     OW34510   0.304   0.308   2.327  0.2759  0.1401  1.1193
 7626SOL    HW134511   0.361   0.340   2.256  1.6474  0.2735  2.2680
 7626SOL    HW234512   0.317   0.372   2.397  1.4534 -1.0903  2.0180
 7627SOL     OW34513   3.549   4.255   4.027 -0.5847 -0.3487 -0.1174
 7627SOL    HW134514   3.457   4.274   4.006 -0.1667  0.2944 -1.3811
 7627SOL    HW234515   3.582   4.261   3.937 -0.0135  0.1720  0.1228
 7628SOL     OW34516   4.348   1.374   2.384 -0.0416  0.0994  0.3618
 7628SOL    HW134517   4.365   1.388   2.291 -2.8823  2.3450  0.1746
 7628SOL    HW234518   4.330   1.280   2.384  1.8780 -0.2694  0.2272
 7629SOL     OW34519   0.678   1.169   3.631  0.3444  0.1255 -0.6512
 7629SOL    HW134520   0.597   1.119   3.635  0.3389  0.3070  1.5136
 7629SOL    HW234521   0.720   1.127   3.556  1.9238  1.2979 -0.4265
 7630SOL     OW34522   1.689   0.508  16.149  0.0662  0.1649 -0.2236
 7630SOL    HW134523   1.736   0.556  16.217 -1.5389  0.9701  0.3215
 7630SOL    HW234524   1.700   0.561  16.070  1.3063 -2.9904 -2.1133
 7631SOL     OW34525   0.100   2.279  12.691 -0.3584 -0.2325 -0.1592
 7631SOL    HW134526   0.052   2.198  12.675  1.7110 -1.6897  1.1359
 7631SOL    HW234527   0.107   2.270  12.786 -2.2860  5.6534  0.5702
 7632SOL     OW34528   3.797   4.213   2.259 -0.3273  0.3353  0.0479
 7632SOL    HW134529   3.718   4.260   2.284 -0.1183  0.8765 -0.3027
 7632SOL    HW234530   3.786   4.131   2.306  2.2228 -0.9195 -1.5691
 7633SOL     OW34531   4.618   1.732   3.164  0.4166 -0.0302 -0.1645
 7633SOL    HW134532   4.676   1.710   3.237  0.0071 -1.2898 -0.2194
 7633SOL    HW234533   4.610   1.827   3.174 -2.9515 -0.4730  1.5422
 7634SOL     OW34534   0.287   3.016   4.232  0.4831 -0.3676  0.2848
 7634SOL    HW134535   0.224   3.084   4.209  1.1771 -0.4642 -1.9251
 7634SOL    HW234536   0.249   2.942   4.184 -0.4893 -1.6083  2.9809
 7635SOL     OW34537   2.183   1.742   4.584 -0.0341  0.5211 -0.4362
 7635SOL    HW134538   2.165   1.759   4.676  1.9994  1.5141 -0.2011
 7635SOL    HW234539   2.262   1.688   4.590 -1.3815 -1.1437  2.0169
 7636SOL     OW34540   0.228   1.012   1.821  0.7208 -0.2562 -0.1657
 7636SOL    HW134541   0.313   1.007   1.776  0.0620  0.4161 -1.4792
 7636SOL    HW234542   0.198   0.921   1.814 -1.8519  0.7151 -1.3670
 7637SOL     OW34543   3.972   4.663   8.000  0.0324 -0.4448  0.0627
 7637SOL    HW134544   4.011   4.719   7.933  0.3319  1.2982  1.7142
 7637SOL    HW234545   3.883   4.664   7.965  0.1548  1.9040 -0.2026
 7638SOL     OW34546   4.360   0.055   6.336  0.2524  0.6299  0.0754
 7638SOL    HW134547   4.409   0.017   6.264  0.8083  0.7386  0.3984
 7638SOL    HW234548   4.408   0.138   6.337  1.3657 -0.0158  0.2259
 7639SOL     OW34549   0.503   0.883  13.964  0.7489 -0.1997 -0.2933
 7639SOL    HW134550   0.554   0.869  13.884 -0.1620  0.2267 -0.9501
 7639SOL    HW234551   0.481   0.976  13.966  0.2708 -0.3382  0.6765
 7640SOL     OW34552   1.409   4.396   8.115  0.0331  0.5808 -0.5446
 7640SOL    HW134553   1.336   4.339   8.093  0.9763 -0.7124 -0.2805
 7640SOL    HW234554   1.360   4.478   8.124  0.3938  0.8448 -0.9295
 7641SOL     OW34555   1.776   0.521   2.018 -0.2427 -0.0714 -0.3819
 7641SOL    HW134556   1.733   0.460   2.078 -1.1534  0.3176 -0.6409
 7641SOL    HW234557   1.762   0.597   2.075  1.4650  0.0370 -0.1138
 7642SOL     OW34558   1.942   0.882   3.189  0.4849  0.0271  0.3345
 7642SOL    HW134559   1.935   0.963   3.139 -0.6784 -0.3990 -0.1887
 7642SOL    HW234560   1.866   0.832   3.159  0.3650 -0.2649  1.1108
 7643SOL     OW34561   4.086   3.499   6.848 -0.0948 -0.2751 -0.3188
 7643SOL    HW134562   4.063   3.592   6.841  0.3298  0.1434  3.6014
 7643SOL    HW234563   4.127   3.499   6.935 -0.7808 -1.9113 -0.0046
 7644SOL     OW34564   2.581   2.711   6.516  0.0608 -0.2342  0.7413
 7644SOL    HW134565   2.567   2.795   6.558 -3.4865 -1.2570  1.5729
 7644SOL    HW234566   2.666   2.724   6.474 -0.5504 -0.3835 -0.5667
 7645SOL     OW34567   0.681   4.343  14.160 -0.0050  0.6043  0.5625
 7645SOL    HW134568   0.694   4.263  14.211 -1.5494 -0.4912 -0.7492
 7645SOL    HW234569   0.586   4.359  14.159  0.0970  1.0046 -1.8959
 7646SOL     OW34570   3.877   1.183   4.502 -0.0050 -0.0950  0.2735
 7646SOL    HW134571   3.817   1.110   4.515  1.8680 -1.9186 -1.5461
 7646SOL    HW234572   3.881   1.194   4.407 -0.7034 -1.6585  0.0745
 7647SOL     OW34573   2.486   0.321   8.565  0.2784 -0.3088  0.2842
 7647SOL    HW134574   2.575   0.336   8.533 -0.5092  0.9912 -1.3241
 7647SOL    HW234575   2.498   0.325   8.660  2.0869  0.6823  0.0100
 7648SOL     OW34576   1.922   2.688   8.279  0.4624 -0.2425 -0.2424
 7648SOL    HW134577   1.877   2.714   8.360 -0.2447 -0.7506 -0.4684
 7648SOL    HW234578   1.988   2.628   8.313 -0.6307 -1.0826  0.4218
 7649SOL     OW34579   2.517   3.197  16.976  0.3575 -0.5300  0.5914
 7649SOL    HW134580   2.439   3.142  16.971 -0.3845  0.6287 -0.5501
 7649SOL    HW234581   2.490   3.286  17.000  1.7187  0.1560 -0.4126
 7650SOL     OW34582   4.127   2.890   2.567  0.1520 -0.5946 -0.2190
 7650SOL    HW134583   4.129   2.967   2.509  0.5051  0.1317  0.7429
 7650SOL    HW234584   4.200   2.915   2.625 -0.4782 -0.8484  0.6803
 7651SOL     OW34585   0.240   2.066   1.675 -0.0817 -0.0185 -0.1388
 7651SOL    HW134586   0.150   2.066   1.708 -0.2126  0.2397 -0.4946
 7651SOL    HW234587   0.276   2.125   1.741  0.7917 -1.7890  0.9488
 7652SOL     OW34588   0.452   3.548   4.555  0.0176 -0.1761  0.0713
 7652SOL    HW134589   0.538   3.554   4.596  0.7222 -1.6484 -1.2011
 7652SOL    HW234590   0.422   3.458   4.566 -1.7875  0.6677  1.9640
 7653SOL     OW34591   4.677   2.425  11.471 -0.2483  0.1517 -0.2092
 7653SOL    HW134592   4.654   2.381  11.390 -0.3491 -0.4906  0.1716
 7653SOL    HW234593   0.018   2.473  11.447 -1.4452  1.0352 -2.3971
 7654SOL     OW34594   3.825   0.188   8.265 -0.1307  0.5388 -0.3280
 7654SOL    HW134595   3.773   0.188   8.184  0.7103  2.8562 -0.8513
 7654SOL    HW234596   3.776   0.132   8.326  2.1944  0.4878  1.4771
 7655SOL     OW34597   3.924   1.148   0.735 -0.0555  0.4812  0.6231
 7655SOL    HW134598   3.921   1.117   0.825  2.4962 -1.6444 -0.0473
 7655SOL    HW234599   3.920   1.242   0.754 -1.8437  0.4179  0.5966
 7656SOL     OW34600   1.785   2.264   8.129 -0.2448  0.0618  0.4726
 7656SOL    HW134601   1.830   2.183   8.107 -0.7891  0.1749 -1.0216
 7656SOL    HW234602   1.739   2.286   8.048 -1.1922 -0.3205  0.9068
 7657SOL     OW34603   2.932   1.692   9.805  0.2162  0.1364 -0.0124
 7657SOL    HW134604   3.024   1.676   9.788  0.4455 -0.5408  1.8395
 7657SOL    HW234605   2.937   1.678   9.900 -1.0882 -0.7170 -0.0547
 7658SOL     OW34606   3.412   0.210   1.830 -0.0645  0.3492  0.5093
 7658SOL    HW134607   3.334   0.217   1.885  0.9423  0.1366  1.9692
 7658SOL    HW234608   3.459   0.131   1.855  0.8856  0.8054  0.1466
 7659SOL     OW34609   2.963   2.078   2.933 -1.0029  0.1868 -0.0555
 7659SOL    HW134610   2.918   2.009   2.981 -1.6560  1.2208  0.8127
 7659SOL    HW234611   3.005   2.133   2.999 -1.0552  1.8607 -1.3958
 7660SOL     OW34612   4.675   3.712  17.503 -0.1880  0.5658 -0.0997
 7660SOL    HW134613   4.663   3.774  17.431  1.5448 -0.8772 -1.6095
 7660SOL    HW234614   4.594   3.661  17.503  1.7067 -2.4102  1.1013
 7661SOL     OW34615   0.831   2.307   8.892 -0.4787 -0.0857  0.2672
 7661SOL    HW134616   0.869   2.232   8.846  1.9675  0.1360  1.9143
 7661SOL    HW234617   0.793   2.272   8.972 -0.0332  1.7137  1.2534
 7662SOL     OW34618   1.551   4.705   2.031  0.2440 -0.0724 -0.3711
 7662SOL    HW134619   1.499   0.025   2.086 -0.2025  0.6425 -1.5251
 7662SOL    HW234620   1.618   4.672   2.091 -2.3985 -3.6033  0.6171
 7663SOL     OW34621   2.329   0.935   2.882  0.0458 -0.0737 -0.7548
 7663SOL    HW134622   2.268   0.862   2.873 -1.5692  1.5113 -2.7103
 7663SOL    HW234623   2.392   0.923   2.811  0.3814 -1.4959 -0.2144
 7664SOL     OW34624   4.623   4.601   2.787  0.1664  0.1338  0.8396
 7664SOL    HW134625   4.635   4.687   2.747 -0.3427 -0.5201 -0.7066
 7664SOL    HW234626   4.563   4.559   2.726  0.0872 -1.5657  2.0913
 7665SOL     OW34627   1.770   2.150   3.785  0.0278  0.2505 -0.3366
 7665SOL    HW134628   1.830   2.164   3.858  1.6530 -0.4161 -1.5540
 7665SOL    HW234629   1.760   2.245   3.774  0.1477  0.2601 -0.3624
 7666SOL     OW34630   0.707   0.239   3.656 -0.0044  0.0558 -0.4554
 7666SOL    HW134631   0.696   0.264   3.747 -0.1921 -1.0248 -0.1802
 7666SOL    HW234632   0.639   0.172   3.650  1.8310 -1.7056 -1.6165
 7667SOL     OW34633   2.059   3.096   4.463 -0.1157  0.3953  0.0277
 7667SOL    HW134634   2.014   3.151   4.527  1.2740 -0.1680  1.5017
 7667SOL    HW234635   2.036   3.010   4.497 -0.6858  0.8794  0.8545
 7668SOL     OW34636   0.807   0.453   8.529 -0.3244  0.5735  0.0758
 7668SOL    HW134637   0.810   0.474   8.436 -1.3012  1.2123  0.1885
 7668SOL    HW234638   0.871   0.509   8.572  0.7402  1.3288 -2.5483
 7669SOL     OW34639   0.624   0.707   2.764 -0.6124 -0.3497 -0.1300
 7669SOL    HW134640   0.627   0.666   2.678 -0.6935  0.0807 -0.3341
 7669SOL    HW234641   0.699   0.765   2.747 -0.8477 -0.3367 -1.1226
 7670SOL     OW34642   0.298   4.679   2.014 -0.1124 -0.8240 -0.4308
 7670SOL    HW134643   0.363   0.011   2.021 -0.6808 -0.1808 -1.6972
 7670SOL    HW234644   0.224   4.731   1.984 -0.4928  0.3986  2.6228
 7671SOL     OW34645   1.228   3.194   6.611  0.2684  0.6225 -0.8038
 7671SOL    HW134646   1.230   3.109   6.566  1.2740 -1.1133  2.5191
 7671SOL    HW234647   1.302   3.186   6.671 -0.4021  1.0554  0.0840
 7672SOL     OW34648   3.920   4.187   4.366  0.5428 -0.0189 -0.3735
 7672SOL    HW134649   4.004   4.190   4.320  0.8005 -0.9120  0.0420
 7672SOL    HW234650   3.858   4.195   4.293  1.8090  0.2559 -1.4174
 7673SOL     OW34651   3.877   4.676  10.421 -0.4621  0.6730 -1.0915
 7673SOL    HW134652   3.965   4.710  10.403 -1.8052  3.4389 -2.5456
 7673SOL    HW234653   3.828   4.729  10.358 -1.8239 -1.4602 -1.8126
 7674SOL     OW34654   1.747   0.133   6.773  0.1780 -0.1756  0.2734
 7674SOL    HW134655   1.771   0.044   6.796  0.9118 -0.0019  0.1950
 7674SOL    HW234656   1.652   0.123   6.770  0.0646  1.0385 -0.3195
 7675SOL     OW34657   3.049   0.331   6.947  0.0229  0.2063 -0.6697
 7675SOL    HW134658   3.063   0.384   6.868 -0.2609  0.2438 -0.6949
 7675SOL    HW234659   3.001   0.256   6.912  1.5918  0.8834 -4.3726
 7676SOL     OW34660   0.150   0.744  11.641 -0.0988 -0.0175 -0.0813
 7676SOL    HW134661   0.212   0.816  11.651 -0.8218  0.7030 -0.7611
 7676SOL    HW234662   0.072   0.776  11.686  0.2560  0.5564  0.1272
 7677SOL     OW34663   3.096   1.820   3.191 -0.1064  0.2057 -0.2367
 7677SOL    HW134664   3.087   1.787   3.280 -1.0070  0.5677 -0.1996
 7677SOL    HW234665   3.067   1.739   3.148  1.4416 -0.8012  0.5895
 7678SOL     OW34666   3.483   0.907   3.220 -0.3830 -0.4870 -0.0035
 7678SOL    HW134667   3.424   0.928   3.148 -0.3721 -0.8018 -0.1069
 7678SOL    HW234668   3.552   0.968   3.194 -1.7303  0.9209 -0.2870
 7679SOL     OW34669   2.168   3.820  11.183 -0.2724  0.4715  0.1665
 7679SOL    HW134670   2.225   3.753  11.222 -0.4006  0.4568  0.3258
 7679SOL    HW234671   2.096   3.771  11.144  0.6555 -0.1732 -0.7581
 7680SOL     OW34672   0.769   3.663   1.390 -0.1181 -0.2181 -0.3433
 7680SOL    HW134673   0.751   3.615   1.309  1.6459 -1.8645  0.2649
 7680SOL    HW234674   0.833   3.600   1.422 -1.7635 -1.1854  1.0400
 7681SOL     OW34675   0.472   4.021   8.384 -0.0199 -0.6172  0.8509
 7681SOL    HW134676   0.401   4.085   8.382 -0.2084 -0.8886 -0.5265
 7681SOL    HW234677   0.425   3.940   8.404  0.4073 -1.0032  0.2770
 7682SOL     OW34678   2.959   1.054   7.976  0.9159  0.0586  0.0653
 7682SOL    HW134679   3.031   1.079   7.918 -0.2466  0.2141 -1.3010
 7682SOL    HW234680   2.907   0.987   7.933  0.2281  1.6488 -1.5980
 7683SOL     OW34681   3.083   3.918   3.115  0.3602  0.3264  0.3620
 7683SOL    HW134682   3.126   3.848   3.164 -0.5236 -0.0324  0.6418
 7683SOL    HW234683   3.075   3.978   3.189  0.9510  0.0264  0.6702
 7684SOL     OW34684   3.839   3.267   4.133 -0.1146  0.1406  0.2038
 7684SOL    HW134685   3.866   3.265   4.225  2.7570  0.7675 -0.6122
 7684SOL    HW234686   3.820   3.359   4.114 -3.3428 -0.4160  0.8458
 7685SOL     OW34687   3.321   3.483   5.542 -0.0812 -0.2782 -0.1020
 7685SOL    HW134688   3.352   3.407   5.592 -0.4170 -0.3906 -0.0633
 7685SOL    HW234689   3.287   3.533   5.616 -0.5845 -0.3244 -0.3027
 7686SOL     OW34690   3.639   3.683  10.460  0.6556  0.1631 -0.1133
 7686SOL    HW134691   3.597   3.626  10.396 -2.1203  2.2751 -0.2027
 7686SOL    HW234692   3.704   3.728  10.406  0.9840 -3.9400 -3.1438
 7687SOL     OW34693   0.732   1.687   1.958 -0.1856  0.0492  0.2469
 7687SOL    HW134694   0.643   1.722   1.952 -0.3108 -0.3498 -0.2166
 7687SOL    HW234695   0.777   1.767   1.929  0.5553 -0.8065 -1.0086
 7688SOL     OW34696   4.396   4.639  16.419  0.3459 -0.1730  0.1014
 7688SOL    HW134697   4.360   4.727  16.426 -2.5582 -1.2470 -1.3329
 7688SOL    HW234698   4.449   4.642  16.340  1.2706  1.6808  0.8027
 7689SOL     OW34699   1.959   0.064   8.919 -0.3060 -0.2380  0.3671
 7689SOL    HW134700   1.963   0.107   9.005  0.1699 -1.1504  0.7934
 7689SOL    HW234701   2.023   0.109   8.863  0.2435 -0.4851  0.7997
 7690SOL     OW34702   1.307   2.604   7.392  0.3217  0.3650  0.5760
 7690SOL    HW134703   1.216   2.574   7.390  0.5752 -0.4628  1.4832
 7690SOL    HW234704   1.306   2.681   7.449  0.3361  1.0361 -0.3380
 7691SOL     OW34705   0.212   0.923   3.519  0.1728  0.4925 -0.2858
 7691SOL    HW134706   0.185   0.902   3.429  1.0509  0.6235 -0.5763
 7691SOL    HW234707   0.200   0.836   3.558 -2.9783  1.2803  0.4869
 7692SOL     OW34708   4.435   3.357   5.596 -0.0586  0.6959  0.1871
 7692SOL    HW134709   4.452   3.447   5.569  2.4757 -0.1637 -1.1233
 7692SOL    HW234710   4.499   3.303   5.548  0.4111  0.1486  1.4400
 7693SOL     OW34711   2.987   1.664   9.068  0.6188  0.4925 -0.3172
 7693SOL    HW134712   2.919   1.600   9.047 -0.3887  1.0318  1.2364
 7693SOL    HW234713   2.936   1.740   9.098 -0.9860 -1.1195  1.0482
 7694SOL     OW34714   3.728   4.664   2.195  0.5275  0.1185 -0.3965
 7694SOL    HW134715   3.676   4.645   2.117 -1.1764  1.5365  0.3772
 7694SOL    HW234716   3.793   4.594   2.188  0.1755 -0.3938  1.4376
 7695SOL     OW34717   2.448   2.829   8.909  0.6314  0.1386 -0.4108
 7695SOL    HW134718   2.491   2.903   8.951  1.7904 -0.6897 -0.1300
 7695SOL    HW234719   2.488   2.751   8.946 -0.3878 -0.9705 -1.6424
 7696SOL     OW34720   0.549   1.781   3.887 -0.3028 -0.1593  0.1490
 7696SOL    HW134721   0.517   1.798   3.976  0.7300  0.2680  0.4466
 7696SOL    HW234722   0.546   1.868   3.848 -1.5764 -0.8130 -1.1786
 7697SOL     OW34723   3.542   1.729   7.454  0.3863  0.1869 -0.5205
 7697SOL    HW134724   3.551   1.661   7.520  0.8863  0.0043 -0.7714
 7697SOL    HW234725   3.572   1.813   7.490 -2.4858  0.0008  2.2455
 7698SOL     OW34726   0.941   0.415   2.991 -0.5161 -0.6141 -0.0203
 7698SOL    HW134727   1.018   0.466   3.018 -1.8713  2.1096 -1.2278
 7698SOL    HW234728   0.972   0.334   3.030  0.2687 -0.6848 -0.7845
 7699SOL     OW34729   1.167   0.568   0.432 -0.0323 -0.0276 -0.2536
 7699SOL    HW134730   1.141   0.503   0.497 -0.6288  0.2032 -0.2614
 7699SOL    HW234731   1.082   0.569   0.388  0.3160 -0.4288 -0.9475
 7700SOL     OW34732   0.420   4.362  17.554 -0.2811  0.6813 -0.0109
 7700SOL    HW134733   0.501   4.381  17.507  1.1991 -2.5307  1.2273
 7700SOL    HW234734   0.386   4.292  17.498 -0.0729  1.4213 -1.0597
 7701SOL     OW34735   1.680   0.462   5.762 -0.3720  0.1067 -0.1590
 7701SOL    HW134736   1.627   0.433   5.837  1.5112 -0.0131  1.1180
 7701SOL    HW234737   1.695   0.383   5.710 -1.5811 -0.9251  1.0507
 7702SOL     OW34738   4.084   1.016   7.695 -0.4265 -0.2792  0.4683
 7702SOL    HW134739   4.135   1.041   7.618  1.3308 -1.0630  1.3895
 7702SOL    HW234740   4.068   0.922   7.684 -1.2081  0.1102 -1.6599
 7703SOL     OW34741   2.438   3.633   7.637  0.6671  0.5355 -0.4639
 7703SOL    HW134742   2.518   3.682   7.621  0.9333  0.1621 -0.2804
 7703SOL    HW234743   2.460   3.552   7.591  1.9648  0.1444  0.8389
 7704SOL     OW34744   3.047   3.177   7.421  0.0539 -0.1089 -0.6993
 7704SOL    HW134745   3.052   3.140   7.509 -0.4955  0.7669 -0.3060
 7704SOL    HW234746   3.104   3.252   7.435  2.7563 -2.6655  2.0039
 7705SOL     OW34747   0.087   0.421   6.218  0.1188  0.5433 -0.1166
 7705SOL    HW134748   0.110   0.405   6.309 -1.1074 -0.7090 -0.0268
 7705SOL    HW234749   0.089   0.332   6.182 -5.4544  0.2682  0.2464
 7706SOL     OW34750   4.337   3.915   0.193  0.9424  0.4346  0.8912
 7706SOL    HW134751   4.260   3.972   0.196  0.6117  0.1165 -2.1256
 7706SOL    HW234752   4.383   3.954   0.268  0.1342  1.5551  0.8127
 7707SOL     OW34753   1.347   2.876  15.564 -0.0673  0.7072  0.3054
 7707SOL    HW134754   1.373   2.850  15.476 -0.8099  0.0375  0.2820
 7707SOL    HW234755   1.315   2.961  15.536 -1.0408 -0.5310 -2.3114
 7708SOL     OW34756   2.452   1.419   5.662 -0.3450  0.5423  0.0035
 7708SOL    HW134757   2.401   1.374   5.594 -0.7914  1.3594 -0.2004
 7708SOL    HW234758   2.539   1.392   5.631  0.3881  0.6581  1.9502
 7709SOL     OW34759   2.122   2.514  12.161  0.4331 -0.4861  0.2295
 7709SOL    HW134760   2.209   2.502  12.122 -0.4427 -0.0203 -1.9059
 7709SOL    HW234761   2.147   2.540  12.249  0.5950 -2.4260  0.7485
 7710SOL     OW34762   1.853   3.169  14.329  0.5328 -0.1502  0.1731
 7710SOL    HW134763   1.816   3.253  14.356  1.8142  1.6216 -3.6617
 7710SOL    HW234764   1.933   3.195  14.284 -2.0096 -0.1122 -4.3047
 7711SOL     OW34765   4.691   3.681   0.670 -0.4417  0.5550  0.0334
 7711SOL    HW134766   4.650   3.652   0.588  1.0160 -2.2764  0.2934
 7711SOL    HW234767   4.663   3.772   0.671 -2.8171 -0.2009  1.6158
 7712SOL     OW34768   4.228   3.457  11.891  0.5765  0.1746 -0.4719
 7712SOL    HW134769   4.287   3.522  11.851  1.0342 -1.7101 -2.8870
 7712SOL    HW234770   4.294   3.391  11.915  1.0623  0.1781 -1.7697
 7713SOL     OW34771   3.433   1.171   5.880 -0.2542  0.2740 -0.4394
 7713SOL    HW134772   3.500   1.107   5.904  0.7437  2.2610  2.0304
 7713SOL    HW234773   3.485   1.210   5.809  0.0213 -4.1860 -2.6671
 7714SOL     OW34774   4.360   2.425   0.229 -0.6680 -0.5112 -0.3821
 7714SOL    HW134775   4.392   2.461   0.311 -1.3090 -2.2844  0.6508
 7714SOL    HW234776   4.443   2.438   0.183 -0.5229 -1.1891 -0.3129
 7715SOL     OW34777   0.062   2.304   9.869  0.1827 -0.6208 -0.0219
 7715SOL    HW134778   4.725   2.359   9.889  2.3458  1.7953  1.4739
 7715SOL    HW234779   0.044   2.229   9.927 -0.4203  0.0134  0.6081
 7716SOL     OW34780   3.534   2.512   0.993 -0.2757 -0.5350  0.0884
 7716SOL    HW134781   3.519   2.602   0.965  2.0961  0.2385  1.2984
 7716SOL    HW234782   3.473   2.505   1.067  0.5697 -0.6304  0.7855
 7717SOL     OW34783   4.666   0.292   2.028  0.3919  0.1245 -0.0011
 7717SOL    HW134784   4.714   0.374   2.015 -1.1095  0.9443 -0.4303
 7717SOL    HW234785   4.666   0.294   2.123  0.9165 -1.0547  0.0218
 7718SOL     OW34786   0.966   0.958  11.616 -0.0126  0.0347  0.5143
 7718SOL    HW134787   1.007   1.035  11.575  0.0244 -0.6208 -0.6780
 7718SOL    HW234788   0.929   0.990  11.699 -1.3303 -0.0101 -0.0612
 7719SOL     OW34789   1.991   0.883  10.687  0.1904  0.1331  0.0905
 7719SOL    HW134790   1.915   0.927  10.724  0.7351  0.2796  1.0523
 7719SOL    HW234791   2.062   0.931  10.732  0.5973 -1.3795  1.0663
 7720SOL     OW34792   1.947   2.217   6.677 -0.1311 -0.3163  0.0684
 7720SOL    HW134793   1.994   2.298   6.660 -1.7382  0.9455  1.5443
 7720SOL    HW234794   1.988   2.161   6.612  0.9775 -0.6176  1.0219
 7721SOL     OW34795   0.373   0.654  17.555 -0.3016 -0.4576  0.5147
 7721SOL    HW134796   0.286   0.677  17.589 -0.7682  0.5233 -1.3073
 7721SOL    HW234797   0.419   0.639  17.637  1.8573 -1.2788 -0.8434
 7722SOL     OW34798   1.094   3.212   4.225  0.6632  0.2200  0.0803
 7722SOL    HW134799   1.176   3.239   4.185  0.5207  2.3729  1.2030
 7722SOL    HW234800   1.039   3.200   4.148 -0.1069 -0.0339  0.6652
 7723SOL     OW34801   1.640   2.662   5.152  0.1325  0.0163  0.2221
 7723SOL    HW134802   1.664   2.572   5.174  0.6997 -0.2097 -1.3447
 7723SOL    HW234803   1.729   2.697   5.154 -1.1559  3.1222  1.9540
 7724SOL     OW34804   0.841   1.375   4.395  0.0033 -0.0400  0.6308
 7724SOL    HW134805   0.772   1.309   4.389  1.1848 -1.1677 -0.4536
 7724SOL    HW234806   0.803   1.434   4.329  2.7252  2.0998  0.9649
 7725SOL     OW34807   1.409   3.265   8.489 -0.1112 -0.0077  0.0009
 7725SOL    HW134808   1.409   3.276   8.584  0.2500 -0.1278  0.0135
 7725SOL    HW234809   1.323   3.224   8.490 -0.8168  1.4599  0.3785
 7726SOL     OW34810   3.790   2.852   9.964  0.8393  0.1228 -0.0419
 7726SOL    HW134811   3.835   2.819  10.041 -2.5600 -0.9487  1.4619
 7726SOL    HW234812   3.794   2.948   9.970 -2.1903  0.2372  0.0859
 7727SOL     OW34813   1.243   2.265   4.804  0.1302  0.4804  0.1511
 7727SOL    HW134814   1.181   2.250   4.733 -0.5902 -0.2742  0.9381
 7727SOL    HW234815   1.297   2.334   4.764  0.8013 -1.0489 -1.5562
 7728SOL     OW34816   3.035   2.211   3.379  0.3583  0.3658  0.1990
 7728SOL    HW134817   3.094   2.151   3.424  1.8957  1.9468  0.3199
 7728SOL    HW234818   3.081   2.213   3.296  1.7439 -1.2250  0.9289
 7729SOL     OW34819   4.418   4.449   5.941  0.2960  0.3919  0.1328
 7729SOL    HW134820   4.378   4.472   5.856 -0.0351  1.5432  0.5988
 7729SOL    HW234821   4.367   4.375   5.973  1.9620 -0.9872 -0.4036
 7730SOL     OW34822   1.647   2.430   3.399  0.2078  0.3039 -0.1163
 7730SOL    HW134823   1.659   2.502   3.337 -2.3725 -0.1824 -1.1510
 7730SOL    HW234824   1.720   2.370   3.378  1.0458  1.0851  0.5461
 7731SOL     OW34825   1.453   2.271   8.493 -0.1595 -0.0975 -0.4871
 7731SOL    HW134826   1.482   2.205   8.556  0.5906  0.7312  0.0425
 7731SOL    HW234827   1.538   2.282   8.450  0.7331 -2.4604  0.6754
 7732SOL     OW34828   3.208   1.238   5.034 -0.1455  0.1709 -0.1590
 7732SOL    HW134829   3.173   1.311   5.085 -0.8256  0.8129 -1.5258
 7732SOL    HW234830   3.206   1.279   4.947 -1.9461 -0.1154 -0.2518
 7733SOL     OW34831   3.036   0.123  11.344 -0.8586 -0.6645  0.1560
 7733SOL    HW134832   3.082   0.046  11.308 -1.9325 -0.4113 -1.7732
 7733SOL    HW234833   3.061   0.202  11.296 -1.8400  0.4518  1.4931
 7734SOL     OW34834   3.097   4.338   1.678 -0.1316  0.3414 -0.2378
 7734SOL    HW134835   3.062   4.424   1.652 -1.7877  0.2406  1.6499
 7734SOL    HW234836   3.084   4.339   1.773 -0.0294 -1.1044 -0.2174
 7735SOL     OW34837   2.183   3.721   6.645  0.2907  0.3494  0.1528
 7735SOL    HW134838   2.262   3.679   6.611  0.8182  0.6741  0.9697
 7735SOL    HW234839   2.218   3.779   6.712  2.2726 -1.0186  0.3015
 7736SOL     OW34840   4.427   0.709   6.727  0.1389 -0.2504  0.1813
 7736SOL    HW134841   4.437   0.617   6.751  0.8762 -0.7438 -2.0401
 7736SOL    HW234842   4.385   0.705   6.641 -2.9555 -3.3800  1.8332
 7737SOL     OW34843   3.715   1.910  13.311 -0.0092  0.1481  0.3416
 7737SOL    HW134844   3.779   1.844  13.338  0.8354  0.9789  0.4173
 7737SOL    HW234845   3.754   1.994  13.337 -2.2681  0.6396  2.1344
 7738SOL     OW34846   3.910   0.272   3.608  0.1645 -0.3383  0.0684
 7738SOL    HW134847   3.889   0.197   3.663  0.0674 -1.4165 -1.4352
 7738SOL    HW234848   3.826   0.283   3.564 -1.2039  1.3350  3.1499
 7739SOL     OW34849   1.526   3.647   7.762 -0.4379 -0.3187 -0.1997
 7739SOL    HW134850   1.489   3.563   7.735  1.0025 -0.9657 -0.1708
 7739SOL    HW234851   1.514   3.624   7.855 -1.2756 -1.4345 -0.5775
 7740SOL     OW34852   4.686   2.934  17.571  0.0221 -0.2825  0.1455
 7740SOL    HW134853   4.734   3.006  17.531  0.6984  0.0396  1.5381
 7740SOL    HW234854   4.597   2.952  17.542 -0.2727 -0.8555  0.6972
 7741SOL     OW34855   3.570   2.773   0.695 -0.2071  0.0214 -0.3172
 7741SOL    HW134856   3.576   2.748   0.787  1.0452  1.5822  0.0391
 7741SOL    HW234857   3.580   2.690   0.649  0.7725 -0.6172  1.0663
 7742SOL     OW34858   1.050   2.236  10.061  0.4311  0.3795  0.4540
 7742SOL    HW134859   1.103   2.176  10.007  0.9650  0.5521  0.7830
 7742SOL    HW234860   1.113   2.283  10.115  0.4568  0.0688  0.6967
 7743SOL     OW34861   3.079   1.435   6.427 -0.4833 -0.2179 -0.1129
 7743SOL    HW134862   3.033   1.451   6.345 -0.6146  0.8626  0.1746
 7743SOL    HW234863   3.169   1.452   6.401 -0.1233  1.1495  2.0154
 7744SOL     OW34864   2.638   0.491   8.359 -0.3667 -0.0315 -0.7569
 7744SOL    HW134865   2.542   0.490   8.356 -0.4072 -1.7015  0.9351
 7744SOL    HW234866   2.666   0.555   8.293 -1.9692  2.0173  0.5584
 7745SOL     OW34867   0.266   0.247   0.924  0.0034  0.6760  0.5438
 7745SOL    HW134868   0.331   0.310   0.957 -1.2167  2.4641 -0.4744
 7745SOL    HW234869   0.291   0.182   0.990  1.4263  1.3161  0.6508
 7746SOL     OW34870   1.543   2.076   9.859  1.0904 -0.1963 -0.7339
 7746SOL    HW134871   1.579   2.028   9.934 -0.5317 -0.7156 -0.2843
 7746SOL    HW234872   1.592   2.033   9.788  1.1566 -4.2651  1.7684
 7747SOL     OW34873   1.721   1.678   3.434  0.3483 -0.2316  0.0896
 7747SOL    HW134874   1.652   1.718   3.383 -0.3602  0.7101  1.7834
 7747SOL    HW234875   1.767   1.754   3.469 -2.2193  1.6637 -0.6579
 7748SOL     OW34876   2.251   0.826   7.721 -0.6455 -0.5868  0.4311
 7748SOL    HW134877   2.309   0.817   7.797 -1.5884  3.0202  1.5826
 7748SOL    HW234878   2.245   0.734   7.697  2.0846 -1.0597  1.5451
 7749SOL     OW34879   3.811   4.019   5.590 -0.0338  0.0998 -0.0624
 7749SOL    HW134880   3.887   4.073   5.609 -0.7289  0.4750  1.6612
 7749SOL    HW234881   3.859   3.939   5.567  0.2093 -0.2260  1.5744
 7750SOL     OW34882   2.831   3.850   0.769 -0.5930  0.3943 -0.2710
 7750SOL    HW134883   2.857   3.923   0.825 -0.0362  0.2189 -0.2986
 7750SOL    HW234884   2.736   3.861   0.763 -0.6875  0.6004  1.6600
 7751SOL     OW34885   1.246   1.061   7.510  0.1990  0.6038  0.1533
 7751SOL    HW134886   1.179   1.024   7.452 -0.5385 -1.0152  2.0523
 7751SOL    HW234887   1.284   1.131   7.456  1.3093  0.7815  1.1859
 7752SOL     OW34888   4.659   3.341  14.578  0.3963 -0.6403  0.1121
 7752SOL    HW134889   4.634   3.290  14.501  0.0683 -0.8298  0.3471
 7752SOL    HW234890   0.012   3.316  14.587  0.8254  1.1868  0.8482
 7753SOL     OW34891   0.461   1.891   5.731  0.9926 -0.1337  0.6631
 7753SOL    HW134892   0.398   1.819   5.723  0.4319  0.4611 -0.3240
 7753SOL    HW234893   0.498   1.867   5.816  1.8463  1.6698  0.8064
 7754SOL     OW34894   0.801   4.278   8.084  0.3927 -1.1409 -0.2312
 7754SOL    HW134895   0.854   4.209   8.123  0.6789 -1.8583 -1.8855
 7754SOL    HW234896   0.712   4.270   8.117  0.3463  1.5752  0.3434
 7755SOL     OW34897   3.256   3.798   9.225 -0.3731  0.0834  0.2771
 7755SOL    HW134898   3.179   3.748   9.197  2.3980 -4.2498  0.3423
 7755SOL    HW234899   3.239   3.825   9.315 -0.5271  2.7159 -0.5392
 7756SOL     OW34900   2.088   4.150  13.454 -0.1703 -0.7513 -0.0743
 7756SOL    HW134901   2.131   4.119  13.374  2.2366 -0.6535  1.1863
 7756SOL    HW234902   2.150   4.221  13.469  0.2411 -1.1760  0.2241
 7757SOL     OW34903   3.816   0.195  12.979 -0.0829 -0.4382 -0.0739
 7757SOL    HW134904   3.909   0.173  12.990  0.2129  0.5345 -0.6151
 7757SOL    HW234905   3.787   0.125  12.921  1.4306  0.0834 -1.4708
 7758SOL     OW34906   0.668   0.687   7.100  0.2840 -0.7726 -0.8519
 7758SOL    HW134907   0.681   0.595   7.123  2.1381 -0.4300 -0.5471
 7758SOL    HW234908   0.577   0.689   7.070  0.0798 -0.9165 -0.2571
 7759SOL     OW34909   3.865   1.203   4.234  0.3250  0.7816  0.4236
 7759SOL    HW134910   3.793   1.224   4.174  0.0824 -2.1298 -0.3006
 7759SOL    HW234911   3.944   1.233   4.188  1.7005 -0.3667  2.0335
 7760SOL     OW34912   1.788   1.497   3.618  0.2079 -0.2616 -0.3306
 7760SOL    HW134913   1.767   1.557   3.546 -1.6058 -0.7073 -0.1619
 7760SOL    HW234914   1.811   1.413   3.579  2.4958  0.1927  0.0388
 7761SOL     OW34915   3.609   3.311   3.882  0.2955  0.1814 -0.1865
 7761SOL    HW134916   3.651   3.372   3.943 -0.2680  0.4644 -0.0812
 7761SOL    HW234917   3.650   3.310   3.795  1.1079 -0.6611  0.2062
 7762SOL     OW34918   2.071   1.210   7.793 -0.5637 -0.3268  0.6143
 7762SOL    HW134919   2.152   1.196   7.842 -0.4858 -1.4555  0.1580
 7762SOL    HW234920   2.023   1.280   7.837  1.9548  2.1506 -0.5064
 7763SOL     OW34921   1.247   0.439   9.113  1.4103  0.1681 -0.1866
 7763SOL    HW134922   1.298   0.464   9.190  0.5703 -1.3311  0.8525
 7763SOL    HW234923   1.273   0.498   9.041 -1.4467 -0.9197 -2.0984
 7764SOL     OW34924   3.156   2.635   3.286  0.5954  0.0620 -0.3528
 7764SOL    HW134925   3.214   2.696   3.330  1.7666  1.0679 -3.3062
 7764SOL    HW234926   3.081   2.617   3.344 -0.2419  0.8184 -1.2111
 7765SOL     OW34927   3.798   3.804   5.201  0.2428 -0.3349  0.2478
 7765SOL    HW134928   3.865   3.871   5.211  1.0602 -0.8658 -1.7159
 7765SOL    HW234929   3.781   3.782   5.292 -0.4960  1.0806  0.4511
 7766SOL     OW34930   1.729   1.886   7.700  0.4373  0.4325 -0.0701
 7766SOL    HW134931   1.654   1.945   7.694  0.8355  1.1824  2.3066
 7766SOL    HW234932   1.725   1.860   7.793  1.1909  0.4773 -0.0207
 7767SOL     OW34933   0.395   4.314   5.721 -0.5623  0.0432  0.1741
 7767SOL    HW134934   0.320   4.365   5.750  1.1433  1.7631  1.6185
 7767SOL    HW234935   0.398   4.250   5.793  2.9792 -1.9068 -1.7211
 7768SOL     OW34936   1.773   3.155   9.193 -0.0086  0.1641  0.5656
 7768SOL    HW134937   1.814   3.080   9.236  1.8413  0.9190  0.1521
 7768SOL    HW234938   1.698   3.160   9.252  0.2598 -0.7714  0.9898
 7769SOL     OW34939   2.285   2.715   0.905  0.4059  0.9543  0.0422
 7769SOL    HW134940   2.274   2.804   0.939 -1.0166  1.3739 -1.5055
 7769SOL    HW234941   2.198   2.679   0.923  0.5059  1.2521  1.0969
 7770SOL     OW34942   0.276   4.271   0.211 -1.2590  0.4633  0.1044
 7770SOL    HW134943   0.254   4.179   0.224 -0.7101  0.5307  1.5019
 7770SOL    HW234944   0.348   4.277   0.273 -0.1740 -1.3174 -0.9821
 7771SOL     OW34945   1.136   3.994   5.691 -0.6215 -0.0310 -0.1892
 7771SOL    HW134946   1.219   3.950   5.708 -0.1987  0.5791 -0.6474
 7771SOL    HW234947   1.154   4.017   5.600 -1.3974 -0.8228 -0.5371
 7772SOL     OW34948   2.285   4.338   9.679 -0.4013  0.2805  0.0363
 7772SOL    HW134949   2.205   4.370   9.637 -1.7466 -2.4910  0.4774
 7772SOL    HW234950   2.304   4.259   9.628  0.9578 -0.3056  1.4526
 7773SOL     OW34951   0.195   2.855  10.515  0.4207 -0.4132 -0.2346
 7773SOL    HW134952   0.207   2.788  10.582 -1.3155 -0.2592  0.2432
 7773SOL    HW234953   0.239   2.936  10.542 -1.7690  0.4802  0.6993
 7774SOL     OW34954   3.827   0.415   2.392  0.1579  0.3351  0.3640
 7774SOL    HW134955   3.773   0.467   2.451  0.4593  0.0293  0.9097
 7774SOL    HW234956   3.822   0.326   2.429 -0.7037 -0.8240 -2.5437
 7775SOL     OW34957   0.531   0.945  11.786 -0.2554  0.5876  0.0309
 7775SOL    HW134958   0.607   0.994  11.818 -0.0740 -0.4366  1.2066
 7775SOL    HW234959   0.569   0.906  11.707 -1.6263 -2.3254  0.7827
 7776SOL     OW34960   4.597   1.134   6.314  0.4186 -0.1129 -0.1141
 7776SOL    HW134961   4.512   1.095   6.291  0.0787 -0.3170  1.4715
 7776SOL    HW234962   4.608   1.194   6.240 -1.1840  0.0315 -0.2509
 7777SOL     OW34963   1.980   3.817   3.877 -0.5661  0.3186 -0.0145
 7777SOL    HW134964   1.951   3.726   3.883  0.7654 -0.1547 -1.0238
 7777SOL    HW234965   1.923   3.849   3.806  0.8080 -1.0794 -1.7321
 7778SOL     OW34966   2.946   3.253  15.147 -0.0285 -0.2132  0.0559
 7778SOL    HW134967   2.987   3.265  15.061  1.8604 -4.1467  0.4048
 7778SOL    HW234968   2.946   3.339  15.187  1.4604  0.3867 -1.2006
 7779SOL     OW34969   2.861   0.290   5.453 -0.1951 -0.0904 -1.0812
 7779SOL    HW134970   2.953   0.269   5.434  0.0566  1.2089 -1.2353
 7779SOL    HW234971   2.829   0.268   5.365  0.3912  2.8133 -2.0117
 7780SOL     OW34972   0.510   3.176   4.775  0.5886 -0.0725 -0.1763
 7780SOL    HW134973   0.468   3.130   4.703 -1.5892  1.4716  0.0974
 7780SOL    HW234974   0.547   3.255   4.736  2.2323  0.0061  1.5546
 7781SOL     OW34975   1.681   3.159  14.931  0.2183 -0.2233 -0.4791
 7781SOL    HW134976   1.666   3.137  15.023 -2.8379 -0.7357 -1.0960
 7781SOL    HW234977   1.719   3.245  14.947 -0.1931  0.1303 -1.3803
 7782SOL     OW34978   1.686   4.266   0.744  0.5379  0.3688 -0.6412
 7782SOL    HW134979   1.618   4.333   0.743 -0.3246 -0.4701  1.0615
 7782SOL    HW234980   1.731   4.275   0.660 -0.8718 -1.3627 -1.5998
 7783SOL     OW34981   2.684   0.708   7.712 -0.0798  0.0110 -0.2008
 7783SOL    HW134982   2.642   0.632   7.671 -0.7038 -0.1041  0.6521
 7783SOL    HW234983   2.620   0.774   7.684 -1.2254 -1.2289 -0.5427
 7784SOL     OW34984   2.723   1.486   9.784 -0.0948 -0.1645 -0.2162
 7784SOL    HW134985   2.721   1.581   9.777 -3.2283 -0.3834 -2.3652
 7784SOL    HW234986   2.817   1.465   9.783 -0.4117 -1.5975 -0.7447
 7785SOL     OW34987   0.031   1.021   5.231 -0.2229 -0.1077 -0.1803
 7785SOL    HW134988   0.122   1.015   5.260 -0.5791  0.2573  1.0254
 7785SOL    HW234989   4.731   1.038   5.317  0.6204  0.9726 -0.0148
 7786SOL     OW34990   0.957   3.637   5.742 -0.2196  0.0865  0.3015
 7786SOL    HW134991   0.981   3.615   5.652 -2.1201  0.8294 -0.3911
 7786SOL    HW234992   0.987   3.555   5.781  0.9969  0.3967  0.0089
 7787SOL     OW34993   1.278   1.774  11.535  0.4202  0.5225 -0.0003
 7787SOL    HW134994   1.310   1.699  11.484 -0.9056 -0.1953  0.2461
 7787SOL    HW234995   1.269   1.839  11.465  0.4948  0.3042 -0.2128
 7788SOL     OW34996   1.315   2.448  16.072  0.8437  0.2048 -0.2506
 7788SOL    HW134997   1.328   2.373  16.013  0.0788 -2.4032  2.9494
 7788SOL    HW234998   1.367   2.517  16.030  1.1046 -0.9247 -1.7933
 7789SOL     OW34999   0.467   3.353   5.395 -0.4905  0.5856 -0.0821
 7789SOL    HW135000   0.499   3.443   5.390  0.8688  0.1178  0.1823
 7789SOL    HW235001   0.377   3.350   5.427  0.1228 -2.4263  1.3860
 7790SOL     OW35002   2.215   3.422  15.855  0.4291  0.0793 -0.3724
 7790SOL    HW135003   2.178   3.381  15.777 -1.1237 -0.7991  0.8419
 7790SOL    HW235004   2.162   3.502  15.863  0.3180 -0.0991  0.6302
 7791SOL     OW35005   3.472   1.445   8.562 -0.3818 -0.6841 -0.5595
 7791SOL    HW135006   3.500   1.536   8.559 -0.3247 -0.7138 -0.9199
 7791SOL    HW235007   3.518   1.412   8.484 -0.5531  1.8612 -1.7233
 7792SOL     OW35008   2.116   2.389   9.912  0.5327  0.4525  0.1683
 7792SOL    HW135009   2.094   2.340   9.991 -0.3418 -0.6126 -0.7278
 7792SOL    HW235010   2.147   2.473   9.945 -1.5788  0.9733  0.7976
 7793SOL     OW35011   3.793   0.021   3.430 -0.4300  0.4638  0.2284
 7793SOL    HW135012   3.715   0.035   3.484 -0.6297  2.6742 -0.6296
 7793SOL    HW235013   3.769   4.678   3.385 -0.0479 -0.4286  1.6439
 7794SOL     OW35014   1.098   1.132   9.479  0.5053 -0.1384 -0.3903
 7794SOL    HW135015   1.027   1.144   9.416  1.2277 -0.5038 -1.2729
 7794SOL    HW235016   1.056   1.174   9.555 -1.3686 -0.2772 -1.3575
 7795SOL     OW35017   1.097   4.036  13.543  0.3781  0.7302 -0.2244
 7795SOL    HW135018   1.153   3.958  13.535 -1.4633 -0.5444 -0.7744
 7795SOL    HW235019   1.084   4.043  13.448 -0.3964  0.7695 -0.1165
 7796SOL     OW35020   1.648   2.789   9.519  0.2621 -0.2718 -0.1351
 7796SOL    HW135021   1.572   2.811   9.465  0.5602  0.4393 -0.2644
 7796SOL    HW235022   1.713   2.757   9.457  2.3095 -1.9088  2.8133
 7797SOL     OW35023   3.868   3.118   5.680 -0.5218  0.5952  0.5083
 7797SOL    HW135024   3.839   3.039   5.634  0.4907  1.6396 -1.9122
 7797SOL    HW235025   3.797   3.121   5.744 -0.1696 -0.2923  0.9436
 7798SOL     OW35026   1.698   3.343   4.936  0.1228 -0.0775 -0.3902
 7798SOL    HW135027   1.610   3.366   4.966  0.2439  1.7388 -1.3948
 7798SOL    HW235028   1.709   3.248   4.948  1.5075 -0.0289 -1.3119
 7799SOL     OW35029   2.007   4.557   6.540  0.0080 -0.4798 -0.3063
 7799SOL    HW135030   1.948   4.527   6.471  0.0502 -1.2037 -0.0220
 7799SOL    HW235031   2.055   4.475   6.543 -0.6971 -0.9277 -1.4730
 7800SOL     OW35032   1.566   3.303   7.798 -0.1289 -0.2120  0.1137
 7800SOL    HW135033   1.541   3.211   7.791 -0.0092 -0.1307 -1.4136
 7800SOL    HW235034   1.475   3.335   7.796  0.0148  0.2585  1.3887
 7801SOL     OW35035   3.649   4.525   3.245  0.0908 -0.0711 -0.3903
 7801SOL    HW135036   3.719   4.562   3.192  2.1783 -1.7039  1.2297
 7801SOL    HW235037   3.700   4.462   3.297 -0.6515 -2.1725 -2.2423
 7802SOL     OW35038   2.220   4.066  15.663  0.2063 -0.0593  0.1298
 7802SOL    HW135039   2.278   4.110  15.724 -0.4092  0.5185  0.2963
 7802SOL    HW235040   2.283   4.009  15.619  1.1216  1.1472 -0.1361
 7803SOL     OW35041   2.863   2.345  11.756 -0.3151  0.2032 -0.1767
 7803SOL    HW135042   2.782   2.298  11.737 -0.3704  0.8154 -1.4094
 7803SOL    HW235043   2.904   2.282  11.816 -0.6735 -1.3616 -1.5627
 7804SOL     OW35044   3.091   1.217   2.449 -0.5326  0.8326  0.2214
 7804SOL    HW135045   3.062   1.303   2.421 -0.8231  0.9024  0.7320
 7804SOL    HW235046   3.179   1.217   2.411 -0.2340 -1.3992  0.8759
 7805SOL     OW35047   1.402   4.153   7.496 -0.8450 -0.3259  0.4583
 7805SOL    HW135048   1.345   4.076   7.496 -0.8399 -0.3320 -0.4597
 7805SOL    HW235049   1.472   4.118   7.441 -2.2169 -1.8454 -0.3221
 7806SOL     OW35050   2.283   0.910   0.739 -0.5923  0.2884  0.3858
 7806SOL    HW135051   2.289   0.982   0.676 -1.7919 -0.2070 -0.3003
 7806SOL    HW235052   2.235   0.845   0.688 -1.1260  0.5299  0.5797
 7807SOL     OW35053   2.263   3.588   4.369 -0.0807 -0.2379  0.7477
 7807SOL    HW135054   2.233   3.545   4.449  0.3540  0.2111  1.1555
 7807SOL    HW235055   2.187   3.646   4.369  0.9853  1.1768 -0.9607
 7808SOL     OW35056   4.001   2.919  11.721  0.1655  0.7995 -0.3212
 7808SOL    HW135057   3.968   2.848  11.666 -1.4789  0.5007  1.0297
 7808SOL    HW235058   3.932   2.918  11.787  1.3775 -3.4195  0.8435
 7809SOL     OW35059   0.601   0.154   7.173  0.1375  0.4731 -0.3212
 7809SOL    HW135060   0.549   0.157   7.254  0.3974  1.8159 -0.1902
 7809SOL    HW235061   0.666   0.086   7.189 -0.3037 -0.0331 -0.7271
 7810SOL     OW35062   0.231   3.561   3.206 -0.3183 -1.2221 -0.1017
 7810SOL    HW135063   0.289   3.637   3.207 -1.6294 -0.2478  1.2816
 7810SOL    HW235064   0.146   3.605   3.203  0.9568  1.2618  0.0011
 7811SOL     OW35065   2.302   4.099  16.657  0.0427  0.0809  0.4843
 7811SOL    HW135066   2.282   4.114  16.749  1.1666  0.9642  0.5773
 7811SOL    HW235067   2.397   4.098  16.665  0.1385 -0.9890 -0.7097
 7812SOL     OW35068   0.443   1.115   3.995  0.6988 -0.0109  0.4980
 7812SOL    HW135069   0.362   1.159   4.022  1.1936  1.9846 -1.2871
 7812SOL    HW235070   0.408   1.071   3.918 -0.3399  1.9839 -0.1795
 7813SOL     OW35071   1.148   3.209   2.180 -0.1602 -0.3451  0.2129
 7813SOL    HW135072   1.169   3.274   2.247  0.6224  1.2971 -1.6139
 7813SOL    HW235073   1.210   3.141   2.206  1.1578  0.6179 -0.4145
 7814SOL     OW35074   4.486   1.047  11.247 -1.5109 -0.4081 -0.0299
 7814SOL    HW135075   4.570   1.010  11.274  0.3301  3.5174 -0.3623
 7814SOL    HW235076   4.422   0.977  11.260 -1.1179 -0.7939 -0.1876
 7815SOL     OW35077   0.757   3.395   0.350 -0.5934  0.0549 -0.0584
 7815SOL    HW135078   0.768   3.310   0.308  1.0932  1.1073 -1.7857
 7815SOL    HW235079   0.720   3.447   0.278  3.1236 -0.4970 -2.3474
 7816SOL     OW35080   3.479   0.315  16.408  0.4249  0.1417 -0.1294
 7816SOL    HW135081   3.543   0.364  16.357 -1.1332  1.0241 -1.2552
 7816SOL    HW235082   3.511   0.339  16.495  0.3206  0.7383 -0.2558
 7817SOL     OW35083   0.341   3.216  11.430  0.6512  0.2240  0.2496
 7817SOL    HW135084   0.375   3.267  11.356  1.0189  0.1409  0.3609
 7817SOL    HW235085   0.246   3.220  11.420  0.7405  0.0505 -0.6684
 7818SOL     OW35086   0.949   0.791   4.998 -0.1618 -0.3805  0.2096
 7818SOL    HW135087   1.014   0.742   4.947 -0.7491 -0.9287 -0.0195
 7818SOL    HW235088   0.911   0.720   5.050 -1.5119 -0.3530 -0.7511
 7819SOL     OW35089   2.185   3.266  12.133 -0.4051 -0.3529  0.0127
 7819SOL    HW135090   2.244   3.210  12.184  0.4365  1.6596  1.2423
 7819SOL    HW235091   2.241   3.306  12.067 -2.7134  0.3788 -1.5028
 7820SOL     OW35092   1.318   3.319   8.735 -0.0353  0.2785  0.5299
 7820SOL    HW135093   1.307   3.397   8.789 -3.3796 -0.1182  0.4182
 7820SOL    HW235094   1.287   3.250   8.795 -0.7300  0.7602  0.7220
 7821SOL     OW35095   3.569   3.357   2.504 -0.0826 -0.0937  0.2792
 7821SOL    HW135096   3.527   3.334   2.587 -1.2960 -0.2976 -0.3914
 7821SOL    HW235097   3.655   3.315   2.509  1.3566  2.8231 -0.0656
 7822SOL     OW35098   3.268   1.494  16.081  0.6244 -0.1165  0.2175
 7822SOL    HW135099   3.208   1.568  16.091  1.2548  0.8443 -2.8961
 7822SOL    HW235100   3.320   1.499  16.161 -2.6178  1.4623  2.1912
 7823SOL     OW35101   0.761   3.865   6.995  0.1065 -0.0623  0.0679
 7823SOL    HW135102   0.717   3.786   7.028  0.9296 -0.3617  0.4429
 7823SOL    HW235103   0.829   3.821   6.945 -1.1188  0.5017 -2.0921
 7824SOL     OW35104   1.735   4.593   7.797  0.2448 -0.0944 -0.3777
 7824SOL    HW135105   1.707   4.535   7.868 -0.7552  0.9262  0.0590
 7824SOL    HW235106   1.748   4.674   7.845  0.4401 -0.0816 -0.4512
 7825SOL     OW35107   3.891   3.845   2.569 -0.3502  0.0820  0.3767
 7825SOL    HW135108   3.945   3.784   2.518 -0.3377  0.8398 -0.5004
 7825SOL    HW235109   3.933   3.834   2.655 -2.1624 -0.9669  1.1106
 7826SOL     OW35110   4.041   3.898  15.656 -0.6640  0.3501  0.8699
 7826SOL    HW135111   4.096   3.904  15.734  1.9806  0.7322 -1.0101
 7826SOL    HW235112   4.076   3.975  15.611 -0.5762  0.5051  1.1995
 7827SOL     OW35113   0.521   1.701  16.875 -1.0347 -0.3006  0.0167
 7827SOL    HW135114   0.540   1.678  16.784 -1.3062  0.3221 -0.2002
 7827SOL    HW235115   0.535   1.616  16.916 -0.0678 -0.3473 -0.3945
 7828SOL     OW35116   4.698   2.692   8.456 -0.4891 -0.1670 -0.0388
 7828SOL    HW135117   4.616   2.651   8.428 -0.6042  0.1973 -0.2343
 7828SOL    HW235118   4.712   2.663   8.546  0.2642  1.7202  0.4532
 7829SOL     OW35119   0.500   2.352   5.759  0.5351 -0.3659  0.0051
 7829SOL    HW135120   0.448   2.417   5.711  2.0706  0.9111  0.0746
 7829SOL    HW235121   0.585   2.395   5.752 -0.8345  2.2277 -0.6934
 7830SOL     OW35122   2.465   2.521   4.020 -0.3247  0.0706  0.2690
 7830SOL    HW135123   2.482   2.432   3.990  0.8068  0.9460 -1.6893
 7830SOL    HW235124   2.514   2.536   4.101  0.7647  0.6410 -0.4887
 7831SOL     OW35125   2.405   3.882   5.151 -0.8942  0.0742 -0.6851
 7831SOL    HW135126   2.427   3.973   5.173  2.2719 -0.4887 -1.4834
 7831SOL    HW235127   2.310   3.891   5.151 -0.7474  1.5511 -2.3981
 7832SOL     OW35128   3.905   0.938   1.511 -0.3818 -0.3868  0.0681
 7832SOL    HW135129   3.914   0.852   1.552  0.4178 -0.9396 -1.2814
 7832SOL    HW235130   3.988   0.948   1.465 -0.0504 -1.4045  0.4559
 7833SOL     OW35131   1.379   2.080   1.325 -0.2577  0.2144  0.2690
 7833SOL    HW135132   1.372   2.091   1.419 -2.1875  0.0317  0.1646
 7833SOL    HW235133   1.412   1.990   1.325  0.9804  0.6748  0.0161
 7834SOL     OW35134   1.671   0.686  13.923  0.1754 -0.2913 -0.0308
 7834SOL    HW135135   1.700   0.705  14.013 -2.3743  0.1201  0.7049
 7834SOL    HW235136   1.743   0.728  13.876  0.3259 -0.1755  0.3017
 7835SOL     OW35137   1.614   1.761  16.170 -0.0115  0.0835 -0.2364
 7835SOL    HW135138   1.667   1.689  16.136 -1.0476 -1.3583  1.2085
 7835SOL    HW235139   1.604   1.737  16.261  2.0750 -0.1426 -0.0520
 7836SOL     OW35140   1.998   1.760  16.689  0.8020 -0.1729 -0.3945
 7836SOL    HW135141   1.950   1.704  16.628 -1.4869 -0.4646  1.6719
 7836SOL    HW235142   2.018   1.695  16.757  0.8896  0.5772  0.2987
 7837SOL     OW35143   3.085   0.532  12.586  0.7320 -0.3029 -0.5734
 7837SOL    HW135144   3.068   0.469  12.516 -2.0445 -0.6481  0.4266
 7837SOL    HW235145   3.128   0.600  12.534  2.4679 -0.7599  0.2386
 7838SOL     OW35146   2.305   4.635   3.397 -0.3107 -0.0596 -0.5434
 7838SOL    HW135147   2.298   4.716   3.347 -0.8798  0.0544 -0.2863
 7838SOL    HW235148   2.338   4.670   3.479  0.8390 -1.8806 -0.2275
 7839SOL     OW35149   4.248   4.065   7.797 -0.3836 -0.3527  0.2531
 7839SOL    HW135150   4.172   4.011   7.819 -0.1153 -1.1718 -0.8133
 7839SOL    HW235151   4.325   4.014   7.823 -0.1441 -0.0137  0.2154
 7840SOL     OW35152   0.848   1.846  10.138 -0.0777 -0.5135  0.2515
 7840SOL    HW135153   0.804   1.929  10.158  2.0591  1.0799 -1.6573
 7840SOL    HW235154   0.864   1.807  10.224 -0.0126 -0.1582  0.4001
 7841SOL     OW35155   4.421   1.215   7.912  0.7117 -0.7003 -0.6523
 7841SOL    HW135156   4.454   1.156   7.844 -1.2029 -1.7482 -0.6603
 7841SOL    HW235157   4.508   1.222   7.951  0.7160 -1.6840 -0.4747
 7842SOL     OW35158   3.953   3.794   5.546  0.8124  0.2594 -0.0030
 7842SOL    HW135159   4.048   3.786   5.554  0.7007 -1.0745  0.0136
 7842SOL    HW235160   3.916   3.715   5.584 -1.4091  1.2714 -0.0750
 7843SOL     OW35161   1.010   1.785  13.133  0.4548  0.1394 -0.4017
 7843SOL    HW135162   1.064   1.711  13.160 -0.5691  0.1201  1.6700
 7843SOL    HW235163   0.921   1.763  13.164  0.9115 -1.3546 -0.1241
 7844SOL     OW35164   3.615   2.125  14.016 -0.4384 -0.5120  0.5484
 7844SOL    HW135165   3.545   2.117  13.951 -0.7136 -1.2260  0.9313
 7844SOL    HW235166   3.558   2.112  14.092  0.5263  3.3694  1.8822
 7845SOL     OW35167   3.793   3.708   1.922  0.0577 -0.5178 -0.7420
 7845SOL    HW135168   3.719   3.767   1.908  0.7674  0.4091 -0.5844
 7845SOL    HW235169   3.873   3.755   1.899 -0.2183 -0.0742 -0.8030
 7846SOL     OW35170   4.573   0.138   2.688  0.0049  0.0796 -0.0969
 7846SOL    HW135171   4.536   0.163   2.603 -0.2275  1.5481  0.4299
 7846SOL    HW235172   4.555   0.208   2.750 -0.2181 -0.1567  0.1026
 7847SOL     OW35173   3.172   1.184   5.803 -0.3176 -0.2907  0.8340
 7847SOL    HW135174   3.176   1.276   5.777 -0.6258 -0.9361 -1.4358
 7847SOL    HW235175   3.264   1.173   5.827  0.7878  0.7633 -2.9807
 7848SOL     OW35176   0.597   3.465   2.976 -0.0184 -0.1100 -0.2877
 7848SOL    HW135177   0.641   3.386   2.945 -0.2976 -0.2152 -0.4142
 7848SOL    HW235178   0.513   3.426   3.000  1.0854 -0.7176  2.5412
 7849SOL     OW35179   3.047   2.833   4.339 -0.3046 -0.0921 -0.5167
 7849SOL    HW135180   3.008   2.878   4.414 -2.4359 -2.7836 -0.0092
 7849SOL    HW235181   2.982   2.766   4.315 -0.7945 -1.9516  6.1400
 7850SOL     OW35182   3.358   0.240   6.774 -0.3307  0.0386  0.0571
 7850SOL    HW135183   3.286   0.178   6.765 -0.8543  0.8762 -1.4553
 7850SOL    HW235184   3.325   0.309   6.716 -0.0409 -0.6278 -0.8955
 7851SOL     OW35185   2.403   4.644   8.122  0.1373  0.4491  0.9588
 7851SOL    HW135186   2.321   4.660   8.075  0.1627 -0.4512  0.6187
 7851SOL    HW235187   2.399   4.709   8.192 -0.6515  0.0182  1.3122
 7852SOL     OW35188   0.755   1.774   0.707 -0.3466 -0.3434 -0.2230
 7852SOL    HW135189   0.723   1.729   0.785 -0.2554  1.1147  0.6713
 7852SOL    HW235190   0.803   1.845   0.749 -1.0210 -0.8591  1.4065
 7853SOL     OW35191   3.909   4.505   7.697  0.0508 -0.3592  0.1150
 7853SOL    HW135192   3.999   4.486   7.723 -0.0614 -3.3783 -1.6219
 7853SOL    HW235193   3.870   4.420   7.674 -0.4361 -0.1901  0.3181
 7854SOL     OW35194   3.047   3.210  12.903  0.3950 -0.1067  0.2746
 7854SOL    HW135195   2.961   3.223  12.864  1.4884  3.1559 -1.0096
 7854SOL    HW235196   3.103   3.284  12.880  0.0006  0.1215  0.0439
 7855SOL     OW35197   4.349   2.175   4.085 -0.0921 -0.5071  0.1002
 7855SOL    HW135198   4.363   2.120   4.008  3.0957 -1.6878  1.4932
 7855SOL    HW235199   4.279   2.129   4.131  2.2756  0.2223  4.4475
 7856SOL     OW35200   0.454   1.393   4.797 -0.2035  0.1752 -0.3476
 7856SOL    HW135201   0.507   1.445   4.857 -3.0138  2.9876 -0.2663
 7856SOL    HW235202   0.532   1.355   4.756  0.1286 -0.4599  0.8813
 7857SOL     OW35203   1.820   0.192   9.929 -0.8291  0.0738 -0.5227
 7857SOL    HW135204   1.754   0.157   9.868 -0.7867  0.6465 -0.8969
 7857SOL    HW235205   1.806   0.139  10.008  0.5508 -0.7216 -0.8166
 7858SOL     OW35206   1.912   2.772  17.115 -0.1543 -0.1862 -0.0609
 7858SOL    HW135207   1.897   2.716  17.191 -0.5296  0.8949  0.6659
 7858SOL    HW235208   2.000   2.796  17.142  0.5568 -3.5300  0.5456
 7859SOL     OW35209   4.108   2.632   2.354 -0.1738 -0.0272  0.1704
 7859SOL    HW135210   4.111   2.539   2.377  1.3250  0.1179  0.5827
 7859SOL    HW235211   4.197   2.652   2.383  0.2380 -2.6357  0.6605
 7860SOL     OW35212   0.174   2.467   2.620 -0.0923  0.0331 -0.2877
 7860SOL    HW135213   0.183   2.372   2.633 -0.7095 -0.1127 -0.9756
 7860SOL    HW235214   0.116   2.464   2.545 -1.3575  1.9431  0.6267
 7861SOL     OW35215   2.575   0.749  13.370  0.0394 -0.6464  0.1516
 7861SOL    HW135216   2.652   0.747  13.426  0.4368 -0.5673 -0.3874
 7861SOL    HW235217   2.552   0.842  13.381  0.7555 -0.7035  2.0057
 7862SOL     OW35218   3.145   0.818  11.959 -0.2292 -0.3167 -0.0100
 7862SOL    HW135219   3.102   0.903  11.947 -0.6713 -0.7185 -1.3089
 7862SOL    HW235220   3.087   0.786  12.028  1.7605 -2.6420  0.5702
 7863SOL     OW35221   2.309   2.989   6.825  0.4306  0.7256 -0.6047
 7863SOL    HW135222   2.219   2.961   6.844  0.3451 -0.5178 -2.7920
 7863SOL    HW235223   2.360   2.960   6.900 -0.3965  0.4134 -0.1616
 7864SOL     OW35224   2.642   4.020   1.913 -0.5103 -0.3331 -0.3116
 7864SOL    HW135225   2.703   3.961   1.955  1.9100  1.7545 -0.8950
 7864SOL    HW235226   2.614   4.077   1.985 -3.5820 -1.9762 -0.2182
 7865SOL     OW35227   2.213   4.661   4.538  0.3733  0.5169 -0.1317
 7865SOL    HW135228   2.149   4.657   4.467  0.9152 -0.7767 -0.5557
 7865SOL    HW235229   2.175   4.738   4.581  0.0124  0.6680 -0.7254
 7866SOL     OW35230   1.607   0.393   8.686 -0.1561  0.3307 -0.3606
 7866SOL    HW135231   1.571   0.350   8.608 -3.0470  0.3424  0.9713
 7866SOL    HW235232   1.619   0.483   8.656 -0.4527  0.4340 -0.1732
 7867SOL     OW35233   2.087   1.183   4.180 -0.6715 -0.0459 -0.1091
 7867SOL    HW135234   2.083   1.241   4.104  0.0587  2.4186  1.7272
 7867SOL    HW235235   2.177   1.150   4.169 -1.4273 -2.2623  0.2788
 7868SOL     OW35236   0.137   1.566  10.198  0.1926 -0.1822  0.0530
 7868SOL    HW135237   0.135   1.589  10.291  2.0619  0.8981 -0.1686
 7868SOL    HW235238   0.176   1.648  10.166 -0.1915  0.3762  0.9957
 7869SOL     OW35239   1.718   3.682   5.058  0.1529  0.0789  0.0698
 7869SOL    HW135240   1.660   3.652   5.128 -3.0268 -0.3812 -2.8078
 7869SOL    HW235241   1.696   3.637   4.977  1.0746  1.5343 -1.0070
 7870SOL     OW35242   3.854   3.663  17.414  0.5018  0.3274 -0.7263
 7870SOL    HW135243   3.784   3.607  17.446  0.4557  0.6970 -0.1849
 7870SOL    HW235244   3.907   3.679  17.492 -0.8592  2.4893 -0.2556
 7871SOL     OW35245   2.344   4.424   1.204  0.4210 -0.3418 -0.0200
 7871SOL    HW135246   2.309   4.451   1.119  0.1875 -3.3132 -0.8841
 7871SOL    HW235247   2.277   4.366   1.240 -0.1617  1.1910  1.3335
 7872SOL     OW35248   3.663   3.950   4.372 -0.0981  0.3015 -0.3362
 7872SOL    HW135249   3.593   3.979   4.431  1.0454  0.3292  1.0187
 7872SOL    HW235250   3.669   4.017   4.304 -3.0979 -1.2523 -2.1053
 7873SOL     OW35251   4.012   0.583   8.786 -0.1543 -0.2185  0.2029
 7873SOL    HW135252   3.925   0.570   8.748  0.0120 -0.3571 -0.1237
 7873SOL    HW235253   4.071   0.537   8.727  0.5171 -3.7447  3.5561
 7874SOL     OW35254   1.315   2.977  13.499 -0.0873  0.3814 -0.6209
 7874SOL    HW135255   1.410   2.981  13.489  0.0776 -1.2405  0.3187
 7874SOL    HW235256   1.288   3.043  13.435 -3.2464 -0.0639  0.2710
 7875SOL     OW35257   0.040   2.590   3.523  0.2723  0.3232 -0.4074
 7875SOL    HW135258   0.106   2.657   3.507 -0.1554  0.4109 -1.7487
 7875SOL    HW235259   0.048   2.580   3.618 -4.7370  1.6258  0.1453
 7876SOL     OW35260   0.561   2.511  12.908  0.1076 -0.0501  0.1777
 7876SOL    HW135261   0.547   2.501  12.814 -0.5740 -0.8082  0.3599
 7876SOL    HW235262   0.645   2.555  12.894 -0.5116  0.7162 -1.1542
 7877SOL     OW35263   0.174   0.752  13.972  0.3000  0.0937 -0.6161
 7877SOL    HW135264   0.239   0.775  13.905 -0.0546  2.0212 -0.3196
 7877SOL    HW235265   0.219   0.678  14.013  3.0801  1.6538 -0.8810
 7878SOL     OW35266   2.826   2.775   7.554  0.0931 -0.0961  0.7046
 7878SOL    HW135267   2.851   2.841   7.619  2.2771  0.0263 -0.2383
 7878SOL    HW235268   2.745   2.814   7.522  0.2260 -1.7075 -1.5938
 7879SOL     OW35269   2.155   2.297   8.762 -0.4416  0.8000  0.4867
 7879SOL    HW135270   2.158   2.393   8.763 -2.8767  0.8955 -0.1219
 7879SOL    HW235271   2.243   2.278   8.795  0.2222  1.9007 -0.6373
 7880SOL     OW35272   0.184   0.737  15.258 -0.2118  0.3994  0.1298
 7880SOL    HW135273   0.246   0.676  15.218 -0.5150 -0.1464  0.4977
 7880SOL    HW235274   0.108   0.722  15.201  0.6188 -1.6360 -0.4200
 7881SOL     OW35275   4.357   4.106   5.791 -0.8064 -0.4496  0.2476
 7881SOL    HW135276   4.276   4.135   5.750 -0.5903  0.1921  0.2640
 7881SOL    HW235277   4.315   4.063   5.865 -0.6121  1.9474  1.7668
 7882SOL     OW35278   3.477   4.405   8.432  0.1489 -0.1931  0.1209
 7882SOL    HW135279   3.509   4.350   8.360  1.3510 -0.4293  0.8272
 7882SOL    HW235280   3.488   4.347   8.507  1.7156 -1.0406 -0.7661
 7883SOL     OW35281   3.438   1.582   1.902 -0.1962  0.2638 -0.3215
 7883SOL    HW135282   3.478   1.555   1.985  3.3980  2.2013 -1.3974
 7883SOL    HW235283   3.346   1.556   1.909  0.3105 -1.6753 -0.6760
 7884SOL     OW35284   1.177   0.019  14.992  0.6379  0.2263  0.2929
 7884SOL    HW135285   1.121   0.088  15.026  1.0589 -0.3806  2.2033
 7884SOL    HW235286   1.170   4.693  15.062  1.2773 -1.7985 -1.4903
 7885SOL     OW35287   3.539   2.180   9.304  0.6212 -0.1328 -0.5503
 7885SOL    HW135288   3.559   2.195   9.396 -0.0723 -0.2231 -0.3850
 7885SOL    HW235289   3.447   2.153   9.313 -0.1183  2.4190 -0.4951
 7886SOL     OW35290   0.003   3.535   3.777 -0.7827  0.1676 -0.4108
 7886SOL    HW135291   0.097   3.537   3.796 -1.1284  1.1107  1.1877
 7886SOL    HW235292   0.000   3.608   3.715  1.3079  0.3311 -0.3256
 7887SOL     OW35293   0.009   0.917   2.097 -0.2979 -0.4715  0.0724
 7887SOL    HW135294   0.103   0.932   2.088 -0.7187  1.3884 -1.0567
 7887SOL    HW235295   0.008   0.897   2.191 -1.3611  1.9341  0.5584
 7888SOL     OW35296   0.546   0.719   6.277  0.7683 -0.1460  0.3645
 7888SOL    HW135297   0.615   0.745   6.338  1.9317  2.2243 -1.9462
 7888SOL    HW235298   0.564   0.792   6.218 -1.8041  0.0184 -0.2243
 7889SOL     OW35299   1.053   3.794   2.288  0.2489 -0.4629  0.7073
 7889SOL    HW135300   1.016   3.817   2.374 -2.6274 -0.5702 -0.4949
 7889SOL    HW235301   0.974   3.812   2.237  0.3543  2.4168  1.5649
 7890SOL     OW35302   0.669   2.855  14.332 -0.0595  0.0893 -0.1362
 7890SOL    HW135303   0.604   2.907  14.286  1.8436  0.6570 -2.1714
 7890SOL    HW235304   0.725   2.927  14.363 -0.3654  0.3419 -0.1690
 7891SOL     OW35305   1.372   2.467   2.498 -0.5616 -0.4420 -0.1102
 7891SOL    HW135306   1.373   2.402   2.428 -0.7475 -0.4366 -0.1161
 7891SOL    HW235307   1.380   2.552   2.455  0.5089  0.2907  1.5336
 7892SOL     OW35308   1.546   4.524  14.192  0.0427  0.0596  0.0339
 7892SOL    HW135309   1.524   4.588  14.260 -0.6207 -0.1241 -0.0101
 7892SOL    HW235310   1.462   4.480  14.180 -0.0613  0.4200 -0.5478
 7893SOL     OW35311   3.598   3.804   5.033 -0.2519 -0.5525  0.3143
 7893SOL    HW135312   3.621   3.842   4.949  0.5927 -1.0200  0.3330
 7893SOL    HW235313   3.675   3.792   5.089 -1.1173 -0.3300  1.5637
 7894SOL     OW35314   1.339   1.260   3.049 -0.3745  0.3160  0.0752
 7894SOL    HW135315   1.299   1.322   2.989 -0.8946  0.7135  0.8288
 7894SOL    HW235316   1.269   1.246   3.113 -2.7283  1.9353 -2.1897
 7895SOL     OW35317   1.634   2.898  14.827  0.6343  0.6558 -0.1465
 7895SOL    HW135318   1.543   2.915  14.806 -0.4003 -0.2146  3.6676
 7895SOL    HW235319   1.665   2.989  14.825  2.1166  0.1395 -0.7672
 7896SOL     OW35320   4.306   4.150   3.541  0.3686  0.5953  0.0007
 7896SOL    HW135321   4.364   4.224   3.557  0.5827  0.0470  1.8001
 7896SOL    HW235322   4.306   4.148   3.445  0.3596 -0.1928  0.0185
 7897SOL     OW35323   4.000   1.779   7.268  0.0099  0.0947  0.1846
 7897SOL    HW135324   3.933   1.841   7.238  0.3330 -0.1183 -0.9664
 7897SOL    HW235325   4.071   1.797   7.207  1.6632 -1.6857  1.6127
 7898SOL     OW35326   1.244   3.686   5.894 -0.3779  0.0262  0.0542
 7898SOL    HW135327   1.238   3.737   5.975 -2.0043  2.4100 -1.5740
 7898SOL    HW235328   1.167   3.632   5.912 -0.6150  0.1480 -0.5895
 7899SOL     OW35329   1.981   2.885   6.772  0.6095  0.2216  0.2403
 7899SOL    HW135330   1.890   2.867   6.747 -0.4579  2.0246  2.8247
 7899SOL    HW235331   1.967   2.920   6.861 -0.1983  0.7620 -0.0983
 7900SOL     OW35332   4.053   2.978   9.532 -0.1330 -0.1471  0.1281
 7900SOL    HW135333   4.124   2.919   9.508 -0.3224  0.6230 -2.3148
 7900SOL    HW235334   4.049   2.956   9.625 -0.1527 -0.2260  0.1088
 7901SOL     OW35335   1.434   2.873   8.096  0.4242 -1.1673 -0.0497
 7901SOL    HW135336   1.364   2.808   8.085 -0.1404 -0.4158 -0.9241
 7901SOL    HW235337   1.393   2.926   8.165  3.0032 -0.9044  1.2790
 7902SOL     OW35338   4.723   4.174   6.003  0.3206 -0.4661  0.6228
 7902SOL    HW135339   4.658   4.145   5.939  1.0494  0.1088 -0.3727
 7902SOL    HW235340   0.039   4.096   6.014 -0.9936 -1.6478 -1.3000
 7903SOL     OW35341   3.796   1.542   7.319 -0.1185  0.4663  0.3430
 7903SOL    HW135342   3.782   1.533   7.224 -0.6167  1.2455  0.3448
 7903SOL    HW235343   3.892   1.544   7.321 -0.0883  0.1610 -0.8946
 7904SOL     OW35344   0.816   0.728   4.575 -0.7637 -0.0149 -0.5332
 7904SOL    HW135345   0.864   0.645   4.566 -1.3502 -0.5272  1.1014
 7904SOL    HW235346   0.825   0.753   4.483  0.1297 -0.3374 -0.5342
 7905SOL     OW35347   1.666   0.371   9.674  0.3814  0.2732 -0.3123
 7905SOL    HW135348   1.688   0.334   9.588  1.1818 -1.3891  0.6126
 7905SOL    HW235349   1.739   0.433   9.679  1.9367 -1.8083  2.8034
 7906SOL     OW35350   0.312   3.701   9.262  0.2395  0.4505 -0.5676
 7906SOL    HW135351   0.216   3.699   9.267  0.2803 -0.5091 -0.1749
 7906SOL    HW235352   0.326   3.772   9.199 -1.0453  1.1429 -0.0915
 7907SOL     OW35353   1.622   3.161  11.698  0.0012 -0.1642  0.0248
 7907SOL    HW135354   1.596   3.152  11.606 -2.1650 -1.0315  0.7204
 7907SOL    HW235355   1.717   3.155  11.692 -0.0687 -1.5130  0.3789
 7908SOL     OW35356   0.630   1.524   5.862 -0.2280 -0.3255  0.0592
 7908SOL    HW135357   0.673   1.602   5.897  1.7066 -0.5545 -1.8116
 7908SOL    HW235358   0.667   1.526   5.773 -1.0920 -1.5744 -0.3325
 7909SOL     OW35359   1.257   4.684   6.173 -0.2457 -0.5241  0.1632
 7909SOL    HW135360   1.242   0.024   6.120 -0.6592 -2.8743 -3.1505
 7909SOL    HW235361   1.170   4.643   6.174 -0.6766  0.4048  0.7154
 7910SOL     OW35362   2.865   4.520  11.094  0.0352  0.0345  0.1874
 7910SOL    HW135363   2.856   4.429  11.065 -0.9075  0.9880 -2.5615
 7910SOL    HW235364   2.909   4.566  11.023  1.6444 -0.4089  0.8910
 7911SOL     OW35365   3.357   3.731   5.146  0.1064 -0.3116 -0.0093
 7911SOL    HW135366   3.424   3.761   5.084  0.4800  0.5789  0.8295
 7911SOL    HW235367   3.398   3.652   5.181 -1.4067 -1.4816 -0.8938
 7912SOL     OW35368   1.476   0.136   2.583  1.1415 -0.3975  0.1086
 7912SOL    HW135369   1.437   0.111   2.499  0.8902 -0.9753  0.4005
 7912SOL    HW235370   1.448   0.063   2.637 -1.9761 -0.6882 -1.9394
 7913SOL     OW35371   3.930   0.066   6.085 -0.0054 -0.2593 -0.1721
 7913SOL    HW135372   3.914   4.725   6.135 -2.4509  0.2411 -0.1343
 7913SOL    HW235373   3.842   0.076   6.048 -0.1409 -0.9407 -0.0331
 7914SOL     OW35374   3.713   1.323   5.996  0.7282  0.2243 -0.5269
 7914SOL    HW135375   3.800   1.326   5.957  2.0662 -2.1655  2.2519
 7914SOL    HW235376   3.695   1.229   5.987  0.2650  0.2137  0.4784
 7915SOL     OW35377   2.337   4.184   9.285  0.0146  0.5211 -0.0478
 7915SOL    HW135378   2.324   4.275   9.257  1.7635  0.3672 -1.3076
 7915SOL    HW235379   2.383   4.148   9.210 -0.3784 -0.0325 -0.0203
 7916SOL     OW35380   2.246   2.932   6.448  0.3556  0.5323 -0.1228
 7916SOL    HW135381   2.235   3.023   6.420  0.0566 -0.1205 -2.1813
 7916SOL    HW235382   2.282   2.886   6.372  0.2663  0.8916 -0.3791
 7917SOL     OW35383   4.702   3.881   4.604  0.1258 -0.7299  0.3008
 7917SOL    HW135384   4.667   3.916   4.686  0.7996 -0.1161  0.3361
 7917SOL    HW235385   4.705   3.786   4.605  0.2485 -0.7357 -0.6229
 7918SOL     OW35386   2.327   0.933   8.076 -0.4751 -0.0273  0.4138
 7918SOL    HW135387   2.276   0.895   8.148  0.4329 -0.7141  0.6950
 7918SOL    HW235388   2.336   0.856   8.020 -0.4223  0.7530 -0.6357
 7919SOL     OW35389   0.684   2.890   1.847  0.0753 -0.0732 -0.1857
 7919SOL    HW135390   0.612   2.894   1.784  2.1528  2.3126 -2.4348
 7919SOL    HW235391   0.752   2.898   1.779  1.9796  1.0058  1.8335
 7920SOL     OW35392   0.205   2.670   0.129 -0.4641 -0.3261 -0.3815
 7920SOL    HW135393   0.153   2.706   0.057 -0.7534  2.2679  1.1473
 7920SOL    HW235394   0.294   2.670   0.094 -0.1096  0.7172  0.5236
 7921SOL     OW35395   1.686   3.267   4.269 -0.5066  0.5294  0.1493
 7921SOL    HW135396   1.709   3.280   4.177  0.1324  0.7187  0.3329
 7921SOL    HW235397   1.773   3.263   4.308 -0.0807 -2.0211 -1.0237
 7922SOL     OW35398   0.558   2.990   4.201  0.3992 -0.1143  0.0268
 7922SOL    HW135399   0.588   2.944   4.279 -1.3869 -0.0941  0.7424
 7922SOL    HW235400   0.463   2.978   4.206  0.4140 -1.4302 -2.8962
 7923SOL     OW35401   2.912   4.178   1.454 -0.3952 -0.5636 -0.6379
 7923SOL    HW135402   2.999   4.157   1.418 -0.0376 -1.7091  0.8860
 7923SOL    HW235403   2.878   4.096   1.490  1.7512 -0.3862  1.8315
 7924SOL     OW35404   3.604   1.657  13.210  0.2276 -0.2788 -0.3311
 7924SOL    HW135405   3.653   1.728  13.253  0.0743 -0.4974  0.2034
 7924SOL    HW235406   3.660   1.590  13.248 -0.6406 -1.4477 -1.1036
 7925SOL     OW35407   0.002   2.327   8.883 -0.0496 -0.2528 -0.0877
 7925SOL    HW135408   4.720   2.265   8.953  2.6278 -2.1918 -1.0277
 7925SOL    HW235409   0.073   2.383   8.915  0.0192  0.4435 -1.4789
 7926SOL     OW35410   3.682   3.362   5.714 -0.0022  0.2272 -0.4329
 7926SOL    HW135411   3.688   3.304   5.790 -0.9870 -0.7774 -1.1296
 7926SOL    HW235412   3.656   3.295   5.651 -2.3417 -1.1005  1.9314
 7927SOL     OW35413   4.269   3.434   2.928 -0.4876  0.2074 -0.2284
 7927SOL    HW135414   4.264   3.398   2.840 -0.6423  0.0892 -0.1717
 7927SOL    HW235415   4.364   3.448   2.933 -0.4554 -1.0959  3.0389
 7928SOL     OW35416   0.413   1.027   4.532 -0.4055  0.1066 -0.4643
 7928SOL    HW135417   0.355   1.102   4.517  1.0433  0.9365 -1.8684
 7928SOL    HW235418   0.404   1.003   4.624  0.6878  2.6007  0.2809
 7929SOL     OW35419   1.971   3.961   6.110  0.2056 -0.0936  0.0215
 7929SOL    HW135420   1.954   3.874   6.146  0.6389  0.2356  1.0159
 7929SOL    HW235421   2.012   3.949   6.025 -0.5329 -1.0829 -0.1931
 7930SOL     OW35422   3.868   1.389   6.695 -0.4678 -0.1544 -0.2896
 7930SOL    HW135423   3.962   1.368   6.690 -1.0278 -2.2679 -1.8924
 7930SOL    HW235424   3.820   1.306   6.699 -0.3985 -0.1754  0.0754
 7931SOL     OW35425   0.291   4.163  17.143  0.1434  0.5318 -0.0779
 7931SOL    HW135426   0.322   4.232  17.084  0.3286  1.8921  1.6142
 7931SOL    HW235427   0.217   4.135  17.088  0.3703  0.5505 -0.3944
 7932SOL     OW35428   0.064   2.562   8.669 -0.8444 -0.4935  0.0461
 7932SOL    HW135429   0.073   2.479   8.717 -1.9603 -0.3812  0.4454
 7932SOL    HW235430   0.062   2.618   8.747  2.9921 -1.7853  1.1085
 7933SOL     OW35431   3.076   2.427   4.958  0.3487  0.2197 -0.3665
 7933SOL    HW135432   3.109   2.391   5.040 -0.4345 -0.6129 -0.4195
 7933SOL    HW235433   3.010   2.494   4.977 -0.2913 -0.0243 -1.7408
 7934SOL     OW35434   0.756   3.239   2.881  0.5311 -0.0625 -0.0746
 7934SOL    HW135435   0.733   3.147   2.870 -0.7013  0.4106 -1.3597
 7934SOL    HW235436   0.804   3.257   2.801 -0.5585 -1.6684 -1.0952
 7935SOL     OW35437   2.690   4.636   0.380 -0.0041  0.1211 -0.2743
 7935SOL    HW135438   2.772   4.643   0.331  1.1808 -2.1305  1.4022
 7935SOL    HW235439   2.687   4.719   0.426  1.0541 -0.9530  1.7285
 7936SOL     OW35440   0.007   3.953   4.342  0.1699  0.5132 -0.2521
 7936SOL    HW135441   0.082   4.012   4.345  0.6358 -0.0233 -1.3069
 7936SOL    HW235442   4.724   3.938   4.434  0.5662 -0.4055 -0.3158
 7937SOL     OW35443   2.624   3.804   3.743 -0.0114  0.2939  0.2673
 7937SOL    HW135444   2.665   3.722   3.772  0.1612 -0.3757 -1.8439
 7937SOL    HW235445   2.639   3.814   3.649  4.4885  1.6306  1.1398
 7938SOL     OW35446   0.392   4.403   3.180 -0.0286  0.7579 -0.1499
 7938SOL    HW135447   0.394   4.308   3.165  1.1837  0.9134 -1.0140
 7938SOL    HW235448   0.320   4.408   3.242  0.1459 -1.2391  0.2151
 7939SOL     OW35449   1.702   0.606   5.124  0.1978  0.1309  0.5087
 7939SOL    HW135450   1.692   0.567   5.037 -1.1140  0.1715  0.6487
 7939SOL    HW235451   1.756   0.684   5.109 -0.9879  0.8869  0.1770
 7940SOL     OW35452   3.982   0.590   3.359  0.5060  0.1905  0.3840
 7940SOL    HW135453   3.946   0.526   3.298 -1.6505  1.2077  0.6239
 7940SOL    HW235454   3.911   0.652   3.367  0.2710  0.2306 -2.0933
 7941SOL     OW35455   1.668   0.955   6.606  0.2307  0.2325 -0.6621
 7941SOL    HW135456   1.608   0.886   6.635 -0.2307  0.9456  0.0432
 7941SOL    HW235457   1.708   0.921   6.526  1.0524 -1.9998  0.7036
 7942SOL     OW35458   4.028   4.165   1.776  0.3856 -0.0675 -0.0509
 7942SOL    HW135459   4.010   4.155   1.683  2.5324  1.3361 -0.6093
 7942SOL    HW235460   4.122   4.177   1.763  0.7403 -1.0994  1.5378
 7943SOL     OW35461   1.234   0.868   8.353 -0.3864  0.5944 -0.0626
 7943SOL    HW135462   1.279   0.808   8.293  0.0035  1.0634 -0.2321
 7943SOL    HW235463   1.148   0.843   8.317 -0.9814  1.5004  0.7492
 7944SOL     OW35464   1.278   3.919   6.109  0.0583  0.4339 -0.0597
 7944SOL    HW135465   1.351   3.978   6.126 -0.0051  1.3405 -2.9862
 7944SOL    HW235466   1.287   3.849   6.174 -2.7678  1.9625  2.0233
 7945SOL     OW35467   1.084   4.593  13.511  0.0486 -0.0837  0.2255
 7945SOL    HW135468   1.108   4.514  13.560  0.7149 -0.3762 -0.5642
 7945SOL    HW235469   1.167   4.603  13.464 -0.8563  1.5000 -1.0181
 7946SOL     OW35470   3.663   3.069   3.264  0.0917  0.0713  0.0545
 7946SOL    HW135471   3.757   3.052   3.258 -0.2059 -2.4846  2.3258
 7946SOL    HW235472   3.638   2.989   3.216 -1.6536 -0.0715  1.2090
 7947SOL     OW35473   2.169   2.741   6.643  0.6843  0.0401 -0.4579
 7947SOL    HW135474   2.199   2.800   6.574 -0.5487 -0.0564 -1.0662
 7947SOL    HW235475   2.115   2.806   6.689 -0.8630 -0.5262 -1.4915
 7948SOL     OW35476   0.501   3.004  16.168 -0.0526 -0.1311 -0.5664
 7948SOL    HW135477   0.426   2.958  16.132  0.2625 -1.0523 -0.0528
 7948SOL    HW235478   0.542   2.930  16.214 -0.4183  1.0265  1.6113
 7949SOL     OW35479   4.208   0.008  11.761  0.0209 -0.5512  0.0734
 7949SOL    HW135480   4.262   4.681  11.806  2.0134 -0.9587 -2.9234
 7949SOL    HW235481   4.196   0.066  11.837  0.5727  1.1982 -1.1686
 7950SOL     OW35482   3.882   4.613  10.682 -0.1145  0.3854  0.3606
 7950SOL    HW135483   3.858   4.630  10.591 -4.5273 -0.2252  1.4075
 7950SOL    HW235484   3.926   4.528  10.684  1.2129  1.0769  0.2834
 7951SOL     OW35485   3.370   4.152   7.626 -0.1618  0.3237  0.5830
 7951SOL    HW135486   3.308   4.198   7.684  0.3539  1.4272  0.2728
 7951SOL    HW235487   3.456   4.195   7.624 -0.5135  1.0834  1.5379
 7952SOL     OW35488   4.035   3.879   9.999 -0.2380 -0.0524  0.1574
 7952SOL    HW135489   3.991   3.877  10.084 -0.3947  0.5290  0.0891
 7952SOL    HW235490   4.113   3.927  10.027  1.2589 -2.7505  0.6481
 7953SOL     OW35491   1.761   1.098   2.964 -0.4536 -0.7881 -0.2584
 7953SOL    HW135492   1.715   1.116   3.046 -1.0812  1.4973 -1.1103
 7953SOL    HW235493   1.687   1.076   2.907 -0.9303 -1.4675  0.6268
 7954SOL     OW35494   2.216   2.431   4.504 -0.2759  0.6635 -0.7552
 7954SOL    HW135495   2.288   2.462   4.450  1.4143  0.8108  1.6005
 7954SOL    HW235496   2.149   2.401   4.442  0.2055  1.3768 -1.6363
 7955SOL     OW35497   2.608   2.015   9.463  0.1667  0.5695  0.3713
 7955SOL    HW135498   2.598   2.070   9.541 -2.4589 -0.6043  0.8931
 7955SOL    HW235499   2.528   2.043   9.418 -0.6062 -0.2657  1.2088
 7956SOL     OW35500   2.780   1.369  13.092 -0.0466  0.6353 -0.5132
 7956SOL    HW135501   2.732   1.408  13.165 -1.2384  0.5484 -1.2635
 7956SOL    HW235502   2.864   1.415  13.098  1.1284 -1.3749 -1.4904
 7957SOL     OW35503   3.476   0.288   4.659 -0.7921 -0.4893 -0.4936
 7957SOL    HW135504   3.552   0.276   4.602 -1.0100  0.4336 -0.9680
 7957SOL    HW235505   3.464   0.377   4.628  0.5710  0.3935  1.4602
 7958SOL     OW35506   0.416   2.536   8.058  0.0368  0.3311  0.2223
 7958SOL    HW135507   0.345   2.488   8.100  0.8268 -0.8736  0.1822
 7958SOL    HW235508   0.390   2.624   8.084 -0.0874  1.1800 -2.8244
 7959SOL     OW35509   3.711   1.135   9.437  0.0282 -0.2292 -0.0194
 7959SOL    HW135510   3.789   1.132   9.382 -0.4960 -0.0853 -0.7837
 7959SOL    HW235511   3.644   1.086   9.388  0.9418 -1.1742 -0.3132
 7960SOL     OW35512   4.483   3.263   4.279 -0.5329 -0.1092 -0.4251
 7960SOL    HW135513   4.448   3.252   4.191 -2.1164  1.4216  0.0183
 7960SOL    HW235514   4.551   3.330   4.271  0.4168 -0.9593  0.4122
 7961SOL     OW35515   0.573   3.477   8.964  0.2897  0.5479 -0.2426
 7961SOL    HW135516   0.541   3.561   8.996  0.7020  0.0821  1.3927
 7961SOL    HW235517   0.590   3.425   9.043 -0.4310 -0.5551 -0.8007
 7962SOL     OW35518   3.212   0.927   8.288  0.6049 -0.4732  0.3167
 7962SOL    HW135519   3.243   0.837   8.275 -0.6640 -0.9604  0.7256
 7962SOL    HW235520   3.293   0.978   8.286  0.7320 -0.7026 -0.6022
 7963SOL     OW35521   1.882   4.112   4.171  0.4967  0.0226 -0.2070
 7963SOL    HW135522   1.789   4.130   4.162  0.3172 -1.4661 -1.5465
 7963SOL    HW235523   1.901   4.068   4.087  2.1816  0.2613  0.0373
 7964SOL     OW35524   2.951   2.631   0.967 -0.1769 -0.3689  1.0458
 7964SOL    HW135525   2.877   2.574   0.983  0.2896 -1.6196 -1.2523
 7964SOL    HW235526   3.001   2.618   1.047 -0.6474 -0.5615  1.3026
 7965SOL     OW35527   1.413   0.811  15.599  0.2867 -0.0162  0.2368
 7965SOL    HW135528   1.347   0.764  15.651 -1.7111  3.1378  0.5374
 7965SOL    HW235529   1.375   0.804  15.511 -0.4778 -0.3696  0.5910
 7966SOL     OW35530   1.827   3.343   7.922 -0.0217 -0.1941  0.4837
 7966SOL    HW135531   1.754   3.317   7.867 -0.3031  0.5268  0.5209
 7966SOL    HW235532   1.859   3.254   7.935  2.0672  0.6647  1.2431
 7967SOL     OW35533   1.074   3.342   7.189  0.1588  0.5128 -0.0338
 7967SOL    HW135534   1.082   3.281   7.116 -0.7097  1.3710 -0.8393
 7967SOL    HW235535   1.003   3.295   7.233  1.1713  2.0023  3.2020
 7968SOL     OW35536   0.522   0.384   0.250  0.3296 -0.1026 -0.1123
 7968SOL    HW135537   0.448   0.376   0.190  0.7382 -0.0609 -0.6204
 7968SOL    HW235538   0.538   0.290   0.257  1.9240  0.0673 -1.4619
 7969SOL     OW35539   0.031   2.025  14.445  0.0177  0.2968  0.1729
 7969SOL    HW135540   0.030   2.082  14.368  0.2921  1.1830  0.8274
 7969SOL    HW235541   0.122   2.003  14.465 -0.3170 -3.0023 -1.9167
 7970SOL     OW35542   3.610   3.136   4.601 -0.4495 -0.6247 -0.2272
 7970SOL    HW135543   3.685   3.178   4.644 -2.0231  1.3320  0.6205
 7970SOL    HW235544   3.623   3.042   4.593  0.9593 -0.1811 -3.5816
 7971SOL     OW35545   3.689   0.195   8.643  0.0413 -0.1841  0.9635
 7971SOL    HW135546   3.684   0.141   8.721  1.9661  2.5210  2.9788
 7971SOL    HW235547   3.665   0.133   8.574 -2.8355  2.0993 -0.0555
 7972SOL     OW35548   3.627   0.540   1.629  0.0441 -0.0587  0.2989
 7972SOL    HW135549   3.555   0.522   1.689  1.1158  0.7127  1.8247
 7972SOL    HW235550   3.628   0.452   1.591 -2.5542  0.6140 -1.3080
 7973SOL     OW35551   1.422   1.172   1.651 -0.2187 -0.0633 -0.3708
 7973SOL    HW135552   1.366   1.231   1.600  1.8659 -2.1609 -5.0925
 7973SOL    HW235553   1.475   1.233   1.702 -1.6985  0.5592  0.4406
 7974SOL     OW35554   1.267   3.105   6.080 -0.3263  0.1889  0.1860
 7974SOL    HW135555   1.277   3.107   5.985 -0.3638  1.3786  0.2033
 7974SOL    HW235556   1.357   3.126   6.107 -0.7426  0.3952  1.4199
 7975SOL     OW35557   3.573   2.551  15.586  0.4684 -0.3166 -0.8226
 7975SOL    HW135558   3.630   2.484  15.625 -2.9908 -2.8839 -0.1811
 7975SOL    HW235559   3.626   2.630  15.576 -2.1584  1.2543 -2.2669
 7976SOL     OW35560   2.624   1.235   7.191 -0.0956 -0.3401  0.2567
 7976SOL    HW135561   2.625   1.181   7.112 -3.2129 -0.0746  0.0368
 7976SOL    HW235562   2.556   1.183   7.233 -0.1065 -0.1265  0.5000
 7977SOL     OW35563   3.166   3.732   2.074 -0.2653  0.2217 -0.3255
 7977SOL    HW135564   3.230   3.767   2.012  1.1531 -1.0977  0.3656
 7977SOL    HW235565   3.128   3.813   2.107  0.2321 -0.1786  1.2320
 7978SOL     OW35566   0.478   1.336   5.512  0.3131  0.2948  0.0215
 7978SOL    HW135567   0.484   1.241   5.522  2.7697  0.1282 -3.1049
 7978SOL    HW235568   0.420   1.369   5.581  0.2986  0.4431 -0.0610
 7979SOL     OW35569   3.198   3.371  11.720 -0.2045  0.0759  0.3682
 7979SOL    HW135570   3.292   3.375  11.736 -0.1364  0.0743 -0.0364
 7979SOL    HW235571   3.174   3.463  11.730  2.8374  1.1851 -2.6971
 7980SOL     OW35572   2.975   1.253   7.528 -0.2283 -0.1660 -0.2243
 7980SOL    HW135573   2.946   1.213   7.446  1.0496 -0.8608 -0.3295
 7980SOL    HW235574   3.006   1.169   7.562 -0.3180  0.4146  1.2771
 7981SOL     OW35575   0.348   3.474  16.768 -0.5606 -0.0712 -0.2764
 7981SOL    HW135576   0.288   3.547  16.785 -0.5755  0.0193 -0.7117
 7981SOL    HW235577   0.409   3.521  16.710 -0.2141  2.2643  1.9609
 7982SOL     OW35578   1.579   3.255   5.342 -0.9125  0.1820  0.4879
 7982SOL    HW135579   1.558   3.254   5.248  0.6385  1.5325  0.1107
 7982SOL    HW235580   1.493   3.283   5.372 -1.7655 -2.3720  0.4155
 7983SOL     OW35581   4.352   4.184   1.429  0.0584  0.1799 -0.0802
 7983SOL    HW135582   4.411   4.249   1.390 -0.2225  0.1828 -0.4999
 7983SOL    HW235583   4.361   4.210   1.520  2.6947  0.7043 -0.5019
 7984SOL     OW35584   0.275   3.777  12.688 -0.2124 -0.1332 -0.8782
 7984SOL    HW135585   0.283   3.864  12.727  0.9639 -1.1751  1.2135
 7984SOL    HW235586   0.309   3.721  12.758 -0.8221  1.0736  0.3818
 7985SOL     OW35587   1.620   3.216  14.658  0.3628  0.9767 -0.2115
 7985SOL    HW135588   1.635   3.133  14.613 -0.8831  0.7303 -0.1720
 7985SOL    HW235589   1.640   3.203  14.750  1.8263  0.1176 -0.6489
 7986SOL     OW35590   0.850   2.293   4.255  0.5127  0.1942  0.1206
 7986SOL    HW135591   0.810   2.303   4.168 -0.1803  2.0079  0.6297
 7986SOL    HW235592   0.784   2.321   4.318  0.4934  1.8502 -0.6252
 7987SOL     OW35593   4.482   1.970  10.991 -0.0834 -0.3162 -0.0687
 7987SOL    HW135594   4.408   1.909  10.987 -0.6274  0.3325  0.0996
 7987SOL    HW235595   4.550   1.913  10.956  0.5634 -0.3704  1.2617
 7988SOL     OW35596   3.427   2.676   6.094  0.1599 -1.3945 -0.1928
 7988SOL    HW135597   3.452   2.633   6.176 -2.3403  2.1415  2.4156
 7988SOL    HW235598   3.410   2.602   6.036 -2.0752 -1.5395  0.6468
 7989SOL     OW35599   0.369   2.387  13.415  0.0944 -0.3865 -0.1097
 7989SOL    HW135600   0.402   2.474  13.394 -0.7717  0.4918  2.1493
 7989SOL    HW235601   0.451   2.343  13.437 -0.7040 -1.9464 -0.1938
 7990SOL     OW35602   3.534   0.008   9.119 -0.2546 -0.1777  0.1859
 7990SOL    HW135603   3.608   0.032   9.176  0.2295  0.2201 -0.6015
 7990SOL    HW235604   3.508   4.670   9.171  1.8041 -0.8574  0.2307
 7991SOL     OW35605   4.292   1.149   5.962  0.0247 -0.1632 -0.0137
 7991SOL    HW135606   4.298   1.053   5.964 -1.1840 -0.2174  1.0078
 7991SOL    HW235607   4.365   1.175   6.018  0.0457  0.3669 -0.2922
 7992SOL     OW35608   0.323   0.110  17.180 -0.2148  0.1396 -0.4198
 7992SOL    HW135609   0.229   0.115  17.199  0.1232  1.4591  0.8378
 7992SOL    HW235610   0.338   0.022  17.213  1.3658  0.4976 -0.2202
 7993SOL     OW35611   0.280   0.640  11.369  0.1684 -0.0984 -0.0467
 7993SOL    HW135612   0.210   0.682  11.419  3.2443  2.7341  1.8191
 7993SOL    HW235613   0.341   0.709  11.347  1.0553 -1.0025 -0.4277
 7994SOL     OW35614   3.411   0.108   5.891 -0.0995  0.0429 -0.3374
 7994SOL    HW135615   3.320   0.108   5.863 -0.7231 -2.8312  1.6926
 7994SOL    HW235616   3.395   0.080   5.982 -0.9505 -2.4088 -1.2484
 7995SOL     OW35617   0.553   2.945   3.663  0.1168 -0.0157 -0.4387
 7995SOL    HW135618   0.583   3.021   3.712  0.5256 -0.2752 -0.2889
 7995SOL    HW235619   0.474   2.926   3.714  1.5398 -1.2806  1.2687
 7996SOL     OW35620   0.328   0.603   1.030  0.1088  0.8454  0.3061
 7996SOL    HW135621   0.386   0.611   1.106 -1.4580 -0.6817  1.6475
 7996SOL    HW235622   0.241   0.587   1.065  0.1131  1.1617  0.4687
 7997SOL     OW35623   2.159   4.456   9.036 -0.4460  0.0440 -0.1794
 7997SOL    HW135624   2.158   4.523   8.968  1.0855 -0.0677 -0.3333
 7997SOL    HW235625   2.206   4.393   8.981  0.9253  0.6488  0.2808
 7998SOL     OW35626   0.156   3.565   6.539 -0.2627 -0.4097 -0.3199
 7998SOL    HW135627   0.130   3.656   6.521  0.1216  0.3308  2.7244
 7998SOL    HW235628   0.206   3.574   6.620 -1.2121 -2.6497  0.5234
 7999SOL     OW35629   1.720   2.787  14.365  0.2821 -0.0669 -0.4448
 7999SOL    HW135630   1.745   2.698  14.389  1.8972  0.8835  1.4512
 7999SOL    HW235631   1.634   2.767  14.328  0.2668 -0.7373 -0.0481
 8000SOL     OW35632   1.637   0.625   8.547 -0.2479  0.3081 -0.0414
 8000SOL    HW135633   1.599   0.705   8.513 -0.7254 -0.9119 -2.3430
 8000SOL    HW235634   1.723   0.646   8.510  1.0990 -0.3804  2.6793
 8001SOL     OW35635   4.418   0.968   5.718 -0.3499 -0.2820 -0.5996
 8001SOL    HW135636   4.412   1.042   5.657 -4.5308  0.0762  0.3022
 8001SOL    HW235637   4.419   0.884   5.672 -2.4900  1.3846 -3.6870
 8002SOL     OW35638   2.865   2.922  10.689 -0.0433  0.0562  0.3153
 8002SOL    HW135639   2.931   2.866  10.730 -0.4398 -0.2879  0.4824
 8002SOL    HW235640   2.902   2.932  10.601 -1.9534  0.2867 -0.4604
 8003SOL     OW35641   1.530   3.497   2.261  0.4282  0.5621  0.4107
 8003SOL    HW135642   1.583   3.427   2.299  0.1159 -0.1522 -0.4457
 8003SOL    HW235643   1.482   3.447   2.194  2.0183  0.2097 -0.4683
 8004SOL     OW35644   1.163   1.266   5.226  0.0497  0.1773 -0.2972
 8004SOL    HW135645   1.248   1.222   5.235 -1.0951 -1.7571  1.1632
 8004SOL    HW235646   1.137   1.287   5.137 -0.1028  0.6634 -0.1373
 8005SOL     OW35647   0.786   1.846   5.595  0.0303  0.6941  0.4262
 8005SOL    HW135648   0.835   1.776   5.637  1.7109  3.3194  2.8565
 8005SOL    HW235649   0.705   1.807   5.563  0.2062  0.2714  0.5064
 8006SOL     OW35650   1.919   2.621  10.824 -0.3463  0.5926  0.2504
 8006SOL    HW135651   1.982   2.692  10.813 -0.3703  0.6386  0.4009
 8006SOL    HW235652   1.877   2.616  10.739 -1.6348 -2.5605  1.0737
 8007SOL     OW35653   2.622   1.723   2.645 -0.3816  0.3717 -0.3235
 8007SOL    HW135654   2.531   1.693   2.641 -0.6898  1.2316  0.2118
 8007SOL    HW235655   2.630   1.725   2.740  0.0177 -0.7434 -0.3321
 8008SOL     OW35656   2.160   0.420   2.675 -0.3327 -0.2961  0.3805
 8008SOL    HW135657   2.176   0.495   2.618  0.4014  0.4903  1.6162
 8008SOL    HW235658   2.065   0.425   2.686 -0.2707 -0.5010  1.0241
 8009SOL     OW35659   1.214   1.095  12.314  0.3309 -0.3111 -0.4899
 8009SOL    HW135660   1.301   1.135  12.314 -0.1767  0.7686 -1.4895
 8009SOL    HW235661   1.214   1.048  12.398 -2.3575  0.0768 -0.2587
 8010SOL     OW35662   0.569   1.635  16.585  0.1470 -0.6542  0.0092
 8010SOL    HW135663   0.664   1.631  16.574  0.2911  1.3220  0.6743
 8010SOL    HW235664   0.536   1.577  16.515 -0.4125  1.0218 -1.1095
 8011SOL     OW35665   2.050   4.426   9.517 -0.1545  0.4943 -0.2180
 8011SOL    HW135666   2.058   4.450   9.425 -0.3235  1.1045 -0.0701
 8011SOL    HW235667   1.959   4.395   9.518 -0.5284  1.6176  1.4942
 8012SOL     OW35668   1.319   1.424   3.444  0.3178 -0.3806 -0.1674
 8012SOL    HW135669   1.282   1.412   3.532  0.1015 -0.4408 -0.2678
 8012SOL    HW235670   1.383   1.495   3.452  0.3624 -0.4478  0.0694
 8013SOL     OW35671   3.799   3.442   1.961 -0.2193  0.3097  0.1728
 8013SOL    HW135672   3.791   3.534   1.935  0.2598 -0.5700 -3.1054
 8013SOL    HW235673   3.752   3.407   1.885 -1.4224 -0.9156  1.5040
 8014SOL     OW35674   0.893   3.447   4.105  0.3498 -0.5917 -0.6736
 8014SOL    HW135675   0.932   3.375   4.056 -0.0342 -0.1380 -1.6564
 8014SOL    HW235676   0.956   3.518   4.095  0.9365 -1.4137 -2.9006
 8015SOL     OW35677   1.314   2.041   6.723  0.2390  0.0755 -0.6380
 8015SOL    HW135678   1.315   1.948   6.698  0.5902  0.4259 -1.9521
 8015SOL    HW235679   1.221   2.045   6.746  1.0889  2.6586  2.2965
 8016SOL     OW35680   2.220   1.969  15.911  0.5757  0.0702  0.5696
 8016SOL    HW135681   2.136   1.929  15.889  0.4500  2.1342 -2.6808
 8016SOL    HW235682   2.269   1.930  15.839  2.6018 -0.2627  2.1565
 8017SOL     OW35683   1.908   1.415  13.413  0.7637  0.1410 -0.5389
 8017SOL    HW135684   1.905   1.320  13.401  1.0497  0.0881 -0.1638
 8017SOL    HW235685   1.827   1.435  13.460  1.9911  0.6702  1.3320
 8018SOL     OW35686   1.433   1.662   5.449  0.2173  0.2543 -0.0670
 8018SOL    HW135687   1.371   1.643   5.378  0.5207 -0.5815 -0.1104
 8018SOL    HW235688   1.393   1.738   5.491 -1.8420 -0.3812 -0.8866
 8019SOL     OW35689   3.444   0.337   7.059 -0.0370 -0.0047  0.4809
 8019SOL    HW135690   3.428   0.334   6.965 -0.6770  0.7412  0.5669
 8019SOL    HW235691   3.526   0.385   7.070  1.2871 -2.4434  1.3773
 8020SOL     OW35692   0.703   1.184   2.301 -0.1712 -0.2353  0.1907
 8020SOL    HW135693   0.639   1.192   2.230 -1.1714 -1.2335  0.9645
 8020SOL    HW235694   0.656   1.230   2.371 -1.7246 -0.0500 -0.9628
 8021SOL     OW35695   2.943   2.964   4.568  0.7561 -0.2120 -0.0612
 8021SOL    HW135696   2.861   2.940   4.610  1.4856 -3.5548 -0.5655
 8021SOL    HW235697   3.002   2.896   4.602 -2.9492 -3.0638  0.5936
 8022SOL     OW35698   0.096   0.105   3.503 -0.1518 -0.2688  0.2735
 8022SOL    HW135699   0.033   0.176   3.487  2.0822  1.2378 -1.6694
 8022SOL    HW235700   0.110   0.107   3.598  2.5687  3.2085 -0.2316
 8023SOL     OW35701   2.731   4.678   5.884  0.4375 -0.2540 -0.0034
 8023SOL    HW135702   2.783   0.017   5.859 -1.1256 -0.2661 -3.2551
 8023SOL    HW235703   2.705   4.695   5.975 -0.0502  1.3390 -0.4409
 8024SOL     OW35704   3.612   4.726   7.562 -0.6375 -0.5151  0.6345
 8024SOL    HW135705   3.651   0.063   7.517  0.6822 -1.1897  0.6233
 8024SOL    HW235706   3.604   4.656   7.497  0.7616 -1.2370  1.2112
 8025SOL     OW35707   2.629   0.627   7.992  0.5246  0.1603  0.4146
 8025SOL    HW135708   2.653   0.663   7.906  0.9906  0.9687  0.8836
 8025SOL    HW235709   2.679   0.545   7.994 -1.1032 -0.8792 -0.6778
 8026SOL     OW35710   1.929   3.593  11.157  0.0583 -0.2395 -0.1792
 8026SOL    HW135711   1.984   3.517  11.140  1.6186  0.3835  2.0269
 8026SOL    HW235712   1.865   3.595  11.087 -0.4460 -1.6585  0.2389
 8027SOL     OW35713   3.114   4.409   2.694 -0.3814  0.3142 -0.3688
 8027SOL    HW135714   3.067   4.353   2.633 -2.2751 -0.4023  1.7336
 8027SOL    HW235715   3.094   4.376   2.782  1.6066  0.9678  0.3480
 8028SOL     OW35716   0.929   2.560  13.999  0.7192  0.1467 -0.6598
 8028SOL    HW135717   0.994   2.491  14.007  0.8227  0.4008  0.7987
 8028SOL    HW235718   0.890   2.530  13.917  0.8148  0.2278 -0.7350
 8029SOL     OW35719   4.223   1.277   6.580  0.3694 -0.6678  0.6231
 8029SOL    HW135720   4.307   1.258   6.623  0.2176  0.5308  1.4242
 8029SOL    HW235721   4.177   1.194   6.567  2.5969 -1.9730  0.9878
 8030SOL     OW35722   1.499   1.907  17.659  0.4177  0.0721  0.0740
 8030SOL    HW135723   1.544   1.952  17.588 -4.1653  2.6654 -1.2040
 8030SOL    HW235724   1.411   1.941  17.643 -0.1281 -0.6822  1.4716
 8031SOL     OW35725   3.171   3.778   7.463 -0.0036 -0.4302 -0.4257
 8031SOL    HW135726   3.171   3.713   7.393 -0.0234 -1.7273  0.7846
 8031SOL    HW235727   3.185   3.861   7.416 -0.3709  0.3341  0.8141
 8032SOL     OW35728   3.130   1.824   3.924 -0.3701  0.2691  0.2064
 8032SOL    HW135729   3.041   1.796   3.902  0.9061 -1.8807 -2.2515
 8032SOL    HW235730   3.157   1.894   3.864 -1.1226 -0.9502 -1.5642
 8033SOL     OW35731   3.869   3.627   7.203  0.7088 -0.2934 -0.2965
 8033SOL    HW135732   3.794   3.679   7.233 -0.6779 -3.0466  1.0360
 8033SOL    HW235733   3.830   3.541   7.218 -1.3901  0.6075 -0.6172
 8034SOL     OW35734   1.076   3.847   1.446  0.3482 -0.5850  0.0556
 8034SOL    HW135735   0.999   3.861   1.500  0.6277  0.2583  0.2320
 8034SOL    HW235736   1.134   3.793   1.500 -0.3847 -1.5474 -0.1124
 8035SOL     OW35737   2.836   4.214   3.149  1.0859 -0.4871 -0.3449
 8035SOL    HW135738   2.790   4.296   3.169 -1.6929 -2.2096  0.2502
 8035SOL    HW235739   2.861   4.186   3.237 -3.9743 -0.4154  1.1279
 8036SOL     OW35740   4.100   2.483   5.468  0.3673  0.9236 -0.5470
 8036SOL    HW135741   4.157   2.556   5.446  0.4811  1.0727  0.2239
 8036SOL    HW235742   4.014   2.524   5.481 -0.1629 -0.1258 -0.7160
 8037SOL     OW35743   2.632   1.496   4.669  0.0508 -0.2214  0.0806
 8037SOL    HW135744   2.627   1.474   4.762 -0.2959  0.3842  0.2023
 8037SOL    HW235745   2.647   1.407   4.636  2.5286  1.1448 -2.3953
 8038SOL     OW35746   3.174   3.176   1.710  0.4598 -0.0619 -0.0197
 8038SOL    HW135747   3.268   3.194   1.706  0.2423  1.4053  1.3581
 8038SOL    HW235748   3.184   3.083   1.691 -3.4722 -0.8187  1.5958
 8039SOL     OW35749   4.676   0.706   7.067  0.0805 -0.0912 -0.2406
 8039SOL    HW135750   4.622   0.657   7.129  2.2264 -2.0150  0.1504
 8039SOL    HW235751   4.700   0.646   6.996 -0.1570 -2.4088  1.6445
 8040SOL     OW35752   4.357   3.784  14.470 -0.1273 -0.2461 -0.2338
 8040SOL    HW135753   4.303   3.745  14.401  0.6684  1.0012 -1.5607
 8040SOL    HW235754   4.297   3.834  14.525  1.4721  2.2837 -0.7681
 8041SOL     OW35755   1.123   2.568   4.469 -0.9417  0.1144 -0.1685
 8041SOL    HW135756   1.097   2.581   4.378 -0.6960  1.4390 -0.0561
 8041SOL    HW235757   1.136   2.473   4.476  0.7034  0.3898  0.5044
 8042SOL     OW35758   3.812   1.430   1.152 -0.2864  0.4114 -0.2844
 8042SOL    HW135759   3.847   1.445   1.240  0.0448  1.6015 -0.6192
 8042SOL    HW235760   3.787   1.518   1.123  0.9760  0.7036 -0.5188
 8043SOL     OW35761   3.871   0.031   4.018  0.3457 -0.0314 -0.2485
 8043SOL    HW135762   3.861   0.118   3.979 -2.3935 -0.3565 -0.2504
 8043SOL    HW235763   3.959   0.027   4.057  0.2817 -0.2927 -0.1334
 8044SOL     OW35764   1.660   3.514   7.490 -0.2711 -0.4739 -0.3799
 8044SOL    HW135765   1.753   3.491   7.478  0.2484  0.7378  1.3481
 8044SOL    HW235766   1.674   3.587   7.550 -0.2408  0.9736 -2.1508
 8045SOL     OW35767   4.229   3.723   9.383 -0.4929  0.2651  0.1372
 8045SOL    HW135768   4.230   3.796   9.446 -0.0661  0.9716 -0.6821
 8045SOL    HW235769   4.150   3.744   9.333 -0.3083  2.3258  0.7114
 8046SOL     OW35770   0.801   1.048  11.833  0.1987  0.9109  0.5379
 8046SOL    HW135771   0.786   1.142  11.842  1.3142  1.1966 -0.5942
 8046SOL    HW235772   0.848   1.041  11.916  0.1080 -0.3607  0.4795
 8047SOL     OW35773   2.498   3.979   9.504 -0.2304 -0.0400 -0.6001
 8047SOL    HW135774   2.457   3.993   9.589 -1.4825  0.2916 -1.2615
 8047SOL    HW235775   2.436   3.926   9.453  1.9424 -2.2268 -0.9857
 8048SOL     OW35776   2.035   0.694   1.978  0.2131 -0.0643  0.0771
 8048SOL    HW135777   2.005   0.784   1.992  1.1197  0.1425  0.7159
 8048SOL    HW235778   1.959   0.637   1.993  0.4982 -0.2719  0.7300
 8049SOL     OW35779   2.432   0.749   2.503 -0.0369  0.6705 -0.7273
 8049SOL    HW135780   2.446   0.662   2.467  0.1730 -1.1418  3.7459
 8049SOL    HW235781   2.482   0.808   2.446  0.9561  0.8095  0.2694
 8050SOL     OW35782   4.412   0.377  17.577  0.1821 -0.3276 -0.0859
 8050SOL    HW135783   4.384   0.427  17.500 -0.6440 -0.4647  0.1232
 8050SOL    HW235784   4.500   0.352  17.551  0.5625 -0.1258  1.0003
 8051SOL     OW35785   2.824   3.646   6.963 -1.0740  0.7784 -0.2213
 8051SOL    HW135786   2.768   3.683   7.031  0.2609 -2.4068  2.6368
 8051SOL    HW235787   2.867   3.723   6.927  0.4621  0.8413  1.7350
 8052SOL     OW35788   3.913   2.666   6.398  0.4546 -0.1026  0.5212
 8052SOL    HW135789   3.845   2.731   6.418  1.5564  0.7851  1.3198
 8052SOL    HW235790   3.918   2.621   6.482  1.7436 -1.5048 -0.2868
 8053SOL     OW35791   0.905   2.852  15.766  0.1208 -0.0061 -0.0352
 8053SOL    HW135792   0.913   2.933  15.716 -3.2766  0.7979  0.7129
 8053SOL    HW235793   0.970   2.798  15.721  1.5539  1.0296  0.7791
 8054SOL     OW35794   2.572   1.770   4.068  0.1234  0.3783 -0.4559
 8054SOL    HW135795   2.657   1.778   4.113  0.8104 -0.3276 -1.6440
 8054SOL    HW235796   2.539   1.859   4.057 -1.4935 -0.2977 -1.0863
 8055SOL     OW35797   0.249   4.187   4.448  0.2087 -0.3771  0.7801
 8055SOL    HW135798   0.297   4.105   4.458  1.7436  0.3168 -0.9574
 8055SOL    HW235799   0.231   4.210   4.539 -1.5276 -1.0899  0.6183
 8056SOL     OW35800   2.669   2.624  17.206  0.3897  0.3950  0.4377
 8056SOL    HW135801   2.684   2.624  17.112  0.0520 -0.5428  0.3810
 8056SOL    HW235802   2.576   2.636  17.190 -0.1629 -1.6924  2.0800
 8057SOL     OW35803   3.488   4.408   4.911  0.0630 -0.7853  0.6186
 8057SOL    HW135804   3.542   4.332   4.893  0.0181 -0.3818 -1.2338
 8057SOL    HW235805   3.422   4.405   4.841 -1.3643 -1.5194  1.9961
 8058SOL     OW35806   2.864   1.020   5.482 -0.4328  0.1394  0.1747
 8058SOL    HW135807   2.773   1.015   5.512  0.2014 -1.6096  1.8208
 8058SOL    HW235808   2.903   0.965   5.550  1.5705  1.7975  0.3753
 8059SOL     OW35809   2.257   3.589  12.991 -0.3326 -0.4945 -0.5581
 8059SOL    HW135810   2.233   3.498  13.009  1.8239 -1.2451 -1.5018
 8059SOL    HW235811   2.287   3.582  12.900  0.4639 -0.1714 -0.3181
 8060SOL     OW35812   1.489   2.125   7.179 -0.1012  0.5888 -0.0025
 8060SOL    HW135813   1.504   2.083   7.263 -1.8266 -0.8336 -0.4065
 8060SOL    HW235814   1.428   2.065   7.137  0.6240 -0.8865  1.0900
 8061SOL     OW35815   4.298   1.105   7.538  0.3359 -0.0665  0.6353
 8061SOL    HW135816   4.338   1.190   7.519  0.0787 -0.3023 -0.9835
 8061SOL    HW235817   4.354   1.076   7.611 -0.5667 -1.1047  0.9107
 8062SOL     OW35818   1.465   2.225   4.569 -0.2542 -0.3832 -0.5107
 8062SOL    HW135819   1.427   2.306   4.603  0.2808 -0.4589  0.2512
 8062SOL    HW235820   1.556   2.229   4.595 -0.9743 -2.5621  2.2664
 8063SOL     OW35821   3.451   4.161  15.055 -0.2960 -0.1395  0.3487
 8063SOL    HW135822   3.359   4.137  15.066  0.3387 -2.6780  0.1871
 8063SOL    HW235823   3.502   4.108  15.117  1.3361 -0.2578 -1.0981
 8064SOL     OW35824   4.066   0.732   0.029 -0.0338  0.0326  0.1674
 8064SOL    HW135825   4.134   0.783  17.735 -0.1724 -0.2024 -0.3085
 8064SOL    HW235826   4.125   0.660   0.053  0.0250  1.2508  3.5591
 8065SOL     OW35827   3.395   4.441   6.473 -0.2022  0.1666  0.5155
 8065SOL    HW135828   3.390   4.479   6.561  1.6112  3.0755 -0.6411
 8065SOL    HW235829   3.332   4.369   6.477 -2.1312  1.8139 -0.2399
 8066SOL     OW35830   1.246   4.671  10.308 -0.3433  0.0369  0.4852
 8066SOL    HW135831   1.230   4.613  10.233  0.2540 -0.4610  0.7392
 8066SOL    HW235832   1.275   0.013  10.264 -0.0505  0.1318  0.8500
 8067SOL     OW35833   2.847   0.737   4.419 -0.6916  0.0765  0.0173
 8067SOL    HW135834   2.902   0.688   4.481  0.3128  2.2874  0.8973
 8067SOL    HW235835   2.891   0.716   4.337 -3.5890 -0.6454 -1.3552
 8068SOL     OW35836   0.199   2.706   7.510  0.3146 -0.3304  0.0535
 8068SOL    HW135837   0.242   2.623   7.530  0.7134  0.4969  2.6812
 8068SOL    HW235838   0.272   2.768   7.511  0.6146 -0.6833 -0.0054
 8069SOL     OW35839   2.799   2.920   3.359 -0.1065 -0.1283  0.5894
 8069SOL    HW135840   2.818   2.856   3.291 -0.0259 -1.7857  2.1806
 8069SOL    HW235841   2.794   3.002   3.309 -0.4727  0.6501  1.8853
 8070SOL     OW35842   3.924   3.537   9.421  0.4548  0.1588  0.5003
 8070SOL    HW135843   3.949   3.582   9.340  1.0051 -1.9502 -0.4942
 8070SOL    HW235844   3.975   3.456   9.414 -0.2666 -0.2131 -0.5728
 8071SOL     OW35845   2.873   4.172   6.966 -0.2083  0.1309 -0.5992
 8071SOL    HW135846   2.783   4.192   6.940  0.2696  2.4890 -0.3827
 8071SOL    HW235847   2.863   4.080   6.993  1.7919  0.5097  1.3892
 8072SOL     OW35848   3.713   3.616   5.436  0.4331  0.1269  0.4343
 8072SOL    HW135849   3.640   3.566   5.398 -0.4240  0.4582  1.6343
 8072SOL    HW235850   3.776   3.544   5.446  1.9711  1.1781 -1.8731
 8073SOL     OW35851   2.357   1.525  12.347 -0.3642 -0.3694  0.0204
 8073SOL    HW135852   2.350   1.579  12.426 -1.4028  0.9768 -0.9933
 8073SOL    HW235853   2.265   1.500  12.343 -0.2795 -0.8072  0.8948
 8074SOL     OW35854   4.379   2.615   9.679 -0.0535 -0.4682 -0.1753
 8074SOL    HW135855   4.284   2.627   9.683  0.0653  1.3322 -2.5607
 8074SOL    HW235856   4.388   2.566   9.761 -0.7580 -1.0055 -0.4217
 8075SOL     OW35857   2.806   0.961   8.928 -0.3576 -0.4255 -0.1495
 8075SOL    HW135858   2.844   0.877   8.899 -0.1322  0.1812 -1.6367
 8075SOL    HW235859   2.761   0.984   8.847 -3.1174 -3.9499  0.3995
 8076SOL     OW35860   2.918   4.280   4.412 -0.6971  0.3686 -0.4931
 8076SOL    HW135861   2.901   4.239   4.497  0.6867 -0.4113 -0.5872
 8076SOL    HW235862   2.999   4.234   4.389 -0.1508 -0.2945  2.7638
 8077SOL     OW35863   3.773   4.145   2.927 -0.0440  0.2636  0.0878
 8077SOL    HW135864   3.764   4.051   2.937  0.0658  0.0957 -1.3482
 8077SOL    HW235865   3.708   4.140   2.857 -0.0431  0.2681  0.0867
 8078SOL     OW35866   4.699   4.245   2.669 -0.6347 -0.6007 -0.0777
 8078SOL    HW135867   4.623   4.263   2.724 -0.5560  0.7016 -0.3875
 8078SOL    HW235868   0.032   4.275   2.725 -1.3596 -2.9580  2.0998
 8079SOL     OW35869   3.536   4.504  15.255  0.2890  0.8766  0.2751
 8079SOL    HW135870   3.525   4.418  15.296  0.4881  0.6275 -0.1896
 8079SOL    HW235871   3.632   4.514  15.250  0.5270 -1.4786  0.1054
 8080SOL     OW35872   0.942   1.070   2.003  1.0711 -0.2597 -0.1799
 8080SOL    HW135873   0.974   1.132   1.937 -1.1439  0.1886 -0.8033
 8080SOL    HW235874   1.025   1.060   2.050  0.2094  1.4008  1.7070
 8081SOL     OW35875   4.637   0.953   4.894 -0.3175  0.6081 -1.0266
 8081SOL    HW135876   4.657   1.027   4.836  2.3687 -0.2508 -1.1697
 8081SOL    HW235877   4.631   0.879   4.834  3.3109 -1.0698  0.6881
 8082SOL     OW35878   0.314   3.968   6.937  0.5403 -0.3848  0.4296
 8082SOL    HW135879   0.370   4.017   6.997  2.1181  2.2577 -3.1569
 8082SOL    HW235880   0.237   3.965   6.993 -0.9418 -0.4792 -1.6201
 8083SOL     OW35881   1.356   1.825   6.505  0.7757 -0.1377  0.0998
 8083SOL    HW135882   1.316   1.738   6.498  1.9704 -0.7352  0.6856
 8083SOL    HW235883   1.387   1.844   6.416 -2.6795  1.8554 -0.6665
 8084SOL     OW35884   0.519   3.912   3.494 -0.1706  0.1765  0.2481
 8084SOL    HW135885   0.451   3.907   3.562  0.5942  2.0420  1.1690
 8084SOL    HW235886   0.482   3.979   3.435  1.9364 -0.4227 -1.7296
 8085SOL     OW35887   0.067   0.738   9.075  0.1194 -0.2971  0.4601
 8085SOL    HW135888   0.107   0.668   9.025 -0.7116  0.0016 -0.6392
 8085SOL    HW235889   0.053   0.802   9.005  2.2752 -0.8982 -0.5054
 8086SOL     OW35890   2.635   2.292   8.854 -0.3537 -0.5484  0.4387
 8086SOL    HW135891   2.656   2.349   8.781  0.7534 -1.2146  0.2365
 8086SOL    HW235892   2.716   2.244   8.872 -1.3986 -2.4397  0.1800
 8087SOL     OW35893   3.682   4.300   3.796 -0.3118 -0.0898 -0.1223
 8087SOL    HW135894   3.681   4.394   3.777 -1.0248 -0.3035 -1.1542
 8087SOL    HW235895   3.777   4.292   3.797 -0.2758  0.4883  0.8394
 8088SOL     OW35896   4.728   0.644  16.570 -0.4664 -0.1459  0.3306
 8088SOL    HW135897   4.650   0.699  16.562 -0.2402  0.0202 -0.7456
 8088SOL    HW235898   0.051   0.710  16.602  1.2915 -1.5280 -0.1576
 8089SOL     OW35899   1.746   1.392  15.773 -0.0163 -0.0079 -0.0439
 8089SOL    HW135900   1.761   1.485  15.755 -0.8175  0.1933  0.3490
 8089SOL    HW235901   1.838   1.364  15.773  0.1443  0.5019 -1.8647
 8090SOL     OW35902   1.128   4.094  15.996 -0.2967 -0.1024  0.3712
 8090SOL    HW135903   1.168   4.180  15.982 -0.3325 -0.2193 -0.4306
 8090SOL    HW235904   1.092   4.084  15.908 -1.3828  0.7165  0.7133
 8091SOL     OW35905   1.999   2.400  10.470  0.3406 -0.5683  0.9916
 8091SOL    HW135906   2.046   2.439  10.544  2.4057  0.2688 -0.7955
 8091SOL    HW235907   1.945   2.341  10.522 -1.3332 -0.3590 -0.4998
 8092SOL     OW35908   0.600   3.900  10.839  0.8820  0.8414 -0.1185
 8092SOL    HW135909   0.683   3.865  10.805  1.3121  1.3008  0.4523
 8092SOL    HW235910   0.542   3.864  10.772 -1.2750  1.3545  1.5032
 8093SOL     OW35911   1.269   4.671   7.762 -0.0026 -0.9421  0.2266
 8093SOL    HW135912   1.280   4.722   7.842 -0.3283 -1.0162  0.3167
 8093SOL    HW235913   1.219   4.592   7.781 -3.8509  1.9649  2.3068
 8094SOL     OW35914   3.716   1.309  11.447  0.0772 -0.1122  0.1736
 8094SOL    HW135915   3.761   1.225  11.437 -0.7208 -0.0915 -3.9504
 8094SOL    HW235916   3.789   1.370  11.439 -1.1314  1.6646  2.6991
 8095SOL     OW35917   0.524   2.488   7.273 -0.5658  0.1098  0.0880
 8095SOL    HW135918   0.487   2.548   7.337 -0.4308  1.0999 -0.7596
 8095SOL    HW235919   0.505   2.404   7.315  0.2865 -2.0532 -3.7771
 8096SOL     OW35920   3.289   4.637   8.703  0.1260 -0.2260  0.0523
 8096SOL    HW135921   3.208   4.656   8.657  0.3911  0.1957 -0.2370
 8096SOL    HW235922   3.333   4.583   8.637  0.2528  1.3080 -1.1037
 8097SOL     OW35923   1.489   1.081  15.595 -0.5287 -0.2882  0.1558
 8097SOL    HW135924   1.474   0.987  15.602  2.6653 -0.8677 -0.6437
 8097SOL    HW235925   1.444   1.104  15.514  2.5444 -0.1932 -1.5392
 8098SOL     OW35926   1.218   1.371  17.294 -0.0359 -0.2426 -0.2958
 8098SOL    HW135927   1.292   1.352  17.352 -0.8236 -1.0803  0.4257
 8098SOL    HW235928   1.146   1.405  17.347  0.1701 -0.6428  0.2419
 8099SOL     OW35929   3.033   0.301   2.180 -0.5474 -0.5161  0.3930
 8099SOL    HW135930   2.941   0.287   2.157 -0.2498  1.5134 -1.9719
 8099SOL    HW235931   3.027   0.350   2.262 -0.2776  0.8036 -0.3947
 8100SOL     OW35932   3.932   2.712   8.836  0.2372  0.2540  0.4399
 8100SOL    HW135933   3.886   2.709   8.751  2.3565  3.5719 -0.8289
 8100SOL    HW235934   3.924   2.621   8.865 -0.6107 -0.1975 -1.1851
 8101SOL     OW35935   1.518   4.127  10.124  0.3002 -0.5417 -0.3298
 8101SOL    HW135936   1.429   4.131  10.158  0.0061  3.1915 -1.5466
 8101SOL    HW235937   1.510   4.062  10.054 -0.2832  1.5299 -2.1796
 8102SOL     OW35938   3.999   0.581   1.410 -0.4944  0.4090  0.0187
 8102SOL    HW135939   3.944   0.602   1.486  1.2023  1.4053  0.9829
 8102SOL    HW235940   4.066   0.522   1.443  0.0257  0.5708 -0.7595
 8103SOL     OW35941   0.947   2.515   9.119  0.1740  0.1717 -0.2413
 8103SOL    HW135942   0.882   2.447   9.137 -0.3274  1.2366  1.9006
 8103SOL    HW235943   1.025   2.464   9.097  0.3281 -0.3477  1.4858
 8104SOL     OW35944   3.572   0.276   7.406  0.0676 -0.4244  0.1160
 8104SOL    HW135945   3.498   0.313   7.360  0.5015 -1.2955 -1.2697
 8104SOL    HW235946   3.621   0.224   7.342 -0.1988  0.0540 -0.4746
 8105SOL     OW35947   3.518   2.451   7.038 -0.8803  0.6990 -0.1454
 8105SOL    HW135948   3.436   2.436   6.991  0.0459 -0.5475 -1.3235
 8105SOL    HW235949   3.556   2.520   6.983 -1.7816  1.1323 -0.2235
 8106SOL     OW35950   3.899   0.622   7.234 -0.7063 -0.1861 -1.1458
 8106SOL    HW135951   3.903   0.708   7.275  0.9443  0.2848 -2.3103
 8106SOL    HW235952   3.961   0.569   7.284  0.3124  0.3562 -1.8516
 8107SOL     OW35953   3.252   2.425  10.024  0.2372 -0.2423  0.5081
 8107SOL    HW135954   3.265   2.369  10.100  1.9547 -0.2778  0.1800
 8107SOL    HW235955   3.336   2.415   9.978  0.0950  3.1758 -0.4908
 8108SOL     OW35956   1.436   2.431   6.749 -0.0348 -0.3217  0.5535
 8108SOL    HW135957   1.508   2.411   6.809  0.8378 -0.1654 -0.4287
 8108SOL    HW235958   1.370   2.459   6.812 -0.5773 -0.3953  0.0131
 8109SOL     OW35959   4.160   2.573   7.393 -0.6103  0.2602 -0.3502
 8109SOL    HW135960   4.242   2.528   7.412 -0.4199  0.7169 -0.0821
 8109SOL    HW235961   4.104   2.514   7.444 -0.8302 -0.0353 -0.9292
 8110SOL     OW35962   3.194   2.029   5.021  0.1792  0.1813 -0.3483
 8110SOL    HW135963   3.279   2.032   4.977  0.6675 -0.2487  0.5671
 8110SOL    HW235964   3.191   1.939   5.054  0.8604  0.7934  1.4175
 8111SOL     OW35965   3.122   2.178  13.484 -0.2287  0.1366 -0.3381
 8111SOL    HW135966   3.051   2.239  13.505  0.8495  1.0007  0.7846
 8111SOL    HW235967   3.189   2.235  13.446  2.1740 -2.6860 -0.3132
 8112SOL     OW35968   4.507   2.838   0.127  0.5355  0.0512 -0.5614
 8112SOL    HW135969   4.551   2.922   0.117  0.7874  0.0475  0.4955
 8112SOL    HW235970   4.429   2.862   0.176 -0.2320 -0.2311 -1.6355
 8113SOL     OW35971   4.061   3.258   6.107 -0.6235 -0.7244  0.5406
 8113SOL    HW135972   4.148   3.236   6.075 -0.4667  3.1393 -1.6734
 8113SOL    HW235973   4.050   3.339   6.057  0.8134 -0.5781  0.4581
 8114SOL     OW35974   0.212   3.200  12.835 -0.9583 -0.2842  0.2548
 8114SOL    HW135975   0.280   3.268  12.830 -0.1235 -1.1862 -0.6714
 8114SOL    HW235976   0.249   3.130  12.781  0.3104  0.8534 -0.3464
 8115SOL     OW35977   2.472   4.027   1.677 -0.0825 -0.2034  0.1503
 8115SOL    HW135978   2.502   4.010   1.767 -0.8508  0.3210  0.5005
 8115SOL    HW235979   2.457   4.121   1.673 -2.3899 -0.6611 -1.4026
 8116SOL     OW35980   2.539   4.558   1.381  0.4526  0.3476  0.3098
 8116SOL    HW135981   2.605   4.492   1.399 -0.4557 -0.5217  0.4663
 8116SOL    HW235982   2.478   4.507   1.328 -0.7421  0.5685  1.4753
 8117SOL     OW35983   0.813   2.770   4.896 -0.1961  0.6299 -0.0953
 8117SOL    HW135984   0.869   2.710   4.847  0.2173  1.4310 -0.6158
 8117SOL    HW235985   0.737   2.712   4.902 -1.0307  1.8095  0.7259
 8118SOL     OW35986   2.508   1.920   1.902 -0.0850 -0.0565  0.1453
 8118SOL    HW135987   2.485   1.827   1.903 -1.1982  0.1994 -1.3656
 8118SOL    HW235988   2.601   1.914   1.927 -0.6894 -2.1824  1.8926
 8119SOL     OW35989   2.458   0.333   5.423  0.6787  0.8078  0.0305
 8119SOL    HW135990   2.519   0.315   5.351  2.1012  3.7103  0.4963
 8119SOL    HW235991   2.389   0.270   5.402 -1.0196  1.0782  4.7089
 8120SOL     OW35992   3.276   1.319   7.330 -0.4825  0.6328  0.2896
 8120SOL    HW135993   3.344   1.294   7.267 -0.5628 -1.4638  1.0608
 8120SOL    HW235994   3.208   1.372   7.288 -0.7892  0.0143  0.0085
 8121SOL     OW35995   4.492   3.537   3.160  0.0211  0.4983  0.4174
 8121SOL    HW135996   4.555   3.465   3.163 -0.7805 -0.2415 -0.4160
 8121SOL    HW235997   4.542   3.619   3.159 -0.8467  1.0261  0.3744
 8122SOL     OW35998   1.434   0.397   7.936  0.0111 -0.2392  0.0982
 8122SOL    HW135999   1.493   0.359   7.871 -0.3465  1.5363 -1.2789
 8122SOL    HW236000   1.476   0.482   7.948 -1.2614  0.5700 -1.1451
 8123SOL     OW36001   4.417   3.844   2.040 -0.3545  0.2489 -0.1648
 8123SOL    HW136002   4.367   3.920   2.068 -0.3763  1.2334 -2.8818
 8123SOL    HW236003   4.413   3.864   1.947  1.0828  1.5645  0.0557
 8124SOL     OW36004   2.226   0.930   3.457  0.2615  0.1499  0.2164
 8124SOL    HW136005   2.142   0.887   3.469  0.6883 -1.1325 -1.4026
 8124SOL    HW236006   2.200   0.999   3.396  1.4646  2.7758  2.6657
 8125SOL     OW36007   0.477   0.688  14.529 -0.1832 -0.5005  0.2424
 8125SOL    HW136008   0.485   0.667  14.436 -1.2400 -1.7750  0.4417
 8125SOL    HW236009   0.561   0.658  14.564  0.0910 -2.3855 -2.0454
 8126SOL     OW36010   1.360   0.198   9.515  0.0510 -0.2809 -0.2565
 8126SOL    HW136011   1.343   0.291   9.525 -2.2920 -0.6228 -1.0756
 8126SOL    HW236012   1.331   0.173   9.428 -2.9508 -1.3375  1.0445
 8127SOL     OW36013   4.397   3.168  17.734 -0.1545  0.1568 -0.0514
 8127SOL    HW136014   4.348   3.249  17.718 -0.8201  0.3341  2.9694
 8127SOL    HW236015   4.491   3.187  17.723 -0.3193 -0.0123 -1.7524
 8128SOL     OW36016   4.224   0.911   7.366  0.5178 -0.3220  0.6575
 8128SOL    HW136017   4.243   0.842   7.429  2.4867 -0.7957 -0.4420
 8128SOL    HW236018   4.205   0.982   7.428  1.1724  0.6397 -0.2288
 8129SOL     OW36019   0.270   0.722   7.639  0.0686 -0.3605 -0.1881
 8129SOL    HW136020   0.314   0.639   7.653 -1.0407 -0.7053  1.3055
 8129SOL    HW236021   0.212   0.727   7.716  2.3143 -0.0515  1.4610
 8130SOL     OW36022   1.052   4.279   2.450 -0.0516  0.1969 -0.2311
 8130SOL    HW136023   0.971   4.245   2.486  0.3303 -0.0989  0.3436
 8130SOL    HW236024   1.030   4.314   2.363 -0.8055 -1.4948 -0.7208
 8131SOL     OW36025   1.544   0.621  10.148  0.7457  0.2865 -0.4622
 8131SOL    HW136026   1.553   0.533  10.110 -1.3299 -0.8185  1.6561
 8131SOL    HW236027   1.470   0.597  10.203 -0.2005  1.1510 -1.3613
 8132SOL     OW36028   1.523   3.693   5.901 -0.2873  0.5157 -0.4114
 8132SOL    HW136029   1.436   3.661   5.926 -0.3763  1.6647  0.7155
 8132SOL    HW236030   1.534   3.670   5.809  0.7461 -1.5460  0.2214
 8133SOL     OW36031   2.940   1.057   6.964  0.1186 -0.4182  0.4495
 8133SOL    HW136032   3.010   1.083   7.024 -0.6288  0.6874  0.8531
 8133SOL    HW236033   2.957   1.121   6.894 -1.7750 -0.1057  0.2577
 8134SOL     OW36034   4.418   1.399   2.692 -0.5832  0.1090  0.2631
 8134SOL    HW136035   4.362   1.386   2.768  0.5575  0.7431  1.2067
 8134SOL    HW236036   4.365   1.449   2.630 -1.9219 -0.1806  1.1937
 8135SOL     OW36037   1.536   3.076   7.959 -0.2759  0.1318  0.0438
 8135SOL    HW136038   1.629   3.098   7.961  0.0129 -1.1664  1.1168
 8135SOL    HW236039   1.522   3.015   8.032  0.6772 -0.7261 -0.4884
 8136SOL     OW36040   3.397   2.123   5.749 -0.1150  0.1754 -0.0772
 8136SOL    HW136041   3.329   2.185   5.726 -1.9771 -1.9626 -0.3393
 8136SOL    HW236042   3.426   2.163   5.831  4.2070  0.8016 -1.8917
 8137SOL     OW36043   4.534   3.862   1.244 -0.2814 -0.0287  0.2605
 8137SOL    HW136044   4.473   3.922   1.202  1.2686  1.7356  0.5207
 8137SOL    HW236045   4.504   3.864   1.335  0.8312 -0.6310  0.6439
 8138SOL     OW36046   1.344   3.752  14.633 -0.0001  0.2340  0.0736
 8138SOL    HW136047   1.390   3.836  14.628 -0.4672  0.6337  2.3634
 8138SOL    HW236048   1.359   3.722  14.544  2.7355 -1.6697  1.1548
 8139SOL     OW36049   0.451   3.523   1.609 -0.1455  0.1611  0.5447
 8139SOL    HW136050   0.427   3.433   1.629 -0.4960  0.8389  3.1071
 8139SOL    HW236051   0.527   3.531   1.666  0.0683 -1.7320  0.5212
 8140SOL     OW36052   3.463   2.180   4.475  0.0449  0.4430 -0.1033
 8140SOL    HW136053   3.368   2.189   4.481  0.0736  0.1077  0.9090
 8140SOL    HW236054   3.467   2.129   4.394 -1.4408  0.9670 -0.4975
 8141SOL     OW36055   2.355   1.454   4.514  0.1385 -0.1966  0.5289
 8141SOL    HW136056   2.363   1.523   4.449  1.0295 -0.6489  0.1592
 8141SOL    HW236057   2.277   1.406   4.486  0.7539  0.4525 -2.3412
 8142SOL     OW36058   4.579   2.414   9.249  0.4036 -0.1473  0.3236
 8142SOL    HW136059   4.601   2.480   9.184 -2.3403 -1.3360 -1.7782
 8142SOL    HW236060   4.529   2.465   9.314  0.1189  1.6416 -1.3118
 8143SOL     OW36061   3.568   2.258   2.652  0.1870 -0.5622 -0.1402
 8143SOL    HW136062   3.604   2.292   2.734  2.3774 -1.0740 -0.8796
 8143SOL    HW236063   3.633   2.189   2.635  0.5340 -0.2967  0.1105
 8144SOL     OW36064   3.761   2.791  16.305 -0.3205  0.1451  0.7678
 8144SOL    HW136065   3.815   2.838  16.368  0.7787 -0.1100  0.0108
 8144SOL    HW236066   3.758   2.847  16.228  0.7012 -0.2477  0.4428
 8145SOL     OW36067   3.437   3.314   6.633 -0.2971  0.6709 -0.4509
 8145SOL    HW136068   3.384   3.255   6.579 -2.8495  4.9615 -2.6827
 8145SOL    HW236069   3.479   3.378   6.575  1.6889  0.2982  0.5756
 8146SOL     OW36070   3.059   1.679   3.444  0.2313 -0.1103 -0.3711
 8146SOL    HW136071   3.131   1.689   3.506  2.4431 -0.0863 -2.9581
 8146SOL    HW236072   3.012   1.602   3.475 -2.2731  2.2455  1.7642
 8147SOL     OW36073   1.472   2.948   6.368  0.6044  0.4693 -0.3375
 8147SOL    HW136074   1.513   3.011   6.309  0.1149 -0.4519 -1.6423
 8147SOL    HW236075   1.490   2.861   6.332 -0.1915 -0.3964  1.3611
 8148SOL     OW36076   0.214   0.433   4.181 -0.2222 -0.0167 -0.7670
 8148SOL    HW136077   0.198   0.406   4.091  0.4239  0.0963 -0.9122
 8148SOL    HW236078   0.290   0.489   4.165  0.3913 -0.7510 -0.4395
 8149SOL     OW36079   2.052   1.347   3.414  0.4768 -0.5975 -0.5874
 8149SOL    HW136080   2.054   1.400   3.495 -1.7737  0.3270 -1.1442
 8149SOL    HW236081   2.147   1.347   3.399  0.1613 -1.9856 -2.4710
 8150SOL     OW36082   4.458   3.652   5.575  0.0875 -0.7996 -0.2155
 8150SOL    HW136083   4.495   3.740   5.573  1.9728 -1.5535  0.5346
 8150SOL    HW236084   4.377   3.661   5.525 -1.1063 -1.0754  1.7042
 8151SOL     OW36085   0.670   4.378   5.352 -0.4116  0.4641  0.7383
 8151SOL    HW136086   0.673   4.416   5.440 -0.7517  0.8035  0.6023
 8151SOL    HW236087   0.576   4.383   5.332  0.0792 -1.2140 -2.0183
 8152SOL     OW36088   4.126   2.455   2.922 -0.4646  0.3904 -0.0190
 8152SOL    HW136089   4.071   2.390   2.966 -1.3593  1.0563 -0.1530
 8152SOL    HW236090   4.189   2.477   2.991 -0.0035 -1.3770  0.1186
 8153SOL     OW36091   3.161   1.951   5.723  0.2976  0.4432  0.2928
 8153SOL    HW136092   3.187   1.870   5.765  1.9242 -0.0261 -1.6090
 8153SOL    HW236093   3.242   1.999   5.706  0.4415  0.1809  0.2443
 8154SOL     OW36094   4.082   3.980  14.660 -0.2424 -0.0944 -0.2788
 8154SOL    HW136095   3.996   3.974  14.702  0.5813 -0.2928  1.3837
 8154SOL    HW236096   4.130   3.911  14.706 -0.3268  0.7490  1.1005
 8155SOL     OW36097   1.228   2.517   9.899  0.0222 -0.2402  0.0545
 8155SOL    HW136098   1.280   2.591   9.868  1.7543 -1.0759  0.9727
 8155SOL    HW236099   1.301   2.456   9.908 -1.7043 -1.8618  3.4962
 8156SOL     OW36100   0.611   0.543   5.882 -0.0955  0.0938  0.6437
 8156SOL    HW136101   0.568   0.520   5.964 -2.6129 -3.0536 -1.5667
 8156SOL    HW236102   0.701   0.553   5.912  1.2172  0.0522 -3.2997
 8157SOL     OW36103   2.332   1.900   5.023  0.1029  0.0816  0.7576
 8157SOL    HW136104   2.395   1.845   5.071  1.2526 -0.3476 -1.2602
 8157SOL    HW236105   2.323   1.976   5.081 -1.4716  1.5978 -1.5098
 8158SOL     OW36106   0.935   2.427   5.207  0.1253 -0.3002 -0.2751
 8158SOL    HW136107   0.911   2.395   5.120 -0.6343  1.0780 -0.5717
 8158SOL    HW236108   0.997   2.491   5.172  3.3042 -2.5784  1.1182
 8159SOL     OW36109   0.161   4.580   7.085 -0.4171  0.1903  0.0966
 8159SOL    HW136110   0.206   4.504   7.124  0.5107 -0.2020 -1.7359
 8159SOL    HW236111   0.121   4.544   7.006  1.3852  2.2137 -1.7312
 8160SOL     OW36112   4.042   0.040  16.758 -0.4921 -0.4706  0.3178
 8160SOL    HW136113   4.113   0.089  16.800 -1.1694 -0.4874  1.5066
 8160SOL    HW236114   4.026   0.095  16.682 -0.1116 -0.4604  0.2477
 8161SOL     OW36115   3.820   4.375   3.389 -0.0889 -0.4528  0.0496
 8161SOL    HW136116   3.876   4.317   3.337 -0.9837  0.8236 -2.3394
 8161SOL    HW236117   3.883   4.408   3.452  1.8639  1.0926 -2.7324
 8162SOL     OW36118   0.924   0.839   1.682  0.0175 -0.5726  0.1016
 8162SOL    HW136119   0.990   0.822   1.749  0.9608  1.2147 -0.3628
 8162SOL    HW236120   0.979   0.866   1.608  0.1667 -0.5262  0.2314
 8163SOL     OW36121   4.161   0.698   3.621 -0.0084  0.0847  0.6723
 8163SOL    HW136122   4.237   0.736   3.667 -0.0403 -1.3441  1.8964
 8163SOL    HW236123   4.166   0.603   3.631  0.7527 -0.0391 -0.8388
 8164SOL     OW36124   0.832   0.686  16.970 -0.3718  0.0507 -0.4097
 8164SOL    HW136125   0.877   0.668  17.052 -0.9500  1.1763  0.1549
 8164SOL    HW236126   0.738   0.691  16.989 -0.4638 -1.6107 -0.3800
 8165SOL     OW36127   1.199   4.367  15.842  0.3822  0.1516  0.1113
 8165SOL    HW136128   1.142   4.397  15.913 -3.1305 -0.4651 -2.4504
 8165SOL    HW236129   1.260   4.441  15.849  1.3911 -0.8478  1.8134
 8166SOL     OW36130   1.699   0.353   7.747  0.4993 -0.2714  0.1482
 8166SOL    HW136131   1.748   0.436   7.746 -1.3113  0.7853 -1.9370
 8166SOL    HW236132   1.717   0.331   7.655  1.3313  2.3355 -0.3106
 8167SOL     OW36133   2.380   0.995   8.893 -0.5034 -0.5639 -0.3348
 8167SOL    HW136134   2.445   1.000   8.824 -1.8715 -1.6779 -1.7104
 8167SOL    HW236135   2.398   0.906   8.923  0.8616 -0.0518  0.3669
 8168SOL     OW36136   3.155   2.122   0.593  0.5207 -0.5639  0.2867
 8168SOL    HW136137   3.199   2.128   0.678  0.6337  0.8811  0.1197
 8168SOL    HW236138   3.225   2.082   0.541  0.3440 -1.7823  0.9738
 8169SOL     OW36139   1.314   0.441   2.869 -0.0739 -0.2326 -0.3660
 8169SOL    HW136140   1.248   0.405   2.810  2.2799 -1.9060 -1.9452
 8169SOL    HW236141   1.256   0.481   2.934  1.6851  0.1788  0.9336
 8170SOL     OW36142   2.827   4.626  13.503  0.2393  0.6822  0.1301
 8170SOL    HW136143   2.875   4.600  13.424 -2.6619  1.3572 -1.8307
 8170SOL    HW236144   2.740   4.602  13.473  0.9383 -2.4571  0.5541
 8171SOL     OW36145   3.039   0.692   2.091  0.3808  0.6841 -0.2401
 8171SOL    HW136146   2.986   0.771   2.104 -0.3615  0.3504 -1.2356
 8171SOL    HW236147   3.086   0.687   2.174  0.8735 -0.8358 -0.6119
 8172SOL     OW36148   3.698   1.348  17.318 -0.1804 -0.2450 -0.0022
 8172SOL    HW136149   3.791   1.363  17.331 -0.2131 -0.7728  0.8207
 8172SOL    HW236150   3.670   1.340  17.409 -1.2606  1.4449 -0.1723
 8173SOL     OW36151   2.291   3.328   5.807  0.5065  0.3950  0.7033
 8173SOL    HW136152   2.297   3.239   5.841  0.0180  1.6319  4.0079
 8173SOL    HW236153   2.289   3.306   5.714  1.0519 -0.4348  0.8953
 8174SOL     OW36154   3.748   1.183   4.980  0.5994 -0.1619 -0.5620
 8174SOL    HW136155   3.812   1.228   5.036 -0.0862  0.2046 -0.0648
 8174SOL    HW236156   3.710   1.265   4.948 -1.9348 -0.3265  1.9797
 8175SOL     OW36157   2.592   0.350   8.837  0.1658 -0.3605 -0.1580
 8175SOL    HW136158   2.629   0.383   8.919  3.7933  0.5045 -2.1068
 8175SOL    HW236159   2.599   0.256   8.849 -1.0084 -0.7327 -2.3550
 8176SOL     OW36160   1.927   1.859  13.616 -0.3225 -0.4951  0.2085
 8176SOL    HW136161   1.977   1.925  13.567 -1.6709  0.7166  0.4354
 8176SOL    HW236162   1.914   1.789  13.552 -0.6230  0.7198 -1.0915
 8177SOL     OW36163   0.955   0.628   7.444  0.6411 -0.9148  0.1453
 8177SOL    HW136164   0.942   0.534   7.451  0.3604 -0.9450 -0.7941
 8177SOL    HW236165   0.991   0.643   7.532  0.5763  2.6793 -0.4169
 8178SOL     OW36166   0.544   1.803  11.628 -0.0760 -0.0506  0.7206
 8178SOL    HW136167   0.614   1.782  11.565 -0.6567  0.7092 -0.1768
 8178SOL    HW236168   0.507   1.877  11.579  2.1308  0.0064 -0.8981
 8179SOL     OW36169   0.331   4.126   2.184 -0.8390 -0.0830 -0.1957
 8179SOL    HW136170   0.367   4.215   2.188  2.6730 -1.5738  1.0228
 8179SOL    HW236171   0.240   4.142   2.209 -0.4859  0.8269  0.5313
 8180SOL     OW36172   2.964   3.303   2.201 -0.4120  0.3553 -0.1179
 8180SOL    HW136173   2.925   3.217   2.189 -2.0243  0.4567  4.4052
 8180SOL    HW236174   2.995   3.328   2.114 -0.8780 -0.8502 -0.6276
 8181SOL     OW36175   3.651   4.123  12.047  0.1634 -0.2788 -0.6965
 8181SOL    HW136176   3.575   4.066  12.054 -0.9599  1.2792 -0.3585
 8181SOL    HW236177   3.612   4.205  12.018  2.5556  0.9662 -0.4018
 8182SOL     OW36178   0.766   4.286  12.700  0.1289  0.1675  0.1177
 8182SOL    HW136179   0.822   4.350  12.657  1.2903 -0.8939  0.0392
 8182SOL    HW236180   0.698   4.263  12.636  1.6028 -0.4443 -1.2346
 8183SOL     OW36181   2.560   4.258   5.059 -0.0026  0.0144 -0.0725
 8183SOL    HW136182   2.536   4.350   5.050 -0.2118 -0.0805 -0.4500
 8183SOL    HW236183   2.640   4.261   5.008 -0.4145  2.1565 -0.6126
 8184SOL     OW36184   2.780   2.171   6.341 -0.5690  0.2238 -0.2474
 8184SOL    HW136185   2.853   2.203   6.287 -0.3963 -1.1998 -0.8654
 8184SOL    HW236186   2.752   2.105   6.278 -0.3049 -0.5284  0.4265
 8185SOL     OW36187   3.228   2.048   7.619 -0.4604  0.0962 -0.5903
 8185SOL    HW136188   3.230   1.960   7.583 -0.9293 -0.3708  0.5222
 8185SOL    HW236189   3.136   2.071   7.629  0.1475  0.6451  3.5721
 8186SOL     OW36190   1.635   2.815   7.847  0.4275  0.0266  0.0933
 8186SOL    HW136191   1.684   2.788   7.924  0.1803  1.1228  0.6332
 8186SOL    HW236192   1.558   2.857   7.886 -0.0683 -1.4648  0.7255
 8187SOL     OW36193   2.742   3.321   3.594 -0.1055  0.0209 -0.0721
 8187SOL    HW136194   2.810   3.321   3.661 -1.2713  0.8555  1.1203
 8187SOL    HW236195   2.792   3.313   3.513 -0.3627  0.1757 -0.2458
 8188SOL     OW36196   2.589   3.956   5.626  0.7611 -0.1180 -0.2287
 8188SOL    HW136197   2.681   3.935   5.639  1.1217  1.2412 -0.6384
 8188SOL    HW236198   2.579   3.901   5.549 -0.5032  0.9914 -0.8598
 8189SOL     OW36199   2.819   2.489   9.669  0.3882  0.2081 -0.3601
 8189SOL    HW136200   2.768   2.481   9.750  0.6672 -1.7048 -0.3838
 8189SOL    HW236201   2.900   2.446   9.697  0.3458  0.9803  0.9607
 8190SOL     OW36202   0.775   4.428  17.032  0.0181  0.6743 -0.2361
 8190SOL    HW136203   0.790   4.492  17.103 -0.0020  1.4920 -0.9662
 8190SOL    HW236204   0.692   4.460  16.998  0.5881 -0.0458 -2.2690
 8191SOL     OW36205   3.792   0.670  16.778  0.7709  0.7746 -0.1728
 8191SOL    HW136206   3.847   0.678  16.857  1.2821 -1.9164 -0.2681
 8191SOL    HW236207   3.847   0.714  16.713  0.4250  2.0519  0.3854
 8192SOL     OW36208   0.869   4.672   7.879 -0.3879  0.4181 -0.0158
 8192SOL    HW136209   0.798   4.659   7.816  1.0325 -1.0458 -1.3334
 8192SOL    HW236210   0.932   4.720   7.825  0.0264 -3.6429 -3.1749
 8193SOL     OW36211   1.414   1.580   9.472  0.0017 -0.2861 -0.5350
 8193SOL    HW136212   1.362   1.502   9.492  1.1409 -1.0995 -0.7662
 8193SOL    HW236213   1.461   1.592   9.554  0.6679 -0.7552 -0.8472
 8194SOL     OW36214   1.216   4.076   1.424  0.5422  0.0987 -0.5992
 8194SOL    HW136215   1.135   4.117   1.394  1.9250  0.5546 -3.6982
 8194SOL    HW236216   1.181   3.986   1.427 -0.0723  0.3169 -1.1465
 8195SOL     OW36217   1.981   0.969   7.913  0.7322 -0.0313  0.0937
 8195SOL    HW136218   2.034   1.035   7.869 -1.5679  1.3118 -0.6505
 8195SOL    HW236219   2.002   0.985   8.006 -1.4766 -1.5816  0.8665
 8196SOL     OW36220   3.338   1.259   8.082  0.1609  0.2977 -0.3054
 8196SOL    HW136221   3.278   1.324   8.118  3.3836  1.4935  2.9345
 8196SOL    HW236222   3.318   1.263   7.989 -3.7954  0.9581  0.5791
 8197SOL     OW36223   2.913   4.362   4.040  0.4049 -0.0860  0.6904
 8197SOL    HW136224   2.974   4.311   4.093 -0.0582 -0.9530  0.3765
 8197SOL    HW236225   2.975   4.424   4.001  1.4961 -2.9176 -2.1063
 8198SOL     OW36226   0.988   4.079  13.303 -0.0843  0.6833 -0.5109
 8198SOL    HW136227   0.902   4.089  13.343  0.1184 -0.7213  0.2632
 8198SOL    HW236228   0.961   4.053  13.215 -1.3424  3.1857 -0.8685
 8199SOL     OW36229   2.729   4.174  10.384 -0.2570 -0.7432 -0.5530
 8199SOL    HW136230   2.760   4.140  10.468  0.1732  2.5913  0.6706
 8199SOL    HW236231   2.792   4.147  10.317  0.1978 -3.6945  1.0715
 8200SOL     OW36232   3.273   0.326   3.034  0.2804 -0.4011 -0.1925
 8200SOL    HW136233   3.232   0.326   2.947 -1.8727  1.5039  0.8137
 8200SOL    HW236234   3.237   0.408   3.068 -1.6106 -1.2233 -0.1911
 8201SOL     OW36235   2.636   2.349   9.485 -0.0553 -0.4158 -0.3248
 8201SOL    HW136236   2.673   2.416   9.542 -0.3347 -0.0583 -0.5625
 8201SOL    HW236237   2.627   2.269   9.537 -1.3297  0.0660  0.1904
 8202SOL     OW36238   3.836   0.274   9.077 -0.1054  0.1840 -0.1830
 8202SOL    HW136239   3.870   0.336   9.141 -0.7632 -1.4697  1.7420
 8202SOL    HW236240   3.784   0.221   9.137 -1.5235  5.0806  2.9052
 8203SOL     OW36241   0.483   1.337   6.881  0.0919  0.4255 -0.2341
 8203SOL    HW136242   0.520   1.249   6.887  0.3183  0.3764 -2.3265
 8203SOL    HW236243   0.396   1.324   6.919  0.7368 -0.9976  0.7641
 8204SOL     OW36244   2.071   0.838   5.380  0.6175 -0.7358 -0.3476
 8204SOL    HW136245   2.002   0.905   5.374 -0.0915 -1.7078 -2.9673
 8204SOL    HW236246   2.036   0.766   5.433 -0.0044  0.3239  0.6810
 8205SOL     OW36247   4.386   1.784  13.131 -0.4479  0.5289 -0.4933
 8205SOL    HW136248   4.453   1.754  13.192 -0.9846 -0.9959 -0.6444
 8205SOL    HW236249   4.348   1.849  13.190 -0.4938  0.4696 -0.4569
 8206SOL     OW36250   3.278   1.992  13.239 -0.1912  0.0653  0.3038
 8206SOL    HW136251   3.285   2.058  13.170 -0.5823 -1.1345 -0.8879
 8206SOL    HW236252   3.313   1.916  13.193  1.5574  1.3583 -0.5004
 8207SOL     OW36253   1.859   3.305  15.600 -0.1702  0.1114  0.4676
 8207SOL    HW136254   1.828   3.291  15.689  1.2200 -0.3178  0.8966
 8207SOL    HW236255   1.928   3.370  15.614 -2.7745  2.7875  0.5402
 8208SOL     OW36256   1.221   3.053   8.856 -0.0287  0.5082  0.7016
 8208SOL    HW136257   1.154   3.017   8.799  0.5447  0.9192 -0.2234
 8208SOL    HW236258   1.172   3.100   8.925  3.3006  2.0659  2.0022
 8209SOL     OW36259   2.120   2.936  14.487  0.1678  0.0199  0.5208
 8209SOL    HW136260   2.129   2.992  14.410 -1.8241 -0.6096 -0.1681
 8209SOL    HW236261   2.207   2.895  14.489  0.4847  0.6805 -0.0829
 8210SOL     OW36262   0.853   0.632   8.137 -0.2231 -0.6366 -0.0838
 8210SOL    HW136263   0.769   0.678   8.139  0.2629  0.3043 -0.8657
 8210SOL    HW236264   0.921   0.700   8.143 -0.0352 -0.8324  0.0112
 8211SOL     OW36265   0.746   0.356  13.659  0.2088  0.1457  0.0211
 8211SOL    HW136266   0.735   0.433  13.716 -1.5115  0.4267 -0.6695
 8211SOL    HW236267   0.725   0.392  13.573  0.3645 -0.3596 -0.2258
 8212SOL     OW36268   3.495   3.879   7.680  0.4079 -0.1708 -0.5134
 8212SOL    HW136269   3.450   3.953   7.639  0.7100  0.2235 -0.1214
 8212SOL    HW236270   3.423   3.860   7.741  0.3319 -1.0900 -0.8780
 8213SOL     OW36271   1.883   0.712   8.516 -0.5279 -0.0545 -0.3168
 8213SOL    HW136272   1.945   0.760   8.571 -1.0340  1.6613 -1.2639
 8213SOL    HW236273   1.911   0.621   8.529 -1.6796 -0.3227  0.3824
 8214SOL     OW36274   1.700   4.205   2.904  0.2319  0.0224  0.7081
 8214SOL    HW136275   1.606   4.185   2.910  0.4524 -0.3180  2.7330
 8214SOL    HW236276   1.735   4.116   2.894 -0.9802 -0.4943  1.0781
 8215SOL     OW36277   3.786   2.811   9.704  0.3147  0.2196 -0.1053
 8215SOL    HW136278   3.709   2.754   9.710  0.1026  0.8625  3.0628
 8215SOL    HW236279   3.796   2.843   9.794  1.7871 -2.6504  0.7429
 8216SOL     OW36280   0.794   2.151   6.945 -0.3963  0.1701 -0.2799
 8216SOL    HW136281   0.714   2.197   6.968  0.9882  1.2384  2.3916
 8216SOL    HW236282   0.858   2.200   6.996  2.2921 -2.3589 -1.2073
 8217SOL     OW36283   2.516   0.088  13.842  0.1184 -0.1355 -0.3974
 8217SOL    HW136284   2.599   0.042  13.856  1.0319  1.4934 -0.4037
 8217SOL    HW236285   2.550   0.167  13.799  0.9413 -0.1447  0.2274
 8218SOL     OW36286   0.169   1.081  11.464 -0.3058  0.3709 -0.5723
 8218SOL    HW136287   0.218   1.048  11.539  0.1895 -2.7248 -2.2585
 8218SOL    HW236288   0.153   1.171  11.493  0.9070 -0.7570  3.6206
 8219SOL     OW36289   3.606   0.145   9.936 -0.3086  0.4866  0.1558
 8219SOL    HW136290   3.606   0.241   9.938 -0.5688  0.4795  0.5645
 8219SOL    HW236291   3.648   0.130  10.021  1.4042  0.6972 -0.6620
 8220SOL     OW36292   2.589   4.494  13.669  0.2967  0.5763  0.4279
 8220SOL    HW136293   2.591   4.537  13.755  1.9291  2.1055 -0.3748
 8220SOL    HW236294   2.519   4.550  13.635  0.6047  0.6698 -0.0460
 8221SOL     OW36295   1.530   1.634   3.655 -0.3815 -0.2587  0.8598
 8221SOL    HW136296   1.531   1.684   3.736  0.6673 -0.6159  1.0678
 8221SOL    HW236297   1.610   1.583   3.669 -1.4576 -2.3355 -0.5958
 8222SOL     OW36298   2.080   4.270   3.411  0.7031 -0.0116 -0.4790
 8222SOL    HW136299   2.071   4.356   3.451  1.9155 -0.1983  0.2155
 8222SOL    HW236300   2.170   4.244   3.434 -0.1445 -1.3852  1.3358
 8223SOL     OW36301   3.678   3.416   1.474 -0.5784 -0.5388 -0.4220
 8223SOL    HW136302   3.701   3.467   1.396  0.3046  1.6564  1.2789
 8223SOL    HW236303   3.590   3.384   1.455 -0.3484 -0.2995 -1.9334
 8224SOL     OW36304   0.486   4.391   7.357 -0.2278  0.1798 -0.4710
 8224SOL    HW136305   0.467   4.395   7.451 -0.7941  1.4517 -0.6289
 8224SOL    HW236306   0.552   4.461   7.348  0.7044 -0.8949 -1.9397
 8225SOL     OW36307   0.035   1.145   2.905  0.0691 -0.0597 -0.4341
 8225SOL    HW136308   0.029   1.051   2.887 -0.7134 -0.1481  0.2803
 8225SOL    HW236309   4.715   1.189   2.843 -0.0023  0.4202 -0.0277
 8226SOL     OW36310   2.940   1.362   2.886 -0.0409 -0.3854 -0.4415
 8226SOL    HW136311   2.963   1.300   2.817  2.2281 -0.0226 -0.0249
 8226SOL    HW236312   2.850   1.379   2.859 -0.8008 -1.7338  1.1938
 8227SOL     OW36313   0.523   4.474  16.908  0.1793  0.1085  0.0015
 8227SOL    HW136314   0.432   4.444  16.905 -0.0372  0.6049  1.6839
 8227SOL    HW236315   0.526   4.539  16.839 -0.5037 -2.1851 -2.1824
 8228SOL     OW36316   1.755   2.913  17.748 -0.3260 -0.4079 -0.0364
 8228SOL    HW136317   1.772   2.900  17.655 -3.2657  0.6557 -0.7305
 8228SOL    HW236318   1.830   2.877   0.044 -1.0833  0.9875  2.2679
 8229SOL     OW36319   1.117   0.809   4.422 -0.5775 -0.4265 -0.4669
 8229SOL    HW136320   1.026   0.835   4.407 -1.2426 -4.1825 -2.8859
 8229SOL    HW236321   1.148   0.885   4.471  2.8883 -1.3351 -1.2800
 8230SOL     OW36322   0.396   0.272   7.849  0.1457 -0.0368  0.0985
 8230SOL    HW136323   0.392   0.335   7.921 -1.7673  1.8695 -1.6733
 8230SOL    HW236324   0.375   0.341   7.785  0.0320 -1.4669 -1.3989
 8231SOL     OW36325   3.877   4.057   8.061  0.1566 -0.6872 -0.1989
 8231SOL    HW136326   3.809   4.019   8.005 -1.5463 -0.0972  1.4367
 8231SOL    HW236327   3.869   4.147   8.031 -0.8490 -0.3806  0.9692
 8232SOL     OW36328   2.085   3.121   9.414 -0.6496  0.6673 -0.4651
 8232SOL    HW136329   2.061   3.028   9.412 -1.3256  0.8312 -0.2451
 8232SOL    HW236330   2.051   3.138   9.502  0.0164  1.0102 -0.2752
 8233SOL     OW36331   1.704   4.344   8.677  0.3528  0.2565  0.2133
 8233SOL    HW136332   1.717   4.423   8.626 -2.0443  0.4648 -0.0841
 8233SOL    HW236333   1.617   4.312   8.654 -1.0655  1.2236  4.1945
 8234SOL     OW36334   0.264   2.785   1.968  0.4700 -0.2537  0.2537
 8234SOL    HW136335   0.320   2.799   1.892  0.2537 -2.6620 -0.3601
 8234SOL    HW236336   0.273   2.863   2.023  0.6667  0.9194 -1.4645
 8235SOL     OW36337   0.429   3.437   9.302 -0.2181 -0.4044 -0.8190
 8235SOL    HW136338   0.408   3.528   9.280  1.9989  0.1825 -0.5653
 8235SOL    HW236339   0.356   3.421   9.361  1.3026 -2.0551  0.5929
 8236SOL     OW36340   1.833   2.994   4.093  0.3450  0.2032 -0.3557
 8236SOL    HW136341   1.903   2.940   4.056  0.7295  0.7954 -0.4855
 8236SOL    HW236342   1.823   2.941   4.173  1.4916  0.9801  0.3066
 8237SOL     OW36343   2.755   0.714  16.560 -0.4425  0.0285 -0.1807
 8237SOL    HW136344   2.690   0.644  16.555 -2.0539  1.6944 -2.4044
 8237SOL    HW236345   2.770   0.732  16.467 -1.7630  2.1723  0.0295
 8238SOL     OW36346   3.660   0.449   8.293  0.0003 -0.0703  0.0115
 8238SOL    HW136347   3.711   0.378   8.332  1.3906  0.7600 -0.2833
 8238SOL    HW236348   3.682   0.437   8.201  1.1770 -1.1007  0.4308
 8239SOL     OW36349   0.755   0.936  13.255 -0.6080 -0.5020  0.1060
 8239SOL    HW136350   0.799   0.945  13.171 -1.8484 -0.4036 -0.5375
 8239SOL    HW236351   0.704   1.015  13.269  1.2361  0.6763  0.1190
 8240SOL     OW36352   1.383   0.651   1.911 -0.3610 -0.6245  0.6344
 8240SOL    HW136353   1.410   0.569   1.869  1.7460 -1.8243  4.2995
 8240SOL    HW236354   1.469   0.691   1.925 -0.8844  0.1218  1.7027
 8241SOL     OW36355   0.277   1.989   8.736  0.0442  0.1859 -0.3539
 8241SOL    HW136356   0.191   1.967   8.772  0.5470 -3.2123 -1.2265
 8241SOL    HW236357   0.264   1.944   8.653  0.6355 -1.2734  0.3459
 8242SOL     OW36358   1.770   1.319   7.283  0.2424 -0.3534  0.2857
 8242SOL    HW136359   1.737   1.382   7.220  0.1012 -0.0420  0.6689
 8242SOL    HW236360   1.760   1.372   7.362  2.3252  1.3486 -0.5751
 8243SOL     OW36361   4.703   1.598   2.405 -0.2386 -0.1872  0.8734
 8243SOL    HW136362   4.609   1.612   2.392 -0.2379 -0.4111  0.6266
 8243SOL    HW236363   4.695   1.600   2.501 -0.7181  2.0262  0.7853
 8244SOL     OW36364   1.338   3.657  11.073  0.1204  0.1768  0.4487
 8244SOL    HW136365   1.377   3.744  11.069 -0.3028  0.2555 -1.6561
 8244SOL    HW236366   1.361   3.627  10.985 -0.5549  1.3054 -0.1125
 8245SOL     OW36367   1.280   0.819  17.089  0.6206  0.3084 -0.1146
 8245SOL    HW136368   1.319   0.732  17.074 -0.7723 -0.6358  1.7879
 8245SOL    HW236369   1.324   0.872  17.022 -1.0379 -2.5239 -3.4807
 8246SOL     OW36370   4.659   0.735  17.130 -1.1385 -0.3636  0.1042
 8246SOL    HW136371   4.738   0.762  17.083  0.2350  0.4783  2.9148
 8246SOL    HW236372   4.656   0.825  17.161  0.2876 -0.5791  0.8840
 8247SOL     OW36373   0.034   4.625   7.537 -0.0368 -0.1947 -0.3216
 8247SOL    HW136374   0.118   4.629   7.491 -0.1652  1.4093 -0.4015
 8247SOL    HW236375   0.060   4.621   7.630 -1.0559  1.3865  0.0387
 8248SOL     OW36376   4.047   0.658  12.741  0.3840 -0.3064  0.0263
 8248SOL    HW136377   4.091   0.674  12.658  0.1822 -1.2154 -0.2540
 8248SOL    HW236378   3.959   0.628  12.718 -0.7599  2.4169  0.8514
 8249SOL     OW36379   1.901   0.287  11.537 -0.3471  0.0129 -0.8136
 8249SOL    HW136380   1.969   0.331  11.487 -0.3065  1.5456  0.5954
 8249SOL    HW236381   1.937   0.199  11.546  0.7668  0.5981  0.3787
 8250SOL     OW36382   3.096   3.621   1.042 -0.0034  0.2289 -0.2592
 8250SOL    HW136383   3.065   3.576   1.120 -1.0590  1.9185  0.3068
 8250SOL    HW236384   3.020   3.608   0.984  0.3297  0.3981 -0.7397
 8251SOL     OW36385   0.450   2.354   2.380  0.4920  0.1546  0.2030
 8251SOL    HW136386   0.505   2.432   2.379 -0.1375  0.5941 -1.4450
 8251SOL    HW236387   0.374   2.393   2.336 -0.0682 -1.5871 -0.4005
 8252SOL     OW36388   0.699   2.787   7.166 -0.5310 -0.8019  0.0739
 8252SOL    HW136389   0.655   2.713   7.124  0.6433 -0.6393 -1.4231
 8252SOL    HW236390   0.763   2.793   7.096 -2.8717  1.2231 -1.8923
 8253SOL     OW36391   1.306   3.479   4.875 -0.0406 -0.0591 -0.9730
 8253SOL    HW136392   1.239   3.527   4.923 -0.2988 -0.7375 -0.6560
 8253SOL    HW236393   1.309   3.536   4.798  1.0709 -0.9713 -1.6077
 8254SOL     OW36394   0.055   3.460  10.972  0.4941 -0.6322  0.2254
 8254SOL    HW136395   0.034   3.458  11.066  0.0618  0.8782  0.1458
 8254SOL    HW236396   0.020   3.545  10.948  2.1313  0.2592  0.9262
 8255SOL     OW36397   3.580   1.041   4.398  0.1917  0.3120  1.0387
 8255SOL    HW136398   3.485   1.036   4.408  0.0693  3.2013  1.3086
 8255SOL    HW236399   3.610   1.029   4.308  0.2459  1.7906  0.8534
 8256SOL     OW36400   2.644   1.189   3.287 -0.0457 -0.1778 -0.0924
 8256SOL    HW136401   2.627   1.111   3.235  0.3334 -0.1668 -0.2271
 8256SOL    HW236402   2.722   1.155   3.330 -0.4174  1.3505  1.7881
 8257SOL     OW36403   3.865   0.400   3.182 -0.3649  0.0794 -0.4870
 8257SOL    HW136404   3.898   0.314   3.156  0.4710  0.4645 -0.7336
 8257SOL    HW236405   3.850   0.444   3.098  0.1339  2.1595  0.4960
 8258SOL     OW36406   1.818   4.459   1.779 -0.0914  0.4731 -0.4229
 8258SOL    HW136407   1.765   4.411   1.842  0.7666  0.3821  0.2311
 8258SOL    HW236408   1.862   4.518   1.840  0.8757 -3.0330  2.2984
 8259SOL     OW36409   2.645   2.650   7.318 -0.1841  0.6040 -0.3808
 8259SOL    HW136410   2.607   2.738   7.321  0.6984  0.9794 -0.2095
 8259SOL    HW236411   2.582   2.595   7.271  0.3009 -1.3417  1.2801
 8260SOL     OW36412   1.505   1.588   9.217 -0.2470  0.3410 -0.0845
 8260SOL    HW136413   1.486   1.630   9.301 -1.2560  1.6547 -0.9567
 8260SOL    HW236414   1.522   1.501   9.252 -2.0479 -0.0075 -0.1151
 8261SOL     OW36415   1.267   2.829   6.842  0.1938  0.3658  0.1208
 8261SOL    HW136416   1.284   2.795   6.930  0.3856 -1.6536 -0.7006
 8261SOL    HW236417   1.320   2.769   6.791 -1.4846 -1.1880  0.1844
 8262SOL     OW36418   2.202   1.538  15.892  0.5814 -0.2081 -0.0456
 8262SOL    HW136419   2.230   1.620  15.851  1.5544 -1.5783 -2.0681
 8262SOL    HW236420   2.154   1.493  15.823 -0.8512  2.8606 -1.0569
 8263SOL     OW36421   3.206   0.847   5.371  0.2281  0.0498 -0.5169
 8263SOL    HW136422   3.201   0.841   5.276 -0.5735 -1.5435 -0.3606
 8263SOL    HW236423   3.301   0.843   5.379  0.1157  0.0604  0.8573
 8264SOL     OW36424   4.152   2.213   7.005 -0.1231  0.2302 -0.3409
 8264SOL    HW136425   4.186   2.297   7.035 -1.2693  0.7196 -0.3988
 8264SOL    HW236426   4.105   2.231   6.923 -1.0255  0.2421  0.1760
 8265SOL     OW36427   3.139   2.876   1.733  0.2821  0.3806  0.1093
 8265SOL    HW136428   3.053   2.841   1.754  0.8993 -1.2961 -0.1404
 8265SOL    HW236429   3.197   2.805   1.762 -0.2034 -0.6736 -1.5150
 8266SOL     OW36430   3.063   2.921   0.747 -0.1447 -0.0618  0.2913
 8266SOL    HW136431   2.970   2.915   0.727  0.1934  0.3675 -1.4004
 8266SOL    HW236432   3.062   2.935   0.842  0.7618  0.6769  0.1950
 8267SOL     OW36433   2.727   3.140  10.772 -0.4248 -0.1978 -0.1923
 8267SOL    HW136434   2.761   3.067  10.719 -1.3481 -0.4360 -0.4506
 8267SOL    HW236435   2.658   3.098  10.823  0.4992 -3.0053 -1.2264
 8268SOL     OW36436   0.911   3.429   7.709  0.5586 -0.3894  0.0992
 8268SOL    HW136437   0.890   3.480   7.630 -0.8541  0.0133  0.7401
 8268SOL    HW236438   0.856   3.464   7.779  0.9004  0.2358  0.0596
 8269SOL     OW36439   3.050   2.793   6.920  0.0177  0.1177  0.3545
 8269SOL    HW136440   3.122   2.775   6.981  0.1785 -0.5242 -0.0250
 8269SOL    HW236441   3.053   2.719   6.859  0.1719  0.3552  0.0745
 8270SOL     OW36442   2.099   2.065   8.929 -0.0026  0.0865  0.4047
 8270SOL    HW136443   2.148   2.129   8.878 -0.7566  0.3544  0.0196
 8270SOL    HW236444   2.104   2.093   9.021  1.1400  2.6639 -0.4262
 8271SOL     OW36445   4.421   4.328   0.548 -0.1823  0.0001  0.2071
 8271SOL    HW136446   4.400   4.396   0.484 -1.5598 -0.9279 -0.3258
 8271SOL    HW236447   4.344   4.325   0.604 -1.5849  0.0343 -1.7087
 8272SOL     OW36448   4.092   0.536  17.496  0.1336 -0.2605  0.4732
 8272SOL    HW136449   4.085   0.445  17.524  1.9000 -0.3148  0.7490
 8272SOL    HW236450   4.011   0.568  17.533  0.2964  0.2880  0.3489
 8273SOL     OW36451   3.506   0.691   8.738  0.0596  0.1914 -0.0205
 8273SOL    HW136452   3.470   0.719   8.654  0.5961  0.7235 -0.0735
 8273SOL    HW236453   3.516   0.597   8.726  2.0526  0.1978  1.6304
 8274SOL     OW36454   0.987   2.389   7.584 -0.4281 -0.2149  0.2104
 8274SOL    HW136455   1.012   2.328   7.654 -1.2779 -0.4276  0.3230
 8274SOL    HW236456   0.979   2.475   7.625 -0.4127  0.5712 -1.4381
 8275SOL     OW36457   0.410   3.269   0.569 -0.3984 -0.1235  0.3600
 8275SOL    HW136458   0.497   3.248   0.603 -0.9553 -2.7723  0.1150
 8275SOL    HW236459   0.402   3.194   0.511 -0.5236  1.2366 -1.3657
 8276SOL     OW36460   0.308   3.243   8.985  0.0093  0.4253  0.3647
 8276SOL    HW136461   0.380   3.197   9.026  0.9356  1.6250  0.0980
 8276SOL    HW236462   0.346   3.279   8.905 -3.4258 -0.1933 -1.5639
 8277SOL     OW36463   1.330   4.245   1.610 -0.2042  0.1723 -0.2613
 8277SOL    HW136464   1.313   4.218   1.520 -0.7123  1.3446 -0.5170
 8277SOL    HW236465   1.257   4.218   1.665 -1.7452  1.6635 -1.5965
 8278SOL     OW36466   0.591   1.591   6.966  0.4557  0.4813 -0.0815
 8278SOL    HW136467   0.566   1.526   6.900  0.1999  0.8999 -0.3970
 8278SOL    HW236468   0.649   1.649   6.917 -0.4742  0.1505 -1.5815
 8279SOL     OW36469   1.269   4.464   7.567 -0.6195 -0.1526  0.3868
 8279SOL    HW136470   1.221   4.452   7.650  0.4427 -0.0628  1.0171
 8279SOL    HW236471   1.319   4.544   7.580  1.7767 -1.4791 -0.8129
 8280SOL     OW36472   2.988   0.243   4.016 -0.2313 -0.2385 -0.6143
 8280SOL    HW136473   3.074   0.219   4.052 -1.3161  0.5313  2.5105
 8280SOL    HW236474   2.934   0.165   4.029  0.6594 -0.5740  1.1434
 8281SOL     OW36475   3.644   0.553  10.212  0.2341 -0.2934  0.7901
 8281SOL    HW136476   3.651   0.646  10.194  0.2745 -0.9839 -2.7818
 8281SOL    HW236477   3.704   0.544  10.286  1.2805  1.4322  0.1420
 8282SOL     OW36478   4.232   3.297   4.955  0.6696 -0.0008 -0.3122
 8282SOL    HW136479   4.256   3.212   4.918  0.9535 -0.2939  0.5456
 8282SOL    HW236480   4.268   3.280   5.042 -1.7194 -0.1397  0.6457
 8283SOL     OW36481   4.109   4.578   9.608 -0.4211 -0.0674  0.7310
 8283SOL    HW136482   4.115   4.585   9.703  0.3321 -1.3416  0.7641
 8283SOL    HW236483   4.185   4.633   9.591 -1.8187  1.2530 -1.3147
 8284SOL     OW36484   3.819   3.349   7.183  0.1423 -0.0143  0.2579
 8284SOL    HW136485   3.728   3.374   7.199 -0.3184 -1.5030 -0.0355
 8284SOL    HW236486   3.857   3.339   7.270  2.2696 -1.6733 -0.8603
 8285SOL     OW36487   4.360   3.002   3.894 -0.2349 -0.4197  0.3029
 8285SOL    HW136488   4.273   3.039   3.882 -0.2946 -1.0898 -1.3259
 8285SOL    HW236489   4.402   3.038   3.815  0.1539 -1.4711  0.0305
 8286SOL     OW36490   4.129   3.558   6.294  0.3258 -0.8659  0.7107
 8286SOL    HW136491   4.097   3.573   6.383  0.2438  0.5054  0.4469
 8286SOL    HW236492   4.117   3.463   6.287  0.0051 -0.8198  0.6301
 8287SOL     OW36493   1.465   3.388  16.803  0.2500  0.5142 -0.1032
 8287SOL    HW136494   1.424   3.407  16.888  1.8529 -1.0928  1.0572
 8287SOL    HW236495   1.436   3.299  16.780  0.4411  1.0364 -2.2700
 8288SOL     OW36496   2.070   4.103  11.568  0.9302  0.0480 -0.2175
 8288SOL    HW136497   2.088   4.009  11.566  0.8236  0.0208  0.0769
 8288SOL    HW236498   1.990   4.116  11.517 -0.3061 -0.1229  1.6580
 8289SOL     OW36499   0.176   2.564   4.091  0.2823  0.1012 -0.0827
 8289SOL    HW136500   0.221   2.540   4.172 -0.4826  0.4958  0.4540
 8289SOL    HW236501   0.089   2.524   4.094  1.1583 -1.9597 -2.2112
 8290SOL     OW36502   0.832   1.386   7.332 -0.0429 -0.2875  0.1505
 8290SOL    HW136503   0.738   1.398   7.314 -0.2906 -0.3206  1.4187
 8290SOL    HW236504   0.865   1.440   7.261 -1.1922 -2.4108 -2.0121
 8291SOL     OW36505   1.623   3.033   7.319  0.8273 -0.9989  0.2805
 8291SOL    HW136506   1.577   3.072   7.393 -1.5779 -2.8417 -0.2459
 8291SOL    HW236507   1.647   3.115   7.276  1.1482 -0.4158  1.5916
 8292SOL     OW36508   2.594   1.315  10.478  0.5475  0.2830  0.2779
 8292SOL    HW136509   2.674   1.263  10.472  0.7748  0.6895 -0.2241
 8292SOL    HW236510   2.632   1.403  10.477  1.1717  0.0106  0.2753
 8293SOL     OW36511   1.217   2.434   9.105  0.4392  0.3162  0.0307
 8293SOL    HW136512   1.187   2.489   9.177  2.2083  2.5681 -0.9726
 8293SOL    HW236513   1.280   2.379   9.152 -0.1121  0.5825  1.0652
 8294SOL     OW36514   2.556   4.443   6.442  0.2396 -0.0042  0.5152
 8294SOL    HW136515   2.498   4.506   6.484 -1.6658 -0.2907 -1.6907
 8294SOL    HW236516   2.494   4.390   6.392 -0.3973  0.5890  0.6755
 8295SOL     OW36517   4.380   0.251   2.951 -0.0910 -0.1482  0.5464
 8295SOL    HW136518   4.297   0.214   2.981  0.4435  1.1797  3.6382
 8295SOL    HW236519   4.411   0.310   3.019  1.9676 -0.4123 -0.1564
 8296SOL     OW36520   0.741   3.470   5.988  0.0160 -0.3478  0.1953
 8296SOL    HW136521   0.648   3.465   6.012  0.0371  0.1069  0.3757
 8296SOL    HW236522   0.766   3.544   6.044 -0.9046  0.6421 -0.7127
 8297SOL     OW36523   2.170   1.414   2.542  0.3802 -0.3888 -0.2227
 8297SOL    HW136524   2.081   1.450   2.533  0.6927 -0.1499 -2.2943
 8297SOL    HW236525   2.166   1.344   2.476 -0.3719  2.5816 -3.3315
 8298SOL     OW36526   2.459   1.687   5.177 -0.1419 -0.4127 -0.5125
 8298SOL    HW136527   2.486   1.599   5.203  0.4581  0.5154  1.9682
 8298SOL    HW236528   2.494   1.745   5.244 -2.4405  2.0206 -1.4120
 8299SOL     OW36529   2.530   3.913   6.128  0.5395  0.1091  0.4878
 8299SOL    HW136530   2.590   3.987   6.136 -0.0797  0.4949  1.6055
 8299SOL    HW236531   2.472   3.939   6.056 -1.4785 -1.3036  1.6196
 8300SOL     OW36532   1.217   4.503  10.504  0.0554 -0.0518 -0.7607
 8300SOL    HW136533   1.241   4.575  10.446  0.7240  1.2556  1.1158
 8300SOL    HW236534   1.126   4.522  10.529  0.2140  0.6422 -0.6956
 8301SOL     OW36535   2.807   2.027  13.604  0.2436  0.5109  0.4140
 8301SOL    HW136536   2.773   1.938  13.609  0.0789  0.4194 -1.9295
 8301SOL    HW236537   2.732   2.084  13.587 -0.9093 -1.0380  0.3415
 8302SOL     OW36538   3.290   4.505   7.000 -0.5285  0.3620 -0.3640
 8302SOL    HW136539   3.375   4.461   6.995 -0.9581 -0.5097  0.1036
 8302SOL    HW236540   3.230   4.432   7.012  1.2992 -0.9970  0.4889
 8303SOL     OW36541   1.271   3.000   7.874  0.0747 -0.1833  0.1533
 8303SOL    HW136542   1.278   3.046   7.791 -1.0749 -1.3511 -0.5889
 8303SOL    HW236543   1.355   3.012   7.918  1.8883 -0.4832 -3.2553
 8304SOL     OW36544   4.681   3.789  11.793 -0.1635  0.1175 -0.1597
 8304SOL    HW136545   0.016   3.824  11.741  0.0554 -0.2043 -0.0669
 8304SOL    HW236546   4.733   3.759  11.867 -0.9432  0.8748  0.6916
 8305SOL     OW36547   0.681   3.435  17.582 -0.2890 -0.1520 -0.4820
 8305SOL    HW136548   0.594   3.468  17.562  0.5032  1.2200 -1.6211
 8305SOL    HW236549   0.728   3.511  17.616 -0.7692 -0.5875  1.2085
 8306SOL     OW36550   1.573   1.353   1.779 -0.1938 -0.6191 -0.1440
 8306SOL    HW136551   1.563   1.447   1.767 -1.2581 -0.5957  0.9571
 8306SOL    HW236552   1.669   1.352   1.774 -0.2054 -0.8502 -0.3162
 8307SOL     OW36553   3.657   3.372   1.759 -0.1789  0.8927 -0.3058
 8307SOL    HW136554   3.666   3.365   1.664  0.1412  1.5964 -0.3256
 8307SOL    HW236555   3.588   3.438   1.773 -1.4369  0.0171 -2.3539
 8308SOL     OW36556   0.088   2.396   2.035 -0.1529 -0.2916 -0.4454
 8308SOL    HW136557   0.018   2.332   2.045  1.2800 -1.8212 -0.0382
 8308SOL    HW236558   0.041   2.473   2.003 -0.5988  0.3564  1.7597
 8309SOL     OW36559   1.037   2.950   8.669  0.1137  0.3803  0.0816
 8309SOL    HW136560   1.066   2.864   8.638 -0.7495 -0.5712  1.8618
 8309SOL    HW236561   0.946   2.957   8.638 -0.0208  0.0017  0.3900
 8310SOL     OW36562   4.392   2.076  16.490 -0.2251 -0.3322 -0.0518
 8310SOL    HW136563   4.453   2.069  16.563 -0.8841  0.2128  0.5563
 8310SOL    HW236564   4.400   1.993  16.443  0.3210  1.3869 -3.0413
 8311SOL     OW36565   3.785   2.855   5.534 -0.6067  0.0814  0.0989
 8311SOL    HW136566   3.793   2.823   5.444 -1.3898  0.8593 -0.2408
 8311SOL    HW236567   3.786   2.773   5.583 -2.6107  0.6051  0.9753
 8312SOL     OW36568   3.588   0.036  17.242 -0.4983  0.4622  0.5855
 8312SOL    HW136569   3.589   4.681  17.220 -0.8485  0.0237  2.4309
 8312SOL    HW236570   3.662   0.069  17.192 -2.1302  0.6099 -1.7227
 8313SOL     OW36571   3.094   3.593   2.316 -0.1192 -0.0336  0.0778
 8313SOL    HW136572   3.104   3.665   2.253  0.9643  1.0238  1.4850
 8313SOL    HW236573   3.160   3.536   2.277  2.7607  2.5349  1.1868
 8314SOL     OW36574   2.911   1.819  14.794 -0.0734  0.1274 -0.3312
 8314SOL    HW136575   2.950   1.732  14.805  0.4044  0.4580  0.6707
 8314SOL    HW236576   2.983   1.874  14.827 -0.8953  0.7696  0.3857
 8315SOL     OW36577   1.732   2.299  10.018  0.0093  0.4779 -0.1062
 8315SOL    HW136578   1.772   2.318  10.103 -2.1012 -1.1379  1.2466
 8315SOL    HW236579   1.716   2.206  10.032 -0.9392  0.6704  0.0582
 8316SOL     OW36580   0.050   3.475   1.396  1.3884 -0.2168 -0.1182
 8316SOL    HW136581   0.101   3.556   1.405  0.1550  0.1842  3.3236
 8316SOL    HW236582   0.053   3.436   1.483 -1.5813  0.9950  0.5277
 8317SOL     OW36583   1.925   1.303  16.597 -0.2618  0.0671  0.4238
 8317SOL    HW136584   1.995   1.290  16.660 -2.1377  2.5900  3.0336
 8317SOL    HW236585   1.943   1.395  16.578  0.0814  0.1679  1.2337
 8318SOL     OW36586   2.531   0.248   7.075 -0.3467  0.2037  0.0782
 8318SOL    HW136587   2.443   0.214   7.059 -0.7293 -0.5706  3.6573
 8318SOL    HW236588   2.530   0.240   7.171 -1.2464 -1.7514 -0.0890
 8319SOL     OW36589   3.345   3.569  16.640 -0.0142  0.1398 -0.0376
 8319SOL    HW136590   3.357   3.634  16.571 -3.8764  1.6096  0.7128
 8319SOL    HW236591   3.261   3.531  16.617  0.4787 -2.6517  2.6555
 8320SOL     OW36592   0.137   4.389   6.340 -0.4763  0.0300  0.2725
 8320SOL    HW136593   0.131   4.400   6.245  0.0910  0.9471  0.3488
 8320SOL    HW236594   0.059   4.429   6.380 -0.5135  1.8299 -1.5758
 8321SOL     OW36595   2.186   2.817   5.989 -0.4190  0.0218  0.2496
 8321SOL    HW136596   2.214   2.785   6.075 -2.1649 -0.0799  0.7702
 8321SOL    HW236597   2.263   2.853   5.944  1.3134 -0.9113  2.4164
 8322SOL     OW36598   4.188   0.962   4.922 -0.2417 -0.1971  0.1361
 8322SOL    HW136599   4.257   0.932   4.981 -1.8505 -2.5912  0.7961
 8322SOL    HW236600   4.200   0.915   4.840  2.2022  2.1640 -0.8592
 8323SOL     OW36601   3.750   1.978   8.292 -0.0476  0.5672 -0.3567
 8323SOL    HW136602   3.735   1.884   8.302 -1.6006  1.0557  1.8008
 8323SOL    HW236603   3.792   2.008   8.373 -1.9443  1.7891  0.1694
 8324SOL     OW36604   1.906   4.641  10.623  0.2471 -0.0585 -0.3726
 8324SOL    HW136605   1.964   4.581  10.670  1.4865 -1.4116 -3.6755
 8324SOL    HW236606   1.927   4.723  10.669  1.0920 -1.3001  1.4745
 8325SOL     OW36607   0.934   0.120   7.144 -0.2179  0.3916 -0.6042
 8325SOL    HW136608   0.924   0.214   7.133  2.2942  0.8079  0.6435
 8325SOL    HW236609   1.020   0.115   7.186  0.0836 -0.7933 -1.3588
 8326SOL     OW36610   3.891   0.081   0.914 -0.4266  0.3053 -0.4924
 8326SOL    HW136611   3.911   0.073   1.008 -0.2877  0.4658 -0.5100
 8326SOL    HW236612   3.952   0.154   0.906 -0.4447  0.4255  0.4732
 8327SOL     OW36613   1.978   2.983   7.022  0.1996  0.7331  0.4390
 8327SOL    HW136614   1.965   3.078   7.015 -0.2760  0.7562  1.5974
 8327SOL    HW236615   1.979   2.974   7.117  0.8948  0.6281  0.4185
 8328SOL     OW36616   4.215   4.325   8.634  0.7792  0.3712  0.2298
 8328SOL    HW136617   4.294   4.338   8.686  1.1061 -1.1026  0.0911
 8328SOL    HW236618   4.189   4.414   8.609 -1.5276 -0.6208 -0.9092
 8329SOL     OW36619   0.195   3.089   8.037 -0.6233  0.9070  0.6477
 8329SOL    HW136620   0.210   3.114   8.128  3.4469  1.9978 -0.3095
 8329SOL    HW236621   0.132   3.159   8.021 -0.4841  0.4892 -1.6973
 8330SOL     OW36622   1.037   2.577   8.277  0.4037  0.0485  0.5128
 8330SOL    HW136623   1.120   2.556   8.320 -0.3382 -3.6853  0.1465
 8330SOL    HW236624   1.038   2.672   8.275  0.6371  0.0153 -0.7252
 8331SOL     OW36625   3.756   3.595   4.301 -0.4120  0.0896 -0.3783
 8331SOL    HW136626   3.668   3.599   4.338 -0.0507  2.0485  0.2822
 8331SOL    HW236627   3.813   3.616   4.375  0.1733 -0.3359 -0.6983
 8332SOL     OW36628   2.297   1.981   2.183  0.1752  0.1254 -0.1924
 8332SOL    HW136629   2.354   2.054   2.161 -0.0854  0.4362  0.1586
 8332SOL    HW236630   2.363   1.911   2.187 -0.6628 -0.5597  1.9746
 8333SOL     OW36631   1.138   4.350   6.819 -0.3229 -0.4111  0.2639
 8333SOL    HW136632   1.199   4.386   6.883 -1.4342 -1.0897  1.6726
 8333SOL    HW236633   1.195   4.304   6.757  2.2835  2.6969  0.3084
 8334SOL     OW36634   2.396   3.218   8.740 -0.1024 -0.2247  0.0256
 8334SOL    HW136635   2.476   3.165   8.747 -0.6698 -1.6369 -4.2208
 8334SOL    HW236636   2.344   3.152   8.784 -0.4350  1.2195  1.7935
 8335SOL     OW36637   4.413   4.030   8.980 -0.1776  0.0933 -0.3511
 8335SOL    HW136638   4.378   3.946   8.951  1.1415 -0.4833 -0.2892
 8335SOL    HW236639   4.438   4.013   9.071  0.4657  2.0253 -0.1606
 8336SOL     OW36640   0.315   1.802   3.722 -0.2903  0.2976  0.2099
 8336SOL    HW136641   0.231   1.785   3.680 -0.1216  1.3207 -0.5405
 8336SOL    HW236642   0.365   1.843   3.651  0.2586 -0.8972 -0.1027
 8337SOL     OW36643   0.539   1.234  15.202 -0.2832 -0.5469  0.3628
 8337SOL    HW136644   0.603   1.196  15.261 -2.8258 -2.9228  1.6206
 8337SOL    HW236645   0.582   1.303  15.152 -1.9105  1.1364  1.2692
 8338SOL     OW36646   4.606   4.498   5.560 -0.4074 -0.4301 -0.7087
 8338SOL    HW136647   4.568   4.426   5.609 -2.2676  0.0895 -1.3827
 8338SOL    HW236648   4.680   4.449   5.524 -0.3467  0.7946 -2.2954
 8339SOL     OW36649   0.826   1.538   2.723 -0.0127  0.2817 -0.6898
 8339SOL    HW136650   0.908   1.585   2.737 -0.3078  0.5067  0.2987
 8339SOL    HW236651   0.762   1.609   2.721  0.9419  1.1867  0.7605
 8340SOL     OW36652   2.103   1.645   5.973 -0.3666  0.0989 -0.1088
 8340SOL    HW136653   2.073   1.591   5.900  0.1678 -0.1976 -0.1100
 8340SOL    HW236654   2.108   1.727   5.924  0.0573  0.6201  0.7955
 8341SOL     OW36655   3.568   0.123   5.481  0.1278  0.4496  0.6116
 8341SOL    HW136656   3.490   0.156   5.526 -1.2151 -0.4585 -1.0564
 8341SOL    HW236657   3.640   0.127   5.543  1.4086  0.1756 -0.8795
 8342SOL     OW36658   1.926   2.181   3.520 -0.4976  0.2601  0.3279
 8342SOL    HW136659   1.917   2.242   3.593  0.4121 -1.7384  2.1144
 8342SOL    HW236660   2.015   2.157   3.547 -0.2252  1.1541  0.2337
 8343SOL     OW36661   0.351   0.628  10.708  0.1981 -0.0069 -0.1726
 8343SOL    HW136662   0.440   0.595  10.706  0.6078  1.0669  0.1720
 8343SOL    HW236663   0.317   0.582  10.785  0.7590 -2.4747 -1.4147
 8344SOL     OW36664   3.564   1.135   6.904 -0.5181 -0.4127 -0.4312
 8344SOL    HW136665   3.504   1.184   6.961  0.0137  1.1094 -1.1756
 8344SOL    HW236666   3.641   1.137   6.962 -0.6296  0.3304 -0.3067
 8345SOL     OW36667   3.056   1.550   7.610 -0.6235 -0.2062  0.1835
 8345SOL    HW136668   3.067   1.632   7.562 -0.6178 -0.3787 -0.1053
 8345SOL    HW236669   2.982   1.502   7.575 -0.8842  0.3000  0.0510
 8346SOL     OW36670   0.987   4.079  11.910 -0.2073 -0.8006 -0.7173
 8346SOL    HW136671   0.924   4.017  11.946  1.0462 -1.2626  0.6978
 8346SOL    HW236672   0.944   4.159  11.882  0.1942 -0.1341  0.5900
 8347SOL     OW36673   2.318   1.435  12.676 -0.6921 -0.0565  0.2401
 8347SOL    HW136674   2.366   1.507  12.635 -0.9696 -0.2079 -0.3656
 8347SOL    HW236675   2.364   1.436  12.760 -2.2332 -3.7680  1.1298
 8348SOL     OW36676   3.299   2.505   9.501 -0.2414 -0.1446 -0.7777
 8348SOL    HW136677   3.214   2.488   9.541  0.0780  1.8262  0.7480
 8348SOL    HW236678   3.275   2.500   9.409 -1.8176 -2.0534 -0.2534
 8349SOL     OW36679   1.178   4.137   9.037  0.1215 -0.1232 -0.0321
 8349SOL    HW136680   1.183   4.164   8.945 -0.5062  1.5084  0.4093
 8349SOL    HW236681   1.243   4.193   9.079  1.2602 -2.0442  0.7779
 8350SOL     OW36682   1.260   2.560   9.337 -0.6128  0.4373  0.7514
 8350SOL    HW136683   1.237   2.628   9.401  0.6937  0.4458  1.2231
 8350SOL    HW236684   1.279   2.493   9.403 -1.5073 -1.0468 -0.5070
 8351SOL     OW36685   1.990   0.193   5.779 -0.2068 -0.1347  0.3330
 8351SOL    HW136686   1.917   0.210   5.720  0.2338  0.4157 -0.0563
 8351SOL    HW236687   2.032   0.278   5.767 -2.0603  0.7200  0.0045
 8352SOL     OW36688   4.074   3.494  10.343 -0.4643 -0.1663 -0.0816
 8352SOL    HW136689   4.011   3.509  10.414 -0.6982 -2.7009  0.2404
 8352SOL    HW236690   4.022   3.545  10.281  0.1081 -1.3087 -1.4944
 8353SOL     OW36691   0.104   3.290  15.675 -0.2492 -0.3262  0.1527
 8353SOL    HW136692   0.117   3.212  15.729 -0.2895 -0.2364  0.2930
 8353SOL    HW236693   0.114   3.354  15.746 -0.0708 -1.2503  0.9702
 8354SOL     OW36694   1.135   0.830   9.088 -0.2402 -0.5934  0.2786
 8354SOL    HW136695   1.183   0.872   9.017 -0.8837  0.1215  0.2669
 8354SOL    HW236696   1.094   0.910   9.120 -3.9260 -1.9681 -0.8754
 8355SOL     OW36697   0.162   0.821  14.872 -0.5355  0.2144 -1.0553
 8355SOL    HW136698   0.173   0.862  14.786  2.6413 -0.3178 -0.8783
 8355SOL    HW236699   0.219   0.877  14.925  0.4796 -1.1510 -0.7022
 8356SOL     OW36700   0.409   1.650   0.352  0.0109  0.0724  0.5055
 8356SOL    HW136701   0.424   1.739   0.319  1.4165  0.2946  1.7863
 8356SOL    HW236702   0.329   1.630   0.303 -1.4237  0.1193  2.8169
 8357SOL     OW36703   2.130   1.187   7.022  0.2667 -0.0296  0.2860
 8357SOL    HW136704   2.099   1.178   7.112  2.0339  0.3549  0.9356
 8357SOL    HW236705   2.221   1.162   7.038  0.4642 -0.5933 -1.7318
 8358SOL     OW36706   2.794   0.531   1.410  0.0653 -0.0838  0.0411
 8358SOL    HW136707   2.889   0.525   1.422  0.0510 -0.1488  0.1209
 8358SOL    HW236708   2.796   0.560   1.319  1.4080  2.3632  0.8391
 8359SOL     OW36709   0.828   2.771   6.954  0.6674  0.1793  0.4369
 8359SOL    HW136710   0.885   2.708   6.998  1.6978  0.1442 -0.9202
 8359SOL    HW236711   0.881   2.777   6.874  1.9338 -1.5733  1.1523
 8360SOL     OW36712   3.026   3.889   4.275 -0.1068 -0.4610  0.6301
 8360SOL    HW136713   3.063   3.805   4.299 -2.2576 -1.4659  0.4489
 8360SOL    HW236714   2.931   3.881   4.274 -0.0427 -0.9685 -2.0137
 8361SOL     OW36715   2.337   1.103   4.151  0.1802  0.4261 -0.0890
 8361SOL    HW136716   2.432   1.106   4.136 -0.3910  0.0669 -3.6194
 8361SOL    HW236717   2.313   1.025   4.101  0.6100 -0.2711  0.7913
 8362SOL     OW36718   4.506   3.996   1.752 -0.4331 -0.1750 -0.3711
 8362SOL    HW136719   4.583   4.053   1.760 -1.1501  0.8760 -0.9292
 8362SOL    HW236720   4.540   3.920   1.705 -1.4299 -0.3039 -0.8868
 8363SOL     OW36721   2.032   2.328   8.518 -0.0416 -0.9127 -0.2466
 8363SOL    HW136722   2.060   2.293   8.603 -0.2417 -2.0420 -0.6365
 8363SOL    HW236723   2.011   2.244   8.477 -1.2337  0.1133 -1.7014
 8364SOL     OW36724   0.008   2.743   1.947  0.1683  0.5444 -0.2402
 8364SOL    HW136725   4.732   2.824   1.997 -2.1477 -0.0632  0.0703
 8364SOL    HW236726   0.103   2.747   1.936  0.3620  0.7982  1.6070
 8365SOL     OW36727   1.258   0.158   5.070 -0.3490 -0.0446 -0.3321
 8365SOL    HW136728   1.316   0.233   5.064  1.5180 -1.3927  1.0649
 8365SOL    HW236729   1.251   0.150   4.974 -4.0206 -2.7351  0.1668
 8366SOL     OW36730   2.133   0.235   8.800  0.7768 -0.5752 -0.5702
 8366SOL    HW136731   2.128   0.242   8.705 -3.4091 -0.5255 -0.3543
 8366SOL    HW236732   2.173   0.320   8.819 -0.7304 -0.1349  0.6813
 8367SOL     OW36733   3.481   1.799   7.856  0.1662 -0.2367  1.2149
 8367SOL    HW136734   3.461   1.723   7.802 -0.1170  0.6865  0.0137
 8367SOL    HW236735   3.395   1.843   7.862  1.3709  2.2382  0.5529
 8368SOL     OW36736   4.020   0.345   5.448  0.7926 -0.2130  0.0185
 8368SOL    HW136737   3.938   0.394   5.441  0.8760  0.1444  1.5270
 8368SOL    HW236738   3.986   0.259   5.472  0.6650  0.3624  1.8795
 8369SOL     OW36739   0.014   4.108   1.014  0.4163 -0.1286  0.0346
 8369SOL    HW136740   0.069   4.184   0.996 -0.4197  0.8494  1.5082
 8369SOL    HW236741   0.038   4.064   0.933  0.0994  0.1080 -0.1876
 8370SOL     OW36742   2.525   3.605   5.763 -0.7409 -0.1496  0.3075
 8370SOL    HW136743   2.436   3.622   5.793 -0.0666 -0.0671  2.2547
 8370SOL    HW236744   2.580   3.641   5.833 -0.3459  0.6762 -0.4339
 8371SOL     OW36745   3.134   1.703  17.075  0.0496  0.6405 -0.3201
 8371SOL    HW136746   3.126   1.798  17.071  1.6834  0.8036  0.0802
 8371SOL    HW236747   3.127   1.672  16.984  1.8713 -2.1269  0.4640
 8372SOL     OW36748   1.102   2.802  12.604  0.2125 -0.4631 -0.0063
 8372SOL    HW136749   1.116   2.716  12.644  0.4892 -0.8898 -1.0347
 8372SOL    HW236750   1.036   2.840  12.663  0.8559 -0.3826  0.6646
 8373SOL     OW36751   4.509   1.160   1.782 -0.1638  0.4497  0.2082
 8373SOL    HW136752   4.496   1.124   1.870  1.6823  0.4281  0.4770
 8373SOL    HW236753   4.604   1.173   1.780 -0.6494  4.1994  0.0508
 8374SOL     OW36754   3.384   2.333   7.877 -0.2799  0.0496 -0.1315
 8374SOL    HW136755   3.475   2.310   7.861  0.2942 -0.0043  3.2986
 8374SOL    HW236756   3.339   2.333   7.792 -1.0616  1.2612  0.2686
 8375SOL     OW36757   3.773   1.885  12.541 -0.0329  0.4104 -0.0740
 8375SOL    HW136758   3.821   1.809  12.575  2.1317  0.9717 -1.8607
 8375SOL    HW236759   3.839   1.951  12.562  0.5112 -0.5744  1.3355
 8376SOL     OW36760   3.221   2.668   9.911 -0.3497  0.4597 -0.3388
 8376SOL    HW136761   3.265   2.668   9.826  1.5076  2.5053  0.6289
 8376SOL    HW236762   3.247   2.588   9.957  0.7381  0.9446 -0.1148
 8377SOL     OW36763   0.107   2.112   5.627  0.1643 -0.2236 -0.8528
 8377SOL    HW136764   0.149   2.029   5.605  3.1122  0.2800  2.8397
 8377SOL    HW236765   0.110   2.148   5.538  0.5624 -0.3236 -0.8789
 8378SOL     OW36766   0.774   2.772  12.597 -0.0692  0.1622  0.3783
 8378SOL    HW136767   0.790   2.690  12.550 -1.8144 -0.6215  1.1607
 8378SOL    HW236768   0.805   2.748  12.684 -1.1139  0.4119  0.8259
 8379SOL     OW36769   2.594   1.006   1.973  0.6713  0.0762  0.3155
 8379SOL    HW136770   2.641   0.949   2.033  1.2452 -1.3586 -1.5040
 8379SOL    HW236771   2.615   0.968   1.888 -1.1070 -1.3844  0.5200
 8380SOL     OW36772   4.326   0.490   3.756 -0.0210 -0.1613  0.0990
 8380SOL    HW136773   4.250   0.432   3.751 -1.1394  1.2709  0.3333
 8380SOL    HW236774   4.351   0.477   3.848 -1.9429  1.3718  0.8360
 8381SOL     OW36775   0.212   0.236   5.752 -0.3438  0.7923 -0.1980
 8381SOL    HW136776   0.288   0.181   5.735  0.7121  2.2941 -0.3237
 8381SOL    HW236777   0.144   0.173   5.726  1.5790 -0.6519 -1.7221
 8382SOL     OW36778   3.874   3.228   6.702 -0.1183 -0.2916 -0.1112
 8382SOL    HW136779   3.962   3.254   6.729  0.1407 -0.6536 -0.5933
 8382SOL    HW236780   3.870   3.244   6.608 -0.6041 -0.8045 -0.1763
 8383SOL     OW36781   0.034   0.258   0.834  0.4017  0.0752  0.1779
 8383SOL    HW136782   0.129   0.265   0.847  0.2870  3.6012 -1.0260
 8383SOL    HW236783   0.013   0.173   0.873 -2.3781  0.2828 -0.8587
 8384SOL     OW36784   1.442   2.541   7.851 -0.6256  0.1925 -0.1861
 8384SOL    HW136785   1.420   2.616   7.906  0.4526  1.1166 -1.0195
 8384SOL    HW236786   1.394   2.566   7.772 -0.6127  0.3403 -0.1465
 8385SOL     OW36787   1.155   2.240   8.474 -0.0398 -0.6898  0.3665
 8385SOL    HW136788   1.116   2.165   8.429  0.5260  0.3453 -1.8352
 8385SOL    HW236789   1.242   2.244   8.435  0.3547  0.6115  1.3443
 8386SOL     OW36790   0.916   4.398  14.293  0.3622 -0.2116  0.1653
 8386SOL    HW136791   0.837   4.425  14.246  0.5316 -1.8789 -1.0779
 8386SOL    HW236792   0.904   4.303  14.296 -0.6690 -0.1317 -1.7382
 8387SOL     OW36793   0.905   1.837   7.279 -0.6998 -0.5637 -0.1856
 8387SOL    HW136794   0.831   1.869   7.227  0.6227 -0.4052 -1.9453
 8387SOL    HW236795   0.868   1.798   7.358 -0.3388  1.0611  0.7976
 8388SOL     OW36796   4.148   2.061   4.260 -0.2482  0.9578 -0.2646
 8388SOL    HW136797   4.163   2.148   4.299 -0.6612  0.1941  1.6267
 8388SOL    HW236798   4.205   2.002   4.309 -2.1967 -0.7270 -0.0094
 8389SOL     OW36799   0.982   0.374  17.100 -0.1178 -0.1029 -0.1864
 8389SOL    HW136800   0.991   0.468  17.117  0.5508 -0.0626 -0.7563
 8389SOL    HW236801   0.894   0.347  17.126 -0.3776  1.3717  0.4134
 8390SOL     OW36802   2.687   4.375   6.725  0.3025 -0.1681 -0.5925
 8390SOL    HW136803   2.686   4.392   6.631  0.6521 -2.3791 -1.0011
 8390SOL    HW236804   2.602   4.331   6.727  0.2262 -0.0243 -0.7619
 8391SOL     OW36805   2.070   0.467   5.392 -0.4397 -0.8001 -0.2392
 8391SOL    HW136806   1.979   0.484   5.366 -0.7953  0.3397  1.7566
 8391SOL    HW236807   2.078   0.510   5.477 -0.7179  0.6650 -0.9644
 8392SOL     OW36808   3.814   0.299   3.896  0.2164  0.6455 -0.2532
 8392SOL    HW136809   3.807   0.356   3.972  2.7225 -0.4023  0.7758
 8392SOL    HW236810   3.751   0.339   3.837 -1.1188 -0.1890  0.6122
 8393SOL     OW36811   0.773   1.048   6.516 -0.1466  0.2282  0.3417
 8393SOL    HW136812   0.821   1.063   6.435  1.1473  0.2277  1.1042
 8393SOL    HW236813   0.760   0.953   6.509 -4.3281  0.7938  0.3023
 8394SOL     OW36814   1.909   3.049   2.921  0.2485  0.0132  0.6872
 8394SOL    HW136815   1.984   3.072   2.976  0.8806 -1.1129  0.2913
 8394SOL    HW236816   1.875   3.138   2.911 -1.3458 -0.5132  1.3085
 8395SOL     OW36817   1.667   0.007   7.175  0.2417 -0.0068 -0.3331
 8395SOL    HW136818   1.732   0.070   7.143 -0.4354  1.0584  0.3938
 8395SOL    HW236819   1.732   4.678   7.195 -0.8786 -0.4110  1.9231
 8396SOL     OW36820   4.600   2.737   3.371  0.0633  0.2963  0.9634
 8396SOL    HW136821   4.589   2.804   3.439  0.3187  0.9690  0.3446
 8396SOL    HW236822   4.645   2.673   3.426 -1.8366 -0.4489  1.6459
 8397SOL     OW36823   2.518   2.692   0.824 -0.4123  0.0843  0.2934
 8397SOL    HW136824   2.509   2.753   0.751  5.3203 -2.3693 -2.5093
 8397SOL    HW236825   2.429   2.692   0.858 -0.3576  0.5168  0.4349
 8398SOL     OW36826   0.904   3.236   9.701  0.2335  0.4412 -0.3525
 8398SOL    HW136827   0.870   3.319   9.734 -2.5210 -0.4796 -0.8226
 8398SOL    HW236828   0.960   3.212   9.775  0.7755 -0.3603 -1.0238
 8399SOL     OW36829   0.621   2.663  13.667 -0.6587 -0.1516  0.4784
 8399SOL    HW136830   0.539   2.627  13.633 -0.1911 -0.0277 -0.7755
 8399SOL    HW236831   0.689   2.619  13.616  1.0534 -0.1703  2.7989
 8400SOL     OW36832   1.346   2.372   9.512 -0.5928  0.5070 -0.3666
 8400SOL    HW136833   1.404   2.300   9.485  1.5446  2.3795 -0.7568
 8400SOL    HW236834   1.385   2.415   9.588  1.6039  0.5481 -1.5063
 8401SOL     OW36835   4.010   1.775   7.910 -0.2641  0.5029 -0.2642
 8401SOL    HW136836   3.962   1.857   7.907  0.5291  1.0581  2.2985
 8401SOL    HW236837   4.004   1.751   7.818 -0.8354  1.2273 -0.4131
 8402SOL     OW36838   3.548   2.770   0.327  0.0583 -0.4875 -0.5257
 8402SOL    HW136839   3.605   2.715   0.382 -0.9954 -2.2609 -1.2010
 8402SOL    HW236840   3.459   2.735   0.330 -0.8853  1.8443 -1.7516
 8403SOL     OW36841   1.405   4.538   2.261  0.5300  0.4536 -0.1148
 8403SOL    HW136842   1.479   4.478   2.269 -0.2248 -0.3100  0.9441
 8403SOL    HW236843   1.345   4.481   2.213  0.5112  2.2379 -2.2291
 8404SOL     OW36844   3.507   3.543   6.923  0.2558 -0.1755 -0.3182
 8404SOL    HW136845   3.497   3.448   6.924  1.0736 -0.2655 -0.6918
 8404SOL    HW236846   3.602   3.549   6.935  0.1434 -0.5593  0.7625
 8405SOL     OW36847   3.380   3.792   3.487  0.2367 -0.2446 -0.1625
 8405SOL    HW136848   3.374   3.887   3.483  1.3544 -0.1793 -0.2877
 8405SOL    HW236849   3.289   3.763   3.477  0.2479 -0.4210  0.2358
 8406SOL     OW36850   1.472   0.551  11.782  0.1742 -0.1127 -0.3231
 8406SOL    HW136851   1.514   0.596  11.855  0.1033 -0.5376 -0.0173
 8406SOL    HW236852   1.545   0.504  11.743 -0.6637 -1.6468 -0.0470
 8407SOL     OW36853   0.193   4.707  13.394 -0.1480  0.0631  0.1533
 8407SOL    HW136854   0.211   4.657  13.314 -1.4089  0.4392 -0.3688
 8407SOL    HW236855   0.255   0.042  13.387  1.3981 -1.1131  1.7603
 8408SOL     OW36856   0.903   4.026   8.585 -0.4653  0.1325 -0.1054
 8408SOL    HW136857   0.967   4.098   8.582 -0.8296  0.3463 -3.5687
 8408SOL    HW236858   0.959   3.951   8.567 -1.3420  0.2796 -3.5383
 8409SOL     OW36859   2.375   2.533   2.593 -0.3404 -0.0391 -0.6523
 8409SOL    HW136860   2.316   2.457   2.590  0.2089 -0.4666 -0.6669
 8409SOL    HW236861   2.330   2.587   2.528  0.0391 -0.5347 -1.3262
 8410SOL     OW36862   1.274   0.558   8.882  0.1175 -0.0647  0.0947
 8410SOL    HW136863   1.340   0.626   8.873 -1.1682  0.9651 -1.3737
 8410SOL    HW236864   1.213   0.585   8.814 -1.7747  0.3312  1.9384
 8411SOL     OW36865   2.149   0.737   2.825 -0.6724 -0.7853  0.2732
 8411SOL    HW136866   2.084   0.692   2.878  0.0073  0.9759  2.6153
 8411SOL    HW236867   2.138   0.703   2.737  2.9733 -0.5211 -0.2936
 8412SOL     OW36868   2.768   1.188  13.741  0.2880 -0.7167  0.1759
 8412SOL    HW136869   2.861   1.184  13.721  0.7251  3.0331  1.3875
 8412SOL    HW236870   2.757   1.277  13.774 -1.6366  0.3835 -3.3358
 8413SOL     OW36871   4.105   0.300  11.242  0.5144  0.0099  0.0211
 8413SOL    HW136872   4.197   0.323  11.229  1.7001 -4.2724  1.1606
 8413SOL    HW236873   4.075   0.282  11.153  0.0714 -0.9475  0.3719
 8414SOL     OW36874   0.534   3.342   8.143 -0.5636 -0.2383  0.4553
 8414SOL    HW136875   0.506   3.428   8.110 -0.7122 -0.6004 -0.3575
 8414SOL    HW236876   0.502   3.289   8.070  0.6244 -0.6174  0.2052
 8415SOL     OW36877   2.082   3.622  14.562 -0.1009  0.6077 -0.5474
 8415SOL    HW136878   2.048   3.626  14.472 -1.3862 -0.6520 -0.1127
 8415SOL    HW236879   2.054   3.538  14.596  2.9115 -0.6962 -1.3023
 8416SOL     OW36880   1.139   1.272  10.294  0.5608  0.2870 -0.0568
 8416SOL    HW136881   1.193   1.350  10.309 -1.7955  2.1414 -1.0262
 8416SOL    HW236882   1.192   1.214  10.348  0.2188  0.7973  0.8203
 8417SOL     OW36883   1.518   4.620   9.367 -0.3593 -0.1707  0.0605
 8417SOL    HW136884   1.508   4.648   9.276 -0.3677 -1.3949 -0.3126
 8417SOL    HW236885   1.527   4.706   9.408  0.2005 -1.1009  1.8766
 8418SOL     OW36886   4.537   2.964  13.411 -0.3831  0.0866 -0.0726
 8418SOL    HW136887   4.492   2.880  13.407  0.2151 -0.2511  0.3123
 8418SOL    HW236888   4.573   2.977  13.323 -2.1082  2.6540 -0.3968
 8419SOL     OW36889   2.060   0.212   6.200  0.6499  0.3189 -0.7989
 8419SOL    HW136890   2.063   0.116   6.196 -0.3088  0.2137  0.9470
 8419SOL    HW236891   2.148   0.238   6.173  1.3267  0.9893  2.0424
 8420SOL     OW36892   1.889   4.697  17.340 -0.1987  0.9090  0.2672
 8420SOL    HW136893   1.815   4.641  17.361  2.0601 -2.9054 -1.8371
 8420SOL    HW236894   1.906   4.734  17.427 -1.3830  0.2421  0.7804
 8421SOL     OW36895   4.269   3.666   7.803  0.4903  0.1643  0.7162
 8421SOL    HW136896   4.329   3.682   7.876  0.8687  0.3951  0.3615
 8421SOL    HW236897   4.203   3.730   7.830  1.3529  1.2973  0.1892
 8422SOL     OW36898   1.053   2.105   3.497 -0.1976  0.5384 -0.4316
 8422SOL    HW136899   1.021   2.113   3.407  0.4774  1.3472 -0.6044
 8422SOL    HW236900   0.974   2.143   3.536  0.5567  1.2902  0.3459
 8423SOL     OW36901   1.021   3.159   1.520  0.0563  0.5525 -0.2749
 8423SOL    HW136902   0.965   3.102   1.573 -0.2772  2.0276  0.9405
 8423SOL    HW236903   0.964   3.235   1.509  0.9962  1.6276  2.4187
 8424SOL     OW36904   3.367   2.159   6.830 -0.3046  0.2015  0.3957
 8424SOL    HW136905   3.374   2.090   6.765  0.6853  0.9517 -0.2944
 8424SOL    HW236906   3.421   2.129   6.904  0.1046 -0.1359 -0.0411
 8425SOL     OW36907   0.200   1.703  16.776  0.1985 -0.5377  0.1670
 8425SOL    HW136908   0.191   1.624  16.830  2.4497 -0.8967 -0.0133
 8425SOL    HW236909   0.201   1.775  16.838 -1.6754  0.1251 -0.5564
 8426SOL     OW36910   4.380   2.886   9.662 -0.1386 -0.7605  0.3310
 8426SOL    HW136911   4.367   2.797   9.630 -1.3927 -0.2122 -0.6772
 8426SOL    HW236912   4.453   2.873   9.722  0.1420 -0.2474  0.1018
 8427SOL     OW36913   0.806   0.255  17.455 -0.4337  0.4848  0.2325
 8427SOL    HW136914   0.850   0.337  17.475  1.2947 -0.6058  0.9755
 8427SOL    HW236915   0.767   0.274  17.370  2.1329 -0.1834 -1.1012
 8428SOL     OW36916   0.818   2.463  13.577 -0.3704 -0.3247  0.2946
 8428SOL    HW136917   0.887   2.529  13.578 -0.9919  0.3623 -1.3651
 8428SOL    HW236918   0.839   2.403  13.648  3.7051  0.0983 -0.5332
 8429SOL     OW36919   3.307   3.048  10.287  0.4098  0.4230 -0.8447
 8429SOL    HW136920   3.296   3.005  10.372  1.7531  0.0919 -0.8302
 8429SOL    HW236921   3.307   2.965  10.239  0.0909 -0.9646  1.5816
 8430SOL     OW36922   3.718   3.900   6.529 -0.0756  0.0239  0.4127
 8430SOL    HW136923   3.723   3.810   6.561  2.9613 -0.8315 -2.4724
 8430SOL    HW236924   3.640   3.892   6.475  0.1159 -2.3358  0.5007
 8431SOL     OW36925   1.546   0.307  15.774 -0.0721  0.2642  0.1625
 8431SOL    HW136926   1.623   0.263  15.737  0.8465  0.8037  1.4450
 8431SOL    HW236927   1.541   0.381  15.713 -0.7564  1.0496  1.1918
 8432SOL     OW36928   4.047   0.096   1.413  0.4290 -0.3345 -0.8427
 8432SOL    HW136929   4.072   0.034   1.482 -1.2203  1.2808  1.2089
 8432SOL    HW236930   4.132   0.110   1.371  1.3724 -0.5343  0.9979
 8433SOL     OW36931   3.180   0.711   2.334  0.1374  0.2246  0.2046
 8433SOL    HW136932   3.272   0.737   2.325  0.2309  0.1354  0.8872
 8433SOL    HW236933   3.148   0.762   2.408 -0.5330 -0.2163  0.2174
 8434SOL     OW36934   4.554   3.962  16.029 -0.2442  0.1510  0.0698
 8434SOL    HW136935   4.636   4.008  16.012 -0.0082 -1.0488 -1.9448
 8434SOL    HW236936   4.539   3.912  15.949  1.5820  1.3373 -1.0012
 8435SOL     OW36937   1.949   1.367   6.968 -0.2600  0.1540  0.4759
 8435SOL    HW136938   2.028   1.313   6.970  1.1254  2.1416 -1.7827
 8435SOL    HW236939   1.892   1.301   6.928 -1.4503  0.3669  1.8107
 8436SOL     OW36940   1.420   0.354   4.977 -0.1090  0.3466 -0.6970
 8436SOL    HW136941   1.461   0.351   5.064 -0.7732  1.7895 -0.3398
 8436SOL    HW236942   1.469   0.427   4.939  0.3728  1.8386  2.7724
 8437SOL     OW36943   2.912   4.332   2.072 -0.3142 -0.0263  0.2858
 8437SOL    HW136944   2.935   4.250   2.030  1.5765 -0.1533  1.5092
 8437SOL    HW236945   2.862   4.295   2.145 -1.4432 -0.8689 -0.9265
 8438SOL     OW36946   3.192   4.273   7.803 -0.5242 -0.2145 -0.4969
 8438SOL    HW136947   3.193   4.363   7.837 -1.4335 -1.2870  2.4067
 8438SOL    HW236948   3.119   4.240   7.856  1.1569 -1.4210  1.0658
 8439SOL     OW36949   4.216   0.264  13.085 -0.3494  0.4321  0.4949
 8439SOL    HW136950   4.214   0.293  12.994 -1.6119 -1.3159 -0.0257
 8439SOL    HW236951   4.308   0.265  13.114 -0.6921  0.9588  1.5710
 8440SOL     OW36952   4.380   1.810   0.838 -0.0507  0.7609  0.8491
 8440SOL    HW136953   4.408   1.900   0.849  3.0197 -0.1463  0.3561
 8440SOL    HW236954   4.301   1.811   0.893 -0.1181 -0.8663  0.7993
 8441SOL     OW36955   0.022   0.791   8.192 -0.2534  0.0878  0.4497
 8441SOL    HW136956   4.674   0.819   8.161  0.7825  1.2865 -1.3471
 8441SOL    HW236957   0.046   0.876   8.229  0.5241 -0.9438  2.3140
 8442SOL     OW36958   4.284   2.426  13.866 -0.1377  0.1338  0.0919
 8442SOL    HW136959   4.339   2.356  13.832 -0.7665 -0.9097  1.2463
 8442SOL    HW236960   4.211   2.373  13.897  0.3686 -1.1104 -0.8592
 8443SOL     OW36961   2.473   1.866   3.070 -0.1052  0.2239 -0.1276
 8443SOL    HW136962   2.534   1.812   3.020 -0.1827 -0.5408  0.5958
 8443SOL    HW236963   2.418   1.806   3.121  0.7808 -0.6534 -0.2079
 8444SOL     OW36964   1.846   1.145   3.419  0.2363  0.4156  0.0863
 8444SOL    HW136965   1.918   1.205   3.396  0.8746  0.7158  2.8760
 8444SOL    HW236966   1.871   1.112   3.505  0.5829  1.2582  0.3074
 8445SOL     OW36967   0.002   4.174   1.815  0.0300  0.5000  0.0601
 8445SOL    HW136968   0.046   4.246   1.769  1.7297 -0.6667 -0.1268
 8445SOL    HW236969   0.014   4.225   1.895 -1.9764  0.9250  0.0925
 8446SOL     OW36970   0.125   1.582  17.260 -0.2151 -0.1203 -0.9151
 8446SOL    HW136971   0.116   1.618  17.348  0.5539 -1.5931 -0.2366
 8446SOL    HW236972   0.203   1.632  17.234 -0.3348 -0.3537 -1.7127
 8447SOL     OW36973   0.010   3.154   6.293 -0.4243 -0.1056 -0.1661
 8447SOL    HW136974   4.660   3.171   6.260  0.5621  2.6175 -1.3984
 8447SOL    HW236975   4.735   3.168   6.387 -0.3453 -1.9148  0.1069
 8448SOL     OW36976   0.701   0.273   3.339  0.1307  0.0255 -0.0276
 8448SOL    HW136977   0.684   0.179   3.346  0.3152 -0.2190 -3.0195
 8448SOL    HW236978   0.788   0.287   3.377  0.9707 -0.8640 -1.6049
 8449SOL     OW36979   1.695   0.140   9.216 -0.2427  0.3085  0.1290
 8449SOL    HW136980   1.671   0.151   9.308  1.8884  0.5553  0.6392
 8449SOL    HW236981   1.659   0.220   9.178 -0.3099  0.4008  0.3928
 8450SOL     OW36982   4.362   3.198   6.681  0.0292 -0.0327  0.2489
 8450SOL    HW136983   4.289   3.137   6.678 -0.2100  0.2355  0.6758
 8450SOL    HW236984   4.315   3.278   6.658 -0.0091  0.3443  1.6302
 8451SOL     OW36985   3.671   3.940   9.956 -0.8256  0.5410  0.0362
 8451SOL    HW136986   3.704   3.992   9.883  1.9813  0.5843  1.3387
 8451SOL    HW236987   3.702   3.851   9.941  2.0064  1.7182 -1.0190
 8452SOL     OW36988   0.958   0.050   8.792  0.3599 -0.3772  0.5388
 8452SOL    HW136989   0.928   4.737   8.867  1.1349  0.8971  1.7210
 8452SOL    HW236990   0.924   0.135   8.820 -2.7780 -0.4983 -2.9689
 8453SOL     OW36991   1.332   0.283   1.575  0.4086 -0.0362  0.2565
 8453SOL    HW136992   1.388   0.215   1.611  0.5454 -0.3145 -0.4715
 8453SOL    HW236993   1.268   0.306   1.642  0.6180  0.7660  0.1739
 8454SOL     OW36994   3.704   1.262   9.790 -0.2370 -0.8425  0.2941
 8454SOL    HW136995   3.656   1.193   9.836 -0.5250  1.0047  2.7730
 8454SOL    HW236996   3.766   1.213   9.736 -0.2857  0.6151 -1.0989
 8455SOL     OW36997   1.996   1.885   2.856 -0.6421  0.7539 -0.0689
 8455SOL    HW136998   1.989   1.880   2.951 -2.1996  3.8290 -0.0427
 8455SOL    HW236999   1.947   1.965   2.837  1.0440  1.8785  0.2685
 8456SOL     OW37000   0.248   1.847   6.999 -0.6428 -0.2663 -0.0518
 8456SOL    HW137001   0.243   1.768   7.053 -0.8684 -1.1984 -1.4349
 8456SOL    HW237002   0.189   1.906   7.045 -3.5974 -1.8162 -1.8958
 8457SOL     OW37003   2.617   1.914   6.892 -0.0881 -0.0682  0.1457
 8457SOL    HW137004   2.571   1.935   6.812 -0.4178  1.0294  0.6287
 8457SOL    HW237005   2.607   1.986   6.954 -0.5177 -0.0078  0.0020
 8458SOL     OW37006   1.842   4.257  17.682  0.2257  0.2806 -0.2884
 8458SOL    HW137007   1.878   4.238  17.595 -1.8790 -0.1149 -1.0735
 8458SOL    HW237008   1.761   4.206  17.682  1.4388 -1.6493 -1.0292
 8459SOL     OW37009   4.359   1.171   5.563  0.7891 -0.2191  0.5780
 8459SOL    HW137010   4.276   1.216   5.548  0.4406 -1.5642 -1.5795
 8459SOL    HW237011   4.411   1.192   5.485 -0.5933 -0.9533 -0.5547
 8460SOL     OW37012   3.623   1.243   1.120 -0.0471  0.2152  0.1046
 8460SOL    HW137013   3.556   1.305   1.148 -1.7223 -1.7730  0.4669
 8460SOL    HW237014   3.701   1.288   1.155  0.5519 -2.3196  2.1038
 8461SOL     OW37015   2.947   3.979   8.584  0.1199  0.4054 -0.7610
 8461SOL    HW137016   2.999   4.021   8.516 -0.3960  1.7389 -0.3269
 8461SOL    HW237017   2.999   3.990   8.664  0.5407 -0.1123 -0.9677
 8462SOL     OW37018   1.285   0.462  12.102 -0.2640  0.5752 -0.4600
 8462SOL    HW137019   1.273   0.547  12.145  1.0614  0.7805 -0.4905
 8462SOL    HW237020   1.196   0.426  12.108  0.6931 -1.6235  0.3745
 8463SOL     OW37021   4.515   0.989   7.356 -0.6855  0.1067 -0.1339
 8463SOL    HW137022   4.427   1.000   7.320 -0.8499  0.5681  0.4285
 8463SOL    HW237023   4.530   1.078   7.387 -3.7237  0.2338  0.9636
 8464SOL     OW37024   0.421   1.525   2.564 -0.3189 -0.1354 -0.0297
 8464SOL    HW137025   0.471   1.484   2.494 -3.4247 -0.8779 -1.7930
 8464SOL    HW237026   0.334   1.485   2.558 -1.3040  1.9036  0.3218
 8465SOL     OW37027   0.728   2.399   4.024  0.4921  0.5567  0.0169
 8465SOL    HW137028   0.636   2.409   4.048 -0.5408 -2.2404 -2.7209
 8465SOL    HW237029   0.722   2.443   3.939 -2.6041 -0.9979 -0.5537
 8466SOL     OW37030   2.584   4.286   1.365  0.1360  0.1073 -0.0360
 8466SOL    HW137031   2.501   4.238   1.362  0.5277 -0.6331  1.1787
 8466SOL    HW237032   2.611   4.247   1.448  0.3442  0.2156 -0.0528
 8467SOL     OW37033   1.416   3.881   2.886 -0.0860 -0.4485  0.0236
 8467SOL    HW137034   1.484   3.815   2.899 -0.8048 -0.9111  1.3177
 8467SOL    HW237035   1.430   3.895   2.792 -1.7946 -2.7196 -0.5415
 8468SOL     OW37036   3.089   4.607   4.060  0.3051 -0.2358 -0.0705
 8468SOL    HW137037   3.177   4.570   4.072  1.3554  1.9527 -1.2553
 8468SOL    HW237038   3.106   4.689   4.014 -1.2229 -0.3643 -0.8328
 8469SOL     OW37039   3.280   3.452   9.501 -0.1124  0.0099 -0.2959
 8469SOL    HW137040   3.354   3.488   9.549 -1.0464 -1.1059  1.9866
 8469SOL    HW237041   3.205   3.484   9.551  1.3517  2.4783  0.2996
 8470SOL     OW37042   3.210   1.170  12.283  0.3160 -0.4200  0.1710
 8470SOL    HW137043   3.123   1.198  12.254  0.7028 -1.4088 -1.9348
 8470SOL    HW237044   3.197   1.163  12.378 -1.4130 -0.1276 -0.0396
 8471SOL     OW37045   4.364   2.147  11.163  0.4688  0.6987  0.0963
 8471SOL    HW137046   4.405   2.214  11.108  0.3800 -0.6058 -1.5642
 8471SOL    HW237047   4.390   2.065  11.121  1.3286  1.3594 -0.6553
 8472SOL     OW37048   0.818   2.204   3.646 -0.3273  0.2477 -0.1658
 8472SOL    HW137049   0.727   2.178   3.636 -0.1288 -0.0932 -1.0640
 8472SOL    HW237050   0.836   2.159   3.729 -1.2676 -0.2470 -0.2275
 8473SOL     OW37051   1.878   1.551   8.520  0.6720  0.7868 -0.0287
 8473SOL    HW137052   1.956   1.604   8.536  2.5964 -1.5430 -1.8854
 8473SOL    HW237053   1.822   1.620   8.483 -1.7680 -1.9325 -1.4164
 8474SOL     OW37054   1.386   4.338   5.754 -0.0297  0.3436  0.3432
 8474SOL    HW137055   1.446   4.350   5.827 -0.6032 -1.0771  1.0510
 8474SOL    HW237056   1.313   4.397   5.771 -1.5929 -1.6784  0.7934
 8475SOL     OW37057   4.420   4.540   5.352 -0.3534  0.8724 -0.7387
 8475SOL    HW137058   4.463   4.547   5.437 -3.2193  2.6222  0.5724
 8475SOL    HW237059   4.429   4.446   5.335  0.2241  1.4431 -3.5394
 8476SOL     OW37060   1.292   2.496   6.971  0.4089 -0.0581 -0.2393
 8476SOL    HW137061   1.316   2.434   7.039 -1.8663 -1.3371 -0.5955
 8476SOL    HW237062   1.303   2.579   7.018 -0.7399 -0.4234  0.6749
 8477SOL     OW37063   1.448   2.790   9.006 -0.2460  1.0826 -0.2411
 8477SOL    HW137064   1.462   2.869   8.955 -0.8897  0.4605 -1.3715
 8477SOL    HW237065   1.356   2.795   9.033 -0.7783 -1.0835 -1.6260
 8478SOL     OW37066   1.630   0.929  12.678 -0.1404 -0.1241  0.1989
 8478SOL    HW137067   1.563   0.993  12.704 -0.4137  0.9108 -3.1076
 8478SOL    HW237068   1.653   0.906  12.768 -2.4603  1.5845  1.2221
 8479SOL     OW37069   3.621   4.270   7.501 -0.0315  1.3197  0.3443
 8479SOL    HW137070   3.588   4.281   7.412  1.6197  3.2127 -0.0261
 8479SOL    HW237071   3.698   4.214   7.497 -1.1531 -0.3221  1.9301
 8480SOL     OW37072   0.332   2.302   9.817  0.3919 -0.3110 -0.5374
 8480SOL    HW137073   0.332   2.303   9.912 -2.7243  1.4303 -0.5480
 8480SOL    HW237074   0.244   2.339   9.806  1.6575  2.9823  0.4135
 8481SOL     OW37075   2.354   0.699   3.390  0.2448 -0.2331 -0.5599
 8481SOL    HW137076   2.293   0.765   3.423  0.6290  0.0003 -0.3209
 8481SOL    HW237077   2.347   0.704   3.294 -1.0166 -2.6859 -0.5980
 8482SOL     OW37078   0.081   4.290   8.568 -0.2977 -0.1366  0.0318
 8482SOL    HW137079   0.106   4.258   8.655  0.5543 -0.1293 -0.2129
 8482SOL    HW237080   0.030   4.366   8.596  1.6639  0.1783  2.7861
 8483SOL     OW37081   0.195   2.358   8.387  0.7655 -0.3461 -0.8744
 8483SOL    HW137082   0.155   2.355   8.474  0.1151 -2.2977 -1.2495
 8483SOL    HW237083   0.286   2.387   8.389  0.3796  0.9102 -1.3854
 8484SOL     OW37084   3.006   1.235  10.633  0.2386 -0.5377 -0.8014
 8484SOL    HW137085   2.922   1.220  10.591 -0.5346  0.0366  0.5362
 8484SOL    HW237086   2.976   1.223  10.723  1.3293  1.1305 -0.2075
 8485SOL     OW37087   3.745   3.057   3.936  0.3377  0.2278  0.0031
 8485SOL    HW137088   3.725   3.131   3.995 -2.0422 -1.5027  1.3839
 8485SOL    HW237089   3.783   3.089   3.854 -0.3157 -0.8518 -0.7230
 8486SOL     OW37090   3.067   4.324   7.082 -0.2551  0.2161  0.0739
 8486SOL    HW137091   3.118   4.245   7.104 -0.6952 -0.1762 -0.3247
 8486SOL    HW237092   2.983   4.282   7.063 -1.1415  1.7291  0.7157
 8487SOL     OW37093   3.125   3.253   2.616 -0.2421  0.1180  0.3322
 8487SOL    HW137094   3.032   3.245   2.597 -0.4719  1.2090  1.0108
 8487SOL    HW237095   3.156   3.232   2.528 -1.1086 -0.5992  0.1987
 8488SOL     OW37096   3.758   1.689   1.086  0.2799  0.2767 -0.0373
 8488SOL    HW137097   3.765   1.724   0.997  0.2312 -2.9768 -1.3238
 8488SOL    HW237098   3.669   1.722   1.100  0.3959  0.3551  0.5204
 8489SOL     OW37099   2.448   3.959   9.024 -0.3573  0.1877 -0.0187
 8489SOL    HW137100   2.414   3.952   9.114 -0.9154 -1.8365 -0.3949
 8489SOL    HW237101   2.377   3.914   8.978 -0.1050 -0.1063 -0.1166
 8490SOL     OW37102   1.696   1.411   4.909  0.2642  0.1170 -0.8426
 8490SOL    HW137103   1.758   1.484   4.906 -0.0837  0.4469 -0.0733
 8490SOL    HW237104   1.618   1.461   4.934  1.3833  2.5925 -2.3052
 8491SOL     OW37105   2.622   0.610  15.014 -0.1321  0.6679 -0.2166
 8491SOL    HW137106   2.590   0.700  15.013 -2.2795 -0.0453  3.4577
 8491SOL    HW237107   2.583   0.571  14.937 -0.6634  1.7742 -0.5055
 8492SOL     OW37108   1.322   0.795   6.898  0.1734  0.2037 -0.2479
 8492SOL    HW137109   1.291   0.860   6.961  0.7409 -0.4566  0.7152
 8492SOL    HW237110   1.416   0.810   6.907 -0.0628  1.9227 -0.7893
 8493SOL     OW37111   0.839   1.938   9.246  0.5545  0.2659 -0.2741
 8493SOL    HW137112   0.794   1.904   9.324  2.8546  1.0564  1.4064
 8493SOL    HW237113   0.765   1.971   9.196 -0.2132 -2.3045 -0.7829
 8494SOL     OW37114   2.561   4.072   3.803  0.1392  0.1849  0.6516
 8494SOL    HW137115   2.532   4.087   3.893 -0.2464 -0.9121  0.7066
 8494SOL    HW237116   2.563   3.976   3.801  0.3518  0.2132 -1.2313
 8495SOL     OW37117   4.508   4.406  12.412 -0.3227 -0.7251 -0.1553
 8495SOL    HW137118   4.510   4.315  12.441  3.3691 -1.1792 -1.8874
 8495SOL    HW237119   4.598   4.436  12.409  0.2747 -2.8821 -3.5288
 8496SOL     OW37120   0.583   2.278  13.793 -0.3072 -0.1523 -0.1244
 8496SOL    HW137121   0.585   2.273  13.698 -1.5484 -2.0134 -0.0548
 8496SOL    HW237122   0.588   2.186  13.817  1.1507 -0.0061  0.1040
 8497SOL     OW37123   2.817   0.420   4.134 -0.2784  0.0833 -0.1952
 8497SOL    HW137124   2.877   0.362   4.088 -0.9053 -1.8961  1.4910
 8497SOL    HW237125   2.795   0.373   4.214 -4.1204 -0.8764 -1.8219
 8498SOL     OW37126   1.985   4.730   4.068 -0.0498  0.4814  0.0351
 8498SOL    HW137127   2.021   4.734   4.157  0.8961 -0.1148 -0.3182
 8498SOL    HW237128   2.034   4.658   4.028 -0.6805  0.1659 -0.1613
 8499SOL     OW37129   2.830   1.948   3.164  0.2724  0.1434  0.4849
 8499SOL    HW137130   2.914   1.911   3.136  1.6201  3.2378  0.3875
 8499SOL    HW237131   2.798   1.877   3.220  1.9121 -2.0625 -1.3856
 8500SOL     OW37132   2.130   3.581   7.516  0.0970 -0.1686 -0.0702
 8500SOL    HW137133   2.132   3.669   7.554 -2.8739  0.4996 -1.5009
 8500SOL    HW237134   2.163   3.530   7.590  1.3922  1.6916  0.6514
 8501SOL     OW37135   0.593   3.143   8.314  0.4817  0.3120 -0.2329
 8501SOL    HW137136   0.580   3.210   8.382 -0.6969  0.1286 -0.2769
 8501SOL    HW237137   0.563   3.203   8.246  1.7051  0.1912 -0.8795
 8502SOL     OW37138   0.997   3.053   3.656  0.4902 -0.8382  0.0141
 8502SOL    HW137139   0.943   3.128   3.679  3.1620  0.5398  1.8553
 8502SOL    HW237140   0.924   3.005   3.617  0.4834 -1.6116  0.9727
 8503SOL     OW37141   3.845   3.474   2.571 -0.0803  0.2291  0.1219
 8503SOL    HW137142   3.938   3.494   2.561 -0.1836  0.2072 -0.9174
 8503SOL    HW237143   3.825   3.499   2.661  0.0741  0.9285 -0.0397
 8504SOL     OW37144   4.402   0.318  11.179  0.7289  0.6134  0.0686
 8504SOL    HW137145   4.420   0.361  11.263 -1.9303  0.0245  0.9622
 8504SOL    HW237146   4.404   0.229  11.214  0.8183  0.5292 -0.1538
 8505SOL     OW37147   0.394   0.726   7.008 -0.1272 -0.5381 -0.0425
 8505SOL    HW137148   0.322   0.789   7.015  1.9361  2.1549 -2.8954
 8505SOL    HW237149   0.338   0.650   7.022 -1.5922  0.2311 -1.6185
 8506SOL     OW37150   2.175   2.093  10.089  0.1371  0.8957  0.2595
 8506SOL    HW137151   2.166   2.147  10.168  1.4782 -0.4606  1.3384
 8506SOL    HW237152   2.106   2.027  10.095  0.7009  0.4837  2.2828
 8507SOL     OW37153   4.240   2.684  13.881 -0.1472 -0.4815 -0.2734
 8507SOL    HW137154   4.194   2.678  13.797  1.3259 -0.7003 -1.0634
 8507SOL    HW237155   4.263   2.591  13.882  1.2533 -0.1177  0.6672
 8508SOL     OW37156   4.252   1.739  11.477  0.2928 -0.3690 -0.0100
 8508SOL    HW137157   4.157   1.739  11.489  0.5002  1.4050  1.7566
 8508SOL    HW237158   4.272   1.652  11.442 -2.5333 -0.3896 -1.5374
 8509SOL     OW37159   0.044   1.974  16.655  0.1761  0.7834 -0.2782
 8509SOL    HW137160   0.137   1.997  16.659 -0.1948  1.9898  1.3069
 8509SOL    HW237161   0.048   1.878  16.656 -0.1723  0.7669 -0.6184
 8510SOL     OW37162   1.313   4.304  10.673  0.0078  0.0663  0.4810
 8510SOL    HW137163   1.393   4.357  10.674 -0.1268  0.1928  4.0623
 8510SOL    HW237164   1.250   4.356  10.622 -0.8970 -0.2848  1.2477
 8511SOL     OW37165   4.469   4.599   0.719 -0.5421 -0.0385 -0.6372
 8511SOL    HW137166   4.550   4.643   0.691 -0.6841  2.3021  2.6103
 8511SOL    HW237167   4.512   4.514   0.725 -3.3838 -1.2351  2.6789
 8512SOL     OW37168   3.588   0.217   2.772 -0.1499 -0.2093  0.2471
 8512SOL    HW137169   3.593   0.128   2.806  4.1873 -1.3155 -3.3602
 8512SOL    HW237170   3.500   0.215   2.733  0.1312 -0.1753 -0.3880
 8513SOL     OW37171   2.440   4.243   6.282  0.1252  0.1600 -0.2395
 8513SOL    HW137172   2.435   4.228   6.188 -1.9862  0.2866 -0.1652
 8513SOL    HW237173   2.346   4.261   6.287  0.3633  1.5131 -0.5266
 8514SOL     OW37174   2.531   0.496   0.328  0.2957 -0.3008 -0.0632
 8514SOL    HW137175   2.471   0.537   0.267  1.1545  1.4679  0.2935
 8514SOL    HW237176   2.573   0.572   0.369  0.4025 -0.1041 -0.5381
 8515SOL     OW37177   1.093   0.430   2.724  0.1129  0.8260  0.0967
 8515SOL    HW137178   0.998   0.420   2.734  0.1807  0.0607 -0.0110
 8515SOL    HW237179   1.102   0.507   2.668  1.2778  0.9152  0.4010
 8516SOL     OW37180   3.741   1.982  15.749  0.2175  0.3137  0.8152
 8516SOL    HW137181   3.742   1.914  15.817  4.7492 -0.2104  0.1954
 8516SOL    HW237182   3.830   1.965  15.718  0.1434 -0.5807  1.0866
 8517SOL     OW37183   4.306   1.010  17.088  0.2121  0.0739  0.1522
 8517SOL    HW137184   4.267   1.095  17.066 -0.5516 -0.4141 -0.3708
 8517SOL    HW237185   4.232   0.951  17.079  1.0563 -0.9723  0.1231
 8518SOL     OW37186   1.639   3.265   2.373 -0.3969  0.0428 -0.8799
 8518SOL    HW137187   1.680   3.189   2.334  0.5329 -1.0854  2.2712
 8518SOL    HW237188   1.672   3.274   2.463  0.1897  2.2890 -1.3212
 8519SOL     OW37189   3.370   3.766   7.077  0.0064  0.0325  0.0592
 8519SOL    HW137190   3.408   3.679   7.075 -1.3641 -0.4923 -3.0215
 8519SOL    HW237191   3.328   3.781   6.992 -0.7241  0.8984  0.5729
 8520SOL     OW37192   4.037   0.303   6.178 -0.0569 -0.6342 -0.1705
 8520SOL    HW137193   3.996   0.221   6.151 -0.2824 -1.2203  1.9717
 8520SOL    HW237194   4.095   0.280   6.250 -1.4684 -1.2261  0.7542
 8521SOL     OW37195   3.106   3.662   5.035 -0.2880 -0.0218  0.1025
 8521SOL    HW137196   3.115   3.645   4.942 -2.0183  0.7956 -0.2101
 8521SOL    HW237197   3.178   3.724   5.052 -0.4326  0.2987 -0.4689
 8522SOL     OW37198   0.205   3.719   2.448  0.0964 -0.3890 -0.3382
 8522SOL    HW137199   0.189   3.738   2.356 -2.0962 -5.3017 -1.0277
 8522SOL    HW237200   0.251   3.795   2.482  0.5940 -0.2201 -1.4006
 8523SOL     OW37201   1.284   3.688   6.238  0.5277  0.0758  0.2057
 8523SOL    HW137202   1.305   3.648   6.322  1.4020  0.6810  0.2690
 8523SOL    HW237203   1.283   3.612   6.178  1.7127  1.3722 -1.4602
 8524SOL     OW37204   1.087   0.693   2.603  0.3530 -0.1083 -0.3608
 8524SOL    HW137205   1.080   0.788   2.595 -0.1065 -0.1420 -0.3895
 8524SOL    HW237206   1.038   0.662   2.526  0.9021 -0.3153 -0.6318
 8525SOL     OW37207   2.870   2.794  13.459 -0.0386  0.2547 -0.0529
 8525SOL    HW137208   2.807   2.803  13.531  2.3954 -2.6754  2.4426
 8525SOL    HW237209   2.826   2.778  13.376 -1.7412 -0.9175  1.0637
 8526SOL     OW37210   0.030   0.305   1.128 -0.3291  0.2532  0.6951
 8526SOL    HW137211   0.115   0.293   1.084 -0.4135 -1.2644  0.9497
 8526SOL    HW237212   0.064   0.353   1.204  1.7785  1.0386 -0.7346
 8527SOL     OW37213   2.719   4.451   7.005 -0.3924  0.0538 -0.1494
 8527SOL    HW137214   2.654   4.386   7.030 -0.6582  1.1586  2.0923
 8527SOL    HW237215   2.702   4.471   6.913 -0.2661  4.7062  0.8172
 8528SOL     OW37216   3.581   4.606   5.616  0.0498 -0.5958 -0.0465
 8528SOL    HW137217   3.612   4.535   5.559  2.5386 -0.0072  0.5483
 8528SOL    HW237218   3.583   4.678   5.553  0.2162 -0.1670  0.4485
 8529SOL     OW37219   2.089   0.146  10.680  0.3001  0.1998 -0.2370
 8529SOL    HW137220   2.105   0.229  10.635 -0.7909  0.3790 -0.2955
 8529SOL    HW237221   2.151   0.091  10.630  1.2652  1.0049  0.0695
 8530SOL     OW37222   1.381   0.971   3.973  0.3610  0.0285 -1.1736
 8530SOL    HW137223   1.457   1.026   3.992  1.5504 -2.0176 -0.0555
 8530SOL    HW237224   1.396   0.903   4.038 -1.5197  0.6983 -0.0335
 8531SOL     OW37225   3.737   1.082   8.298 -0.4222 -0.4958 -0.0456
 8531SOL    HW137226   3.736   1.034   8.381  0.6839  1.0118  0.8306
 8531SOL    HW237227   3.813   1.135   8.318 -1.4430  1.1874 -0.6579
 8532SOL     OW37228   4.079   0.900  12.853  0.4133  0.5547 -0.6154
 8532SOL    HW137229   4.010   0.949  12.807 -0.3710 -1.4802 -1.5845
 8532SOL    HW237230   4.072   0.807  12.832  0.9294 -0.1793  2.5674
 8533SOL     OW37231   1.379   4.270   3.676  0.0007  0.5827 -0.2133
 8533SOL    HW137232   1.304   4.265   3.616  0.7264 -0.1885 -1.0426
 8533SOL    HW237233   1.445   4.309   3.619  0.9523  0.8683  1.1038
 8534SOL     OW37234   0.571   1.960  16.981 -0.8014  0.9371 -0.9342
 8534SOL    HW137235   0.658   1.923  16.999 -2.0380 -2.1642 -1.2693
 8534SOL    HW237236   0.528   1.885  16.940 -0.5821 -0.0716  0.6668
 8535SOL     OW37237   3.126   0.321  17.036  0.0171 -0.7129  0.0813
 8535SOL    HW137238   3.215   0.286  17.039  0.4643  0.3599 -0.4970
 8535SOL    HW237239   3.129   0.403  17.086  0.7962 -0.9680  0.4634
 8536SOL     OW37240   3.721   0.412   1.964 -0.0475  0.0760 -0.0042
 8536SOL    HW137241   3.660   0.347   1.929  1.5449 -1.8937  0.9734
 8536SOL    HW237242   3.659   0.484   1.975 -0.0847 -0.2038  1.5294
 8537SOL     OW37243   4.038   2.751  15.756  0.0174 -0.1144  0.4277
 8537SOL    HW137244   4.043   2.689  15.684  1.0386  3.0796 -2.2071
 8537SOL    HW237245   4.026   2.836  15.714  0.0121  1.7459  4.1905
 8538SOL     OW37246   2.662   1.159   4.804  0.3799  0.4967 -0.3656
 8538SOL    HW137247   2.742   1.211   4.796  1.6172 -1.8492 -3.0937
 8538SOL    HW237248   2.685   1.089   4.744  2.0460  1.5650 -0.9807
 8539SOL     OW37249   0.475   0.134   7.428 -0.2106 -0.0493  0.3579
 8539SOL    HW137250   0.380   0.135   7.416 -0.1468  2.9536  0.1566
 8539SOL    HW237251   0.481   0.085   7.510  2.2490  2.2484  1.5460
 8540SOL     OW37252   2.207   4.011   4.264  0.3762 -0.3388 -1.1600
 8540SOL    HW137253   2.169   3.988   4.179 -2.7875  0.2948  0.0743
 8540SOL    HW237254   2.293   3.970   4.254  0.8148 -0.4331  3.2037
 8541SOL     OW37255   1.366   1.353   6.408  0.4339 -0.1385  0.3007
 8541SOL    HW137256   1.297   1.293   6.436  0.6656 -0.8622 -0.6755
 8541SOL    HW237257   1.439   1.313   6.455 -0.2105 -0.9939  0.5630
 8542SOL     OW37258   4.546   3.615   4.930  0.2252  0.0463  0.0926
 8542SOL    HW137259   4.497   3.547   4.884 -1.0016  0.6552  0.4670
 8542SOL    HW237260   4.593   3.550   4.982 -1.3333 -1.0443  0.1618
 8543SOL     OW37261   4.371   0.907   3.030  0.2804  0.3047 -0.0044
 8543SOL    HW137262   4.277   0.891   3.037  0.3547  0.0717  0.4838
 8543SOL    HW237263   4.383   0.943   2.942  0.3855  0.0892 -0.0783
 8544SOL     OW37264   1.009   0.942   5.903 -0.0440 -0.5075  0.2886
 8544SOL    HW137265   1.083   0.913   5.956  0.3088  1.0427  0.6461
 8544SOL    HW237266   1.031   1.035   5.899  2.2163 -1.0165  0.8840
 8545SOL     OW37267   2.872   2.881   2.675 -0.1342  0.5278 -0.2901
 8545SOL    HW137268   2.922   2.945   2.725 -1.5245  3.6116 -2.8247
 8545SOL    HW237269   2.942   2.850   2.618 -0.7688  0.0045 -0.7785
 8546SOL     OW37270   3.455   1.232   0.447 -0.0638 -0.7593 -0.8631
 8546SOL    HW137271   3.490   1.277   0.524  1.3835 -1.7948 -0.9169
 8546SOL    HW237272   3.536   1.205   0.403 -1.1663 -1.4413 -2.4695
 8547SOL     OW37273   0.926   4.444  12.546  0.4076  0.0072 -0.3238
 8547SOL    HW137274   0.944   4.499  12.470  0.3883  2.7725  1.6568
 8547SOL    HW237275   1.011   4.400  12.555  1.6691  2.6256  0.6909
 8548SOL     OW37276   3.375   0.010   4.468  0.8912  0.2864  0.2627
 8548SOL    HW137277   3.346   0.100   4.484 -2.6274 -0.0763 -4.3671
 8548SOL    HW237278   3.384   4.734   4.374  0.4145  0.8553  0.1315
 8549SOL     OW37279   3.427   1.379   0.012 -0.1506  0.5044  0.0810
 8549SOL    HW137280   3.487   1.443  17.724  0.4390 -1.6182 -2.4976
 8549SOL    HW237281   3.361   1.439   0.046  0.0605 -0.2664  1.8402
 8550SOL     OW37282   2.827   2.483  16.163  0.3194  0.1552  0.2584
 8550SOL    HW137283   2.755   2.496  16.224 -0.0305  2.6683 -0.6644
 8550SOL    HW237284   2.847   2.390  16.174 -2.5217 -0.6340 -1.0192
 8551SOL     OW37285   1.439   1.785   2.655 -0.0208  0.2740  0.5679
 8551SOL    HW137286   1.462   1.878   2.654 -2.2734  0.8219  0.1657
 8551SOL    HW237287   1.365   1.792   2.595  0.7572 -0.4244 -0.4641
 8552SOL     OW37288   2.505   3.300   9.564 -0.0309 -0.5948 -0.1346
 8552SOL    HW137289   2.443   3.363   9.528  0.3334 -0.5600 -0.7047
 8552SOL    HW237290   2.549   3.357   9.627 -0.5689 -2.0200  1.5170
 8553SOL     OW37291   3.895   0.435   2.897  0.3971  0.6923  0.4014
 8553SOL    HW137292   3.806   0.455   2.870  0.0095  0.6898  1.6802
 8553SOL    HW237293   3.895   0.340   2.910  0.2320  0.2174 -3.1773
 8554SOL     OW37294   2.462   3.140   1.314  0.0550 -0.5672 -0.3914
 8554SOL    HW137295   2.435   3.062   1.363  0.4015  0.1102  0.8937
 8554SOL    HW237296   2.379   3.183   1.295 -0.9858 -1.6711  1.6579
 8555SOL     OW37297   3.583   3.735   4.005  0.6030 -0.0959  0.2653
 8555SOL    HW137298   3.530   3.700   4.077 -0.1110  0.1367 -0.1394
 8555SOL    HW237299   3.514   3.794   3.972  0.6408  0.2750  0.8357
 8556SOL     OW37300   1.560   4.315   6.474  0.6998 -0.2167 -0.4075
 8556SOL    HW137301   1.643   4.286   6.513 -0.4503  0.0977  2.2204
 8556SOL    HW237302   1.562   4.408   6.494 -0.9783 -0.0459 -1.1075
 8557SOL     OW37303   3.922   0.576   4.837  0.3413 -0.6228  0.0670
 8557SOL    HW137304   3.884   0.488   4.849 -1.3909  0.3445  1.7151
 8557SOL    HW237305   3.992   0.584   4.901 -1.8691  1.7865  2.1955
 8558SOL     OW37306   3.457   2.890  13.758 -0.0444  0.8869 -0.0013
 8558SOL    HW137307   3.451   2.943  13.678 -0.9455  0.7248 -0.0419
 8558SOL    HW237308   3.524   2.938  13.808  0.2831 -0.3930  0.7790
 8559SOL     OW37309   4.674   0.507   4.555  0.2335 -0.0451 -0.0669
 8559SOL    HW137310   4.693   0.502   4.462 -1.2351  2.3027 -0.4758
 8559SOL    HW237311   4.582   0.488   4.571  0.3583 -0.4877  0.1369
 8560SOL     OW37312   0.818   4.201   2.076 -0.3926 -0.3648  0.4691
 8560SOL    HW137313   0.883   4.247   2.022 -1.7648 -0.1252 -1.0078
 8560SOL    HW237314   0.741   4.209   2.019 -0.7098  0.7055  1.0442
 8561SOL     OW37315   4.158   1.138   7.215  0.5048 -0.5750  0.4223
 8561SOL    HW137316   4.176   1.050   7.248  0.1175 -0.9362 -0.3430
 8561SOL    HW237317   4.231   1.141   7.153  0.8505 -2.5082  0.7522
 8562SOL     OW37318   0.845   4.299   6.243 -0.1885 -0.2441 -0.1053
 8562SOL    HW137319   0.867   4.230   6.181 -1.9131 -1.3636  0.5474
 8562SOL    HW237320   0.813   4.244   6.315 -0.6981 -0.4539 -0.4942
 8563SOL     OW37321   3.254   0.222   8.534 -0.4874  0.2528 -0.0473
 8563SOL    HW137322   3.233   0.150   8.593  1.2881 -0.5753 -0.4318
 8563SOL    HW237323   3.289   0.175   8.458  0.4267  0.4112  0.2745
 8564SOL     OW37324   1.641   4.415  16.624 -0.1497  0.1710  0.1871
 8564SOL    HW137325   1.630   4.328  16.584  0.4336  0.7432 -1.2361
 8564SOL    HW237326   1.735   4.425  16.635 -0.1819  0.5474  0.1333
 8565SOL     OW37327   3.425   4.311  17.513 -0.0646  0.5808 -0.0728
 8565SOL    HW137328   3.445   4.235  17.568 -0.6018  0.6625  0.2307
 8565SOL    HW237329   3.334   4.295  17.490  0.4117 -2.3121  0.1088
 8566SOL     OW37330   1.767   3.378   6.984  0.3410 -0.0447 -0.1767
 8566SOL    HW137331   1.691   3.437   6.985  0.1686 -0.2583 -0.4123
 8566SOL    HW237332   1.727   3.303   6.938  0.2040  0.9924 -1.7481
 8567SOL     OW37333   1.178   3.082   1.298 -0.1052 -0.6441  0.6614
 8567SOL    HW137334   1.127   3.118   1.370  2.1763 -3.7947  3.8803
 8567SOL    HW237335   1.230   3.152   1.259 -0.7600 -0.2281  0.5393
 8568SOL     OW37336   4.443   2.808   3.616  0.2522 -0.1810 -0.1310
 8568SOL    HW137337   4.372   2.838   3.560 -1.3740  1.4184  2.8265
 8568SOL    HW237338   4.489   2.888   3.642 -0.1066 -0.1879  0.5357
 8569SOL     OW37339   0.339   4.287   5.153  0.0977  0.8739 -0.2698
 8569SOL    HW137340   0.399   4.212   5.159 -1.1288 -0.1861 -1.4985
 8569SOL    HW237341   0.356   4.341   5.230 -0.6399 -1.8676  1.8481
 8570SOL     OW37342   0.233   4.696   2.782  0.0645  0.1862 -0.3447
 8570SOL    HW137343   0.257   4.631   2.848 -1.2573 -0.5917 -0.6276
 8570SOL    HW237344   0.197   0.029   2.836  0.5469 -1.1265  1.7395
 8571SOL     OW37345   3.607   0.190  10.283  0.3714  0.7282 -0.0509
 8571SOL    HW137346   3.562   0.155  10.360 -1.5923  0.6456 -1.2298
 8571SOL    HW237347   3.539   0.248  10.248 -1.0457 -2.5435 -2.7652
 8572SOL     OW37348   0.632   1.833  10.561 -0.8458  0.5443 -0.0938
 8572SOL    HW137349   0.550   1.786  10.546 -1.6980  2.1123 -0.4133
 8572SOL    HW237350   0.687   1.800  10.490  0.7825 -0.5207  1.6755
 8573SOL     OW37351   3.631   3.930   9.551  0.0318 -0.6968 -0.1398
 8573SOL    HW137352   3.704   3.870   9.568  1.0754  1.5100  3.1837
 8573SOL    HW237353   3.674   3.995   9.607 -0.1844  1.3361 -2.2907
 8574SOL     OW37354   2.195   3.930   8.115  0.0878  0.0556  0.4956
 8574SOL    HW137355   2.163   3.860   8.059 -3.3661  0.0015  2.5635
 8574SOL    HW237356   2.228   3.986   8.044 -0.8568  1.8228  1.4335
 8575SOL     OW37357   3.390   0.762   2.999 -0.6575  0.2604 -0.5371
 8575SOL    HW137358   3.308   0.725   3.033  0.2338  2.0206  3.4362
 8575SOL    HW237359   3.380   0.857   2.990  2.2084  0.6011 -0.0776
 8576SOL     OW37360   2.423   0.027   7.640  0.2437 -0.8230  0.3301
 8576SOL    HW137361   2.431   0.093   7.710  2.8483 -1.4560  0.6363
 8576SOL    HW237362   2.503   0.054   7.596 -1.1889  1.7670 -0.7023
 8577SOL     OW37363   4.430   0.152   7.539  0.2684  0.4939 -0.9107
 8577SOL    HW137364   4.365   0.108   7.484  0.0027 -1.1565  0.7075
 8577SOL    HW237365   4.371   0.190   7.604 -0.7156 -1.3433 -0.7054
 8578SOL     OW37366   0.493   1.457  16.346  0.2392 -0.7425  0.3762
 8578SOL    HW137367   0.428   1.389  16.326 -0.2175  0.1341 -1.1555
 8578SOL    HW237368   0.452   1.531  16.302  1.9929  0.5750  0.9760
 8579SOL     OW37369   3.887   3.136   3.656 -0.1354  0.2684 -0.4384
 8579SOL    HW137370   3.879   3.196   3.582 -4.0791  0.7162  0.3288
 8579SOL    HW237371   3.801   3.094   3.650 -0.5365  1.0866 -0.4310
 8580SOL     OW37372   0.004   1.567   2.686  0.2608 -0.2160  0.0384
 8580SOL    HW137373   4.656   1.536   2.713  0.1907 -0.0884 -0.0388
 8580SOL    HW237374   0.039   1.598   2.770 -0.7056  0.3474  0.2332
 8581SOL     OW37375   3.419   4.146   9.810 -0.2320  0.0583  0.1869
 8581SOL    HW137376   3.328   4.173   9.803 -0.2828 -0.2315 -0.3131
 8581SOL    HW237377   3.419   4.055   9.778 -2.5768  0.8156 -1.9943
 8582SOL     OW37378   3.544   3.793   9.162 -0.1687 -0.0314 -0.0448
 8582SOL    HW137379   3.548   3.877   9.117  1.5986 -0.3209 -0.4396
 8582SOL    HW237380   3.452   3.779   9.186 -0.3658 -0.8479 -1.2826
 8583SOL     OW37381   0.111   0.950  15.408 -0.5298 -0.1718 -0.1328
 8583SOL    HW137382   0.206   0.962  15.407 -0.5366 -0.2610 -1.6375
 8583SOL    HW237383   0.111   0.891  15.332 -4.5381  0.0819 -0.3523
 8584SOL     OW37384   0.240   0.489   7.007 -0.0057  0.3002  0.1252
 8584SOL    HW137385   0.286   0.416   7.048  0.8064  0.1365 -1.0558
 8584SOL    HW237386   0.151   0.477   7.040 -0.2466  1.4665 -0.1079
 8585SOL     OW37387   4.012   3.266   8.129  0.6826  0.0809 -0.1307
 8585SOL    HW137388   3.954   3.333   8.092 -1.0347  0.1052  2.6109
 8585SOL    HW237389   4.075   3.259   8.057  0.2601 -1.0151 -0.3828
 8586SOL     OW37390   2.897   1.153  17.734  0.5875  0.2619  0.8568
 8586SOL    HW137391   2.872   1.109  17.652 -0.6114  2.1385  0.2159
 8586SOL    HW237392   2.872   1.240  17.700 -1.1783 -1.1070 -1.3895
 8587SOL     OW37393   1.361   2.701   3.951 -0.1348 -0.0075 -0.0796
 8587SOL    HW137394   1.400   2.659   4.027  2.0580 -0.5764 -1.5081
 8587SOL    HW237395   1.386   2.639   3.882 -0.5262  0.7841 -0.9247
 8588SOL     OW37396   0.478   2.001   9.858  0.1942  0.1753 -0.2580
 8588SOL    HW137397   0.511   2.082   9.897 -1.3665  0.6378  0.0979
 8588SOL    HW237398   0.564   1.963   9.839  0.1310 -0.2954  0.4155
 8589SOL     OW37399   2.193   0.292   3.782  0.0782 -0.3691  0.0067
 8589SOL    HW137400   2.226   0.334   3.862  1.4166  2.0388 -1.7815
 8589SOL    HW237401   2.250   0.215   3.775  1.2982  0.6933 -1.6740
 8590SOL     OW37402   2.244   1.959   9.654  0.1890 -0.1025 -0.1812
 8590SOL    HW137403   2.276   1.873   9.679  1.6479  0.0067 -1.6674
 8590SOL    HW237404   2.306   1.958   9.581  2.5447 -2.5146  1.8637
 8591SOL     OW37405   0.039   1.346   2.285  0.3211  0.0324  0.5073
 8591SOL    HW137406   0.048   1.308   2.198 -0.5788  2.8961 -0.8032
 8591SOL    HW237407   4.735   1.431   2.278  1.7608  0.8536  1.6397
 8592SOL     OW37408   2.715   1.421   6.219  0.3672  0.3514 -0.5774
 8592SOL    HW137409   2.641   1.478   6.201 -0.0441  0.4473  1.3635
 8592SOL    HW237410   2.786   1.485   6.211 -0.7419  1.5978 -0.4212
 8593SOL     OW37411   4.024   1.635   3.076 -0.6191 -0.4079 -0.2624
 8593SOL    HW137412   3.965   1.630   3.151  0.4523 -2.7340  0.4079
 8593SOL    HW237413   3.995   1.560   3.025 -1.0610 -0.0520 -0.5369
 8594SOL     OW37414   0.717   0.669   1.675 -0.1067 -0.2049  1.0288
 8594SOL    HW137415   0.791   0.728   1.669 -0.6056  0.4134  0.9394
 8594SOL    HW237416   0.658   0.717   1.733  0.5651  2.2098 -0.3194
 8595SOL     OW37417   2.481   3.742   7.350  0.0168 -0.4088  0.2678
 8595SOL    HW137418   2.526   3.666   7.387  2.2336  0.5533 -0.4406
 8595SOL    HW237419   2.480   3.800   7.426  0.8957 -2.1849  1.6276
 8596SOL     OW37420   1.122   0.572   5.872 -0.3343 -0.0091  0.4038
 8596SOL    HW137421   1.190   0.631   5.904 -0.3771  1.2104 -1.8036
 8596SOL    HW237422   1.173   0.515   5.815  1.3461  0.8890  1.0159
 8597SOL     OW37423   1.954   3.049  14.712  0.4654  0.1883 -0.2601
 8597SOL    HW137424   1.872   3.025  14.671  0.1505  1.0744 -0.1571
 8597SOL    HW237425   2.018   3.034  14.642 -0.1256 -1.9027 -0.3583
 8598SOL     OW37426   0.297   0.132   8.586 -0.0413 -0.3878  0.2850
 8598SOL    HW137427   0.379   0.163   8.549 -0.0783 -0.2225  0.3420
 8598SOL    HW237428   0.236   0.205   8.581  2.8150  1.9048 -0.9408
 8599SOL     OW37429   0.207   1.940   9.301 -0.0175  0.5749 -0.3608
 8599SOL    HW137430   0.186   1.856   9.341 -1.9114  0.6999 -1.0657
 8599SOL    HW237431   0.162   2.008   9.351  0.2294  0.5280 -0.0764
 8600SOL     OW37432   4.279   0.906   1.516  0.0048 -0.2534 -0.1328
 8600SOL    HW137433   4.291   0.927   1.424 -0.1999 -0.0365 -0.1099
 8600SOL    HW237434   4.320   0.819   1.521  2.4906  0.7512 -3.2302
 8601SOL     OW37435   1.243   4.056   6.580 -0.0042  0.0461  0.0299
 8601SOL    HW137436   1.273   3.965   6.591 -1.3667 -0.2342  1.5915
 8601SOL    HW237437   1.292   4.108   6.643  0.7299 -0.7386  0.1009
 8602SOL     OW37438   1.944   0.532   6.759  0.1377 -0.0123  0.4616
 8602SOL    HW137439   1.849   0.527   6.764 -0.0774  1.9259 -1.8274
 8602SOL    HW237440   1.959   0.616   6.717  2.1258 -0.3963  0.4151
 8603SOL     OW37441   3.327   0.563   6.174  0.6439  0.1297 -0.4368
 8603SOL    HW137442   3.370   0.490   6.129  1.0707 -0.9807  1.7580
 8603SOL    HW237443   3.400   0.611   6.211 -1.9067  1.9686  2.2013
 8604SOL     OW37444   1.540   2.443   3.009 -0.3989 -0.2073  0.1028
 8604SOL    HW137445   1.465   2.389   3.035  0.0056  0.0015  1.6877
 8604SOL    HW237446   1.506   2.532   3.009 -0.6795 -0.3108 -0.1984
 8605SOL     OW37447   2.192   0.297   8.539  0.1640  0.0712 -0.5560
 8605SOL    HW137448   2.288   0.306   8.546 -0.2673  3.3849  1.5349
 8605SOL    HW237449   2.191   0.268   8.448 -0.6221  2.3527 -1.2734
 8606SOL     OW37450   1.150   1.599   3.777 -0.0017 -0.3831  0.4562
 8606SOL    HW137451   1.142   1.691   3.754  0.5836 -0.9889 -2.2512
 8606SOL    HW237452   1.202   1.606   3.857  0.0957 -0.2645  0.3819
 8607SOL     OW37453   1.634   2.564   1.218 -0.4453 -0.1069  0.8925
 8607SOL    HW137454   1.721   2.603   1.224  0.2202 -1.7276  1.7832
 8607SOL    HW237455   1.581   2.626   1.268 -1.7924 -0.4943 -0.0439
 8608SOL     OW37456   1.334   3.253   9.251  0.0650 -0.6277 -0.0708
 8608SOL    HW137457   1.267   3.186   9.238 -0.9033  0.5200 -0.9592
 8608SOL    HW237458   1.289   3.331   9.221 -0.4000  0.0913  2.4882
 8609SOL     OW37459   2.825   0.612  16.938 -0.0671  0.5776 -0.7756
 8609SOL    HW137460   2.798   0.696  16.976  0.7762  0.7965 -0.6626
 8609SOL    HW237461   2.750   0.584  16.886  0.1391 -0.3246 -0.5870
 8610SOL     OW37462   0.749   3.554   4.434 -0.5202  0.3981  0.1832
 8610SOL    HW137463   0.740   3.474   4.382  0.6477 -1.2789  2.5538
 8610SOL    HW237464   0.790   3.513   4.510  0.3514  0.7323 -0.1180
 8611SOL     OW37465   1.548   3.925   3.652  0.1818  0.3237 -0.1931
 8611SOL    HW137466   1.562   3.861   3.582  1.7872  0.2600  0.2060
 8611SOL    HW237467   1.467   3.967   3.622 -0.9230 -1.4259  0.2969
 8612SOL     OW37468   4.495   2.395   7.674 -0.1290  0.3928 -0.0147
 8612SOL    HW137469   4.492   2.422   7.766 -1.2591  1.5091 -0.3848
 8612SOL    HW237470   4.531   2.475   7.635  2.4408 -1.6816 -1.8416
 8613SOL     OW37471   0.840   0.009  16.934  0.7597  0.2267 -0.7069
 8613SOL    HW137472   0.852   4.658  16.901 -0.6485  0.4472 -1.8059
 8613SOL    HW237473   0.843   4.727  17.028  2.1658 -0.2720 -0.8604
 8614SOL     OW37474   0.430   0.777   4.390  0.2767  0.2921 -0.2815
 8614SOL    HW137475   0.464   0.851   4.440  1.7126 -0.1329 -0.6099
 8614SOL    HW237476   0.416   0.712   4.459 -2.1042  2.1178  0.9609
 8615SOL     OW37477   2.364   4.269  16.015 -0.1470  0.3513 -0.1324
 8615SOL    HW137478   2.442   4.321  15.994 -0.6561  1.2998  0.3170
 8615SOL    HW237479   2.375   4.232  16.102  0.2149 -0.6488 -0.6024
 8616SOL     OW37480   2.692   4.696  11.237  0.3883  0.2203 -0.0861
 8616SOL    HW137481   2.683   0.006  11.154 -0.7722 -1.0278 -0.6715
 8616SOL    HW237482   2.760   4.636  11.207  0.9102  1.1791 -0.8042
 8617SOL     OW37483   3.328   1.388   2.251 -0.1143  0.1865  0.2815
 8617SOL    HW137484   3.390   1.459   2.271  0.6930 -0.4438  0.0017
 8617SOL    HW237485   3.369   1.306   2.278  2.1393  0.9134 -0.8658
 8618SOL     OW37486   3.475   4.037   2.549 -0.4955 -0.1663  0.0491
 8618SOL    HW137487   3.392   3.997   2.577 -0.2197  0.4221  1.7177
 8618SOL    HW237488   3.450   4.054   2.458  3.1018  0.1491 -0.8782
 8619SOL     OW37489   3.931   0.740   6.579  0.1574  0.1362 -0.1941
 8619SOL    HW137490   3.953   0.816   6.524 -1.0276  1.2611  0.8859
 8619SOL    HW237491   3.855   0.779   6.623  1.7289  0.0838  2.5984
 8620SOL     OW37492   3.505   4.264   1.174  0.0131 -0.0739  0.2872
 8620SOL    HW137493   3.460   4.180   1.177  0.6029 -0.3364  1.5328
 8620SOL    HW237494   3.424   4.314   1.165 -0.3204 -0.5323  0.7792
 8621SOL     OW37495   0.089   2.095   8.283  0.1371 -0.3115 -0.2148
 8621SOL    HW137496   0.022   2.153   8.247  0.4682 -0.3447 -0.8804
 8621SOL    HW237497   0.122   2.150   8.354 -1.9159  0.1785  0.3789
 8622SOL     OW37498   3.142   0.106   6.705 -0.2133 -0.3064 -0.0185
 8622SOL    HW137499   3.089   0.160   6.647  0.4414 -1.1506 -1.4241
 8622SOL    HW237500   3.076   0.098   6.774 -0.4104 -3.1000 -0.5391
 8623SOL     OW37501   2.472   0.376   4.526  0.2358 -0.6025  0.4141
 8623SOL    HW137502   2.497   0.284   4.535 -1.0183 -1.1330 -1.5020
 8623SOL    HW237503   2.532   0.426   4.582 -0.4513 -0.1679  0.7596
 8624SOL     OW37504   2.566   0.099   4.509 -0.1857  0.3008  0.0271
 8624SOL    HW137505   2.507   0.107   4.433  0.8989  1.9222 -0.6445
 8624SOL    HW237506   2.622   0.026   4.482  0.0665  1.0892 -1.6370
 8625SOL     OW37507   2.799   3.154   9.079 -0.0363  0.1529  0.5073
 8625SOL    HW137508   2.848   3.224   9.122 -3.6734  1.0455  3.1442
 8625SOL    HW237509   2.777   3.209   9.004  2.5724 -0.0943 -0.4589
 8626SOL     OW37510   4.717   1.779  17.047 -0.2108 -0.4980 -0.1418
 8626SOL    HW137511   0.047   1.847  17.052  2.2554 -2.9028 -1.1933
 8626SOL    HW237512   0.022   1.703  17.087 -1.8170  0.2212  2.9975
 8627SOL     OW37513   1.638   4.561   3.146 -0.2369  0.4744 -0.1096
 8627SOL    HW137514   1.621   4.650   3.114 -0.6687  0.3295 -0.2908
 8627SOL    HW237515   1.682   4.518   3.073 -0.7342 -2.1283  1.1264
 8628SOL     OW37516   4.446   3.320   6.918 -0.5327 -0.5859 -0.0078
 8628SOL    HW137517   4.532   3.327   6.876 -0.7627 -1.2047 -0.5792
 8628SOL    HW237518   4.393   3.275   6.852 -1.1082 -1.2163  0.8780
 8629SOL     OW37519   1.515   4.490   6.757 -0.4822 -0.0886  0.3463
 8629SOL    HW137520   1.585   4.520   6.699 -0.8895  0.4538  0.1248
 8629SOL    HW237521   1.531   4.552   6.829 -0.9706  1.6426 -1.0212
 8630SOL     OW37522   4.554   2.920   9.091 -0.5192  0.0206 -0.2934
 8630SOL    HW137523   4.618   2.899   9.023  0.5749  1.2852  0.3441
 8630SOL    HW237524   4.559   2.847   9.153 -0.0235 -0.6200 -1.0861
 8631SOL     OW37525   2.469   1.909  11.698 -0.2113  0.2231  0.5550
 8631SOL    HW137526   2.498   1.993  11.734 -0.1541  0.1316  0.7206
 8631SOL    HW237527   2.374   1.917  11.708 -0.5361 -2.6019 -0.1450
 8632SOL     OW37528   1.782   3.009   6.321  0.0891 -0.6710  0.1120
 8632SOL    HW137529   1.770   3.059   6.240 -1.5817 -1.9587 -0.4208
 8632SOL    HW237530   1.853   3.057   6.364  0.8098 -1.2484 -0.4142
 8633SOL     OW37531   0.381   0.272  11.870 -0.1562 -0.0549  0.9048
 8633SOL    HW137532   0.325   0.349  11.877 -1.4880 -1.0262  0.8511
 8633SOL    HW237533   0.424   0.260  11.955 -0.6983 -0.6025  1.0952
 8634SOL     OW37534   3.334   0.747   7.180 -0.0344 -0.0305 -0.1192
 8634SOL    HW137535   3.340   0.786   7.093  1.6342  1.2419  0.5507
 8634SOL    HW237536   3.285   0.669   7.157  0.2274 -0.0343 -0.6621
 8635SOL     OW37537   2.037   0.836  12.689  0.1462  0.3639 -0.1621
 8635SOL    HW137538   1.967   0.794  12.739  0.9704  0.5811  1.1869
 8635SOL    HW237539   2.105   0.861  12.752 -0.3819 -0.6724  0.8225
 8636SOL     OW37540   2.742   2.935   1.599  0.1974 -0.0380 -0.3172
 8636SOL    HW137541   2.724   3.026   1.624 -0.4578 -0.3573  0.3471
 8636SOL    HW237542   2.813   2.928   1.535 -0.5165 -0.2380 -1.0848
 8637SOL     OW37543   3.796   0.839   6.793 -0.5484 -0.1460  0.4046
 8637SOL    HW137544   3.840   0.766   6.837 -1.5257 -0.6294  0.5875
 8637SOL    HW237545   3.845   0.915   6.824 -0.2885 -0.6455  1.2154
 8638SOL     OW37546   4.312   3.928   6.483 -0.1410 -0.3301 -0.2397
 8638SOL    HW137547   4.269   4.001   6.438  0.0693  0.2008  0.4310
 8638SOL    HW237548   4.260   3.924   6.563  0.8719  0.3226  0.4389
 8639SOL     OW37549   0.979   4.522   8.090 -0.0581  0.4216 -0.0997
 8639SOL    HW137550   0.942   4.557   8.008  0.8357 -0.3071 -0.8154
 8639SOL    HW237551   0.916   4.451   8.099 -2.3392  2.3585 -0.4099
 8640SOL     OW37552   1.355   0.347   6.304 -0.5769  0.2951  0.0739
 8640SOL    HW137553   1.419   0.293   6.258 -0.7115 -0.3924  0.7042
 8640SOL    HW237554   1.403   0.369   6.384  0.7568 -0.1169 -0.6116
 8641SOL     OW37555   0.879   1.601   6.075 -0.6064  0.2247 -0.2595
 8641SOL    HW137556   0.965   1.631   6.107  0.0331 -1.1698 -0.6777
 8641SOL    HW237557   0.825   1.602   6.154  3.2239  0.0670  2.4204
 8642SOL     OW37558   4.264   2.993   4.509 -0.0254 -0.2423 -0.5747
 8642SOL    HW137559   4.348   2.952   4.485 -0.3243 -1.4245  0.4510
 8642SOL    HW237560   4.216   2.979   4.427 -0.1257 -0.9223 -0.3983
 8643SOL     OW37561   3.228   1.790   1.974  0.0948 -0.5342 -0.1032
 8643SOL    HW137562   3.256   1.707   2.013 -0.1682 -1.6983 -2.4327
 8643SOL    HW237563   3.239   1.769   1.882 -1.9764 -2.0183 -0.0007
 8644SOL     OW37564   4.414   4.268   5.337  0.3299 -0.2027  0.2819
 8644SOL    HW137565   4.341   4.222   5.377  1.3366 -0.4435  1.8532
 8644SOL    HW237566   4.417   4.262   5.242 -0.4459 -0.0829  0.2527
 8645SOL     OW37567   1.173   2.776   9.510 -0.6066  0.1552 -0.5652
 8645SOL    HW137568   1.087   2.759   9.549 -1.3806 -0.1432 -2.3891
 8645SOL    HW237569   1.219   2.769   9.593 -1.5338  0.9935  0.0167
 8646SOL     OW37570   3.852   2.757   6.102  0.0721 -0.2040  0.0610
 8646SOL    HW137571   3.876   2.665   6.089  1.1700  0.4589 -2.4293
 8646SOL    HW237572   3.818   2.757   6.192  1.7623 -0.4627  0.7029
 8647SOL     OW37573   0.257   3.268   3.715  0.9240 -0.0090 -0.0979
 8647SOL    HW137574   0.316   3.331   3.756  1.9811  1.6962 -4.2782
 8647SOL    HW237575   0.299   3.242   3.633 -0.4565 -2.1430 -0.1334
 8648SOL     OW37576   0.346   4.662  14.794 -0.9227  0.3660  0.8695
 8648SOL    HW137577   0.338   4.567  14.793  0.6136  0.2669 -0.8799
 8648SOL    HW237578   0.439   4.675  14.816 -1.4465  0.8083  2.8519
 8649SOL     OW37579   4.552   3.777  15.753  0.5632 -0.1399 -0.1788
 8649SOL    HW137580   4.580   3.703  15.808 -0.4544 -0.7698 -0.5120
 8649SOL    HW237581   4.576   3.748  15.665  1.6341 -0.9240  0.3644
 8650SOL     OW37582   4.131   4.327   4.599  0.2683 -0.0748  0.8317
 8650SOL    HW137583   4.207   4.276   4.571  0.2159  0.6949 -0.6832
 8650SOL    HW237584   4.100   4.360   4.515  0.2508  2.3488  1.8024
 8651SOL     OW37585   3.357   2.544   5.797 -0.1732  0.5933 -0.3571
 8651SOL    HW137586   3.288   2.480   5.813 -0.1881  1.7301  4.0788
 8651SOL    HW237587   3.343   2.567   5.705 -1.3554  0.2765 -0.2575
 8652SOL     OW37588   3.811   4.340   4.577 -0.2221 -0.1484  0.2222
 8652SOL    HW137589   3.887   4.295   4.538  1.7810  2.6227  0.9315
 8652SOL    HW237590   3.778   4.372   4.493 -1.7837  0.4463  1.0704
 8653SOL     OW37591   2.432   1.212   0.729 -0.1920  0.6377  0.7338
 8653SOL    HW137592   2.445   1.305   0.713 -1.9438  0.4637 -1.6319
 8653SOL    HW237593   2.505   1.186   0.673 -1.7198  0.0354 -0.9555
 8654SOL     OW37594   0.876   3.824   5.274 -0.3379  0.2121  0.2232
 8654SOL    HW137595   0.851   3.770   5.349 -0.1623 -1.1064 -0.6726
 8654SOL    HW237596   0.816   3.787   5.210  1.8705  1.6054 -2.6591
 8655SOL     OW37597   0.282   0.058  16.439 -1.0012  0.0632 -0.3728
 8655SOL    HW137598   0.338   0.078  16.365 -1.1986 -0.5177 -0.6755
 8655SOL    HW237599   0.344   0.032  16.508  0.3398  0.5903 -1.3918
 8656SOL     OW37600   1.283   1.527   7.153  0.3749  0.1565 -0.0275
 8656SOL    HW137601   1.236   1.611   7.152 -1.0756 -0.6476  1.1036
 8656SOL    HW237602   1.318   1.518   7.064  3.4704 -0.5480  1.2847
 8657SOL     OW37603   3.123   1.389   1.719 -0.1432  0.1215 -0.3244
 8657SOL    HW137604   3.127   1.414   1.811  1.0532 -1.8181  0.1427
 8657SOL    HW237605   3.204   1.339   1.707  1.1789  1.9957  0.8539
 8658SOL     OW37606   2.413   0.187   3.289 -0.8643  0.4825  0.0122
 8658SOL    HW137607   2.385   0.218   3.202 -0.6371  0.0755 -0.2066
 8658SOL    HW237608   2.387   0.265   3.339 -1.7140  1.2346 -1.5836
 8659SOL     OW37609   0.288   3.516   1.072 -0.2502 -0.6152 -0.1252
 8659SOL    HW137610   0.247   3.563   0.999 -1.1877 -0.8356  0.2511
 8659SOL    HW237611   0.331   3.442   1.031 -1.2006 -0.8225 -0.7500
 8660SOL     OW37612   0.669   2.952  12.417 -0.2580  0.2483  0.4569
 8660SOL    HW137613   0.599   2.890  12.396  1.5459 -1.5841 -0.1819
 8660SOL    HW237614   0.722   2.899  12.477  0.4317 -0.3747 -0.7199
 8661SOL     OW37615   1.150   3.663   1.656  0.0607 -0.8865 -0.2748
 8661SOL    HW137616   1.214   3.598   1.686  1.5028  0.1123 -1.1879
 8661SOL    HW237617   1.073   3.606   1.653  0.2333 -1.2000  1.3624
 8662SOL     OW37618   3.125   0.457   6.688  0.1865 -0.4821 -0.0917
 8662SOL    HW137619   3.212   0.446   6.650  0.3375  0.0677  0.1058
 8662SOL    HW237620   3.078   0.479   6.608  0.3143 -1.3645 -0.4151
 8663SOL     OW37621   2.558   0.644   5.360  0.6785  0.0347 -0.1684
 8663SOL    HW137622   2.512   0.599   5.289 -0.5160  0.7465  0.1644
 8663SOL    HW237623   2.626   0.579   5.381 -0.3907 -0.9047  0.3762
 8664SOL     OW37624   1.110   1.786   7.114  0.8781  0.3538  0.2293
 8664SOL    HW137625   1.085   1.864   7.064 -1.3390  0.1129  0.9873
 8664SOL    HW237626   1.046   1.793   7.185 -2.5143 -2.9149 -2.5111
 8665SOL     OW37627   4.577   1.663   1.030 -0.3486  0.1479 -0.0385
 8665SOL    HW137628   4.634   1.683   0.956 -0.5513 -0.1694 -0.2801
 8665SOL    HW237629   4.533   1.747   1.048  0.6009  1.3337 -3.3768
 8666SOL     OW37630   4.634   0.991   4.304  0.0435 -0.6660  0.2368
 8666SOL    HW137631   4.596   0.984   4.217  0.8770 -0.6225 -0.1277
 8666SOL    HW237632   4.705   1.055   4.298 -3.8332  3.7911  1.3578
 8667SOL     OW37633   1.427   2.118   4.324  0.4171 -0.2722 -0.1583
 8667SOL    HW137634   1.515   2.095   4.294  0.7265 -0.5253  0.9475
 8667SOL    HW237635   1.441   2.177   4.398  2.4911 -0.8535 -0.0672
 8668SOL     OW37636   1.541   2.584   4.135  0.0171 -0.4624  0.2903
 8668SOL    HW137637   1.538   2.508   4.076 -0.9375 -0.8581  0.8372
 8668SOL    HW237638   1.618   2.557   4.186  0.4147  0.8430  0.3614
 8669SOL     OW37639   4.295   1.190  13.714 -0.2151  0.1604 -0.5003
 8669SOL    HW137640   4.306   1.255  13.645 -0.2873 -0.0535 -0.7131
 8669SOL    HW237641   4.202   1.202  13.733  0.1605  0.2528  1.2691
 8670SOL     OW37642   4.418   2.788   6.437 -0.4269  0.3223 -0.3652
 8670SOL    HW137643   4.378   2.838   6.366 -3.5832  0.0318  1.2207
 8670SOL    HW237644   4.508   2.822   6.438 -0.1349 -0.4514 -0.8187
 8671SOL     OW37645   2.076   4.035   0.971  0.2821 -0.8208  0.5342
 8671SOL    HW137646   2.057   3.990   1.053 -3.5169 -0.2382 -0.0492
 8671SOL    HW237647   2.034   4.120   0.965 -0.2904 -1.0855  0.8337
 8672SOL     OW37648   0.007   4.452  16.756 -0.2281 -0.4866 -0.2254
 8672SOL    HW137649   4.694   4.371  16.757  1.2937 -1.4190  1.7278
 8672SOL    HW237650   4.696   4.515  16.703 -1.1811 -1.4282 -0.4468
 8673SOL     OW37651   0.738   2.963   2.821  0.0456 -0.2111  0.3270
 8673SOL    HW137652   0.707   2.963   2.731 -1.7660  0.7209  0.9513
 8673SOL    HW237653   0.811   2.902   2.814 -0.8834 -1.2718  0.0465
 8674SOL     OW37654   3.073   1.477  14.877 -0.0155 -0.2386 -0.0535
 8674SOL    HW137655   3.032   1.428  14.805  2.3470 -1.4575 -0.5571
 8674SOL    HW237656   3.116   1.546  14.828 -0.7796 -1.1933 -2.0739
 8675SOL     OW37657   3.530   0.574   2.064 -0.4782  0.4462 -0.4739
 8675SOL    HW137658   3.472   0.633   2.015  0.6437  0.9947 -1.1416
 8675SOL    HW237659   3.465   0.513   2.099 -0.6591  1.0184  0.1982
 8676SOL     OW37660   2.185   3.411   3.217  0.1305  0.0700 -0.1063
 8676SOL    HW137661   2.257   3.403   3.279 -0.5959  2.3767  1.0486
 8676SOL    HW237662   2.227   3.406   3.132  0.8815  1.6500  0.1702
 8677SOL     OW37663   0.534   0.036   3.636 -0.2154 -0.1268 -0.1916
 8677SOL    HW137664   0.565   4.687   3.657 -0.7544 -0.1715  0.4170
 8677SOL    HW237665   0.458   0.008   3.586 -0.3126 -1.1763  0.5542
 8678SOL     OW37666   3.247   2.274   4.094  0.1509 -0.0753 -0.4719
 8678SOL    HW137667   3.270   2.359   4.132 -0.1302  0.1402 -0.7872
 8678SOL    HW237668   3.258   2.294   4.001 -0.2869  0.7365 -0.3499
 8679SOL     OW37669   4.351   2.021   6.924  0.4291  0.3776  0.0143
 8679SOL    HW137670   4.306   1.961   6.864 -1.0433  0.4387  1.0575
 8679SOL    HW237671   4.302   2.101   6.906  2.0622  1.7970  1.9326
 8680SOL     OW37672   2.060   1.778   9.053 -0.0336 -0.0911 -0.8751
 8680SOL    HW137673   2.019   1.830   8.984 -2.0560  0.2379  0.5636
 8680SOL    HW237674   2.146   1.773   9.010  0.4801  0.3146  0.0956
 8681SOL     OW37675   3.867   2.487   7.946 -0.1884  0.7126 -0.0022
 8681SOL    HW137676   3.891   2.550   8.013 -4.2254  1.5566  0.6537
 8681SOL    HW237677   3.955   2.454   7.925 -0.5016  1.2820 -2.1814
 8682SOL     OW37678   0.016   0.183   8.312  0.6275  0.3648  0.8794
 8682SOL    HW137679   4.729   0.258   8.366  1.9894 -1.2509  3.7762
 8682SOL    HW237680   0.046   0.229   8.234 -1.3472  1.0952  0.5643
 8683SOL     OW37681   4.111   2.352  12.386 -0.3701  0.1297 -0.8979
 8683SOL    HW137682   4.129   2.416  12.318 -1.8566  0.0706 -1.3599
 8683SOL    HW237683   4.050   2.401  12.442  0.2161 -1.2834  0.9846
 8684SOL     OW37684   0.040   4.431   2.455 -0.1238 -0.0318 -0.1588
 8684SOL    HW137685   4.736   4.512   2.481  2.9186  0.6543  2.6020
 8684SOL    HW237686   4.709   4.373   2.486 -0.9154 -0.4638 -2.7641
 8685SOL     OW37687   2.619   2.530   7.889 -0.1567  0.5600 -0.8449
 8685SOL    HW137688   2.682   2.574   7.946  1.2273 -0.3486 -1.6827
 8685SOL    HW237689   2.676   2.493   7.822  1.4315  1.6347 -0.0922
 8686SOL     OW37690   3.109   4.484   7.522 -0.0861  0.0892  0.5640
 8686SOL    HW137691   3.095   4.578   7.536  0.6380  0.5855 -2.0778
 8686SOL    HW237692   3.089   4.472   7.429  0.4421 -1.8632  0.7136
 8687SOL     OW37693   3.011   3.225   4.615 -0.0488  0.3554  0.2825
 8687SOL    HW137694   3.093   3.208   4.661 -0.6589 -0.7112  0.9805
 8687SOL    HW237695   2.987   3.137   4.587  0.4261 -0.4203  2.3291
 8688SOL     OW37696   4.346   4.520  16.784  0.0412  0.5792 -0.4064
 8688SOL    HW137697   4.329   4.491  16.873  1.1039  1.9722  0.2483
 8688SOL    HW237698   4.438   4.547  16.785  0.1503  0.2107 -0.4472
 8689SOL     OW37699   2.802   1.223  12.351 -0.4726 -0.4806  0.1786
 8689SOL    HW137700   2.843   1.239  12.265  0.3748 -2.0262  0.2938
 8689SOL    HW237701   2.881   1.191  12.394 -0.4685 -0.2765  0.3233
 8690SOL     OW37702   2.620   2.993  16.787  0.3004 -0.1681 -0.0444
 8690SOL    HW137703   2.592   3.076  16.826  1.8392 -0.0094  0.6816
 8690SOL    HW237704   2.594   2.928  16.852 -1.6284 -0.4481 -1.0891
 8691SOL     OW37705   3.001   1.273   6.797  0.2635  0.3466 -0.3421
 8691SOL    HW137706   3.094   1.287   6.783  0.5881  1.1236  2.7779
 8691SOL    HW237707   2.953   1.319   6.728 -0.0934  0.0314 -0.3080
 8692SOL     OW37708   0.987   2.337   6.635 -0.7315  0.2785 -0.1214
 8692SOL    HW137709   0.900   2.374   6.653 -0.8257  0.3518 -0.6989
 8692SOL    HW237710   1.016   2.398   6.567  0.9194  2.7409  2.8311
 8693SOL     OW37711   1.784   0.960   5.037  0.0596  0.2956 -0.1712
 8693SOL    HW137712   1.847   0.889   5.024  0.3824  0.3825  0.9192
 8693SOL    HW237713   1.808   1.035   4.982 -1.7099  1.7785  1.0937
 8694SOL     OW37714   1.154   1.594   2.314 -0.1350  0.1889  0.2600
 8694SOL    HW137715   1.204   1.618   2.236 -1.4464 -1.0671 -0.9691
 8694SOL    HW237716   1.066   1.569   2.285  0.4768 -0.3716 -1.1489
 8695SOL     OW37717   1.582   0.389   7.208  0.0919 -0.0269 -0.2868
 8695SOL    HW137718   1.515   0.456   7.221  0.0988  0.0327 -0.5693
 8695SOL    HW237719   1.538   0.308   7.234  3.0425 -0.6847  2.7044
 8696SOL     OW37720   2.796   0.211   5.195 -0.1870  0.3353  0.3795
 8696SOL    HW137721   2.884   0.216   5.158 -0.4963  0.1584 -0.3928
 8696SOL    HW237722   2.746   0.237   5.117 -0.7646 -0.1391  0.5907
 8697SOL     OW37723   2.027   0.261   4.313  0.1279 -0.3482 -0.1390
 8697SOL    HW137724   1.990   0.302   4.235 -0.6470  1.5364  1.2187
 8697SOL    HW237725   2.111   0.305   4.322 -0.6727  0.6438  2.7511
 8698SOL     OW37726   0.606   2.042   3.995 -0.1459 -0.4507 -0.0463
 8698SOL    HW137727   0.692   2.016   3.962 -1.1208  0.2334 -3.1328
 8698SOL    HW237728   0.628   2.061   4.086 -1.0600 -0.4053  0.1613
 8699SOL     OW37729   4.475   3.423   2.227  0.1203  0.5796 -0.5502
 8699SOL    HW137730   4.556   3.397   2.184  0.4123 -1.7713  1.4206
 8699SOL    HW237731   4.445   3.485   2.160 -1.1097 -1.3193 -1.7318
 8700SOL     OW37732   3.827   4.005   9.325  0.3633  0.0483 -0.1889
 8700SOL    HW137733   3.790   3.920   9.303 -1.5675  1.0376 -0.7728
 8700SOL    HW237734   3.755   4.068   9.321  0.1535 -0.1863 -0.0697
 8701SOL     OW37735   0.496   1.895   8.301 -0.0285  0.0464 -0.2134
 8701SOL    HW137736   0.525   1.985   8.286 -1.5542  0.4884 -0.4425
 8701SOL    HW237737   0.420   1.890   8.244 -1.0493  1.7274  0.9865
 8702SOL     OW37738   0.179   2.760   3.351  0.1910  0.2208 -0.4968
 8702SOL    HW137739   0.087   2.781   3.334  0.4473  2.2480  0.5208
 8702SOL    HW237740   0.217   2.814   3.281  1.3557 -1.7175 -1.3443
 8703SOL     OW37741   2.534   2.431   2.406  0.0538  0.4888 -0.0747
 8703SOL    HW137742   2.466   2.463   2.465 -2.8215 -0.8123 -2.7148
 8703SOL    HW237743   2.562   2.505   2.353  1.4194 -1.6029 -2.2911
 8704SOL     OW37744   2.335   2.086  11.030  0.5379 -0.2573 -0.5166
 8704SOL    HW137745   2.367   2.018  10.970  0.1580 -0.3137 -0.6583
 8704SOL    HW237746   2.266   2.133  10.982  1.7494  1.0612 -0.9826
 8705SOL     OW37747   3.040   1.455   2.357 -0.2277  0.1347  0.4040
 8705SOL    HW137748   3.007   1.543   2.375  1.4513  0.5525  1.4028
 8705SOL    HW237749   3.108   1.473   2.292  0.1917  1.0629  1.0925
 8706SOL     OW37750   0.941   3.087  12.005 -0.3138  0.4883 -0.5635
 8706SOL    HW137751   0.969   3.000  12.031  1.4899  1.5329  1.0277
 8706SOL    HW237752   0.887   3.116  12.079  1.0890  1.0961  0.2289
 8707SOL     OW37753   0.836   0.248   5.697  0.1109  0.3272 -0.1658
 8707SOL    HW137754   0.763   0.193   5.668  1.7164 -1.7336 -0.3060
 8707SOL    HW237755   0.796   0.334   5.682  0.1748  0.4694  0.4688
 8708SOL     OW37756   3.154   2.523  16.402  0.4852 -0.0750  0.1256
 8708SOL    HW137757   3.206   2.602  16.416  1.1727 -0.0695 -2.4644
 8708SOL    HW237758   3.141   2.507  16.496  1.2113  0.4684  0.3130
 8709SOL     OW37759   3.200   3.701   8.579 -0.3836  0.0274 -0.0719
 8709SOL    HW137760   3.256   3.731   8.651 -1.9772  0.4633  0.9783
 8709SOL    HW237761   3.220   3.608   8.568  2.7828  1.2470 -4.5646
 8710SOL     OW37762   2.012   1.488   2.006 -0.6037  0.2894 -0.2368
 8710SOL    HW137763   2.089   1.436   2.028  0.3047  1.9656  0.4986
 8710SOL    HW237764   1.944   1.468   2.070 -0.8708 -0.4432 -0.7413
 8711SOL     OW37765   0.718   0.379  12.893  0.7249 -0.1011  0.7835
 8711SOL    HW137766   0.813   0.386  12.883  0.7104 -0.0519  0.6850
 8711SOL    HW237767   0.701   0.438  12.967  0.1103 -1.4599  1.7292
 8712SOL     OW37768   3.804   0.438   9.666 -0.2773 -0.6326  0.2568
 8712SOL    HW137769   3.801   0.519   9.718 -1.1333  0.6319 -1.7719
 8712SOL    HW237770   3.897   0.421   9.654 -0.0158  1.4997 -0.8126
 8713SOL     OW37771   3.839   0.271   1.526  0.4942 -0.8266 -0.0831
 8713SOL    HW137772   3.925   0.262   1.484  0.3736 -0.8395 -0.3293
 8713SOL    HW237773   3.790   0.314   1.456  0.8493  1.5920  1.1469
 8714SOL     OW37774   1.549   3.479  14.584 -0.0689  0.6943 -0.0931
 8714SOL    HW137775   1.534   3.386  14.600 -0.5306  0.3086 -2.7949
 8714SOL    HW237776   1.642   3.477  14.560 -0.6471  0.7297 -2.4145
 8715SOL     OW37777   3.459   0.298   7.858  0.3482  0.1558  0.4669
 8715SOL    HW137778   3.485   0.276   7.768 -1.6395  1.8244 -0.5165
 8715SOL    HW237779   3.369   0.327   7.847 -0.2411 -1.5796  0.6687
 8716SOL     OW37780   1.216   2.663  10.339  0.3005 -0.1759  0.5672
 8716SOL    HW137781   1.142   2.683  10.397  0.1134 -0.0487  0.2835
 8716SOL    HW237782   1.161   2.662  10.261  1.5343  0.6975 -0.3274
 8717SOL     OW37783   2.012   2.300   9.155 -0.4302  0.4274 -0.7159
 8717SOL    HW137784   1.971   2.345   9.081 -0.2319  0.5630 -0.7419
 8717SOL    HW237785   1.938   2.290   9.214  1.1688  1.1421  1.3956
 8718SOL     OW37786   3.169   2.105  10.646  0.0965 -0.4030  0.4480
 8718SOL    HW137787   3.223   2.045  10.594  2.1313  0.6437  1.3880
 8718SOL    HW237788   3.079   2.090  10.615 -0.8081 -1.9192  3.7960
 8719SOL     OW37789   2.688   2.555   8.753  0.3445 -0.3786  0.1963
 8719SOL    HW137790   2.669   2.609   8.829  1.4431 -0.3954  0.4829
 8719SOL    HW237791   2.597   2.544   8.725  0.0791 -1.8845  1.6473
 8720SOL     OW37792   4.474   2.344   4.264  0.1454 -0.3986  0.0093
 8720SOL    HW137793   4.434   2.286   4.200  1.2595 -1.9580  0.7328
 8720SOL    HW237794   4.428   2.428   4.264 -0.7453 -0.8861  2.2885
 8721SOL     OW37795   4.348   4.483   9.249  0.2999  0.0334  0.1839
 8721SOL    HW137796   4.260   4.520   9.240 -0.1181 -1.0321 -0.1110
 8721SOL    HW237797   4.332   4.389   9.245  0.7401  0.0541 -2.0706
 8722SOL     OW37798   2.357   1.734   6.689  0.5091  0.0832 -0.5606
 8722SOL    HW137799   2.409   1.814   6.691 -1.1061  1.1012  1.2301
 8722SOL    HW237800   2.421   1.665   6.705  3.1552  2.6306 -0.1373
 8723SOL     OW37801   2.076   2.088   6.491 -0.3150 -0.1036  0.1060
 8723SOL    HW137802   2.141   2.117   6.427  0.7492 -0.0533  1.2022
 8723SOL    HW237803   2.051   2.000   6.463  0.4593  0.0384 -1.0522
 8724SOL     OW37804   4.634   0.957   4.016 -0.3087 -0.0948  0.1994
 8724SOL    HW137805   4.636   0.973   3.921  2.5999 -1.8755 -0.0314
 8724SOL    HW237806   4.724   0.981   4.039  0.1533 -1.5676 -0.0261
 8725SOL     OW37807   3.518   1.766   3.522  0.3794  0.2496  0.5908
 8725SOL    HW137808   3.509   1.825   3.446 -1.5981  0.0581  0.6941
 8725SOL    HW237809   3.558   1.829   3.581 -0.0256  1.5900 -0.5607
 8726SOL     OW37810   1.978   4.259   9.152  0.3626  0.0584 -0.2168
 8726SOL    HW137811   1.990   4.343   9.195 -0.5142  0.3791 -0.6001
 8726SOL    HW237812   1.957   4.291   9.065 -1.3639  0.5104  0.3725
 8727SOL     OW37813   2.880   3.721   6.572 -0.2988 -0.2639 -0.4677
 8727SOL    HW137814   2.812   3.787   6.558 -2.7562 -2.2695  1.9892
 8727SOL    HW237815   2.877   3.699   6.665 -0.5383 -1.3237 -0.7206
 8728SOL     OW37816   2.554   3.751  11.679 -0.1687 -0.4357  1.0100
 8728SOL    HW137817   2.556   3.753  11.583  1.2415  0.2988  1.0479
 8728SOL    HW237818   2.629   3.698  11.705 -0.4978 -2.4088 -2.0110
 8729SOL     OW37819   1.142   3.780   7.891 -0.1136  0.1545 -0.4397
 8729SOL    HW137820   1.230   3.817   7.889  1.6473 -4.1422 -1.8125
 8729SOL    HW237821   1.126   3.738   7.807 -0.4286 -0.7098  0.0505
 8730SOL     OW37822   3.625   3.047   6.342  0.0879 -0.0084 -0.7780
 8730SOL    HW137823   3.634   3.128   6.292  0.9053  0.1468 -0.3831
 8730SOL    HW237824   3.532   3.032   6.331 -0.3629 -0.4896  3.5332
 8731SOL     OW37825   3.751   3.756  16.352 -0.0201 -0.5242 -0.1318
 8731SOL    HW137826   3.720   3.691  16.415  1.1993  0.1018  1.1106
 8731SOL    HW237827   3.846   3.748  16.357 -0.1248 -1.6310  0.0876
 8732SOL     OW37828   1.054   0.906   7.415  0.2952  0.0813 -0.0426
 8732SOL    HW137829   1.035   0.815   7.438  0.9219  0.1736  0.8509
 8732SOL    HW237830   0.999   0.904   7.337  0.8699 -1.9883 -0.3825
 8733SOL     OW37831   0.522   0.327   1.463  0.0708  0.2452 -0.4870
 8733SOL    HW137832   0.511   0.324   1.368 -0.4675  2.1204 -0.4885
 8733SOL    HW237833   0.476   0.409   1.481 -0.4923 -0.0202 -0.7215
 8734SOL     OW37834   0.405   0.231   6.093  0.3512  0.4723 -0.2877
 8734SOL    HW137835   0.317   0.232   6.056  0.4040  0.1900 -0.4235
 8734SOL    HW237836   0.428   0.324   6.094  1.1240  0.2802  0.5719
 8735SOL     OW37837   3.732   0.393   7.083 -0.5737 -0.3805 -0.1301
 8735SOL    HW137838   3.726   0.471   7.138 -1.3930  0.3610 -1.2586
 8735SOL    HW237839   3.825   0.372   7.080 -0.7897 -1.2915 -0.4450
 8736SOL     OW37840   3.467   0.796   8.484  0.0150 -0.2474  0.0284
 8736SOL    HW137841   3.468   0.892   8.486  1.0075 -0.3197  2.2811
 8736SOL    HW237842   3.523   0.761   8.414  1.3270 -0.3441  1.1435
 8737SOL     OW37843   0.494   4.570   4.873 -0.1498  0.4473 -0.4954
 8737SOL    HW137844   0.542   4.541   4.951  0.8027  1.2377 -0.7844
 8737SOL    HW237845   0.534   4.656   4.862  1.1600 -0.2470 -1.1269
 8738SOL     OW37846   0.707   4.476  12.889 -0.1486  0.7587 -0.0342
 8738SOL    HW137847   0.755   4.399  12.860 -0.7378  0.8054 -1.1309
 8738SOL    HW237848   0.777   4.509  12.945  0.5870  0.6973 -0.9183
 8739SOL     OW37849   0.994   4.339  13.269 -0.0768 -0.6675  0.0752
 8739SOL    HW137850   1.010   4.245  13.279 -1.1751 -1.0052 -1.4262
 8739SOL    HW237851   1.026   4.376  13.351 -0.0019  1.0508 -0.7452
 8740SOL     OW37852   1.382   0.019   9.756  0.4821  0.0733 -0.2138
 8740SOL    HW137853   1.385   0.072   9.677 -0.1943  2.1449  1.1419
 8740SOL    HW237854   1.380   4.670   9.716  0.8205  0.3812 -0.9066
 8741SOL     OW37855   1.646   3.108   4.732 -0.6793 -0.7736 -0.3145
 8741SOL    HW137856   1.657   3.013   4.733 -1.1150 -0.8196  0.6966
 8741SOL    HW237857   1.557   3.107   4.767 -1.0884 -1.8969 -1.3865
 8742SOL     OW37858   2.560   1.455   0.679  0.0937  0.3937 -0.3083
 8742SOL    HW137859   2.653   1.434   0.675  0.1983  0.5018  1.7630
 8742SOL    HW237860   2.544   1.474   0.586 -2.2420  0.0600  0.0238
 8743SOL     OW37861   0.800   0.370   8.242  0.1114  0.1157  0.5878
 8743SOL    HW137862   0.743   0.444   8.221  0.1159 -0.2499 -0.7148
 8743SOL    HW237863   0.803   0.331   8.155 -2.6860  2.2001 -0.4452
 8744SOL     OW37864   3.531   0.045   6.411 -0.1357 -0.0516 -0.0870
 8744SOL    HW137865   3.553   4.690   6.402 -1.7350 -0.3217 -1.3474
 8744SOL    HW237866   3.558   0.064   6.500  0.2066  0.2688 -0.2584
 8745SOL     OW37867   2.031   2.002   2.151  0.0926 -0.2029 -0.3919
 8745SOL    HW137868   2.016   2.069   2.085  0.0609  0.1752  0.0044
 8745SOL    HW237869   2.127   2.012   2.147 -0.1582  1.4665 -2.1008
 8746SOL     OW37870   0.717   2.211   2.257  0.0839  0.2653 -0.0761
 8746SOL    HW137871   0.646   2.237   2.200 -2.3215  0.2584  2.9136
 8746SOL    HW237872   0.739   2.294   2.299 -0.4220  0.9976 -1.2630
 8747SOL     OW37873   0.758   1.022  12.473  0.0851  0.1715  0.0514
 8747SOL    HW137874   0.700   1.006  12.398 -1.0457 -1.6231  1.3014
 8747SOL    HW237875   0.811   1.082  12.420  1.3349 -2.2532 -1.4593
 8748SOL     OW37876   2.272   1.039   5.456 -0.4074 -0.2943 -0.2874
 8748SOL    HW137877   2.178   1.024   5.449 -0.6094  0.8386 -0.0762
 8748SOL    HW237878   2.291   1.003   5.543  1.4059  0.1457 -0.4996
 8749SOL     OW37879   3.746   2.026   4.868  0.0028 -0.2747  0.7247
 8749SOL    HW137880   3.828   2.070   4.892 -0.8925  3.1676 -2.6321
 8749SOL    HW237881   3.719   2.090   4.802  2.3444  1.8130  1.7532
 8750SOL     OW37882   2.844   3.811   5.117 -0.1223  0.6033 -0.2263
 8750SOL    HW137883   2.917   3.749   5.125 -0.7161 -0.4547 -2.9721
 8750SOL    HW237884   2.860   3.879   5.183 -1.4249 -1.2305  1.9953
 8751SOL     OW37885   1.789   3.580  14.155  0.1546 -0.6437  0.0610
 8751SOL    HW137886   1.801   3.614  14.067 -0.1975  1.9008  1.0023
 8751SOL    HW237887   1.693   3.588  14.158  0.3227  0.7174  2.0707
 8752SOL     OW37888   2.630   3.992   4.441 -0.1178  0.1717 -0.3118
 8752SOL    HW137889   2.660   3.925   4.502 -0.8582  0.7499  0.6829
 8752SOL    HW237890   2.679   3.973   4.361  1.1788 -0.7585  0.7055
 8753SOL     OW37891   0.889   4.430   8.770 -0.3703  0.1978 -0.2227
 8753SOL    HW137892   0.798   4.420   8.741 -0.2795  0.8008 -0.7080
 8753SOL    HW237893   0.881   4.499   8.835 -0.5916 -2.4199  2.5216
 8754SOL     OW37894   4.512   2.757   7.992 -0.4775  0.0783  0.6311
 8754SOL    HW137895   4.512   2.665   7.965  2.7491  0.8771 -2.0907
 8754SOL    HW237896   4.418   2.773   7.983 -0.1688  0.6502 -1.5640
 8755SOL     OW37897   1.869   2.621   4.916 -0.2036  0.2967 -0.0091
 8755SOL    HW137898   1.897   2.644   5.005 -2.2861 -2.2579  1.3028
 8755SOL    HW237899   1.917   2.538   4.907  0.4935  0.6247  0.6499
 8756SOL     OW37900   0.887   2.352   0.240  0.1293 -0.3981  0.3924
 8756SOL    HW137901   0.895   2.336   0.146  0.8969  1.7964  0.0841
 8756SOL    HW237902   0.952   2.299   0.287  1.4603  1.1329  0.3029
 8757SOL     OW37903   3.411   2.947   4.878  0.2455 -0.8196 -0.0719
 8757SOL    HW137904   3.366   2.879   4.928 -1.9560 -0.9319 -2.2257
 8757SOL    HW237905   3.494   2.946   4.925  0.3828 -2.1165 -0.3443
 8758SOL     OW37906   4.083   2.905  10.758 -0.0065  0.0067  0.7802
 8758SOL    HW137907   4.001   2.894  10.807 -1.1656 -0.7981 -1.3371
 8758SOL    HW237908   4.129   2.968  10.814  2.1318 -2.0503  1.3537
 8759SOL     OW37909   1.781   4.234   6.604 -0.1864 -0.3339  0.3786
 8759SOL    HW137910   1.821   4.283   6.676  0.2571 -1.9319  1.2191
 8759SOL    HW237911   1.795   4.146   6.639 -0.6818 -0.3439  0.5436
 8760SOL     OW37912   2.786   0.608  10.130 -0.5309  0.2245 -0.0751
 8760SOL    HW137913   2.830   0.564  10.058  0.2036  0.1559  0.4111
 8760SOL    HW237914   2.697   0.578  10.116 -0.6944  1.3489 -1.4481
 8761SOL     OW37915   2.912   0.381   5.710  0.1806  0.1334  0.1702
 8761SOL    HW137916   2.873   0.468   5.712 -1.3289 -0.5535  0.7459
 8761SOL    HW237917   2.911   0.359   5.617  1.2790  0.3451  0.1104
 8762SOL     OW37918   4.571   4.043  10.859  0.0235  0.3260 -0.6049
 8762SOL    HW137919   4.526   3.958  10.857  0.9332 -0.1610 -0.8455
 8762SOL    HW237920   4.516   4.093  10.919  1.0708  1.5039 -0.6215
 8763SOL     OW37921   3.187   2.413   8.660 -0.4519 -0.1654  0.1028
 8763SOL    HW137922   3.101   2.425   8.699 -0.6565 -1.9289  0.2149
 8763SOL    HW237923   3.245   2.410   8.737  0.1188 -0.0870 -0.3206
 8764SOL     OW37924   3.207   1.774   7.979  0.2220 -0.1857  0.3063
 8764SOL    HW137925   3.172   1.688   7.955  0.0418  0.8999 -3.4050
 8764SOL    HW237926   3.235   1.760   8.069  1.5061 -0.5961 -0.1558
 8765SOL     OW37927   0.275   3.294   7.807 -0.0123 -0.4764  0.2018
 8765SOL    HW137928   0.228   3.213   7.825 -1.5373  0.3938  0.0892
 8765SOL    HW237929   0.357   3.281   7.855 -0.0699  0.2423  0.4960
 8766SOL     OW37930   3.109   0.966   8.545  0.2122  0.5957 -0.3480
 8766SOL    HW137931   3.141   0.954   8.455  0.1433  1.2148 -0.4565
 8766SOL    HW237932   3.048   0.893   8.554  0.7604  0.2983  0.9416
 8767SOL     OW37933   2.819   2.289   0.655 -0.1366  0.4032 -0.0373
 8767SOL    HW137934   2.912   2.308   0.667 -0.0868 -1.9409  3.1401
 8767SOL    HW237935   2.816   2.224   0.584 -1.6187 -0.1631  0.5329
 8768SOL     OW37936   0.955   3.443  11.921  0.0968  0.4867  0.3279
 8768SOL    HW137937   0.993   3.375  11.866 -2.8135  0.2166 -1.3929
 8768SOL    HW237938   1.035   3.465  11.968 -0.0022 -0.9691  1.1879
 8769SOL     OW37939   3.077   2.630  17.247 -0.6159 -0.2230  0.0821
 8769SOL    HW137940   3.110   2.719  17.234 -0.3852 -0.3815 -0.4169
 8769SOL    HW237941   3.162   2.587  17.236 -0.7370  0.3618 -3.3251
 8770SOL     OW37942   3.260   1.761   4.162 -0.2873  0.4968  0.0649
 8770SOL    HW137943   3.214   1.799   4.087  1.7746 -0.2682 -1.6043
 8770SOL    HW237944   3.290   1.834   4.215  1.3405 -1.5639  1.9719
 8771SOL     OW37945   2.928   4.387   9.137 -0.4680  0.5060 -0.6507
 8771SOL    HW137946   2.877   4.322   9.185 -1.6965  1.9670  0.0275
 8771SOL    HW237947   3.021   4.371   9.150 -0.9263  1.2216  3.6115
 8772SOL     OW37948   3.280   4.503   8.238 -0.1984 -0.0221  0.2416
 8772SOL    HW137949   3.327   4.466   8.163 -1.0547  0.9650 -0.7797
 8772SOL    HW237950   3.346   4.491   8.306  1.2289 -2.2841 -1.5471
 8773SOL     OW37951   2.762   4.457   8.943 -0.0240  0.7237  0.2039
 8773SOL    HW137952   2.689   4.469   9.003  1.6373  1.3777  2.1118
 8773SOL    HW237953   2.824   4.426   9.009  0.4185  0.9872 -0.0850
 8774SOL     OW37954   3.328   2.022   2.793  0.1561  0.0713  0.5818
 8774SOL    HW137955   3.404   2.037   2.849  0.2544 -1.9028  0.9841
 8774SOL    HW237956   3.296   1.942   2.836 -0.2817  0.6089  1.2710
 8775SOL     OW37957   4.048   0.523   6.682  0.0825  0.6327  0.0990
 8775SOL    HW137958   4.008   0.603   6.648 -3.0998 -0.5381  1.0758
 8775SOL    HW237959   4.001   0.511   6.764 -0.4523  0.7120 -0.1961
 8776SOL     OW37960   0.320   0.429   7.344  0.5683 -0.0695  0.0418
 8776SOL    HW137961   0.283   0.517   7.337  1.9692  0.4835 -0.4932
 8776SOL    HW237962   0.296   0.393   7.258 -1.2988  0.7184  0.2309
 8777SOL     OW37963   4.734   2.518   2.830  0.0903  0.3619 -0.2257
 8777SOL    HW137964   0.007   2.441   2.886  1.3944 -0.2080 -1.2709
 8777SOL    HW237965   0.037   2.491   2.748 -0.5909  0.0431 -0.4608
 8778SOL     OW37966   0.644   2.293  13.497 -0.1164  0.4119  0.1740
 8778SOL    HW137967   0.714   2.349  13.530  1.0978  0.5130 -2.5707
 8778SOL    HW237968   0.699   2.215  13.505 -2.7995 -1.6838 -1.6190
 8779SOL     OW37969   3.845   1.644   3.276 -0.0238  0.0930 -0.4342
 8779SOL    HW137970   3.780   1.595   3.327 -1.1770  1.2187 -0.8515
 8779SOL    HW237971   3.838   1.733   3.310  0.1755 -0.7212  1.7672
 8780SOL     OW37972   4.036   3.813   9.203 -0.4769  0.6155 -0.3413
 8780SOL    HW137973   3.948   3.776   9.199 -0.0811 -0.7540  3.7901
 8780SOL    HW237974   4.081   3.757   9.140 -1.3063  2.1099 -2.2562
 8781SOL     OW37975   1.787   2.300   7.243 -0.0325  0.1480  0.0482
 8781SOL    HW137976   1.742   2.251   7.174 -0.1713  2.0201 -1.2002
 8781SOL    HW237977   1.716   2.339   7.294  1.1887  0.2466  1.6629
 8782SOL     OW37978   1.067   0.389  15.761  0.3319 -0.0260  0.4491
 8782SOL    HW137979   0.984   0.435  15.743 -0.0490 -0.1961  1.7388
 8782SOL    HW237980   1.031   0.301  15.773 -1.1016  0.3568 -1.0110
 8783SOL     OW37981   0.141   1.637   5.445  0.4569  0.7816  0.2154
 8783SOL    HW137982   0.095   1.721   5.446 -2.2265 -0.6533 -2.2946
 8783SOL    HW237983   0.181   1.634   5.358  2.2191 -0.6826  1.0730
 8784SOL     OW37984   1.747   3.040   2.246 -0.6259 -0.0050  0.1041
 8784SOL    HW137985   1.737   2.966   2.306  0.6954 -0.5739 -0.3707
 8784SOL    HW237986   1.731   2.983   2.171  1.7432  0.4902 -0.7729
 8785SOL     OW37987   3.671   2.195   4.667 -0.1296 -0.0575  0.0065
 8785SOL    HW137988   3.599   2.187   4.605 -0.1907 -0.6977  0.1582
 8785SOL    HW237989   3.743   2.209   4.606 -1.3905 -0.7162 -1.6012
 8786SOL     OW37990   4.641   3.231   5.381 -0.7687  0.1045  0.2844
 8786SOL    HW137991   4.683   3.315   5.366  0.5924 -0.6350 -0.0871
 8786SOL    HW237992   4.703   3.198   5.447 -1.3923  1.3506  1.4857
 8787SOL     OW37993   0.119   3.043   8.806 -0.3977 -0.3393  0.0082
 8787SOL    HW137994   0.161   3.028   8.891  0.5023  0.7556 -0.2413
 8787SOL    HW237995   0.106   3.138   8.802 -0.4839 -0.3676 -0.3699
 8788SOL     OW37996   4.440   3.543   3.590 -0.2431  0.1793 -0.6992
 8788SOL    HW137997   4.403   3.570   3.673 -1.3905  0.9897 -1.4873
 8788SOL    HW237998   4.492   3.464   3.607  0.4833  0.6938 -0.5046
 8789SOL     OW37999   4.464   4.130   3.810 -0.3382  0.2467 -0.2665
 8789SOL    HW138000   4.404   4.080   3.755 -1.5074 -0.1137  1.3759
 8789SOL    HW238001   4.458   4.082   3.892  1.9630  1.1646  0.4559
 8790SOL     OW38002   3.971   3.541  16.540 -0.0747  0.5894 -0.3104
 8790SOL    HW138003   3.885   3.518  16.576  0.6287 -0.8403  0.4818
 8790SOL    HW238004   4.002   3.453  16.520  1.5625  1.2258 -0.5577
 8791SOL     OW38005   2.735   0.617  13.153  0.1442 -0.4954  0.3995
 8791SOL    HW138006   2.761   0.707  13.169  1.8583 -0.5538 -2.1273
 8791SOL    HW238007   2.767   0.583  13.236 -2.2291 -0.7383  1.2198
 8792SOL     OW38008   0.760   1.824  13.623  0.7794 -0.2153  0.3209
 8792SOL    HW138009   0.852   1.808  13.641  0.5354 -0.2527  1.4979
 8792SOL    HW238010   0.721   1.751  13.575  1.5524 -1.4637  1.6214
 8793SOL     OW38011   2.073   4.345   7.817 -0.2288 -0.3645 -0.1748
 8793SOL    HW138012   2.136   4.279   7.791 -0.5723 -0.7182 -0.1177
 8793SOL    HW238013   1.993   4.329   7.766 -0.1350 -3.1043  0.5514
 8794SOL     OW38014   1.356   3.865   5.731  0.5783 -0.0114 -0.1291
 8794SOL    HW138015   1.448   3.883   5.746  0.7388 -2.0925  1.3023
 8794SOL    HW238016   1.333   3.802   5.799  0.2640 -0.4127 -0.6083
 8795SOL     OW38017   4.599   1.539   7.990  0.0688 -0.8371 -0.5366
 8795SOL    HW138018   4.519   1.573   7.949  0.0887  1.4992  1.3494
 8795SOL    HW238019   4.567   1.475   8.053  0.6754 -0.3722  0.2381
 8796SOL     OW38020   2.578   2.678   6.954 -0.2700 -0.4381  0.4644
 8796SOL    HW138021   2.510   2.638   6.899  0.2355  1.3134 -1.4122
 8796SOL    HW238022   2.656   2.627   6.932 -0.8635 -1.8495  1.6159
 8797SOL     OW38023   1.596   1.017  13.522  0.3727  0.5023 -0.4403
 8797SOL    HW138024   1.582   0.968  13.441  0.6950  0.6630 -0.5958
 8797SOL    HW238025   1.648   1.089  13.487  0.9108  0.3755  0.0999
 8798SOL     OW38026   2.925   4.686   7.073  0.4468  0.2779  0.6235
 8798SOL    HW138027   2.840   4.644   7.059  0.1813  0.7435  0.8610
 8798SOL    HW238028   2.968   4.625   7.133 -1.5180  0.0355  1.7689
 8799SOL     OW38029   1.717   0.828   2.683 -0.0501  0.0691  0.2602
 8799SOL    HW138030   1.651   0.897   2.692  0.3213  0.1035  2.6071
 8799SOL    HW238031   1.666   0.749   2.698 -0.4808  0.6051  1.6259
 8800SOL     OW38032   3.687   0.604   3.570 -0.3079 -0.3987  0.2253
 8800SOL    HW138033   3.693   0.636   3.480 -0.3755 -1.2586 -0.0890
 8800SOL    HW238034   3.764   0.642   3.612  0.3208 -0.4959 -0.8285
 8801SOL     OW38035   4.080   1.245   5.576 -0.0649 -0.2816 -0.1783
 8801SOL    HW138036   4.011   1.186   5.606  0.7756 -0.9157  0.4991
 8801SOL    HW238037   4.024   1.310   5.533 -1.5553  0.0261  2.2091
 8802SOL     OW38038   1.169   2.703   8.621  0.3626  0.3842  0.0079
 8802SOL    HW138039   1.180   2.673   8.711 -1.2982  0.8116  0.3481
 8802SOL    HW238040   1.258   2.729   8.597  0.6185  1.9425  2.7502
 8803SOL     OW38041   1.195   3.877   5.400 -0.1213  0.3016 -0.5014
 8803SOL    HW138042   1.256   3.950   5.390 -1.4460  1.5806  0.8296
 8803SOL    HW238043   1.239   3.817   5.459 -0.8375  1.0864  0.8349
 8804SOL     OW38044   3.062   2.761   4.740  0.4996  0.0762  0.2301
 8804SOL    HW138045   3.135   2.766   4.801  1.2354  0.1114 -0.6509
 8804SOL    HW238046   3.072   2.674   4.700  2.3337  1.0114 -1.3451
 8805SOL     OW38047   2.042   3.463   9.455 -0.5440 -0.2055  0.7109
 8805SOL    HW138048   2.118   3.431   9.406 -1.6286  0.3957 -1.3549
 8805SOL    HW238049   2.005   3.528   9.395  0.3680  0.2522  0.6386
 8806SOL     OW38050   1.685   4.665   4.695  0.4566 -0.2325  0.6449
 8806SOL    HW138051   1.629   4.606   4.643 -0.8080 -0.0179  1.7631
 8806SOL    HW238052   1.748   4.599   4.724 -0.9032  0.4114  4.9990
 8807SOL     OW38053   4.358   3.393   9.171 -0.4666  0.2394  0.3186
 8807SOL    HW138054   4.435   3.354   9.214  0.6434  3.4739  1.2737
 8807SOL    HW238055   4.295   3.326   9.196  0.1269 -1.0520 -1.6133
 8808SOL     OW38056   1.392   3.422   6.360 -0.5110 -0.7834 -0.2828
 8808SOL    HW138057   1.327   3.432   6.429 -0.4164 -1.8180 -0.0547
 8808SOL    HW238058   1.456   3.367   6.404 -1.2103 -0.8468  0.6436
 8809SOL     OW38059   0.898   0.040   2.457 -0.0936  0.1202 -0.0260
 8809SOL    HW138060   0.933   0.043   2.368  1.4883  4.0804  0.7211
 8809SOL    HW238061   0.882   0.135   2.454 -0.6252 -0.0399 -1.9735
 8810SOL     OW38062   0.646   2.015   4.290  0.0891  0.1428 -0.4230
 8810SOL    HW138063   0.607   1.935   4.254  1.5403  0.3302 -2.3955
 8810SOL    HW238064   0.741   2.000   4.291  0.0304 -0.4682 -2.5013
 8811SOL     OW38065   4.576   3.538  15.929  0.3152  0.4589  0.5027
 8811SOL    HW138066   4.485   3.561  15.949 -0.2247 -2.3167  1.1420
 8811SOL    HW238067   4.598   3.467  15.989 -1.1784  0.2683  0.8320
 8812SOL     OW38068   1.054   0.214   3.137  0.1040 -0.3164  0.2382
 8812SOL    HW138069   1.117   0.142   3.142  1.1979  0.8600  3.1158
 8812SOL    HW238070   1.063   0.239   3.229  3.2652  1.4726 -0.5367
 8813SOL     OW38071   0.462   0.334  17.110 -0.5146  0.1958 -0.3596
 8813SOL    HW138072   0.409   0.332  17.030 -1.3602 -2.2181  0.2355
 8813SOL    HW238073   0.416   0.270  17.165 -1.6318  0.3685 -1.0926
 8814SOL     OW38074   4.350   3.486  10.288  0.3693  0.3945  0.0236
 8814SOL    HW138075   4.342   3.581  10.292  1.0620  0.3963  1.5020
 8814SOL    HW238076   4.257   3.463  10.290 -0.1669  2.4152 -1.8230
 8815SOL     OW38077   3.021   2.482   3.502 -0.1445 -0.5738  0.0411
 8815SOL    HW138078   3.035   2.390   3.481  0.2204 -0.4410 -0.2937
 8815SOL    HW238079   2.964   2.502   3.427 -1.6367  0.6121  1.4798
 8816SOL     OW38080   1.856   1.734   7.453 -0.2199 -0.1435 -0.4233
 8816SOL    HW138081   1.834   1.792   7.525  1.8736  1.8185 -1.3892
 8816SOL    HW238082   1.895   1.665   7.507 -1.3261  0.0958  0.6611
 8817SOL     OW38083   0.386   3.264   1.649  0.3090  0.2863 -0.0354
 8817SOL    HW138084   0.461   3.221   1.689  0.3951 -0.0429 -0.5642
 8817SOL    HW238085   0.365   3.208   1.575  0.4008  1.0639 -0.6559
 8818SOL     OW38086   2.808   3.226   2.920 -0.2448 -0.1046 -0.4846
 8818SOL    HW138087   2.733   3.201   2.974  0.2230  0.9855  0.6501
 8818SOL    HW238088   2.772   3.184   2.842 -2.2702  0.0750  0.3520
 8819SOL     OW38089   3.750   2.277   8.240 -0.6991 -0.0082 -0.3104
 8819SOL    HW138090   3.655   2.282   8.252 -1.0453 -0.1750 -3.1208
 8819SOL    HW238091   3.763   2.182   8.247 -0.4602  0.2211  2.3714
 8820SOL     OW38092   0.472   1.937  14.974 -0.1534  0.0172  0.2245
 8820SOL    HW138093   0.555   1.894  14.954 -1.4992 -1.5369 -2.0840
 8820SOL    HW238094   0.465   1.929  15.069  0.7070  0.3294  0.3096
 8821SOL     OW38095   4.306   2.933  13.208 -0.1859 -0.0161 -0.5840
 8821SOL    HW138096   4.212   2.913  13.215 -0.4899  0.9802 -1.7595
 8821SOL    HW238097   4.345   2.866  13.264  0.2082  0.3385 -0.4320
 8822SOL     OW38098   4.618   2.223   2.060 -0.0127 -0.0105  0.0378
 8822SOL    HW138099   4.552   2.153   2.066  1.1166 -1.0699  0.0916
 8822SOL    HW238100   4.585   2.298   2.110  1.2323  0.8460 -0.4215
 8823SOL     OW38101   2.038   3.712   8.516 -0.8543 -0.5431  0.0516
 8823SOL    HW138102   2.130   3.715   8.542 -0.2235  0.5621 -2.2940
 8823SOL    HW238103   1.996   3.644   8.569  0.9068 -0.8799  1.0099
 8824SOL     OW38104   2.243   3.117   8.210  0.1490  0.1080 -0.8042
 8824SOL    HW138105   2.287   3.201   8.221  0.6047  0.4103 -5.0557
 8824SOL    HW238106   2.163   3.139   8.256 -0.4402 -1.2524 -1.1651
 8825SOL     OW38107   0.751   3.103   6.249  0.1944  0.7193 -0.0961
 8825SOL    HW138108   0.774   3.152   6.328 -0.3809  1.6648 -0.5188
 8825SOL    HW238109   0.839   3.084   6.217  0.5850 -0.1119  1.4534
 8826SOL     OW38110   2.436   2.036   5.569 -0.0590 -0.4313  0.3674
 8826SOL    HW138111   2.525   2.037   5.534  0.2641 -2.8089  1.1105
 8826SOL    HW238112   2.451   2.000   5.657 -1.6376 -0.6888  0.5391
 8827SOL     OW38113   2.059   1.745   4.135  0.6481 -0.1962 -0.1534
 8827SOL    HW138114   2.104   1.770   4.054  2.5013 -0.2737  0.8554
 8827SOL    HW238115   1.980   1.799   4.134 -1.2128 -2.8928  2.9129
 8828SOL     OW38116   4.394   1.087   2.822 -0.0999  0.2976 -0.3134
 8828SOL    HW138117   4.480   1.093   2.781  1.2733 -1.8195  2.3046
 8828SOL    HW238118   4.331   1.093   2.750  1.1935  0.3655 -1.4485
 8829SOL     OW38119   1.429   2.872   9.347  0.0902 -0.0979  0.0704
 8829SOL    HW138120   1.367   2.941   9.369 -1.1968 -0.1134 -3.4380
 8829SOL    HW238121   1.378   2.821   9.284  0.8115  0.4118 -0.9220
 8830SOL     OW38122   1.668   1.258  15.479  0.3242  0.2994 -0.3840
 8830SOL    HW138123   1.645   1.312  15.554 -1.2000 -1.4125  0.3818
 8830SOL    HW238124   1.597   1.196  15.463  0.5194  0.0680 -0.3595
 8831SOL     OW38125   0.574   3.179   3.819 -0.5488 -0.1159 -0.0950
 8831SOL    HW138126   0.529   3.263   3.817 -0.3779  0.0379  2.8401
 8831SOL    HW238127   0.570   3.178   3.914 -1.5651  0.9477 -0.1325
 8832SOL     OW38128   1.850   0.301   3.063  0.0339  0.1299 -0.3999
 8832SOL    HW138129   1.824   0.391   3.040  1.4621  0.2461 -1.5687
 8832SOL    HW238130   1.766   0.257   3.076  0.4099 -0.0700  1.2441
 8833SOL     OW38131   3.474   1.962   3.305  0.2298  0.3067  0.3170
 8833SOL    HW138132   3.555   2.011   3.290  0.3709 -0.3368 -0.9894
 8833SOL    HW238133   3.484   1.884   3.251 -1.6601  0.1189  0.2341
 8834SOL     OW38134   4.055   1.287   2.762  0.0672 -0.1309  0.1834
 8834SOL    HW138135   4.054   1.193   2.746 -3.6263  0.4293 -3.1605
 8834SOL    HW238136   4.141   1.293   2.803  0.2462  2.5959 -0.5523
 8835SOL     OW38137   0.563   3.472   7.116 -0.2764  0.2835 -0.0541
 8835SOL    HW138138   0.601   3.384   7.119 -0.2832  0.2953  0.2928
 8835SOL    HW238139   0.505   3.475   7.192 -1.4085  0.5432 -0.9266
 8836SOL     OW38140   3.012   0.515   5.253  0.0957 -0.1040  0.2668
 8836SOL    HW138141   3.009   0.608   5.231 -0.5021  0.0050  0.7923
 8836SOL    HW238142   2.920   0.490   5.240  0.0531 -0.3245  0.9912
 8837SOL     OW38143   4.515   1.412   4.923  0.0577 -0.0435 -0.2055
 8837SOL    HW138144   4.498   1.433   4.831  0.7760 -0.2137 -0.3767
 8837SOL    HW238145   4.537   1.498   4.960 -2.1218 -0.2611  1.6162
 8838SOL     OW38146   1.315   1.631   2.065 -0.6099  0.0866 -0.6550
 8838SOL    HW138147   1.369   1.553   2.051  0.2758  0.7428 -0.8996
 8838SOL    HW238148   1.282   1.660   1.980 -2.6201 -1.2188 -0.3243
 8839SOL     OW38149   3.218   3.603   6.046 -0.0090 -0.3359 -0.1938
 8839SOL    HW138150   3.129   3.579   6.020  0.3737  0.6380 -2.3774
 8839SOL    HW238151   3.260   3.631   5.965 -2.0276 -2.0462 -1.7996
 8840SOL     OW38152   1.326   2.854   5.436 -0.8812  0.1694 -0.2312
 8840SOL    HW138153   1.353   2.920   5.500  1.0479  0.7469 -1.6363
 8840SOL    HW238154   1.402   2.797   5.445 -1.0908  0.0100  0.5176
 8841SOL     OW38155   2.205   1.654   6.241  0.1201  0.4933  0.2279
 8841SOL    HW138156   2.170   1.732   6.284 -0.6519  0.5792 -0.5572
 8841SOL    HW238157   2.146   1.641   6.167 -0.8397  2.1607  0.6991
 8842SOL     OW38158   1.192   4.150   3.469  0.5976 -0.0124  0.3347
 8842SOL    HW138159   1.198   4.055   3.473 -0.6732 -0.1283 -0.6185
 8842SOL    HW238160   1.216   4.163   3.378 -1.1343  0.6939 -0.0046
 8843SOL     OW38161   1.196   3.413   9.504  0.2018  0.0960  0.2651
 8843SOL    HW138162   1.259   3.345   9.477 -0.3784  1.0602 -3.5919
 8843SOL    HW238163   1.173   3.379   9.590 -1.8447  0.0852 -0.3004
 8844SOL     OW38164   1.018   1.096  12.803  0.3673 -0.3074  0.2494
 8844SOL    HW138165   1.110   1.077  12.824  0.7820 -0.7074 -1.9516
 8844SOL    HW238166   1.018   1.164  12.735  0.1412 -0.8484 -0.2862
 8845SOL     OW38167   3.426   2.002  11.140  0.6966  0.4420 -0.2663
 8845SOL    HW138168   3.492   2.037  11.080  1.2424 -0.6793 -0.3307
 8845SOL    HW238169   3.368   1.944  11.091  2.4933 -1.7916  0.1860
 8846SOL     OW38170   0.361   0.324   2.925 -0.1261  0.8381  0.1403
 8846SOL    HW138171   0.384   0.417   2.917 -0.3985  0.7808 -1.2673
 8846SOL    HW238172   0.425   0.290   2.988 -0.3730  1.4146  0.7100
 8847SOL     OW38173   4.428   4.296   7.799  0.0065  0.0408 -0.1037
 8847SOL    HW138174   4.481   4.283   7.720 -2.6967  1.6110 -2.1767
 8847SOL    HW238175   4.377   4.216   7.802 -0.1593  0.0752 -1.7021
 8848SOL     OW38176   4.596   1.694   3.987  0.0126 -0.1536 -0.5334
 8848SOL    HW138177   4.628   1.679   3.898 -0.1782  1.6207 -0.9132
 8848SOL    HW238178   4.671   1.672   4.042  1.7797 -0.1350 -2.9565
 8849SOL     OW38179   1.347   1.882   5.589  0.1556 -0.7545  0.1992
 8849SOL    HW138180   1.312   1.970   5.604  1.7627  0.3102 -2.2019
 8849SOL    HW238181   1.296   1.835   5.654  0.6614 -0.1563  1.0229
 8850SOL     OW38182   0.829   0.636  12.462 -0.4308  0.0751 -0.3505
 8850SOL    HW138183   0.745   0.592  12.473 -0.5110  0.2070 -0.4459
 8850SOL    HW238184   0.864   0.591  12.385  0.6578  0.8790 -0.3281
 8851SOL     OW38185   0.882   3.906   5.750 -0.0789 -0.1414  0.1791
 8851SOL    HW138186   0.895   3.813   5.737  1.0484  0.0809 -0.2275
 8851SOL    HW238187   0.965   3.940   5.716  0.5330 -2.2067 -0.3649
 8852SOL     OW38188   3.895   4.527  16.500  0.1634 -0.3253  0.0012
 8852SOL    HW138189   3.948   4.572  16.435  0.4407  0.5885  0.8696
 8852SOL    HW238190   3.964   4.509  16.564  1.0478  1.4524 -0.4668
 8853SOL     OW38191   4.223   3.231   5.468 -0.5845  0.5697  0.2954
 8853SOL    HW138192   4.221   3.142   5.505  0.2032  0.1470 -0.6886
 8853SOL    HW238193   4.255   3.285   5.541  1.6164  0.3576 -0.5112
 8854SOL     OW38194   3.451   2.788   9.779 -0.3935 -1.0615 -0.2081
 8854SOL    HW138195   3.501   2.735   9.841  1.4953 -1.7043 -2.2529
 8854SOL    HW238196   3.430   2.861   9.837  0.0250 -0.3230 -0.9934
 8855SOL     OW38197   3.498   4.100   6.208  0.5455 -0.1932  0.0618
 8855SOL    HW138198   3.536   4.035   6.150  1.1107  1.6316 -1.6256
 8855SOL    HW238199   3.485   4.051   6.289  2.4544  0.9425  1.0636
 8856SOL     OW38200   4.282   0.758   7.605 -0.0912 -0.2097 -0.6482
 8856SOL    HW138201   4.373   0.734   7.587 -0.4021 -1.2010 -0.9014
 8856SOL    HW238202   4.248   0.671   7.625  1.3468 -0.7746 -0.7034
 8857SOL     OW38203   4.196   1.679   0.721  0.5217  0.9050 -0.1752
 8857SOL    HW138204   4.271   1.622   0.737  0.6864  0.4698 -2.4719
 8857SOL    HW238205   4.243   1.761   0.732 -0.2912  1.6118 -2.0021
 8858SOL     OW38206   3.612   0.435   3.786  0.1465  0.0924 -0.4377
 8858SOL    HW138207   3.536   0.442   3.728  0.3922  1.2509 -0.6252
 8858SOL    HW238208   3.676   0.495   3.748 -0.2875  1.4886  1.0085
 8859SOL     OW38209   0.350   0.814  11.932  0.1723 -0.1966  0.2857
 8859SOL    HW138210   0.292   0.890  11.938 -0.0813 -0.4156  0.6184
 8859SOL    HW238211   0.417   0.857  11.878  1.8728 -3.8108 -0.4591
 8860SOL     OW38212   4.568   1.583   8.340 -0.3097 -0.3152  0.6902
 8860SOL    HW138213   4.481   1.601   8.303  0.0644  0.6160  0.2770
 8860SOL    HW238214   4.598   1.674   8.339  0.3243 -0.5296  0.3209
 8861SOL     OW38215   3.843   1.090   8.829  0.0856 -0.2330  0.4177
 8861SOL    HW138216   3.908   1.024   8.853  1.5646  0.6692 -1.0828
 8861SOL    HW238217   3.831   1.055   8.741  2.7221 -3.0324  1.1934
 8862SOL     OW38218   2.501   2.754   5.646  0.5024 -0.3210 -0.4677
 8862SOL    HW138219   2.577   2.811   5.633 -0.2282  0.5126 -1.1480
 8862SOL    HW238220   2.435   2.810   5.688 -0.0113 -0.4346 -1.1223
 8863SOL     OW38221   0.046   1.716   1.854 -0.5650  0.2422  0.5644
 8863SOL    HW138222   0.018   1.680   1.938  0.2656 -0.1865  0.6556
 8863SOL    HW238223   4.707   1.708   1.798 -1.0877  0.5764  1.2400
 8864SOL     OW38224   2.333   3.324   5.242  0.0719  0.4814  0.3304
 8864SOL    HW138225   2.284   3.366   5.171  1.4089  1.8764  0.2340
 8864SOL    HW238226   2.422   3.359   5.234  1.1012 -1.6939  2.4843
 8865SOL     OW38227   1.927   1.759   7.189  0.1811 -0.6806  0.2470
 8865SOL    HW138228   1.851   1.808   7.156 -0.8291 -1.0716  1.9522
 8865SOL    HW238229   1.905   1.754   7.282 -4.2103 -0.6464 -0.7550
 8866SOL     OW38230   2.494   4.396   3.055 -0.3581  0.7057  0.3649
 8866SOL    HW138231   2.499   4.363   3.144 -0.6440  1.4240  0.6452
 8866SOL    HW238232   2.498   4.489   3.076  0.2156  0.5317  1.0091
 8867SOL     OW38233   4.311   3.652  15.726 -0.0541 -0.2212 -0.2307
 8867SOL    HW138234   4.266   3.727  15.767 -2.3017 -0.6191 -1.9647
 8867SOL    HW238235   4.397   3.692  15.721 -0.3165  0.3563 -0.2008
 8868SOL     OW38236   4.479   1.164   5.083 -0.3931 -0.5029 -0.0474
 8868SOL    HW138237   4.526   1.112   5.018  0.6406  2.2821 -1.5268
 8868SOL    HW238238   4.478   1.249   5.039 -1.2721 -0.9189 -0.8121
 8869SOL     OW38239   1.409   3.230   4.841 -0.0361 -0.1572 -0.9876
 8869SOL    HW138240   1.333   3.178   4.813  0.8298 -1.4266 -0.9911
 8869SOL    HW238241   1.372   3.318   4.848  1.9538  0.6061  0.1196
 8870SOL     OW38242   0.714   3.284  15.293 -0.2413  0.0825  0.1019
 8870SOL    HW138243   0.627   3.312  15.264 -0.1495  0.6920  0.4129
 8870SOL    HW238244   0.766   3.341  15.235 -2.0509  0.8811 -0.7327
 8871SOL     OW38245   3.350   1.397   5.689 -0.2666  0.0070 -0.5404
 8871SOL    HW138246   3.378   1.341   5.616  0.8150 -0.4610  0.2318
 8871SOL    HW238247   3.386   1.481   5.663  0.2637  0.0544  0.3861
 8872SOL     OW38248   0.555   1.883   2.242 -0.3867  0.2320  0.4873
 8872SOL    HW138249   0.550   1.887   2.147  2.9337  0.6898  0.3308
 8872SOL    HW238250   0.488   1.949   2.263  0.9771  1.0563  2.2987
 8873SOL     OW38251   2.425   1.414   8.320  0.0806  0.3165 -0.4783
 8873SOL    HW138252   2.440   1.428   8.414 -2.4952  0.5508 -0.1049
 8873SOL    HW238253   2.470   1.492   8.288  1.5201  0.7234  2.5231
 8874SOL     OW38254   1.288   3.315   6.865  0.3617  0.7538 -0.5034
 8874SOL    HW138255   1.348   3.240   6.859 -1.0775 -0.5759  1.6081
 8874SOL    HW238256   1.354   3.384   6.860 -1.4659  2.5047 -0.2970
 8875SOL     OW38257   0.434   0.382  13.305 -0.2551 -0.3505 -0.1690
 8875SOL    HW138258   0.429   0.289  13.324 -2.2888 -0.1604  0.2630
 8875SOL    HW238259   0.339   0.382  13.295 -0.0170 -0.3360 -2.4231
 8876SOL     OW38260   2.000   0.319  17.199  0.0108 -0.3120  0.7220
 8876SOL    HW138261   1.958   0.303  17.284 -0.5895  1.4500  0.7652
 8876SOL    HW238262   1.941   0.375  17.148  1.7639  1.5094  0.6814
 8877SOL     OW38263   0.519   2.148   9.340  0.4634 -0.2926 -0.1953
 8877SOL    HW138264   0.484   2.084   9.402 -2.4366  1.7744  0.2850
 8877SOL    HW238265   0.536   2.090   9.266 -1.7539 -0.7896 -0.3165
 8878SOL     OW38266   3.217   3.032   2.793 -0.0564  0.1844 -0.0649
 8878SOL    HW138267   3.298   3.034   2.742 -0.3547  1.1022 -0.4976
 8878SOL    HW238268   3.168   3.104   2.754  3.5484  1.6551 -1.8784
 8879SOL     OW38269   0.651   1.636   6.233 -0.4681 -0.4483 -0.0597
 8879SOL    HW138270   0.626   1.546   6.212  0.1879 -1.1557  2.2721
 8879SOL    HW238271   0.573   1.668   6.277  0.3157  1.1920  0.1391
 8880SOL     OW38272   2.423   4.148   5.258  0.0813 -0.0075 -0.3138
 8880SOL    HW138273   2.350   4.183   5.207 -2.0583 -0.2580  2.5246
 8880SOL    HW238274   2.497   4.186   5.212 -0.2105  2.8352  1.5888
 8881SOL     OW38275   0.149   2.578   3.775  0.5852 -0.4259 -0.2041
 8881SOL    HW138276   0.136   2.490   3.810 -0.1449 -0.7724 -1.3584
 8881SOL    HW238277   0.244   2.580   3.781  0.6035 -1.4011 -0.1815
 8882SOL     OW38278   0.437   0.838   6.754  0.1378  0.1707 -0.4298
 8882SOL    HW138279   0.406   0.771   6.815  0.8876  0.0357 -0.1989
 8882SOL    HW238280   0.361   0.839   6.695  0.1925 -2.7685 -0.5772
 8883SOL     OW38281   2.826   3.459   4.330 -0.3107  0.4998 -0.1080
 8883SOL    HW138282   2.774   3.379   4.325  1.4768 -0.8023  2.3373
 8883SOL    HW238283   2.857   3.479   4.242 -1.2488 -0.5049 -0.6613
 8884SOL     OW38284   0.471   4.022   0.172 -0.4589  0.5296  0.2881
 8884SOL    HW138285   0.473   4.080   0.097  0.7239  0.7571  0.4934
 8884SOL    HW238286   0.545   4.048   0.228  0.3476 -3.2560  0.9963
 8885SOL     OW38287   0.654   1.151   8.139 -0.2281  0.0110 -0.0591
 8885SOL    HW138288   0.628   1.062   8.162  0.2813 -0.5099 -1.5612
 8885SOL    HW238289   0.712   1.147   8.064  2.1164 -2.3194  1.8808
 8886SOL     OW38290   1.522   2.301   5.938  0.4515 -0.1681  0.0219
 8886SOL    HW138291   1.600   2.256   5.969  1.1610 -0.1817 -1.7594
 8886SOL    HW238292   1.475   2.313   6.020  1.6726  0.7581  0.6052
 8887SOL     OW38293   0.515   3.218   7.911 -0.2667  0.0348  0.2167
 8887SOL    HW138294   0.577   3.199   7.840  0.4960 -0.2144  0.9629
 8887SOL    HW238295   0.483   3.131   7.934 -0.9452  0.6298  1.4844
 8888SOL     OW38296   3.080   3.557  12.461  0.2340  0.2526  0.4334
 8888SOL    HW138297   3.015   3.621  12.432  1.6219  1.6926  0.5033
 8888SOL    HW238298   3.155   3.606  12.493 -0.7398  0.8583  1.8005
 8889SOL     OW38299   3.359   4.546  14.158 -0.1487  0.8575  0.1235
 8889SOL    HW138300   3.291   4.506  14.213  1.1247 -0.2027  0.9319
 8889SOL    HW238301   3.310   4.620  14.123  0.6082  1.2868 -0.0354
 8890SOL     OW38302   3.856   0.883  13.858  0.2414 -0.2122 -0.1262
 8890SOL    HW138303   3.893   0.972  13.853  2.0549 -0.9651  0.0153
 8890SOL    HW238304   3.937   0.835  13.842 -0.2468 -0.7473 -1.0145
 8891SOL     OW38305   0.178   0.203   3.769  0.0397  0.0086 -0.4190
 8891SOL    HW138306   0.260   0.239   3.802  0.7613 -0.2406 -1.9491
 8891SOL    HW238307   0.133   0.284   3.741  1.5388 -0.0601 -3.0817
 8892SOL     OW38308   2.962   2.644   0.684 -0.0188 -0.1362  0.4955
 8892SOL    HW138309   2.873   2.610   0.668  0.4283 -0.6877 -0.9007
 8892SOL    HW238310   2.962   2.634   0.779  0.9825  1.5892  0.6732
 8893SOL     OW38311   0.299   1.774  17.184 -0.0459 -0.6677  0.8016
 8893SOL    HW138312   0.313   1.803  17.094  1.5110 -2.8445  0.3407
 8893SOL    HW238313   0.325   1.855  17.227  3.0871  0.7877 -3.7900
 8894SOL     OW38314   2.322   4.002   7.861  0.6901 -0.5712 -0.4967
 8894SOL    HW138315   2.298   4.000   7.768  1.0554 -0.4892 -0.5933
 8894SOL    HW238316   2.409   4.041   7.857  0.9028 -0.9436  0.4810
 8895SOL     OW38317   3.190   1.156  13.278 -0.0469  0.0442  0.3363
 8895SOL    HW138318   3.103   1.152  13.237  0.5533 -0.1986 -0.9156
 8895SOL    HW238319   3.162   1.190  13.363 -1.4845 -0.4037  0.0419
 8896SOL     OW38320   2.615   0.309  13.663  0.1721  0.2400 -0.0120
 8896SOL    HW138321   2.543   0.324  13.601  2.2864 -0.1338 -2.5468
 8896SOL    HW238322   2.667   0.261  13.598 -0.6386 -1.6817  0.7369
 8897SOL     OW38323   0.395   1.547  13.017 -0.2646 -0.8969  0.4383
 8897SOL    HW138324   0.356   1.626  13.054 -1.6762  0.4099 -3.7769
 8897SOL    HW238325   0.340   1.526  12.942 -1.7216 -1.4653  1.6848
 8898SOL     OW38326   2.934   0.813   5.239  0.6963 -0.4156  0.3691
 8898SOL    HW138327   2.942   0.885   5.301  0.8055 -1.1417  1.1933
 8898SOL    HW238328   2.855   0.840   5.193  1.1289  0.3284  0.0642
 8899SOL     OW38329   4.468   1.105  10.964 -0.2339 -0.4340  0.2370
 8899SOL    HW138330   4.488   1.079  11.054 -0.0287 -0.1872  0.2628
 8899SOL    HW238331   4.516   1.037  10.918 -1.1780 -0.9197 -0.0453
 8900SOL     OW38332   1.302   0.171   6.983 -0.0995 -0.3152 -0.3491
 8900SOL    HW138333   1.237   0.218   6.931  1.8304  1.5177 -1.0709
 8900SOL    HW238334   1.285   0.199   7.073  3.2756 -1.6169  0.7043
 8901SOL     OW38335   3.156   1.823  15.183  0.4502 -0.6907 -0.0343
 8901SOL    HW138336   3.118   1.737  15.201 -0.2257 -0.4682 -0.4285
 8901SOL    HW238337   3.084   1.881  15.206 -0.7808 -2.7672  1.3788
 8902SOL     OW38338   3.300   1.396   7.579  0.0959  0.0308 -0.0022
 8902SOL    HW138339   3.292   1.356   7.492  0.4786  0.0137 -0.0296
 8902SOL    HW238340   3.218   1.444   7.574 -0.5823 -1.1198  0.1283
 8903SOL     OW38341   2.706   1.123  11.300  0.1742  0.3901 -0.1406
 8903SOL    HW138342   2.790   1.168  11.300 -0.5287  1.6995  0.1984
 8903SOL    HW238343   2.661   1.154  11.379  0.6451  1.8063 -0.4233
 8904SOL     OW38344   4.373   0.002   8.683  0.3388  0.3647 -0.2220
 8904SOL    HW138345   4.436   4.705   8.747  1.0034 -1.4059 -1.8392
 8904SOL    HW238346   4.361   4.663   8.627  0.6797 -0.4451  0.8270
 8905SOL     OW38347   1.506   1.838   1.352 -0.0118 -0.7324 -0.0010
 8905SOL    HW138348   1.496   1.779   1.278  0.2478 -0.7780 -0.0004
 8905SOL    HW238349   1.530   1.773   1.418  0.1597 -0.8168 -0.1470
 8906SOL     OW38350   3.166   3.643   4.371  0.5440  0.5932 -0.4344
 8906SOL    HW138351   3.154   3.594   4.452  0.6376  0.8997 -0.2342
 8906SOL    HW238352   3.241   3.697   4.396  1.8419 -1.2121 -0.3989
 8907SOL     OW38353   0.409   2.957   3.434  0.3022 -0.7472  0.1671
 8907SOL    HW138354   0.468   2.947   3.508  0.1562  3.3205  0.7813
 8907SOL    HW238355   0.371   2.869   3.431  2.0871 -1.4927 -0.8688
 8908SOL     OW38356   2.314   3.452   6.246 -0.2171  0.0383 -0.2318
 8908SOL    HW138357   2.364   3.370   6.246  0.4794  0.4595  1.2336
 8908SOL    HW238358   2.233   3.410   6.276 -0.6819  0.9718 -0.2137
 8909SOL     OW38359   3.007   0.688   3.864  0.0659  0.5790  0.6198
 8909SOL    HW138360   3.019   0.597   3.835  1.8844  1.0162  0.0527
 8909SOL    HW238361   2.972   0.666   3.950  0.3271  1.3171  0.9101
 8910SOL     OW38362   2.721   1.544  10.545 -0.4170 -0.1892 -0.2331
 8910SOL    HW138363   2.773   1.625  10.545  0.0006 -0.4527  0.6199
 8910SOL    HW238364   2.735   1.519  10.636  2.5800  1.2588 -0.2699
 8911SOL     OW38365   1.416   4.440   2.535  0.2390 -0.4013 -0.3002
 8911SOL    HW138366   1.439   4.465   2.445  3.4457 -2.3413 -0.0206
 8911SOL    HW238367   1.488   4.381   2.558  0.7719  0.2561 -0.2954
 8912SOL     OW38368   3.307   3.275   3.879 -0.0090  0.0407  0.1151
 8912SOL    HW138369   3.397   3.256   3.908  0.1305  1.6355  0.7024
 8912SOL    HW238370   3.316   3.356   3.829  0.6228 -0.7347 -1.0378
 8913SOL     OW38371   2.905   2.663   7.184  0.2524 -0.2692  0.3784
 8913SOL    HW138372   2.912   2.686   7.091  1.8380  0.3337  0.6623
 8913SOL    HW238373   2.812   2.679   7.204  0.2761  0.4471 -0.0898
 8914SOL     OW38374   2.894   3.993   5.622  0.4914  0.0983  0.0612
 8914SOL    HW138375   2.951   3.932   5.667  1.3622  1.0476  0.2400
 8914SOL    HW238376   2.918   4.077   5.661  0.7562  0.5429 -1.0653
 8915SOL     OW38377   0.788   2.924   3.552  0.3651 -0.5904 -0.1637
 8915SOL    HW138378   0.786   2.846   3.498  0.1752 -1.6712  1.4200
 8915SOL    HW238379   0.696   2.923   3.579  0.8076  0.8108  1.3765
 8916SOL     OW38380   1.166   1.702   9.631  0.3586  0.1290  0.4973
 8916SOL    HW138381   1.224   1.744   9.568 -2.3171  1.5918 -0.9702
 8916SOL    HW238382   1.186   1.610   9.613 -0.1335 -0.1896  1.5896
 8917SOL     OW38383   4.660   1.795  10.851  0.1318 -0.8817  0.2346
 8917SOL    HW138384   4.651   1.700  10.856  1.3952 -0.9288  1.6974
 8917SOL    HW238385   4.614   1.814  10.769 -0.4336  1.4946  1.1283
 8918SOL     OW38386   2.329   2.091   8.560 -0.0085 -0.1438  0.0180
 8918SOL    HW138387   2.341   2.108   8.653 -2.1971  0.2229  0.2415
 8918SOL    HW238388   2.331   2.183   8.535  0.4532 -0.3128 -0.5489
 8919SOL     OW38389   4.116   0.295  16.591  0.4065  0.8463  0.0744
 8919SOL    HW138390   4.202   0.299  16.550  1.2458  1.4838  1.8892
 8919SOL    HW238391   4.060   0.350  16.536 -0.6804  1.1398  1.4742
 8920SOL     OW38392   3.966   1.003  13.081 -0.3577 -0.3055 -0.5984
 8920SOL    HW138393   3.920   0.924  13.110  1.3879  0.0819  3.2264
 8920SOL    HW238394   4.016   0.961  13.011 -0.2238  1.0485 -1.3170
 8921SOL     OW38395   4.286   4.157   1.724 -0.6945  0.4537  0.4641
 8921SOL    HW138396   4.351   4.228   1.721  0.1454 -0.3405 -0.3383
 8921SOL    HW238397   4.345   4.082   1.720 -0.8894  0.3976 -1.2668
 8922SOL     OW38398   0.439   0.302   3.886  0.2954 -0.0821 -0.1979
 8922SOL    HW138399   0.450   0.264   3.973 -0.9032 -1.3993 -0.6310
 8922SOL    HW238400   0.529   0.335   3.879  1.3027 -2.7599  0.2583
 8923SOL     OW38401   4.378   2.729   5.991 -0.0659  0.1350 -0.2971
 8923SOL    HW138402   4.438   2.778   6.047  0.7548 -1.6320  0.3818
 8923SOL    HW238403   4.324   2.801   5.960 -0.6308 -0.1770 -0.0393
 8924SOL     OW38404   4.116   0.812  17.016 -0.0395  0.3275 -0.7509
 8924SOL    HW138405   4.144   0.850  16.933  3.2493  1.4285  0.8620
 8924SOL    HW238406   4.196   0.768  17.045 -0.0813  1.4682  1.0847
 8925SOL     OW38407   2.652   2.919   6.002  0.3173  0.4167  0.0931
 8925SOL    HW138408   2.656   3.014   6.002 -2.1576  0.5252 -1.3693
 8925SOL    HW238409   2.745   2.897   6.001  0.2900  0.3408 -0.5132
 8926SOL     OW38410   3.498   0.315  11.869  0.0574  0.1218 -0.2600
 8926SOL    HW138411   3.561   0.257  11.826  0.1611  0.9563 -1.2188
 8926SOL    HW238412   3.558   0.390  11.872 -1.0478  1.0271 -0.6157
 8927SOL     OW38413   1.659   1.389   9.858  0.1926  0.1213  0.2198
 8927SOL    HW138414   1.733   1.415   9.913 -1.3734  1.7665  1.5770
 8927SOL    HW238415   1.619   1.333   9.924  0.8113  1.5962  1.8720
 8928SOL     OW38416   4.050   3.230  13.264  0.1645 -0.4358  0.2194
 8928SOL    HW138417   4.145   3.224  13.251  0.0522  0.9671 -1.1529
 8928SOL    HW238418   4.040   3.313  13.217  1.1577 -0.0751  0.6452
 8929SOL     OW38419   3.545   1.489   9.719  0.0003 -0.1121  0.1832
 8929SOL    HW138420   3.466   1.471   9.770  0.5300 -0.2767  0.9541
 8929SOL    HW238421   3.586   1.403   9.730 -0.2742 -0.1468  0.9479
 8930SOL     OW38422   0.388   2.725   6.866  0.1685  0.5499  1.3006
 8930SOL    HW138423   0.456   2.790   6.845  0.8759 -0.8345 -0.7331
 8930SOL    HW238424   0.444   2.667   6.916  1.1706  1.6220  1.4306
 8931SOL     OW38425   4.375   0.072   4.332  0.0078  0.2153  0.1567
 8931SOL    HW138426   4.347   0.074   4.424  3.3081 -1.4626  1.2116
 8931SOL    HW238427   4.310   0.136   4.303  0.2869  1.0605  1.4005
 8932SOL     OW38428   1.592   1.842   5.735 -0.4477 -0.4677  0.3328
 8932SOL    HW138429   1.576   1.856   5.642 -0.9067 -1.8005  0.2178
 8932SOL    HW238430   1.565   1.752   5.750 -0.1605 -0.9421 -2.0659
 8933SOL     OW38431   2.838   1.630   3.198 -0.6886  1.0704  0.1727
 8933SOL    HW138432   2.846   1.611   3.292 -1.5351 -0.6353 -0.1032
 8933SOL    HW238433   2.783   1.552   3.188 -3.9156  3.3465  0.1896
 8934SOL     OW38434   2.447   0.518   4.057  0.0158 -0.0645 -0.0384
 8934SOL    HW138435   2.383   0.448   4.048  0.7307 -0.4398 -2.2836
 8934SOL    HW238436   2.518   0.476   4.008  0.4557 -1.4221  1.7729
 8935SOL     OW38437   4.272   3.997   6.023  0.0541  0.3224  0.4502
 8935SOL    HW138438   4.216   3.923   6.048  1.3055 -0.7880 -0.0157
 8935SOL    HW238439   4.335   4.007   6.094  0.7099 -0.4332 -0.0159
 8936SOL     OW38440   4.159   0.111   3.797  0.1352  0.1669 -0.2616
 8936SOL    HW138441   4.214   0.079   3.869  0.6691  3.2232  0.6506
 8936SOL    HW238442   4.214   0.177   3.754  1.2982  0.1412  1.1837
 8937SOL     OW38443   3.836   0.546  11.400 -0.2177  0.1327  0.2087
 8937SOL    HW138444   3.894   0.618  11.424  0.4823  0.1369 -1.4373
 8937SOL    HW238445   3.754   0.592  11.380 -1.1984 -1.3851  0.7496
 8938SOL     OW38446   0.041   0.540   2.034  0.1240  0.1151 -0.0149
 8938SOL    HW138447   4.719   0.608   2.005 -0.2241 -0.4767 -0.6935
 8938SOL    HW238448   0.100   0.591   2.088  1.0242 -0.8090 -0.1256
 8939SOL     OW38449   0.569   1.713   2.680  0.4873  0.4629 -0.0921
 8939SOL    HW138450   0.507   1.644   2.657 -1.0148  1.6208  0.4315
 8939SOL    HW238451   0.607   1.748   2.599  0.5751 -0.5186 -0.4740
 8940SOL     OW38452   0.870   2.924   8.040 -0.1997  0.3032  0.2572
 8940SOL    HW138453   0.849   2.866   7.966  0.3673 -0.1199  0.4298
 8940SOL    HW238454   0.795   2.905   8.097 -0.4637  1.3891  0.2635
 8941SOL     OW38455   0.957   3.149   9.421 -0.1587 -0.7104  0.0239
 8941SOL    HW138456   0.880   3.093   9.413 -1.6615  1.3941 -0.4052
 8941SOL    HW238457   0.951   3.195   9.505  2.5807 -0.6246  0.1621
 8942SOL     OW38458   2.792   3.443  11.513  0.3406 -0.0669 -0.2017
 8942SOL    HW138459   2.866   3.492  11.479  1.0766 -0.7271  0.4508
 8942SOL    HW238460   2.768   3.497  11.588 -1.1350  1.0001 -1.4456
 8943SOL     OW38461   0.810   3.112  14.269 -0.1314 -0.0663 -0.3728
 8943SOL    HW138462   0.824   3.192  14.218 -1.4704  1.1093  1.0938
 8943SOL    HW238463   0.715   3.108  14.255 -0.0124 -1.0251 -0.8893
 8944SOL     OW38464   0.997   2.319   0.726  0.1165  0.0396  0.0813
 8944SOL    HW138465   1.037   2.380   0.788  0.2591  1.7664 -1.7159
 8944SOL    HW238466   0.906   2.331   0.753 -0.0552  1.4813 -1.1470
 8945SOL     OW38467   0.031   1.474  17.660 -0.4241 -0.0714 -0.1173
 8945SOL    HW138468   0.055   1.557  17.620  0.1965 -0.1204  0.1486
 8945SOL    HW238469   0.117   1.448  17.693 -0.4611 -0.0602 -0.0092
 8946SOL     OW38470   0.105   3.514  15.838  0.3234  0.1923  0.3373
 8946SOL    HW138471   0.016   3.536  15.865 -0.0942  0.6706 -1.4275
 8946SOL    HW238472   0.141   3.603  15.838 -0.8101  0.6443  3.0446
 8947SOL     OW38473   1.668   3.823  14.568 -0.1313 -0.4143  0.5146
 8947SOL    HW138474   1.596   3.885  14.563 -0.3589 -0.6082  1.3497
 8947SOL    HW238475   1.653   3.797  14.477  2.2254  0.2510 -0.0578
 8948SOL     OW38476   1.620   1.286   3.789  0.1093  0.0745  0.1948
 8948SOL    HW138477   1.606   1.271   3.696 -1.0636 -0.3273  0.4314
 8948SOL    HW238478   1.562   1.358   3.814 -0.0129  0.3702 -0.9586
 8949SOL     OW38479   2.224   0.790   8.266 -0.7378 -0.3518 -0.0367
 8949SOL    HW138480   2.229   0.771   8.359 -1.3489 -1.3570 -0.2122
 8949SOL    HW238481   2.137   0.753   8.253  0.3127 -2.5051 -0.9325
 8950SOL     OW38482   0.833   4.307   5.131  1.0378  0.2755 -0.1260
 8950SOL    HW138483   0.837   4.212   5.124 -0.9276  0.0239  1.9609
 8950SOL    HW238484   0.774   4.308   5.207 -2.7326 -0.6066 -3.0453
 8951SOL     OW38485   1.461   1.069   6.254 -0.1398  0.0972 -0.0455
 8951SOL    HW138486   1.427   1.112   6.332  0.5900 -0.1837  0.4287
 8951SOL    HW238487   1.481   0.984   6.294 -0.6144 -0.1737 -0.3821
 8952SOL     OW38488   1.543   2.613  15.655 -0.8193  0.1077  0.5269
 8952SOL    HW138489   1.531   2.703  15.624 -1.8917 -0.6400 -1.2847
 8952SOL    HW238490   1.631   2.585  15.631 -0.4666  1.5010  0.1992
 8953SOL     OW38491   2.806   0.309  15.184 -0.6057  0.6375 -0.0499
 8953SOL    HW138492   2.893   0.312  15.224 -0.7794 -1.0346  0.4566
 8953SOL    HW238493   2.777   0.218  15.190  1.3106  0.1649  2.3014
 8954SOL     OW38494   2.682   1.122   7.729 -0.0413 -0.1604 -0.0449
 8954SOL    HW138495   2.698   1.039   7.683 -0.7711 -0.8558  0.9470
 8954SOL    HW238496   2.612   1.160   7.676 -0.2058 -0.3030  0.0721
 8955SOL     OW38497   0.283   3.172  16.310 -0.6214  0.2960  0.2311
 8955SOL    HW138498   0.301   3.262  16.282  0.5812 -0.7753 -2.4393
 8955SOL    HW238499   0.363   3.138  16.272  0.9894  2.3979  1.7250
 8956SOL     OW38500   2.510   2.286   3.879  0.3382  0.0404  0.2422
 8956SOL    HW138501   2.590   2.286   3.826  0.0301 -0.3239 -0.2247
 8956SOL    HW238502   2.447   2.293   3.807  0.8423 -1.4107 -0.3493
 8957SOL     OW38503   0.381   1.163  16.006 -0.5187  0.5262 -0.0816
 8957SOL    HW138504   0.350   1.226  15.941  1.5636  1.2967 -0.3183
 8957SOL    HW238505   0.474   1.184  16.018 -0.4504  0.3263 -0.2584
 8958SOL     OW38506   0.755   4.485  12.076 -0.8828  0.7301  0.0630
 8958SOL    HW138507   0.688   4.512  12.013 -2.5336  1.5957  2.1974
 8958SOL    HW238508   0.735   4.392  12.081  1.4546  0.2469  0.5085
 8959SOL     OW38509   4.464   2.251   9.595  0.1535 -0.4082 -0.1534
 8959SOL    HW138510   4.436   2.173   9.547 -0.7189 -0.5264  0.5616
 8959SOL    HW238511   4.559   2.242   9.593  0.2870  0.6172  1.2333
 8960SOL     OW38512   1.415   2.077  12.246 -0.3422  0.3592  0.4091
 8960SOL    HW138513   1.470   2.084  12.168 -0.8975 -0.3182 -0.0431
 8960SOL    HW238514   1.429   2.167  12.276  2.8873 -0.4470  1.2728
 8961SOL     OW38515   0.865   3.185   2.210 -0.3088 -0.4681  0.2501
 8961SOL    HW138516   0.957   3.171   2.188 -0.5569  0.1227 -1.1282
 8961SOL    HW238517   0.864   3.251   2.279 -1.1030 -1.3834  1.1143
 8962SOL     OW38518   3.187   1.207  13.554 -0.2225 -0.1893  0.3185
 8962SOL    HW138519   3.197   1.299  13.579 -0.2487 -0.5234  1.5505
 8962SOL    HW238520   3.273   1.172  13.577  0.7989  1.6751 -0.6348
 8963SOL     OW38521   3.686   0.070   7.278  0.1055  0.2594 -0.2262
 8963SOL    HW138522   3.630   0.065   7.200 -2.5571  2.9181  1.5142
 8963SOL    HW238523   3.676   4.718   7.306  0.8835 -0.0767 -1.0356
 8964SOL     OW38524   2.033   4.262   2.329 -0.5209 -0.6264  0.1932
 8964SOL    HW138525   2.022   4.239   2.237  0.0347 -0.0966 -0.0022
 8964SOL    HW238526   2.018   4.357   2.328 -0.3361 -0.6140 -0.7697
 8965SOL     OW38527   3.158   4.596  15.680 -0.0218 -0.0160  0.0109
 8965SOL    HW138528   3.162   4.591  15.585 -1.6288  2.6594 -0.1831
 8965SOL    HW238529   3.130   4.685  15.698  1.8777  0.4333  0.7235
 8966SOL     OW38530   1.681   2.572   2.389  0.2469 -0.4340  0.0626
 8966SOL    HW138531   1.775   2.592   2.392 -0.0612  1.0499 -0.3950
 8966SOL    HW238532   1.671   2.530   2.475 -1.0010 -1.7378 -0.7238
 8967SOL     OW38533   2.503   3.584   9.388 -0.5802  0.1026 -0.2611
 8967SOL    HW138534   2.569   3.652   9.402 -0.8141  0.0313  1.2078
 8967SOL    HW238535   2.561   3.530   9.335 -0.2971  0.2855 -0.1426
 8968SOL     OW38536   0.191   1.070  17.182  0.0936 -0.4000  0.5485
 8968SOL    HW138537   0.223   1.157  17.204 -2.3216  0.9900 -1.4146
 8968SOL    HW238538   0.185   1.031  17.270  2.0983 -0.5158  0.6179
 8969SOL     OW38539   4.163   2.146   7.431 -0.1360 -0.2656 -0.1134
 8969SOL    HW138540   4.229   2.147   7.363  0.4939 -1.2421  0.4846
 8969SOL    HW238541   4.097   2.089   7.391 -0.6944 -0.8828  1.6772
 8970SOL     OW38542   1.372   1.928   7.067  0.4794  0.2770  0.2707
 8970SOL    HW138543   1.359   1.838   7.036 -1.6476  0.0686  1.7468
 8970SOL    HW238544   1.286   1.946   7.105  0.3334  2.0294 -0.9064
 8971SOL     OW38545   3.343   1.063  12.662 -0.1021 -0.2891  0.2330
 8971SOL    HW138546   3.365   0.993  12.723 -2.2709 -2.6774 -1.7181
 8971SOL    HW238547   3.258   1.092  12.696 -0.2199  1.2378 -1.3526
 8972SOL     OW38548   2.272   0.369   1.433  0.5678  0.0114 -0.1663
 8972SOL    HW138549   2.284   0.413   1.517  0.5543  1.0843 -0.7173
 8972SOL    HW238550   2.356   0.324   1.428  0.7975  0.5207 -0.8502
 8973SOL     OW38551   3.217   1.382   2.860  0.0388  0.1451  0.5698
 8973SOL    HW138552   3.131   1.356   2.894 -0.6409  0.3003 -1.0396
 8973SOL    HW238553   3.187   1.454   2.803 -0.9669 -2.3263 -2.0119
 8974SOL     OW38554   1.394   1.586   8.417 -0.0337  0.6286  0.1490
 8974SOL    HW138555   1.428   1.667   8.379 -3.4986  2.2203  0.3696
 8974SOL    HW238556   1.307   1.621   8.436 -0.1661 -1.5559  3.4796
 8975SOL     OW38557   1.119   2.023   3.103 -0.3822 -0.0077  0.1254
 8975SOL    HW138558   1.053   2.063   3.161 -2.1926 -0.7944 -1.3959
 8975SOL    HW238559   1.085   1.937   3.080 -0.9128  0.3893 -0.5899
 8976SOL     OW38560   1.302   0.826  15.339  0.1395  0.4577 -0.1705
 8976SOL    HW138561   1.240   0.898  15.355 -0.5351 -0.0669 -0.4330
 8976SOL    HW238562   1.240   0.771  15.291  0.1500 -0.6246  1.0838
 8977SOL     OW38563   0.323   1.337  17.472  0.0915 -0.0630  0.2028
 8977SOL    HW138564   0.389   1.268  17.465 -1.6630 -1.8510  1.3046
 8977SOL    HW238565   0.278   1.312  17.391 -0.7108  1.1882  0.2742
 8978SOL     OW38566   0.726   1.239   7.541  0.4377 -0.1897  0.3054
 8978SOL    HW138567   0.786   1.297   7.494 -0.6477 -0.6329 -1.6305
 8978SOL    HW238568   0.786   1.212   7.610  1.5396 -0.0371 -0.5867
 8979SOL     OW38569   3.191   0.659   7.699 -0.5085  0.1904  0.9700
 8979SOL    HW138570   3.238   0.691   7.622 -2.5642 -2.1153 -1.2404
 8979SOL    HW238571   3.102   0.655   7.665  0.8969  0.3990 -2.7549
 8980SOL     OW38572   4.537   0.655  17.612  0.7045 -0.0332 -0.2206
 8980SOL    HW138573   4.600   0.676  17.681  0.5393  2.6835 -0.9035
 8980SOL    HW238574   4.536   0.559  17.609 -1.6693 -0.0089 -0.6505
 8981SOL     OW38575   1.110   1.178   5.890 -0.1352  0.4916 -0.2469
 8981SOL    HW138576   1.174   1.175   5.961  0.5057 -2.0527 -0.9103
 8981SOL    HW238577   1.159   1.241   5.837 -2.0047  1.2189 -1.0936
 8982SOL     OW38578   0.706   1.476   2.474  0.0621  0.1607  0.3405
 8982SOL    HW138579   0.765   1.486   2.549  0.0504 -0.7510  0.4690
 8982SOL    HW238580   0.728   1.543   2.409  2.3842 -0.0044  0.9886
 8983SOL     OW38581   2.995   3.433   6.558  0.2758  0.0583  0.2958
 8983SOL    HW138582   3.049   3.419   6.636 -0.0792 -0.2408  0.4845
 8983SOL    HW238583   3.008   3.528   6.546  0.3907 -0.3699 -2.9469
 8984SOL     OW38584   3.168   4.505   6.230 -0.0785 -0.2210  0.5604
 8984SOL    HW138585   3.228   4.433   6.249 -0.1759 -0.7745 -1.2224
 8984SOL    HW238586   3.085   4.458   6.227 -0.5930  0.7632 -0.9001
 8985SOL     OW38587   0.859   3.838  13.619  0.7882 -0.2371 -0.6802
 8985SOL    HW138588   0.918   3.883  13.559  2.5837 -1.5975  0.0600
 8985SOL    HW238589   0.787   3.900  13.624  1.8131  0.8358  0.9096
 8986SOL     OW38590   2.622   4.142  14.560  0.0869 -0.2945  0.4336
 8986SOL    HW138591   2.638   4.063  14.507  0.9421  0.4135 -0.3818
 8986SOL    HW238592   2.560   4.189  14.504 -0.7124  0.4622  1.9872
 8987SOL     OW38593   1.034   2.337   5.466 -0.5046  0.3212  0.0427
 8987SOL    HW138594   1.009   2.325   5.375 -0.0318 -0.5507  0.0290
 8987SOL    HW238595   0.995   2.424   5.475  1.3428  0.9252  2.3924
 8988SOL     OW38596   2.090   4.312   2.962  0.4924  0.4003 -0.3118
 8988SOL    HW138597   2.095   4.350   3.049 -2.1653  0.9834 -0.4085
 8988SOL    HW238598   2.051   4.384   2.912  0.0215  2.7561  3.4474
 8989SOL     OW38599   2.332   2.433  10.193 -0.1634  0.0128  0.3982
 8989SOL    HW138600   2.322   2.519  10.233 -1.1998 -0.0444  0.2602
 8989SOL    HW238601   2.366   2.378  10.264 -2.1467 -1.4473  0.2344
 8990SOL     OW38602   0.380   3.540   4.935 -0.5461  0.1019  0.1016
 8990SOL    HW138603   0.439   3.491   4.992  0.7285  1.3304 -0.1625
 8990SOL    HW238604   0.360   3.614   4.992  3.3509  1.6918 -0.5958
 8991SOL     OW38605   2.968   0.912   6.713 -0.3678  0.4277 -0.4640
 8991SOL    HW138606   2.963   0.998   6.671  0.8543  1.0154  0.5712
 8991SOL    HW238607   2.962   0.937   6.805  4.2131  1.9847 -0.5637
 8992SOL     OW38608   0.627   3.770   0.618 -0.9716 -0.1373 -0.3611
 8992SOL    HW138609   0.649   3.689   0.666  1.8180  1.1364  0.5181
 8992SOL    HW238610   0.714   3.787   0.581 -0.7777 -0.9400 -0.2857
 8993SOL     OW38611   2.020   4.232   2.036 -0.0333  0.2580  0.1998
 8993SOL    HW138612   2.083   4.298   2.008 -0.3871  0.1992 -0.7281
 8993SOL    HW238613   1.948   4.291   2.058 -0.5354 -0.2663 -0.0573
 8994SOL     OW38614   3.042   0.832  12.441 -0.1218 -0.4860  0.2727
 8994SOL    HW138615   3.133   0.807  12.426 -0.3615 -1.7118  0.9079
 8994SOL    HW238616   3.045   0.922  12.475  1.0090 -0.4362  0.0283
 8995SOL     OW38617   0.236   1.806   8.545 -0.9176 -0.2655 -0.0813
 8995SOL    HW138618   0.163   1.772   8.596 -1.2684  2.3063  1.1860
 8995SOL    HW238619   0.236   1.741   8.475 -2.8045 -0.2112 -0.1145
 8996SOL     OW38620   2.514   1.002   6.636 -0.2484 -0.2444  0.2594
 8996SOL    HW138621   2.473   1.020   6.551  0.0069  1.0754  0.4159
 8996SOL    HW238622   2.603   0.977   6.609 -0.6165 -1.3029 -0.0004
 8997SOL     OW38623   1.251   1.406  14.680 -0.0276 -0.3111 -0.5753
 8997SOL    HW138624   1.265   1.327  14.627 -4.3060 -1.3799 -0.0972
 8997SOL    HW238625   1.156   1.409  14.673 -0.0290 -0.3341 -0.5664
 8998SOL     OW38626   3.872   2.997   2.265  0.5041 -0.3084 -0.4503
 8998SOL    HW138627   3.963   3.020   2.283  0.0708 -0.0180  1.4103
 8998SOL    HW238628   3.841   3.080   2.229 -0.4295 -0.6268 -0.3937
 8999SOL     OW38629   4.014   3.635   6.545 -0.8929  0.7177 -0.4490
 8999SOL    HW138630   4.015   3.669   6.634 -1.8343  1.1573 -0.6067
 8999SOL    HW238631   4.011   3.720   6.501  0.7767  0.5029 -1.0149
 9000SOL     OW38632   1.109   4.113  12.287  0.0357  0.0195 -0.3107
 9000SOL    HW138633   1.162   4.140  12.212  1.9297 -1.8748  0.3392
 9000SOL    HW238634   1.140   4.023  12.293  1.7949  0.8247  2.8873
 9001SOL     OW38635   3.259   3.529   7.915 -0.0802  0.1762 -0.2523
 9001SOL    HW138636   3.345   3.496   7.942  0.4582  2.5565  0.9495
 9001SOL    HW238637   3.210   3.508   7.995 -1.9495  1.3834 -1.1020
 9002SOL     OW38638   4.333   3.305   4.040  0.9404 -0.0322 -0.8049
 9002SOL    HW138639   4.360   3.396   4.040 -0.2129  0.3229  3.3089
 9002SOL    HW238640   4.267   3.305   3.971  0.3754  2.4133 -0.2399
 9003SOL     OW38641   4.340   3.664   7.500  0.6328  0.4238 -0.6375
 9003SOL    HW138642   4.287   3.684   7.577  4.4855 -2.1127  2.7145
 9003SOL    HW238643   4.396   3.592   7.530  1.2789  1.5357  0.8436
 9004SOL     OW38644   1.337   2.734   7.107  0.0363  0.3891  0.0150
 9004SOL    HW138645   1.343   2.823   7.140  1.8632  0.9708 -1.8701
 9004SOL    HW238646   1.310   2.681   7.182  0.3926 -1.8020 -1.4207
 9005SOL     OW38647   1.002   2.478   8.594  0.1131  0.1812 -0.7411
 9005SOL    HW138648   1.054   2.401   8.572  2.0131  1.1713  0.2018
 9005SOL    HW238649   1.055   2.556   8.575 -0.8323  1.3453  1.3135
 9006SOL     OW38650   2.413   3.212  13.672  0.9510 -0.0427 -0.1081
 9006SOL    HW138651   2.399   3.293  13.623  0.5977 -0.5345 -0.8141
 9006SOL    HW238652   2.336   3.197  13.727  0.2666 -1.1549 -1.3664
 9007SOL     OW38653   3.522   3.948   5.560 -0.5098  0.1492 -0.0129
 9007SOL    HW138654   3.518   4.012   5.489 -1.6615  0.8359  0.6590
 9007SOL    HW238655   3.617   3.938   5.561 -0.5923 -0.5572  1.2242
 9008SOL     OW38656   0.753   1.822   4.611 -0.4074 -0.3741 -0.3022
 9008SOL    HW138657   0.671   1.869   4.599 -0.5379 -0.3983  0.4875
 9008SOL    HW238658   0.731   1.759   4.680 -0.3744 -0.0984 -0.0396
 9009SOL     OW38659   3.645   3.888   0.619 -0.0468 -0.1713 -0.0359
 9009SOL    HW138660   3.571   3.948   0.631 -0.3202 -0.3785 -0.7000
 9009SOL    HW238661   3.690   3.897   0.703 -0.2599 -0.6866  0.1296
 9010SOL     OW38662   3.302   4.524   5.876 -0.3534 -0.0847  0.0406
 9010SOL    HW138663   3.395   4.505   5.867 -0.5738 -1.1408 -0.0200
 9010SOL    HW238664   3.300   4.550   5.968  0.3075 -0.4182  0.1534
 9011SOL     OW38665   1.416   1.568  17.615 -0.4244  0.0597  0.2385
 9011SOL    HW138666   1.388   1.485  17.576  2.1807 -0.3396 -0.7447
 9011SOL    HW238667   1.379   1.572  17.703 -0.6385 -4.1760  0.3436
 9012SOL     OW38668   2.255   3.143  10.299 -0.1084 -0.5538  0.0444
 9012SOL    HW138669   2.172   3.163  10.255  0.6312  0.6244 -0.7919
 9012SOL    HW238670   2.315   3.119  10.228  1.2118  1.3415  0.5358
 9013SOL     OW38671   0.464   2.045  11.569  0.0960  0.1103 -0.0058
 9013SOL    HW138672   0.428   2.119  11.618 -0.3068  0.0740 -0.2480
 9013SOL    HW238673   0.410   2.049  11.490  0.8710  0.5520 -0.5228
 9014SOL     OW38674   1.167   1.404   9.062 -0.0717 -0.0545  0.6800
 9014SOL    HW138675   1.136   1.475   9.005 -0.3050 -1.0919 -0.4764
 9014SOL    HW238676   1.262   1.414   9.050 -0.2721  1.3462  0.2120
 9015SOL     OW38677   3.760   0.368  15.914  0.1536  0.4375  0.4964
 9015SOL    HW138678   3.766   0.272  15.916 -0.6603  0.3818  0.4978
 9015SOL    HW238679   3.829   0.382  15.979  2.3790 -0.6622 -1.6634
 9016SOL     OW38680   2.916   1.042   1.613 -0.1511 -0.3545 -0.5546
 9016SOL    HW138681   2.991   1.012   1.562  0.5610  1.5762 -0.6529
 9016SOL    HW238682   2.904   1.128   1.572 -1.9086  0.4259  1.6327
 9017SOL     OW38683   4.275   3.752  10.256  0.2698  0.0160  0.2309
 9017SOL    HW138684   4.233   3.760  10.342  3.4572  2.5606  1.5618
 9017SOL    HW238685   4.255   3.840  10.226 -0.4169  0.0841  0.9006
 9018SOL     OW38686   3.195   1.656   9.737 -0.3502  0.0013 -0.0747
 9018SOL    HW138687   3.228   1.569   9.756 -0.5951  0.0637  0.6767
 9018SOL    HW238688   3.253   1.688   9.668 -0.2234  1.5859  0.7579
 9019SOL     OW38689   4.474   1.755   2.177 -0.0387 -0.3695  0.2983
 9019SOL    HW138690   4.482   1.735   2.271  1.4128 -1.2410 -0.0197
 9019SOL    HW238691   4.538   1.691   2.146  1.9186  1.5634  0.4140
 9020SOL     OW38692   4.430   3.413   1.814 -0.2659  0.8044 -0.4772
 9020SOL    HW138693   4.408   3.429   1.722 -2.6663 -0.9850 -0.2027
 9020SOL    HW238694   4.402   3.494   1.855 -2.1973  0.8210 -1.8305
 9021SOL     OW38695   3.777   4.332   0.242 -0.7796 -0.7059  0.3602
 9021SOL    HW138696   3.712   4.364   0.305 -0.9902  0.8071 -0.6256
 9021SOL    HW238697   3.790   4.418   0.202 -1.2555 -2.1127 -2.7246
 9022SOL     OW38698   2.356   2.287  11.341 -0.2406  0.2138  0.2850
 9022SOL    HW138699   2.270   2.304  11.302 -0.2534 -0.5346 -0.0273
 9022SOL    HW238700   2.353   2.191  11.332  1.0764  0.1328  0.8163
 9023SOL     OW38701   0.837   1.279  17.690  0.7773 -0.7161 -0.2775
 9023SOL    HW138702   0.928   1.273  17.661  0.6948 -0.1957 -0.6324
 9023SOL    HW238703   0.797   1.305  17.607  0.8775 -0.4364 -0.2364
 9024SOL     OW38704   1.409   4.022   7.965  0.0818  0.5504 -0.0842
 9024SOL    HW138705   1.458   3.979   7.895 -0.6226 -1.5590  0.7179
 9024SOL    HW238706   1.409   4.104   7.915 -0.5113  0.8614  0.4266
 9025SOL     OW38707   0.938   1.017   6.289  0.1337  0.1835 -0.0271
 9025SOL    HW138708   0.938   1.020   6.193  0.4251  1.6245  0.0141
 9025SOL    HW238709   1.030   1.011   6.316 -0.5841 -2.1849  1.7828
 9026SOL     OW38710   3.589   4.012  12.730  0.8440  0.4518 -0.2298
 9026SOL    HW138711   3.552   4.039  12.646 -2.8045  1.3972  1.6522
 9026SOL    HW238712   3.648   4.085  12.751  0.3742  0.3753  1.3884
 9027SOL     OW38713   3.713   2.945  17.544 -0.5410 -0.6946  0.9477
 9027SOL    HW138714   3.678   2.943  17.633 -1.8589  0.2569  0.4578
 9027SOL    HW238715   3.806   2.953  17.565 -0.0893 -0.8405 -0.9931
 9028SOL     OW38716   0.302   3.848   8.434  0.4596 -0.2289  0.3700
 9028SOL    HW138717   0.255   3.800   8.366  1.9859  0.9542 -1.5205
 9028SOL    HW238718   0.235   3.857   8.502 -2.4407  2.7235 -2.9200
 9029SOL     OW38719   2.269   3.829   3.556 -0.1188 -0.0272  0.1209
 9029SOL    HW138720   2.237   3.916   3.581 -2.4919  0.3611 -4.0989
 9029SOL    HW238721   2.190   3.785   3.523  1.0217 -2.8908  1.2682
 9030SOL     OW38722   4.261   4.486  11.918  0.8006 -0.2442  0.3680
 9030SOL    HW138723   4.222   4.478  12.005 -0.2632  2.5069  0.1538
 9030SOL    HW238724   4.240   4.404  11.873  2.3483  0.2505 -1.2448
 9031SOL     OW38725   1.933   2.070  10.302  0.2025 -0.9868 -0.0150
 9031SOL    HW138726   2.004   2.134  10.299 -0.2201 -0.5315 -0.3131
 9031SOL    HW238727   1.911   2.067  10.395 -2.3725  0.0135 -0.6088
 9032SOL     OW38728   4.093   4.445  15.379  0.4650  0.4534 -0.3229
 9032SOL    HW138729   4.138   4.518  15.335 -0.9247  2.2794  1.2540
 9032SOL    HW238730   4.047   4.408  15.304 -0.5283  1.9343 -0.4476
 9033SOL     OW38731   1.214   1.236  11.044  0.2336 -0.7100 -0.1937
 9033SOL    HW138732   1.152   1.164  11.031 -0.5076  0.0682 -0.9369
 9033SOL    HW238733   1.295   1.191  11.068  0.1485 -1.1541 -0.7388
 9034SOL     OW38734   3.995   0.131   6.660 -0.2895 -0.3804  1.1932
 9034SOL    HW138735   3.998   0.148   6.755  3.2173 -1.5424  1.2806
 9034SOL    HW238736   3.986   0.036   6.668 -0.7883 -0.4507 -0.2470
 9035SOL     OW38737   3.107   0.027   3.394 -0.6164  0.0387  0.2920
 9035SOL    HW138738   3.172   0.070   3.339 -1.2725  3.6303  2.3759
 9035SOL    HW238739   3.084   4.692   3.336 -4.2630  0.8838  0.7220
 9036SOL     OW38740   4.080   2.228   6.448 -0.4171 -0.4039 -0.0811
 9036SOL    HW138741   4.086   2.136   6.473  2.0527  0.1425  1.3735
 9036SOL    HW238742   4.001   2.219   6.394 -1.0389 -0.6256  0.8519
 9037SOL     OW38743   0.866   0.429  16.853  0.5982 -0.3309  0.0206
 9037SOL    HW138744   0.927   0.395  16.919 -0.7305  0.6489  1.7748
 9037SOL    HW238745   0.821   0.499  16.901  0.4991 -0.5754  0.2833
 9038SOL     OW38746   1.844   2.817   7.457 -0.1500  0.0627  0.1704
 9038SOL    HW138747   1.917   2.793   7.514  1.4436  1.3821 -1.3074
 9038SOL    HW238748   1.877   2.885   7.399 -2.3171  1.1668  0.2451
 9039SOL     OW38749   4.405   0.068  11.320  0.0701  0.2814 -0.1228
 9039SOL    HW138750   4.429   4.715  11.307 -1.8291 -0.1200 -0.8208
 9039SOL    HW238751   4.313   0.059  11.343 -0.1693  0.7672 -0.8608
 9040SOL     OW38752   1.313   1.307   4.747  0.1416  0.6431 -0.2500
 9040SOL    HW138753   1.396   1.309   4.700 -0.3501 -1.9150 -1.2439
 9040SOL    HW238754   1.264   1.380   4.710 -2.1072 -1.6458 -1.7298
 9041SOL     OW38755   1.708   4.432   3.624 -0.3925 -0.0234  0.0555
 9041SOL    HW138756   1.798   4.412   3.650 -0.9678 -0.9889  1.2829
 9041SOL    HW238757   1.717   4.431   3.528 -0.4544 -0.2065  0.0514
 9042SOL     OW38758   4.423   3.922   9.666  0.3141 -0.2138 -0.8347
 9042SOL    HW138759   4.518   3.916   9.669  0.1960 -1.1712  0.5416
 9042SOL    HW238760   4.403   3.861   9.737  1.5236  0.3719 -0.0039
 9043SOL     OW38761   1.446   3.862   4.721 -0.1304 -0.0170  0.0875
 9043SOL    HW138762   1.384   3.827   4.657  2.0014 -1.8852 -0.9752
 9043SOL    HW238763   1.496   3.782   4.741  0.8248  0.0258 -2.1390
 9044SOL     OW38764   0.253   3.903   9.544  0.4794 -0.8078  0.2630
 9044SOL    HW138765   0.280   3.976   9.600 -2.2093 -0.7463  1.4836
 9044SOL    HW238766   0.220   3.955   9.471  1.7924 -0.4680 -0.0944
 9045SOL     OW38767   0.406   2.360  12.244  1.0056  0.3276 -0.1664
 9045SOL    HW138768   0.500   2.344  12.228  1.3620  2.0672  0.1472
 9045SOL    HW238769   0.398   2.454  12.227  0.2297  0.1009 -1.0256
 9046SOL     OW38770   3.862   0.755  17.052  0.1083  0.4928  0.4805
 9046SOL    HW138771   3.876   0.787  17.141  1.5973  3.0040 -0.6412
 9046SOL    HW238772   3.941   0.786  17.007 -1.7529 -0.8710 -3.6934
 9047SOL     OW38773   3.825   2.396  15.641  0.2821 -0.5413  0.3038
 9047SOL    HW138774   3.904   2.431  15.600  0.5360 -0.7385  0.6298
 9047SOL    HW238775   3.831   2.305  15.613 -0.6400 -0.5461  0.1072
 9048SOL     OW38776   4.136   0.046  11.367  0.4297 -0.1947  0.2488
 9048SOL    HW138777   4.088   0.114  11.320  0.2124 -0.9046 -0.5581
 9048SOL    HW238778   4.066   4.726  11.396  0.3763 -0.7921 -1.0786
 9049SOL     OW38779   3.964   1.890  15.609 -0.2670  0.0251 -0.1663
 9049SOL    HW138780   3.922   1.806  15.596  0.3002 -0.4859  1.3471
 9049SOL    HW238781   4.053   1.861  15.589 -0.3685 -0.4189  0.0272
 9050SOL     OW38782   2.154   2.499   0.274  0.5038  0.0715 -0.8881
 9050SOL    HW138783   2.226   2.437   0.264 -1.1983 -1.9529 -0.7409
 9050SOL    HW238784   2.150   2.505   0.369 -1.5017  3.2685 -1.1573
 9051SOL     OW38785   0.922   4.720   1.171 -0.1007 -0.1450  0.3734
 9051SOL    HW138786   1.003   4.711   1.222 -1.0083 -1.2729  1.6208
 9051SOL    HW238787   0.871   4.650   1.213  1.3281 -1.9264 -0.8578
 9052SOL     OW38788   3.381   1.687  11.848 -0.3114 -0.0190  0.1806
 9052SOL    HW138789   3.459   1.705  11.901 -0.9121  2.0561  0.3580
 9052SOL    HW238790   3.338   1.773  11.849 -0.9655 -0.4382  4.7353
 9053SOL     OW38791   3.328   0.202   3.667  0.2659  0.1376 -0.1471
 9053SOL    HW138792   3.411   0.165   3.697 -0.4827  0.0251  1.7734
 9053SOL    HW238793   3.356   0.282   3.623  1.0281  0.4576  0.9078
 9054SOL     OW38794   4.256   2.994  17.599  0.1360  0.3921 -0.0261
 9054SOL    HW138795   4.306   3.058  17.648  2.0290 -0.4369 -0.8538
 9054SOL    HW238796   4.321   2.945  17.548  2.4864  2.5268  0.9364
 9055SOL     OW38797   3.159   0.712   6.851 -0.1915  0.2604  0.3351
 9055SOL    HW138798   3.089   0.648   6.840  0.3940 -0.4551  0.6984
 9055SOL    HW238799   3.114   0.794   6.870 -0.1080  0.7212 -1.4550
 9056SOL     OW38800   1.612   3.251   6.496  0.7733  0.3836 -0.0645
 9056SOL    HW138801   1.603   3.207   6.581  1.8366 -2.1143 -1.2500
 9056SOL    HW238802   1.590   3.179   6.436  1.0706  0.5510 -0.3755
 9057SOL     OW38803   3.202   1.234  16.017 -0.0024  0.0480  0.0126
 9057SOL    HW138804   3.202   1.308  16.077  0.6834 -1.5560  1.9753
 9057SOL    HW238805   3.221   1.281  15.935 -0.2989 -0.7389 -0.5139
 9058SOL     OW38806   3.822   2.299  16.586 -0.6385 -0.3073  0.2733
 9058SOL    HW138807   3.786   2.359  16.651  0.9535 -0.9138  1.7144
 9058SOL    HW238808   3.849   2.353  16.512  0.9236  0.8160  1.6688
 9059SOL     OW38809   0.567   3.046  14.165  0.0831  0.4887  0.1475
 9059SOL    HW138810   0.542   3.117  14.107 -0.9473  0.0822  0.1014
 9059SOL    HW238811   0.578   2.981  14.095 -0.1099 -3.4675  3.7833
 9060SOL     OW38812   1.510   0.908   8.140 -0.0425 -0.2187 -0.3610
 9060SOL    HW138813   1.535   0.929   8.050  2.9053 -1.1215  0.2373
 9060SOL    HW238814   1.450   0.834   8.131  1.7989 -1.7640  0.0965
 9061SOL     OW38815   1.615   3.609   8.628 -0.4000  0.3597 -0.1897
 9061SOL    HW138816   1.669   3.609   8.548 -1.1429  0.9923 -0.6859
 9061SOL    HW238817   1.646   3.531   8.673  1.5664  0.2166 -1.7598
 9062SOL     OW38818   4.011   2.281   1.096  0.0729  0.3662 -0.3811
 9062SOL    HW138819   4.103   2.283   1.125  0.6237 -1.6391 -1.9308
 9062SOL    HW238820   4.014   2.190   1.065  0.7588 -0.3960  1.8506
 9063SOL     OW38821   3.777   3.555   6.948  0.1099 -0.1839 -0.0669
 9063SOL    HW138822   3.839   3.485   6.933 -1.4487 -1.4166 -0.7472
 9063SOL    HW238823   3.811   3.591   7.030  0.8997 -0.7429 -0.1593
 9064SOL     OW38824   4.079   1.530   3.444  0.0171 -0.1430  0.0195
 9064SOL    HW138825   4.020   1.529   3.369 -1.5452  0.9343  1.2188
 9064SOL    HW238826   4.044   1.607   3.490  1.7341 -0.4814  1.9013
 9065SOL     OW38827   1.951   1.861  17.573 -0.0601 -0.1560 -0.3417
 9065SOL    HW138828   1.954   1.956  17.563 -0.7913 -0.1839 -0.8878
 9065SOL    HW238829   2.044   1.847  17.555 -0.3666 -1.7100 -0.7297
 9066SOL     OW38830   1.540   0.614   9.081  0.2563 -0.3800  0.0995
 9066SOL    HW138831   1.543   0.663   8.999 -0.1767 -1.1842 -0.3845
 9066SOL    HW238832   1.502   0.683   9.136 -0.4843 -1.6628  1.2135
 9067SOL     OW38833   0.344   0.130   3.360  0.4282 -0.2437 -0.6317
 9067SOL    HW138834   0.342   0.215   3.316  0.0785  0.7591  1.3236
 9067SOL    HW238835   0.265   0.119   3.413  1.0699  1.7643  0.7504
 9068SOL     OW38836   0.346   2.850   3.165  0.4887 -0.2329 -0.1839
 9068SOL    HW138837   0.270   2.888   3.122 -0.7597  0.7381  2.9172
 9068SOL    HW238838   0.377   2.924   3.217 -1.6405  0.7472 -0.3295
 9069SOL     OW38839   3.553   0.895   3.974 -0.0736  0.7566 -0.7651
 9069SOL    HW138840   3.481   0.953   3.948 -0.3697  0.9746  0.5484
 9069SOL    HW238841   3.573   0.855   3.889 -1.1072 -4.2804  1.3529
 9070SOL     OW38842   0.367   4.264   6.397 -0.4942  0.2765 -0.3831
 9070SOL    HW138843   0.291   4.313   6.365 -0.5934 -0.4784 -1.3232
 9070SOL    HW238844   0.444   4.320   6.385 -2.2232  2.6850 -0.2665
 9071SOL     OW38845   1.376   3.405   3.532  0.2532  0.2977 -0.0264
 9071SOL    HW138846   1.454   3.405   3.476 -1.1225 -1.2422 -1.9487
 9071SOL    HW238847   1.327   3.332   3.493  0.9475  0.1636 -0.6555
 9072SOL     OW38848   0.506   3.456   7.377 -0.1606 -0.0820 -0.2923
 9072SOL    HW138849   0.562   3.384   7.407 -4.0169 -2.9748 -0.0509
 9072SOL    HW238850   0.562   3.528   7.407  0.9117 -0.6921 -0.8268
 9073SOL     OW38851   1.295   3.457   8.163 -0.0407  0.1566  0.3060
 9073SOL    HW138852   1.376   3.430   8.206 -0.8667  0.4263  2.0329
 9073SOL    HW238853   1.238   3.483   8.236 -0.3721 -0.9606  0.4492
 9074SOL     OW38854   2.475   0.098  15.558  0.0951 -0.0217  1.0719
 9074SOL    HW138855   2.461   0.063  15.470  2.0417 -0.9294  1.1120
 9074SOL    HW238856   2.522   0.026  15.601  1.5171 -0.3681 -1.0532
 9075SOL     OW38857   3.902   3.802   8.576  0.2504 -0.1750  0.1786
 9075SOL    HW138858   3.935   3.740   8.641 -0.3602  0.6028  1.2343
 9075SOL    HW238859   3.981   3.830   8.530 -0.8045 -0.0947 -1.5762
 9076SOL     OW38860   3.013   1.109  12.519 -0.3006 -0.6419  0.8548
 9076SOL    HW138861   3.069   1.145  12.588 -0.8286 -1.1602  1.5566
 9076SOL    HW238862   2.943   1.088  12.582  0.5716  0.7014  2.2555
 9077SOL     OW38863   0.308   2.751   8.156  0.0476  0.1841  0.4542
 9077SOL    HW138864   0.292   2.731   8.248 -0.8004  0.4607  0.3659
 9077SOL    HW238865   0.223   2.782   8.125 -0.1355  0.2168  0.9960
 9078SOL     OW38866   3.051   1.786   9.433  0.0415 -0.0299 -0.2512
 9078SOL    HW138867   3.145   1.771   9.430  0.1206 -0.4198  3.7885
 9078SOL    HW238868   3.035   1.821   9.521  1.3433 -1.8343  0.7086
 9079SOL     OW38869   1.003   2.074   5.846  0.3865  0.3530  0.3500
 9079SOL    HW138870   0.912   2.049   5.857  0.1926  0.3075 -1.4729
 9079SOL    HW238871   0.998   2.167   5.867  0.2965  1.0973 -3.0899
 9080SOL     OW38872   1.261   3.163   5.814  0.1754 -0.1053 -0.0305
 9080SOL    HW138873   1.331   3.136   5.755 -0.8623  0.6658 -1.6144
 9080SOL    HW238874   1.183   3.142   5.763  1.7091 -2.0274 -1.5851
 9081SOL     OW38875   0.080   2.648   5.886 -0.0537  0.3636  0.6756
 9081SOL    HW138876   0.013   2.653   5.954 -1.3988 -0.8443 -0.5534
 9081SOL    HW238877   0.031   2.646   5.804  1.4838 -1.6891 -0.1793
 9082SOL     OW38878   4.658   0.205   7.731 -0.3084  0.0898 -0.9606
 9082SOL    HW138879   4.591   0.165   7.676 -1.3435 -0.0768  0.4246
 9082SOL    HW238880   4.677   0.124   7.779  0.3193  0.6699 -0.2308
 9083SOL     OW38881   1.777   3.617   8.405  0.3413 -0.5729 -0.4035
 9083SOL    HW138882   1.849   3.563   8.436  0.0863 -1.2115 -0.9230
 9083SOL    HW238883   1.771   3.586   8.315 -2.0465  2.2343 -1.2110
 9084SOL     OW38884   2.336   0.567   7.691  0.0208 -0.1105 -0.0385
 9084SOL    HW138885   2.408   0.564   7.628 -1.0594  2.5643 -1.3650
 9084SOL    HW238886   2.278   0.502   7.652 -0.5141  0.8697 -0.8689
 9085SOL     OW38887   2.312   3.684   8.607  0.1205 -0.0636  0.6588
 9085SOL    HW138888   2.322   3.610   8.666  0.5355 -1.0742 -0.6747
 9085SOL    HW238889   2.404   3.695   8.581  0.4045 -2.8277  0.5103
 9086SOL     OW38890   0.864   4.242   0.227  0.2336 -0.1154  0.1405
 9086SOL    HW138891   0.942   4.285   0.262  0.7879 -0.9222 -0.1201
 9086SOL    HW238892   0.822   4.320   0.190  2.1664  1.1953  0.7024
 9087SOL     OW38893   3.622   2.424  16.826 -0.1299  0.2045  0.0095
 9087SOL    HW138894   3.604   2.506  16.873 -1.4177 -0.2186  0.2544
 9087SOL    HW238895   3.581   2.370  16.892  0.8390 -0.0563  0.3953
 9088SOL     OW38896   0.583   4.603   4.097  0.4030 -0.0062 -0.1283
 9088SOL    HW138897   0.513   4.586   4.034  0.2148  0.6970 -0.1143
 9088SOL    HW238898   0.544   4.677   4.144  1.8034  1.4218 -1.1861
 9089SOL     OW38899   0.831   2.487  12.559 -0.2660 -0.1842  0.7584
 9089SOL    HW138900   0.868   2.468  12.645  2.8403 -0.4272 -0.6217
 9089SOL    HW238901   0.742   2.459  12.584 -0.4248 -0.8359 -0.5161
 9090SOL     OW38902   2.450   3.444   0.541 -0.2569 -0.2498 -0.1401
 9090SOL    HW138903   2.517   3.453   0.609 -0.9862  0.3029  0.5025
 9090SOL    HW238904   2.384   3.394   0.589  1.6751  1.5668  4.3615
 9091SOL     OW38905   1.415   1.283  17.442  0.3968 -0.1763  0.1437
 9091SOL    HW138906   1.444   1.201  17.402  1.2450  0.4120 -0.4333
 9091SOL    HW238907   1.421   1.261  17.535  1.2730 -0.5667 -0.0039
 9092SOL     OW38908   0.946   0.473   4.520  0.4148 -0.5784  0.1650
 9092SOL    HW138909   1.007   0.465   4.446 -0.6317  0.8335 -0.8531
 9092SOL    HW238910   0.881   0.414   4.483  0.6932  1.3875 -3.4927
 9093SOL     OW38911   2.742   3.968  15.647  0.0510 -0.1429  0.1828
 9093SOL    HW138912   2.813   4.025  15.679 -1.0755 -0.0305  2.5016
 9093SOL    HW238913   2.761   3.906  15.718 -1.6639  0.9679  1.5899
 9094SOL     OW38914   0.164   2.314   3.824 -0.9403  0.6123  0.3625
 9094SOL    HW138915   0.090   2.254   3.833 -1.7220  1.3317 -1.3734
 9094SOL    HW238916   0.230   2.256   3.861 -0.2331  1.4878  0.4802
 9095SOL     OW38917   0.190   1.609   0.202 -0.3307 -0.2712  0.4668
 9095SOL    HW138918   0.196   1.531   0.147 -0.9691 -0.7118  1.0250
 9095SOL    HW238919   0.100   1.636   0.186 -0.5601 -0.9261  0.6770
 9096SOL     OW38920   3.268   0.889   6.665 -0.2924 -0.6863 -0.0566
 9096SOL    HW138921   3.268   0.817   6.727 -0.0542 -1.8707 -1.4347
 9096SOL    HW238922   3.175   0.884   6.641 -0.7103 -0.5612  1.5154
 9097SOL     OW38923   0.257   3.322   6.451 -0.1309  0.2591 -0.2871
 9097SOL    HW138924   0.246   3.296   6.360  0.4833  0.4059 -0.4005
 9097SOL    HW238925   0.218   3.409   6.447 -0.7086  0.0046 -0.2536
 9098SOL     OW38926   2.686   1.793   8.733 -0.5569 -0.7725 -0.7051
 9098SOL    HW138927   2.671   1.783   8.827  0.2327 -2.0415 -0.7239
 9098SOL    HW238928   2.763   1.848   8.740  0.0042 -1.3674 -2.2347
 9099SOL     OW38929   3.427   0.811   2.274 -0.1773  0.6498 -0.0981
 9099SOL    HW138930   3.408   0.784   2.184 -0.1715  0.6823 -0.1091
 9099SOL    HW238931   3.471   0.896   2.266  0.0685  0.7167  1.8520
 9100SOL     OW38932   1.687   1.882   7.214 -0.1477 -0.1642 -0.4329
 9100SOL    HW138933   1.635   1.878   7.295  2.2434 -0.9878  1.0701
 9100SOL    HW238934   1.630   1.824   7.163 -0.3224  1.0997 -1.6627
 9101SOL     OW38935   0.076   0.081   7.145 -0.6881  0.6464  0.0818
 9101SOL    HW138936   0.126   0.136   7.085  1.0877 -0.9130  0.1463
 9101SOL    HW238937   0.104   4.729   7.131 -0.9671  0.4460  0.8015
 9102SOL     OW38938   0.543   4.295   0.702 -0.2370  0.1330 -0.6550
 9102SOL    HW138939   0.596   4.333   0.772  1.4566 -4.0259  0.3121
 9102SOL    HW238940   0.545   4.356   0.628  0.4874  1.1176  0.1798
 9103SOL     OW38941   3.593   3.336   7.660 -0.0030  0.2181 -0.3279
 9103SOL    HW138942   3.503   3.315   7.686 -0.0653  0.2535 -0.5171
 9103SOL    HW238943   3.591   3.428   7.688  0.2674  0.0204  0.3354
 9104SOL     OW38944   4.431   1.978   1.125 -0.5244 -0.3208  0.1021
 9104SOL    HW138945   4.514   2.012   1.091 -0.3360  0.0868  0.9953
 9104SOL    HW238946   4.405   2.056   1.174  0.9888 -1.3961  2.6098
 9105SOL     OW38947   1.352   3.693  17.475 -0.1241  0.3319 -0.6357
 9105SOL    HW138948   1.423   3.652  17.524  0.1808  0.6631 -0.8022
 9105SOL    HW238949   1.384   3.782  17.463  2.2990 -0.6025 -0.9773
 9106SOL     OW38950   3.610   3.866   7.158  0.9671  0.5658  0.5600
 9106SOL    HW138951   3.523   3.832   7.137  1.5913 -2.3732  2.8232
 9106SOL    HW238952   3.623   3.827   7.244  0.8764 -2.7621 -0.9359
 9107SOL     OW38953   2.153   0.312  13.884  0.4169 -0.2955 -0.2587
 9107SOL    HW138954   2.191   0.235  13.842  1.1937 -0.0439 -0.0276
 9107SOL    HW238955   2.225   0.352  13.933  1.4912 -0.7686 -1.4528
 9108SOL     OW38956   1.845   3.565   0.051  0.0040  0.5834  0.4011
 9108SOL    HW138957   1.802   3.533  17.723  0.4863  0.2689  0.2674
 9108SOL    HW238958   1.910   3.626   0.015  1.3753  0.5911  2.8748
 9109SOL     OW38959   2.037   1.987  14.947 -0.2361 -0.2807  0.0481
 9109SOL    HW138960   2.027   1.930  14.871  2.3447 -0.2352 -0.3427
 9109SOL    HW238961   2.031   2.076  14.913  2.2674 -0.6758 -1.4093
 9110SOL     OW38962   4.595   2.652  13.689 -0.2487  0.0532  0.6145
 9110SOL    HW138963   4.541   2.573  13.685 -1.3520  0.7955  0.9571
 9110SOL    HW238964   4.671   2.625  13.637 -1.3111 -0.7194 -0.5281
 9111SOL     OW38965   0.576   0.419   4.740 -0.7491  0.0896  0.5109
 9111SOL    HW138966   0.633   0.496   4.749 -1.6289  0.5844  1.9262
 9111SOL    HW238967   0.536   0.423   4.827  1.5760  0.4519  1.5652
 9112SOL     OW38968   1.283   0.369  11.808  0.0861  0.1377 -0.1382
 9112SOL    HW138969   1.319   0.367  11.896  0.2334  1.1132 -0.1726
 9112SOL    HW238970   1.343   0.436  11.774  0.1204  0.0519 -0.2456
 9113SOL     OW38971   4.433   2.305  16.929 -0.1220  0.0119  0.3973
 9113SOL    HW138972   4.481   2.239  16.878  1.7901  1.1915  0.6601
 9113SOL    HW238973   4.359   2.261  16.970  0.8670 -2.2953 -0.2951
 9114SOL     OW38974   1.472   2.717  14.295  0.3017 -0.1973 -0.4710
 9114SOL    HW138975   1.416   2.671  14.358  1.1992 -0.3241  0.2317
 9114SOL    HW238976   1.409   2.777  14.254  0.7949  0.6634  0.0252
 9115SOL     OW38977   4.635   0.230   8.843 -0.4728  0.0511 -0.4827
 9115SOL    HW138978   4.647   0.141   8.810  3.2095  1.1200 -2.0372
 9115SOL    HW238979   4.603   0.220   8.933 -0.4361  1.7208 -0.2840
 9116SOL     OW38980   0.579   0.200  11.635 -0.5370  0.0879 -0.0770
 9116SOL    HW138981   0.571   0.272  11.697  1.4959  1.0694 -0.9487
 9116SOL    HW238982   0.675   0.204  11.635 -0.6265  2.2216 -0.7299
 9117SOL     OW38983   2.063   4.728   7.281  0.1848 -0.7278  0.1110
 9117SOL    HW138984   2.155   4.702   7.286 -0.0819 -1.7669 -0.1886
 9117SOL    HW238985   2.061   0.011   7.188  0.5208  1.1777  0.5501
 9118SOL     OW38986   4.706   0.939  11.352 -0.3999 -0.4159 -0.0278
 9118SOL    HW138987   4.737   0.850  11.370  0.0816 -0.8325 -2.9142
 9118SOL    HW238988   0.023   0.998  11.402  1.0165 -1.9854  0.2466
 9119SOL     OW38989   3.571   2.736   7.024 -0.0236 -0.1413 -0.2227
 9119SOL    HW138990   3.665   2.742   7.009 -0.1113  0.6649 -0.4277
 9119SOL    HW238991   3.558   2.741   7.119 -1.1773  0.4759 -0.4162
 9120SOL     OW38992   0.103   0.403   1.378  0.9533 -0.1226 -0.6704
 9120SOL    HW138993   0.132   0.350   1.453  0.8375 -0.9917 -1.2341
 9120SOL    HW238994   0.171   0.469   1.391  1.6170 -0.7997 -0.6833
 9121SOL     OW38995   4.528   3.676   0.445 -0.3861  0.2375  0.4545
 9121SOL    HW138996   4.523   3.674   0.350  0.2043  2.2157  0.3915
 9121SOL    HW238997   4.512   3.769   0.461 -2.0297 -0.1166  0.8808
 9122SOL     OW38998   4.251   3.473  15.934  0.2532 -0.2291  0.0118
 9122SOL    HW138999   4.273   3.545  15.875 -0.3043  0.6093  0.8260
 9122SOL    HW239000   4.162   3.445  15.912  0.7477 -0.8493 -1.1967
 9123SOL     OW39001   0.362   0.498   5.585 -0.4304 -0.3934 -0.9186
 9123SOL    HW139002   0.410   0.568   5.628  0.4864 -0.8023 -1.2706
 9123SOL    HW239003   0.284   0.478   5.637 -0.2552 -1.1284 -0.9272
 9124SOL     OW39004   0.766   4.545   2.664  0.5215 -0.1890  0.4762
 9124SOL    HW139005   0.806   4.464   2.695 -0.9488 -0.4651  1.6878
 9124SOL    HW239006   0.709   4.568   2.738  0.4491 -2.6683  1.1795
 9125SOL     OW39007   1.262   3.325   1.166  0.2846 -0.4408 -0.6315
 9125SOL    HW139008   1.249   3.300   1.075 -0.8592  0.6632 -0.7888
 9125SOL    HW239009   1.237   3.418   1.169  2.0273  0.0683 -2.1066
 9126SOL     OW39010   4.540   1.335   1.515  0.2847 -0.5557  0.3307
 9126SOL    HW139011   4.546   1.428   1.493 -1.3917 -0.3471  0.6997
 9126SOL    HW239012   4.529   1.330   1.610 -1.2358 -0.7083  0.1578
 9127SOL     OW39013   3.510   2.708   7.604 -0.4612 -0.1647 -0.6627
 9127SOL    HW139014   3.531   2.706   7.697  2.8424 -4.4406 -1.4988
 9127SOL    HW239015   3.531   2.617   7.580  0.7065 -0.7063  2.3997
 9128SOL     OW39016   0.638   2.057   6.203  0.5981  0.0719 -0.0386
 9128SOL    HW139017   0.705   2.099   6.258  1.1473 -2.4378  1.1932
 9128SOL    HW239018   0.575   2.051   6.275 -1.6748 -0.0737 -2.0647
 9129SOL     OW39019   4.623   1.680   4.859  0.7956  0.1892 -0.0453
 9129SOL    HW139020   4.687   1.701   4.926 -0.4306 -0.9692  1.4792
 9129SOL    HW239021   4.664   1.705   4.776 -1.9037  2.1782 -0.8029
 9130SOL     OW39022   2.831   4.291  14.622  0.1484  0.5810 -0.5937
 9130SOL    HW139023   2.753   4.238  14.604  0.3668  0.0978 -0.1213
 9130SOL    HW239024   2.805   4.341  14.700 -0.0699  1.7120 -1.3883
 9131SOL     OW39025   1.669   3.837  17.483  0.4442  0.7131  0.1126
 9131SOL    HW139026   1.761   3.812  17.475  0.0050 -1.5422  2.0662
 9131SOL    HW239027   1.664   3.887  17.402  1.2613 -0.7806 -0.8476
 9132SOL     OW39028   1.105   1.290   4.300  0.3775 -0.2037  0.1927
 9132SOL    HW139029   1.013   1.314   4.311  0.2722  0.3021 -1.6677
 9132SOL    HW239030   1.128   1.260   4.387  1.0382  0.0485  0.1118
 9133SOL     OW39031   0.555   1.592   3.675 -0.1479  0.4622  0.4079
 9133SOL    HW139032   0.478   1.543   3.703 -0.1679  0.5767  0.5557
 9133SOL    HW239033   0.566   1.655   3.746 -2.7348  0.4069  0.8499
 9134SOL     OW39034   3.945   1.472  11.084 -0.2008  0.4946 -0.2264
 9134SOL    HW139035   3.863   1.493  11.127 -0.8103 -2.9762  0.2936
 9134SOL    HW239036   3.944   1.379  11.104  1.0696  1.0276  2.2929
 9135SOL     OW39037   4.118   3.292   6.387  0.0416 -0.7136  0.1199
 9135SOL    HW139038   4.116   3.228   6.315 -1.1190  0.6337 -1.0472
 9135SOL    HW239039   4.149   3.243   6.463 -0.1656  0.4815  0.9711
 9136SOL     OW39040   1.308   4.177   6.336  0.2963  0.3093  0.4010
 9136SOL    HW139041   1.377   4.235   6.368  0.7810  1.2923 -2.3728
 9136SOL    HW239042   1.284   4.125   6.412  0.4164  1.3996  1.1721
 9137SOL     OW39043   2.623   1.444  13.308 -0.1595 -0.1851 -0.3474
 9137SOL    HW139044   2.627   1.496  13.388 -0.2870 -0.2362 -0.3083
 9137SOL    HW239045   2.620   1.355  13.342 -1.3285 -0.4120 -1.0345
 9138SOL     OW39046   2.417   4.661   6.553 -1.2343  0.7759 -0.2480
 9138SOL    HW139047   2.419   4.630   6.644 -0.8210 -1.8109 -1.1308
 9138SOL    HW239048   2.331   4.703   6.553 -0.9072  1.4418  1.3563
 9139SOL     OW39049   0.169   4.151   5.609 -0.4377 -0.3938 -0.1630
 9139SOL    HW139050   0.255   4.142   5.569  0.3569 -0.0450  1.4764
 9139SOL    HW239051   0.192   4.119   5.696  4.1892  1.3987 -0.7538
 9140SOL     OW39052   0.304   3.276   2.022 -0.0133 -0.2776 -0.0175
 9140SOL    HW139053   0.334   3.365   2.007  2.5104 -1.1666 -0.2665
 9140SOL    HW239054   0.371   3.225   1.976  0.7917  0.5365  0.2639
 9141SOL     OW39055   2.561   1.712   9.214 -0.0989  0.2304 -0.4816
 9141SOL    HW139056   2.650   1.724   9.247 -0.1785  1.6537 -0.8094
 9141SOL    HW239057   2.541   1.657   9.290  1.3613 -0.3530 -0.5282
 9142SOL     OW39058   3.861   1.945   4.249 -0.2976  0.3040  0.5481
 9142SOL    HW139059   3.945   1.988   4.261  0.9329 -1.6640 -1.0756
 9142SOL    HW239060   3.807   2.019   4.223 -2.7342 -1.6059  0.0648
 9143SOL     OW39061   2.147   1.151   6.560  0.5746 -0.6871  0.2305
 9143SOL    HW139062   2.188   1.218   6.615 -2.1097  1.1405  0.0508
 9143SOL    HW239063   2.101   1.210   6.499 -0.7873 -1.1559  0.8066
 9144SOL     OW39064   2.834   0.890   3.767  0.4992  0.1200 -0.0295
 9144SOL    HW139065   2.872   0.808   3.800 -1.0781 -0.2759  0.7796
 9144SOL    HW239066   2.799   0.927   3.848  0.5333  0.0838  0.0021
 9145SOL     OW39067   0.806   0.025  12.643  0.3973  0.1256  0.0224
 9145SOL    HW139068   0.835   0.059  12.728  0.9707  1.5660 -0.7702
 9145SOL    HW239069   0.745   4.692  12.665  0.6967  0.7017  2.8318
 9146SOL     OW39070   3.857   0.895   2.890 -0.3584  0.5330 -0.3337
 9146SOL    HW139071   3.770   0.856   2.885 -1.0566  1.8021  1.5782
 9146SOL    HW239072   3.836   0.985   2.917 -1.5173 -0.1684  1.1077
 9147SOL     OW39073   3.555   1.074   9.910 -0.4058  0.2185  0.3406
 9147SOL    HW139074   3.518   1.008   9.969 -0.2101 -1.6092 -1.5442
 9147SOL    HW239075   3.520   1.051   9.824  0.9313 -1.4263  0.2188
 9148SOL     OW39076   2.080   3.950   1.957  0.2386 -0.0987 -0.4609
 9148SOL    HW139077   1.986   3.932   1.956  0.2912 -0.4947  1.7053
 9148SOL    HW239078   2.074   4.044   1.974  1.7104 -0.1507  0.3382
 9149SOL     OW39079   1.629   3.020   3.034 -0.0483  0.0033 -0.3013
 9149SOL    HW139080   1.662   2.949   3.089 -0.8649 -0.0438  0.1239
 9149SOL    HW239081   1.706   3.032   2.978 -0.3739 -1.8195 -1.1297
 9150SOL     OW39082   3.450   1.356   7.064  0.4144  0.4394 -0.5487
 9150SOL    HW139083   3.464   1.448   7.041  2.8512 -0.0614 -1.0621
 9150SOL    HW239084   3.538   1.334   7.095  1.6825  1.0669 -3.7457
 9151SOL     OW39085   3.581   4.377  13.572 -0.1387  0.2946 -0.5452
 9151SOL    HW139086   3.611   4.464  13.597  0.7205 -0.1922  0.1173
 9151SOL    HW239087   3.664   4.334  13.552  0.5112  1.4980 -0.3904
 9152SOL     OW39088   2.793   3.026  15.045 -0.0859 -0.8064 -0.0061
 9152SOL    HW139089   2.833   3.104  15.083 -0.9365 -0.4615  0.1640
 9152SOL    HW239090   2.748   3.065  14.970 -0.5887 -2.7948 -0.7389
 9153SOL     OW39091   4.518   4.289   5.033  0.1607  0.5638  0.2480
 9153SOL    HW139092   4.602   4.280   5.077  0.0949  1.0907  0.4885
 9153SOL    HW239093   4.529   4.371   4.984 -0.4171  1.4672  1.6211
 9154SOL     OW39094   1.514   4.232   8.522 -0.0468 -0.3650 -0.1469
 9154SOL    HW139095   1.472   4.317   8.509  0.0348 -0.6429 -2.3210
 9154SOL    HW239096   1.466   4.183   8.455 -1.0487 -0.8629  0.9386
 9155SOL     OW39097   1.778   0.558   1.747 -0.2522  0.0502  0.0327
 9155SOL    HW139098   1.809   0.528   1.833  0.0686 -1.1682 -0.5091
 9155SOL    HW239099   1.780   0.653   1.762 -1.2024 -0.0190  0.5430
 9156SOL     OW39100   4.451   0.148   3.806  0.4966  0.0815  0.7343
 9156SOL    HW139101   4.415   0.184   3.725 -1.1308 -2.0768  0.4800
 9156SOL    HW239102   4.468   0.221   3.865 -3.1160  0.4849  1.2849
 9157SOL     OW39103   4.039   2.907   1.987  0.0798  0.0485 -0.0476
 9157SOL    HW139104   4.119   2.923   1.937 -0.2028  1.9318  0.1026
 9157SOL    HW239105   4.044   2.815   2.011  0.6831  0.2713  0.6885
 9158SOL     OW39106   3.188   4.538  15.423  0.3483 -0.0166 -0.0675
 9158SOL    HW139107   3.133   4.594  15.369  2.1603  0.4566 -1.4126
 9158SOL    HW239108   3.227   4.490  15.349  1.2441  1.9716 -0.8671
 9159SOL     OW39109   4.593   4.639   8.835  0.5233  0.4510 -0.2856
 9159SOL    HW139110   4.599   4.544   8.851 -0.5384  0.0347 -2.3436
 9159SOL    HW239111   4.651   4.671   8.904  0.4930  1.1945 -0.6157
 9160SOL     OW39112   1.737   3.402  14.981 -0.2467 -0.9515  0.9203
 9160SOL    HW139113   1.713   3.490  14.953  1.3528  0.0639  2.8030
 9160SOL    HW239114   1.782   3.428  15.061 -0.7561  1.6517  0.3604
 9161SOL     OW39115   3.076   3.909   1.415 -0.3965  0.4031 -0.0549
 9161SOL    HW139116   3.025   3.839   1.454 -0.2761 -0.6412 -1.7602
 9161SOL    HW239117   3.061   3.901   1.320 -1.3043  0.5625  0.0805
 9162SOL     OW39118   1.857   0.679   5.820  0.4141 -0.1734 -0.3460
 9162SOL    HW139119   1.812   0.595   5.810  1.2848 -0.3540 -2.5942
 9162SOL    HW239120   1.790   0.724   5.872  2.2864  2.2561 -0.0547
 9163SOL     OW39121   0.110   4.691   0.959 -0.0552  0.3087  0.0337
 9163SOL    HW139122   0.152   4.676   0.874 -0.6471  3.0704 -0.7565
 9163SOL    HW239123   0.029   4.645   0.939  0.6226  0.0028 -2.0919
 9164SOL     OW39124   3.988   3.972   6.174  0.0780 -0.7312  0.3026
 9164SOL    HW139125   4.038   3.893   6.154  0.1152 -0.4813 -0.6079
 9164SOL    HW239126   3.934   3.960   6.096  0.3264  0.7081 -0.0930
 9165SOL     OW39127   1.845   2.615   9.032  0.1376  0.0380 -0.0612
 9165SOL    HW139128   1.842   2.522   9.010  0.1399 -0.6600  2.9646
 9165SOL    HW239129   1.761   2.616   9.078 -0.0056  2.9238 -0.3900
 9166SOL     OW39130   3.311   2.311   2.538  0.2498 -0.0319  0.9200
 9166SOL    HW139131   3.397   2.295   2.575  0.3113 -0.1768  0.7203
 9166SOL    HW239132   3.292   2.224   2.501  0.6049  0.3648 -0.1894
 9167SOL     OW39133   2.510   0.785   9.275  0.1961 -0.1104 -0.8832
 9167SOL    HW139134   2.593   0.742   9.295 -0.6549 -0.2111  2.4923
 9167SOL    HW239135   2.536   0.866   9.233  0.2414 -0.3590 -1.3355
 9168SOL     OW39136   1.500   4.174  15.864  0.3800  0.4702 -0.4126
 9168SOL    HW139137   1.560   4.216  15.925 -0.6676  0.2734  0.7650
 9168SOL    HW239138   1.491   4.093  15.914 -0.8070  1.4086  0.8867
 9169SOL     OW39139   2.525   3.210   7.771 -0.2681 -0.0264  0.3734
 9169SOL    HW139140   2.617   3.206   7.796 -0.2687 -0.7951  0.2628
 9169SOL    HW239141   2.527   3.242   7.681 -1.8520 -0.3818  0.2098
 9170SOL     OW39142   0.729   3.817  14.971 -0.4334 -0.1730  0.3370
 9170SOL    HW139143   0.731   3.740  15.027  1.9941  1.7168  2.8644
 9170SOL    HW239144   0.822   3.839  14.983 -0.1921 -0.7043 -0.4808
 9171SOL     OW39145   4.294   0.316   4.025 -0.2792 -0.2033  0.1288
 9171SOL    HW139146   4.228   0.337   3.960  0.1659 -0.6749 -0.4772
 9171SOL    HW239147   4.254   0.321   4.112 -0.8913 -0.0799 -0.1647
 9172SOL     OW39148   3.990   1.556  15.839 -0.3581  0.2911  0.8093
 9172SOL    HW139149   3.898   1.529  15.834 -0.0105 -0.1603 -3.2445
 9172SOL    HW239150   3.975   1.650  15.827  0.1020  0.4411  1.4360
 9173SOL     OW39151   1.690   1.976  16.902  0.7271  0.7288 -0.0638
 9173SOL    HW139152   1.683   2.070  16.890  0.2295  0.6716 -0.2150
 9173SOL    HW239153   1.756   1.974  16.972 -0.3340  1.4268  0.9464
 9174SOL     OW39154   3.761   3.147   4.975 -0.1122  0.2692  0.7168
 9174SOL    HW139155   3.667   3.164   4.980 -0.5473 -1.3024 -1.7437
 9174SOL    HW239156   3.778   3.193   4.893 -3.1161  1.7544  0.9074
 9175SOL     OW39157   3.570   0.805   7.536 -0.0591 -0.4328  0.1411
 9175SOL    HW139158   3.539   0.866   7.603 -1.2082 -0.2677 -0.5421
 9175SOL    HW239159   3.653   0.843   7.507 -0.3685  0.1681  0.0533
 9176SOL     OW39160   2.379   3.273   8.460  0.3914 -0.0420  0.1240
 9176SOL    HW139161   2.382   3.308   8.549  1.7062 -2.5659  1.0879
 9176SOL    HW239162   2.451   3.212   8.476  0.7168  0.5768  1.0395
 9177SOL     OW39163   2.502   0.975   2.323  0.1185 -0.3264  1.0173
 9177SOL    HW139164   2.441   0.948   2.254 -0.4609  0.2512  1.3033
 9177SOL    HW239165   2.575   0.934   2.277 -0.8663  0.6838 -1.4748
 9178SOL     OW39166   2.559   1.542   6.696 -0.0531 -0.1129 -0.6901
 9178SOL    HW139167   2.618   1.560   6.769  2.3667 -0.0498 -2.6463
 9178SOL    HW239168   2.554   1.446   6.696 -2.5279  0.0109 -0.8176
 9179SOL     OW39169   1.179   1.260   3.274 -0.4261  0.3902 -0.1781
 9179SOL    HW139170   1.245   1.313   3.319 -2.1914  0.1850  2.6310
 9179SOL    HW239171   1.106   1.320   3.265 -0.8679 -0.2993 -1.2574
 9180SOL     OW39172   2.412   1.807  12.824  0.5081  0.0811  0.4242
 9180SOL    HW139173   2.426   1.901  12.813 -0.0885  0.0375 -0.7656
 9180SOL    HW239174   2.404   1.788  12.917 -0.9646  1.1901  0.5175
 9181SOL     OW39175   3.295   2.724   0.387 -0.1689  0.4287  0.3990
 9181SOL    HW139176   3.211   2.765   0.407  0.0544  0.2431  1.7469
 9181SOL    HW239177   3.256   2.640   0.363 -1.7155  0.8118  1.6175
 9182SOL     OW39178   2.915   3.539   2.541  0.3911  0.0363  0.3787
 9182SOL    HW139179   2.890   3.455   2.501  3.2991  0.1916 -1.7655
 9182SOL    HW239180   2.967   3.582   2.473  1.7418  0.4855  1.7145
 9183SOL     OW39181   1.859   2.428   6.283  0.3966 -0.0262  0.4363
 9183SOL    HW139182   1.846   2.518   6.312 -1.1416 -0.7087  1.8881
 9183SOL    HW239183   1.934   2.433   6.224  1.3382  1.2561  1.7460
 9184SOL     OW39184   1.429   2.118   9.451  0.2715  0.1658  0.2081
 9184SOL    HW139185   1.524   2.113   9.438 -0.0087  0.0900 -1.8022
 9184SOL    HW239186   1.412   2.029   9.482 -0.3850 -0.7019 -2.6355
 9185SOL     OW39187   3.423   3.356   4.295  0.6426  0.2932  0.4904
 9185SOL    HW139188   3.491   3.294   4.269 -0.7657 -2.2017  2.7819
 9185SOL    HW239189   3.437   3.351   4.390 -1.4443 -2.1222  0.6671
 9186SOL     OW39190   4.006   3.815  11.297 -0.5274  0.0495  0.0149
 9186SOL    HW139191   3.992   3.758  11.372  1.8559  1.1333  1.2927
 9186SOL    HW239192   3.986   3.893  11.349  2.4900  2.0460 -1.8127
 9187SOL     OW39193   0.784   3.032   5.573 -0.4086  0.1665  0.0267
 9187SOL    HW139194   0.771   2.955   5.628  2.2321  1.1091  1.9246
 9187SOL    HW239195   0.700   3.074   5.591  1.5781  2.9850  2.5027
 9188SOL     OW39196   0.271   3.632   7.286 -0.1448  0.2399 -0.2052
 9188SOL    HW139197   0.256   3.658   7.377 -0.5696  0.7411 -0.4223
 9188SOL    HW239198   0.316   3.549   7.301  0.5020  0.7254  0.5483
 9189SOL     OW39199   4.367   4.682   0.424 -0.2482 -0.0536  0.1059
 9189SOL    HW139200   4.457   4.658   0.401  0.0094 -1.9118  3.0498
 9189SOL    HW239201   4.334   4.691   0.335  0.0526  3.1632  0.3026
 9190SOL     OW39202   1.800   3.507   8.154 -0.0550 -0.6606 -0.2698
 9190SOL    HW139203   1.803   3.440   8.086  1.4455  1.4360 -2.2776
 9190SOL    HW239204   1.787   3.584   8.098  0.3038  0.4562  1.1596
 9191SOL     OW39205   3.986   1.011   6.874 -0.5402 -0.0589  0.4351
 9191SOL    HW139206   3.998   1.067   6.951  0.2026  1.4577 -0.8066
 9191SOL    HW239207   4.076   0.980   6.862 -0.1627  1.0983  0.3685
 9192SOL     OW39208   4.566   3.829   8.677  0.2126 -0.8284  0.4495
 9192SOL    HW139209   4.554   3.756   8.616 -0.0770 -1.4049  1.2012
 9192SOL    HW239210   4.543   3.905   8.623 -0.8096 -0.2750  1.6418
 9193SOL     OW39211   3.678   1.605  12.223  0.1050  0.6058 -0.6340
 9193SOL    HW139212   3.667   1.582  12.316  1.4364  0.6428 -0.4783
 9193SOL    HW239213   3.665   1.699  12.235  1.2127  0.5307  1.1299
 9194SOL     OW39214   0.909   0.713  14.920 -0.1733 -0.0891 -0.0613
 9194SOL    HW139215   0.941   0.803  14.912 -1.9321  0.5797  0.4236
 9194SOL    HW239216   0.883   0.718  15.012 -2.3753 -1.7212 -0.5876
 9195SOL     OW39217   0.744   2.020   5.922 -0.3296  0.1959 -0.3333
 9195SOL    HW139218   0.700   2.077   5.985  0.4706  0.3672  0.0574
 9195SOL    HW239219   0.686   1.945   5.933  1.3720 -1.0323  0.2035
 9196SOL     OW39220   3.380   1.625   5.516 -0.2288 -0.5454 -0.3416
 9196SOL    HW139221   3.415   1.556   5.459  0.3139 -0.0943 -0.5482
 9196SOL    HW239222   3.331   1.669   5.446 -0.4220  1.0444  0.8086
 9197SOL     OW39223   0.173   1.686   8.310  0.0779  0.1174 -0.0692
 9197SOL    HW139224   0.167   1.591   8.304  0.5380  0.1437 -0.8780
 9197SOL    HW239225   0.083   1.708   8.335  0.5644  0.4476  1.4179
 9198SOL     OW39226   3.677   4.371   1.339  0.1486  0.2005 -0.5938
 9198SOL    HW139227   3.624   4.320   1.278 -1.9448  0.5423  0.9618
 9198SOL    HW239228   3.692   4.445   1.280 -0.4183  0.2701 -0.6502
 9199SOL     OW39229   2.073   1.945   7.667 -0.8086  0.1797  0.5392
 9199SOL    HW139230   2.004   2.008   7.687  0.1458  1.5067 -0.3600
 9199SOL    HW239231   2.057   1.882   7.738  1.6250 -0.9822  0.0477
 9200SOL     OW39232   4.197   2.235  12.613 -0.3450 -0.2479  0.6065
 9200SOL    HW139233   4.105   2.230  12.638 -0.2392 -2.6433  0.4794
 9200SOL    HW239234   4.181   2.269  12.525  2.1450  0.5305  0.4507
 9201SOL     OW39235   3.555   2.921   1.386 -0.0693 -0.0322 -0.0386
 9201SOL    HW139236   3.570   2.999   1.438  0.9752  0.4676 -1.0964
 9201SOL    HW239237   3.551   2.858   1.458 -0.6084  0.0353 -0.0036
 9202SOL     OW39238   1.867   3.963   7.790 -0.2134 -0.2006 -0.0810
 9202SOL    HW139239   1.881   4.036   7.729 -0.6639 -0.1741 -0.1515
 9202SOL    HW239240   1.821   4.001   7.865  0.0683 -1.1314  0.5570
 9203SOL     OW39241   4.140   4.274   5.093  0.7479 -0.9789 -0.1474
 9203SOL    HW139242   4.218   4.320   5.063  0.2905 -0.6364 -0.8027
 9203SOL    HW239243   4.080   4.268   5.019  1.4160 -1.3631 -0.6489
 9204SOL     OW39244   2.536   0.971   8.248 -0.0045 -0.3713 -0.5803
 9204SOL    HW139245   2.493   0.950   8.165  0.2899  1.5130 -1.2303
 9204SOL    HW239246   2.620   1.008   8.219  0.1015 -1.3728 -1.5393
 9205SOL     OW39247   2.965   0.932  13.587  0.6713  0.3682  0.3769
 9205SOL    HW139248   3.055   0.905  13.567  1.0324  1.4289  0.5759
 9205SOL    HW239249   2.912   0.855  13.567  0.0769  0.9132 -0.1368
 9206SOL     OW39250   0.201   0.642   2.799  0.9826 -0.4213  0.4226
 9206SOL    HW139251   0.147   0.565   2.820  0.1225  0.0185 -0.1987
 9206SOL    HW239252   0.287   0.620   2.836  2.8291  2.1124 -2.3893
 9207SOL     OW39253   3.139   1.969  12.190 -0.2937 -0.1955 -0.2546
 9207SOL    HW139254   3.165   1.966  12.283 -1.1819  0.9879  0.0311
 9207SOL    HW239255   3.077   2.041  12.191  0.6432  0.6241 -1.1181
 9208SOL     OW39256   2.831   1.661  15.222 -0.6002 -0.2643 -0.0389
 9208SOL    HW139257   2.900   1.611  15.177 -0.7486  0.6774 -1.3174
 9208SOL    HW239258   2.871   1.682  15.306  0.1994 -0.9887 -0.2424
 9209SOL     OW39259   4.332   3.499   9.513  0.3360 -0.1614 -0.4667
 9209SOL    HW139260   4.308   3.575   9.461 -1.2334  1.1617  2.2113
 9209SOL    HW239261   4.313   3.537   9.598 -4.6705  0.5541 -1.9015
 9210SOL     OW39262   3.195   2.270   2.816 -0.3467 -0.5737  0.0650
 9210SOL    HW139263   3.240   2.186   2.813  1.3655  0.4021 -1.5485
 9210SOL    HW239264   3.233   2.298   2.732 -0.6267  0.4077  0.2585
 9211SOL     OW39265   2.211   0.380   7.489 -0.4820 -0.3057  0.0895
 9211SOL    HW139266   2.157   0.458   7.479 -0.1791 -0.0595  0.3516
 9211SOL    HW239267   2.147   0.309   7.485  0.4787 -1.1660 -0.1823
 9212SOL     OW39268   0.397   2.123   2.252  0.6625 -0.0748 -0.5430
 9212SOL    HW139269   0.413   2.203   2.302  0.0909 -0.0744 -0.3679
 9212SOL    HW239270   0.409   2.165   2.167  2.3089 -0.2533 -0.4084
 9213SOL     OW39271   2.196   1.387  15.014  0.1726  0.5635  0.5741
 9213SOL    HW139272   2.209   1.326  15.086  0.0130 -0.2279 -0.0735
 9213SOL    HW239273   2.105   1.418  15.019 -0.9097 -2.2521 -1.9820
 9214SOL     OW39274   0.500   3.956   2.700  0.6037 -0.2348 -0.1163
 9214SOL    HW139275   0.535   3.868   2.688 -1.0832 -1.1169  1.3967
 9214SOL    HW239276   0.427   3.966   2.639 -0.0602  0.9390  0.8606
 9215SOL     OW39277   4.429   1.561   5.566 -0.0248  0.0032  0.3344
 9215SOL    HW139278   4.361   1.512   5.521 -0.4153 -0.4155  1.3668
 9215SOL    HW239279   4.398   1.651   5.565  0.5632  0.1582 -3.3120
 9216SOL     OW39280   0.009   4.701   3.125 -0.2223  0.1288 -0.2357
 9216SOL    HW139281   4.659   4.665   3.119  0.1746 -0.8703  0.0232
 9216SOL    HW239282   0.059   4.640   3.179  3.5228  0.5544 -3.2286
 9217SOL     OW39283   1.561   2.394   5.440 -0.1369  0.5218  0.0635
 9217SOL    HW139284   1.484   2.364   5.488  0.3824  0.0570  0.5967
 9217SOL    HW239285   1.618   2.414   5.514 -0.6495  0.0467  0.5901
 9218SOL     OW39286   0.074   3.086   1.766 -0.2663 -0.0918 -0.3155
 9218SOL    HW139287   0.122   3.014   1.809 -1.0432 -1.6194 -2.0401
 9218SOL    HW239288   0.002   3.103   1.827 -0.1754  0.4451 -0.3552
 9219SOL     OW39289   0.399   1.646  10.561 -0.2360  0.2688 -0.1330
 9219SOL    HW139290   0.409   1.588  10.636 -0.1212  0.7795  0.2394
 9219SOL    HW239291   0.414   1.576  10.496  0.2700 -1.3591  1.7285
 9220SOL     OW39292   2.929   1.639  17.556 -0.1227 -0.2278 -0.1644
 9220SOL    HW139293   3.000   1.672  17.500 -0.4983 -3.3489 -2.4799
 9220SOL    HW239294   2.867   1.644  17.483 -0.5064 -0.2843  0.1581
 9221SOL     OW39295   4.530   2.229  14.718 -0.1881  0.3782 -0.0777
 9221SOL    HW139296   4.440   2.211  14.747 -0.1825  3.4433  1.8096
 9221SOL    HW239297   4.576   2.194  14.794 -0.6710 -1.5157 -0.6614
 9222SOL     OW39298   4.631   2.536   5.446 -0.5642 -0.6827 -0.3947
 9222SOL    HW139299   4.651   2.450   5.483 -1.7561  0.2301  2.4074
 9222SOL    HW239300   4.717   2.568   5.419  0.0389 -0.2753  1.9767
 9223SOL     OW39301   4.037   3.200   7.128 -0.3859 -0.4559  0.5266
 9223SOL    HW139302   3.963   3.258   7.144 -0.7978 -0.7651 -0.2917
 9223SOL    HW239303   4.091   3.199   7.208 -0.5320 -1.2368  0.6118
 9224SOL     OW39304   2.896   2.706   6.273 -0.0037 -0.7583  0.4943
 9224SOL    HW139305   2.982   2.725   6.235  1.0780 -0.9562  2.8275
 9224SOL    HW239306   2.874   2.779   6.332  1.1321 -0.2712  0.3126
 9225SOL     OW39307   1.479   0.082   4.412  0.2584 -0.0772 -0.1498
 9225SOL    HW139308   1.432   0.162   4.434 -1.8795 -1.9609  2.1065
 9225SOL    HW239309   1.465   0.028   4.489 -0.1018 -1.2819 -1.0548
 9226SOL     OW39310   0.835   1.136   9.358  0.3660 -0.2352 -0.2173
 9226SOL    HW139311   0.844   1.229   9.337  0.5923  0.1015  1.3849
 9226SOL    HW239312   0.850   1.101   9.270 -1.2172 -0.3906 -0.4124
 9227SOL     OW39313   2.980   3.484   2.823  0.1872  0.1858  0.3184
 9227SOL    HW139314   2.911   3.419   2.836  0.4192 -0.2993 -0.9013
 9227SOL    HW239315   2.965   3.507   2.731  0.6239 -0.0681  0.1868
 9228SOL     OW39316   4.118   4.673   4.129  0.2237  0.1492  0.2816
 9228SOL    HW139317   4.080   4.591   4.162  2.1357 -0.4326  1.0229
 9228SOL    HW239318   4.208   4.645   4.110  0.1114 -1.3509  1.9267
 9229SOL     OW39319   3.594   3.594   0.911  0.0192  0.2831 -0.1389
 9229SOL    HW139320   3.588   3.661   0.979  1.5924  0.7938 -0.5103
 9229SOL    HW239321   3.510   3.552   0.929 -0.9300  1.6982 -1.2520
 9230SOL     OW39322   3.127   2.317   1.201 -0.1939  0.6090 -0.3698
 9230SOL    HW139323   3.104   2.232   1.164  0.0043  0.9549 -1.2972
 9230SOL    HW239324   3.171   2.283   1.279 -0.5578 -0.0204 -0.4442
 9231SOL     OW39325   0.536   2.120   5.091  0.5341  0.4136  0.0995
 9231SOL    HW139326   0.545   2.107   5.186  0.0310  0.0417  0.1026
 9231SOL    HW239327   0.624   2.095   5.064  0.9800 -0.0143  1.9570
 9232SOL     OW39328   0.723   2.799   7.840  0.1398 -0.1519 -0.7110
 9232SOL    HW139329   0.665   2.874   7.855  0.6222 -0.0088  0.4479
 9232SOL    HW239330   0.659   2.728   7.827 -1.1002  1.1705 -1.7889
 9233SOL     OW39331   4.050   1.786   5.841  0.7100  0.0063 -0.0100
 9233SOL    HW139332   4.045   1.873   5.800  0.0219 -0.2203 -0.4093
 9233SOL    HW239333   3.963   1.768   5.875  1.3957 -0.4659  1.4918
 9234SOL     OW39334   2.658   1.235  13.470  0.1400  0.1924 -0.2378
 9234SOL    HW139335   2.599   1.160  13.474 -0.1818  0.3984 -1.1197
 9234SOL    HW239336   2.664   1.255  13.564 -0.6534 -1.7771  0.2258
 9235SOL     OW39337   3.993   3.585   4.475 -0.0164  0.3062  0.0687
 9235SOL    HW139338   4.026   3.507   4.519 -1.0445 -0.9349 -1.3849
 9235SOL    HW239339   4.063   3.643   4.505  0.7135 -0.5134 -0.0658
 9236SOL     OW39340   0.532   1.977   4.662  0.8120  0.0818 -0.0077
 9236SOL    HW139341   0.464   2.045   4.662  0.5969 -0.1279 -0.3073
 9236SOL    HW239342   0.589   2.000   4.734  0.2484  0.4399  0.3267
 9237SOL     OW39343   0.689   0.943   6.182  0.5149  0.1133  0.1343
 9237SOL    HW139344   0.658   1.033   6.194 -0.7047 -0.9630  4.9263
 9237SOL    HW239345   0.773   0.953   6.227  0.6337 -3.6747  0.7856
 9238SOL     OW39346   2.765   1.796  11.889 -0.3984 -0.3241 -0.0421
 9238SOL    HW139347   2.744   1.862  11.954  3.6218 -0.6533  1.5892
 9238SOL    HW239348   2.815   1.849  11.827 -0.7267  0.0059 -0.0244
 9239SOL     OW39349   0.998   4.696   2.878 -0.1523 -0.0148 -0.1997
 9239SOL    HW139350   1.011   4.603   2.891  1.1460  0.5842  2.7385
 9239SOL    HW239351   1.041   4.718   2.960 -1.8643  0.8027  0.4673
 9240SOL     OW39352   2.851   2.201   7.573  0.5576  0.0994 -0.3987
 9240SOL    HW139353   2.756   2.192   7.566  0.4153  0.2201  1.3728
 9240SOL    HW239354   2.860   2.291   7.542 -0.6021  0.8295  1.3797
 9241SOL     OW39355   4.656   2.383   0.242 -0.0696  0.0079 -0.1743
 9241SOL    HW139356   4.691   2.471   0.247 -0.0753 -0.1197  2.2184
 9241SOL    HW239357   4.690   2.352   0.326 -0.0857 -1.8337 -0.8503
 9242SOL     OW39358   0.601   1.274   2.920  0.1492  0.3065 -0.7036
 9242SOL    HW139359   0.507   1.258   2.926  0.4920 -0.9897  1.1398
 9242SOL    HW239360   0.619   1.258   2.827  0.7713 -0.2880 -0.4764
 9243SOL     OW39361   4.382   3.207   5.244  0.7372 -0.3265  0.4639
 9243SOL    HW139362   4.325   3.217   5.320 -1.2132 -1.1340 -0.8850
 9243SOL    HW239363   4.470   3.184   5.274  1.2619  0.2868 -0.5741
 9244SOL     OW39364   1.808   3.204  10.020  0.2640  0.1021 -0.3685
 9244SOL    HW139365   1.776   3.123   9.979 -0.8946  0.3611  0.0307
 9244SOL    HW239366   1.835   3.255   9.943 -0.8265  1.4123  0.1286
 9245SOL     OW39367   4.220   2.439   3.980  0.5100 -0.5379 -0.1578
 9245SOL    HW139368   4.256   2.502   3.918  1.0703  0.0517  0.7654
 9245SOL    HW239369   4.262   2.360   3.945 -2.6885 -2.1847 -0.3718
 9246SOL     OW39370   3.005   0.129   1.184 -0.1403 -0.1991 -0.6556
 9246SOL    HW139371   3.021   0.071   1.258 -1.6711  0.3428  0.1085
 9246SOL    HW239372   2.923   0.176   1.203  0.2130 -0.6145  1.8729
 9247SOL     OW39373   1.616   2.833  13.931  0.3413  0.0961 -0.2238
 9247SOL    HW139374   1.576   2.920  13.927  0.0719  0.0152  0.8943
 9247SOL    HW239375   1.687   2.843  13.867 -0.7043  0.8190 -1.2837
 9248SOL     OW39376   0.620   0.504  13.131  0.0512 -0.6465  0.3737
 9248SOL    HW139377   0.595   0.593  13.109 -0.9188 -1.9437 -3.6863
 9248SOL    HW239378   0.549   0.482  13.192 -0.2579  2.8524  1.2574
 9249SOL     OW39379   1.153   0.140   4.812  0.1402 -0.0116 -0.0921
 9249SOL    HW139380   1.176   0.056   4.772 -2.5090 -0.1687 -1.2806
 9249SOL    HW239381   1.065   0.116   4.841  0.2419  0.2754  0.4501
 9250SOL     OW39382   3.510   2.798  11.447 -0.6323 -0.1558 -0.1062
 9250SOL    HW139383   3.442   2.818  11.383 -1.3037 -0.4748  0.5131
 9250SOL    HW239384   3.569   2.872  11.433 -0.7995 -0.1935 -1.0225
 9251SOL     OW39385   3.795   2.135   3.023  0.1813 -0.6982  0.6062
 9251SOL    HW139386   3.835   2.072   2.963 -1.7379  1.4308 -2.8595
 9251SOL    HW239387   3.871   2.189   3.045 -0.1913  0.3847 -0.8774
 9252SOL     OW39388   3.504   2.274   5.070  0.5291  0.0891  0.0499
 9252SOL    HW139389   3.567   2.245   5.136 -0.9803  1.1073  1.9276
 9252SOL    HW239390   3.454   2.198   5.043 -0.6118  0.6119  0.6773
 9253SOL     OW39391   0.883   2.854   5.965 -0.1398 -0.1490  0.3225
 9253SOL    HW139392   0.876   2.758   5.966 -2.2145 -0.0176 -2.2586
 9253SOL    HW239393   0.928   2.858   6.049  0.8809 -3.6293 -0.0179
 9254SOL     OW39394   2.966   1.973   2.681  0.4447 -0.5111 -0.2215
 9254SOL    HW139395   2.875   2.003   2.675  0.4127 -0.8101 -1.2387
 9254SOL    HW239396   2.996   2.000   2.768  0.6771  1.6010 -0.9598
 9255SOL     OW39397   2.312   3.665   2.832  0.6971  0.2162  0.1425
 9255SOL    HW139398   2.364   3.743   2.809  0.8370  0.6439  1.8968
 9255SOL    HW239399   2.365   3.604   2.780  1.5976 -0.0310  1.3566
 9256SOL     OW39400   4.413   2.304   4.923 -0.7047  0.3205  0.2554
 9256SOL    HW139401   4.411   2.230   4.985  0.3909 -1.3716 -1.7343
 9256SOL    HW239402   4.496   2.295   4.875 -0.2785  1.3606  0.8083
 9257SOL     OW39403   2.502   4.169  17.364 -0.0049  0.1215 -0.0996
 9257SOL    HW139404   2.481   4.162  17.457 -1.0278 -0.7265 -0.3913
 9257SOL    HW239405   2.456   4.097  17.320 -0.1153  0.0017  0.2165
 9258SOL     OW39406   3.223   1.091  14.966 -0.1397  0.7521 -0.0146
 9258SOL    HW139407   3.218   1.041  14.885  0.8010  0.4197  0.1278
 9258SOL    HW239408   3.307   1.063  15.003 -1.1922  0.7339  2.3813
 9259SOL     OW39409   3.538   3.302   4.936 -0.1860 -0.4735 -0.3268
 9259SOL    HW139410   3.446   3.317   4.957 -0.2274 -0.0758 -0.7775
 9259SOL    HW239411   3.569   3.380   4.982  1.7429 -1.2916 -0.2500
 9260SOL     OW39412   4.704   0.224   6.882 -0.2291  0.1532  0.2906
 9260SOL    HW139413   0.041   0.213   6.823  0.0965  2.1884  0.3514
 9260SOL    HW239414   4.663   0.140   6.862 -1.3561  0.9234 -0.6031
 9261SOL     OW39415   2.006   3.225  12.883 -0.0893  0.2537  0.4069
 9261SOL    HW139416   1.985   3.299  12.941 -0.4287  1.8337 -1.7393
 9261SOL    HW239417   2.011   3.159  12.952 -0.0126  0.9314  1.0486
 9262SOL     OW39418   4.432   0.344   8.631 -0.1737  0.3118 -0.6824
 9262SOL    HW139419   4.476   0.314   8.710  1.4225 -0.3642 -1.8292
 9262SOL    HW239420   4.381   0.268   8.605 -1.2613  0.8783 -0.2173
 9263SOL     OW39421   2.755   3.472   0.497 -0.0851 -0.1911  0.5999
 9263SOL    HW139422   2.823   3.409   0.473  0.8713  0.9002  0.3945
 9263SOL    HW239423   2.725   3.448   0.584 -0.3404  1.6864  1.0272
 9264SOL     OW39424   1.197   2.245   5.070 -0.1652 -0.6249  0.3882
 9264SOL    HW139425   1.229   2.322   5.117 -1.7387  0.1019  0.2783
 9264SOL    HW239426   1.198   2.269   4.977  0.1930 -0.4945  0.4271
 9265SOL     OW39427   3.221   2.818   2.112 -0.1714  0.1388  0.3811
 9265SOL    HW139428   3.271   2.786   2.037 -0.3868  2.4550 -0.7718
 9265SOL    HW239429   3.281   2.802   2.185  0.0536  2.4157  0.7163
 9266SOL     OW39430   1.381   3.304   9.685 -0.2131 -0.3498  0.9456
 9266SOL    HW139431   1.472   3.334   9.696 -0.2748  1.4642 -3.5488
 9266SOL    HW239432   1.353   3.268   9.769  0.1353 -1.8038  0.4315
 9267SOL     OW39433   3.594   1.024   1.397  0.6195  0.5568  0.0654
 9267SOL    HW139434   3.609   1.115   1.421  0.9164  0.2123  1.2107
 9267SOL    HW239435   3.685   1.001   1.412  0.1516 -2.0965 -1.1540
 9268SOL     OW39436   1.147   3.861   2.835  0.7850  0.5136 -0.2546
 9268SOL    HW139437   1.231   3.860   2.880  0.7265 -1.4476 -0.1860
 9268SOL    HW239438   1.164   3.825   2.748 -2.7324  0.8087 -1.0700
 9269SOL     OW39439   3.038   1.673  12.124 -0.2188  0.0923 -0.4312
 9269SOL    HW139440   2.999   1.760  12.133 -3.2768 -1.4985  1.5507
 9269SOL    HW239441   3.131   1.692  12.142 -0.6878  0.4442  1.5770
 9270SOL     OW39442   1.200   0.473   1.134  0.4520  0.5423 -0.3513
 9270SOL    HW139443   1.207   0.553   1.187  0.9556  0.8182 -0.8399
 9270SOL    HW239444   1.197   0.404   1.200  1.0837 -1.3825 -2.3361
 9271SOL     OW39445   2.024   1.796  15.152  0.2415 -0.8424 -0.5169
 9271SOL    HW139446   2.106   1.791  15.203  1.1767 -0.2507 -1.9659
 9271SOL    HW239447   2.032   1.881  15.109 -0.7399  0.0005  0.9677
 9272SOL     OW39448   2.406   4.638  13.501  0.5049  0.3013  0.4176
 9272SOL    HW139449   2.400   4.728  13.469 -0.2467 -0.2652 -1.0500
 9272SOL    HW239450   2.445   4.583  13.433  0.8045  0.3207  0.5794
 9273SOL     OW39451   0.396   2.242   4.657  0.3388 -0.1722 -0.2322
 9273SOL    HW139452   0.317   2.189   4.646  0.8735 -0.6615 -1.7452
 9273SOL    HW239453   0.432   2.235   4.568  0.0071  2.3747 -0.5576
 9274SOL     OW39454   4.318   0.309  16.386  0.2772  0.2648  0.1151
 9274SOL    HW139455   4.286   0.390  16.347  2.8131  1.2570  0.0691
 9274SOL    HW239456   4.410   0.335  16.388 -0.2456  2.1940 -0.5616
 9275SOL     OW39457   4.372   3.051   4.900  0.1199  0.5883  0.0984
 9275SOL    HW139458   4.390   2.999   4.978  2.7545  1.8115  0.3110
 9275SOL    HW239459   4.397   2.992   4.829  1.2496  2.8101 -1.3231
 9276SOL     OW39460   2.417   2.966  13.614  0.8431 -0.6431 -0.6164
 9276SOL    HW139461   2.345   2.946  13.675 -0.5683  1.6605 -1.5171
 9276SOL    HW239462   2.430   3.055  13.646 -1.5496 -1.0666  1.5338
 9277SOL     OW39463   0.575   1.035  14.224 -0.8835 -0.3761 -0.5515
 9277SOL    HW139464   0.570   0.940  14.208  3.3099 -0.7822  0.3915
 9277SOL    HW239465   0.657   1.056  14.178 -0.5646 -0.2568  0.0814
 9278SOL     OW39466   1.803   0.559   7.225  0.1845  0.4290 -0.2813
 9278SOL    HW139467   1.710   0.546   7.206  0.3482  0.0411 -0.7975
 9278SOL    HW239468   1.834   0.471   7.208 -0.9101 -0.3365  1.5937
 9279SOL     OW39469   0.731   4.102  13.421 -0.6207  0.0874  0.2397
 9279SOL    HW139470   0.739   4.092  13.515  0.0412  3.0863  0.5087
 9279SOL    HW239471   0.678   4.028  13.392  0.1144  0.2005 -1.4511
 9280SOL     OW39472   4.507   2.545   6.219  0.1877 -0.2343 -0.0343
 9280SOL    HW139473   4.563   2.497   6.159  0.5364 -0.3222  0.3600
 9280SOL    HW239474   4.428   2.491   6.213 -1.5186  2.0907  1.2180
 9281SOL     OW39475   0.702   4.585   2.392  0.2964 -0.0521 -0.1058
 9281SOL    HW139476   0.690   4.588   2.487  1.0881 -3.0152  0.0704
 9281SOL    HW239477   0.783   4.636   2.398  1.0794 -1.3893  0.5095
 9282SOL     OW39478   2.958   0.814  12.154 -0.0989 -0.5331  0.6827
 9282SOL    HW139479   2.881   0.861  12.124  0.5544  0.5285  0.6636
 9282SOL    HW239480   2.937   0.831  12.246 -0.2720 -0.8717  0.7028
 9283SOL     OW39481   0.691   0.123  16.707  0.2058 -0.2083 -0.2854
 9283SOL    HW139482   0.743   0.197  16.676 -1.4509 -0.0515 -2.6886
 9283SOL    HW239483   0.734   0.108  16.791  1.2568  1.6506 -0.4858
 9284SOL     OW39484   0.757   3.015  15.331  0.2858  0.0440 -0.0246
 9284SOL    HW139485   0.746   3.110  15.335 -3.2563 -0.3509  0.2157
 9284SOL    HW239486   0.801   3.007  15.246 -1.6172  1.3894 -1.1530
 9285SOL     OW39487   3.352   2.756   7.343  0.1439  0.7264  0.3478
 9285SOL    HW139488   3.399   2.673   7.333 -0.7510  0.0845  1.4435
 9285SOL    HW239489   3.260   2.730   7.353  0.6828 -1.1666  0.3487
 9286SOL     OW39490   2.063   1.842   8.266 -0.1652  0.4294  0.9332
 9286SOL    HW139491   2.051   1.831   8.172 -2.9430  0.2544  1.3127
 9286SOL    HW239492   2.075   1.749   8.288 -1.3013 -0.1408 -0.8341
 9287SOL     OW39493   3.875   0.170   2.974 -0.7446  0.3337 -0.0119
 9287SOL    HW139494   3.799   0.157   2.916 -1.2071  2.1167  0.2015
 9287SOL    HW239495   3.854   0.114   3.049 -0.0596 -2.9367 -2.2479
 9288SOL     OW39496   3.902   0.452  13.698  0.3450 -0.1040 -0.0634
 9288SOL    HW139497   3.875   0.413  13.615 -1.3192 -1.4090  1.0880
 9288SOL    HW239498   3.992   0.422  13.697  0.1977 -0.5494 -0.0025
 9289SOL     OW39499   3.978   3.189   5.159  0.2144  0.4830 -0.0194
 9289SOL    HW139500   4.006   3.280   5.151  1.1239  0.2318  0.2745
 9289SOL    HW239501   3.911   3.195   5.091  1.9190 -0.0929 -1.7452
 9290SOL     OW39502   3.003   1.615   5.568  0.2716  0.2393  0.8569
 9290SOL    HW139503   3.071   1.586   5.508 -0.5257 -0.5161  0.3116
 9290SOL    HW239504   2.950   1.538   5.588 -0.7751  1.2248  1.8742
 9291SOL     OW39505   4.486   0.041  15.413 -0.4404 -0.4134  0.8813
 9291SOL    HW139506   4.580   0.028  15.404 -0.3879  0.1217  0.6423
 9291SOL    HW239507   4.486   0.116  15.354  0.7292  0.1619  1.5964
 9292SOL     OW39508   2.372   2.352   3.645 -0.3645 -0.1538  0.3851
 9292SOL    HW139509   2.340   2.439   3.670  1.7156  0.8307 -0.3058
 9292SOL    HW239510   2.439   2.368   3.579 -1.1393  2.0407  0.1279
 9293SOL     OW39511   2.579   3.666   5.137 -0.2750 -0.3017 -0.5760
 9293SOL    HW139512   2.657   3.721   5.142  0.8162 -1.7503 -1.7143
 9293SOL    HW239513   2.511   3.730   5.118  0.6112  0.8148  0.0393
 9294SOL     OW39514   3.309   3.208   8.486  0.4672  0.6026  0.5143
 9294SOL    HW139515   3.222   3.229   8.453  0.8796  2.1385  0.4210
 9294SOL    HW239516   3.346   3.296   8.484  1.8913 -0.0313 -1.2457
 9295SOL     OW39517   1.690   4.536   4.225 -0.3206  0.0211  0.4238
 9295SOL    HW139518   1.722   4.594   4.295  2.5470 -2.5588  1.2186
 9295SOL    HW239519   1.742   4.569   4.152 -0.1952  0.3649  0.6650
 9296SOL     OW39520   3.836   2.280   5.051 -0.1034 -0.1898 -0.5912
 9296SOL    HW139521   3.870   2.191   5.055  0.7556  0.1495 -0.3386
 9296SOL    HW239522   3.827   2.303   4.958  2.5283  0.1407 -0.7625
 9297SOL     OW39523   1.774   2.361   9.740 -0.4986 -0.1649  0.4256
 9297SOL    HW139524   1.854   2.411   9.749 -1.0513  0.8962 -0.4898
 9297SOL    HW239525   1.757   2.346   9.833  0.4042 -1.4708  0.3851
 9298SOL     OW39526   1.245   1.215  11.793  0.1601 -0.1844 -0.2272
 9298SOL    HW139527   1.258   1.128  11.829 -0.1234  0.1955  0.7951
 9298SOL    HW239528   1.171   1.241  11.848 -0.0605  0.7389 -0.9600
 9299SOL     OW39529   4.070   4.675   4.523  0.0878  0.2542  0.1289
 9299SOL    HW139530   4.123   0.015   4.539  1.9577 -0.7789 -1.0927
 9299SOL    HW239531   3.982   4.711   4.540  0.1510 -0.5663  2.1235
 9300SOL     OW39532   3.351   2.462  15.474 -0.1757  0.2265  0.2284
 9300SOL    HW139533   3.378   2.374  15.449 -1.6521  0.1154 -0.9939
 9300SOL    HW239534   3.434   2.497  15.508  0.0310 -1.6955  1.6618
 9301SOL     OW39535   4.078   4.163  14.968  0.4581  0.2445 -0.1649
 9301SOL    HW139536   4.092   4.198  14.880  0.2834 -0.6463 -0.5461
 9301SOL    HW239537   3.982   4.161  14.973  0.4960  1.9859  1.7293
 9302SOL     OW39538   1.066   3.826   8.495 -0.2316 -0.2145 -0.2738
 9302SOL    HW139539   1.129   3.825   8.423  1.4774 -0.9343  1.2428
 9302SOL    HW239540   1.033   3.736   8.499 -0.2935 -0.1094  1.5228
 9303SOL     OW39541   1.028   4.392   5.321 -0.2249 -0.3634  0.0643
 9303SOL    HW139542   1.044   4.319   5.381  0.3069 -2.5008 -2.7236
 9303SOL    HW239543   0.933   4.396   5.330 -0.4401 -0.1526 -2.3870
 9304SOL     OW39544   3.358   1.903   0.211 -0.5721 -0.2148  0.8582
 9304SOL    HW139545   3.265   1.887   0.228 -0.8179  2.2824  1.7885
 9304SOL    HW239546   3.371   1.961   0.286  1.1978 -2.4412  2.2617
 9305SOL     OW39547   2.687   2.276   8.056  0.4336  0.3840 -0.3982
 9305SOL    HW139548   2.777   2.266   8.025  0.3245  0.5990 -0.7951
 9305SOL    HW239549   2.651   2.327   7.983  0.1122  0.7794  0.0388
 9306SOL     OW39550   3.239   1.037   1.960  0.0357 -0.1959  0.1125
 9306SOL    HW139551   3.152   1.070   1.938  1.5089  3.8144  0.3072
 9306SOL    HW239552   3.288   1.093   1.900  1.5853 -1.3035  0.3362
 9307SOL     OW39553   1.109   4.594   5.088 -0.0595  0.6763 -0.4542
 9307SOL    HW139554   1.118   4.664   5.153  1.2950 -0.2842  0.4179
 9307SOL    HW239555   1.182   4.604   5.027 -0.7113  1.4218 -1.1087
 9308SOL     OW39556   1.626   0.002   5.280  0.1036  0.5505 -0.4246
 9308SOL    HW139557   1.700   0.028   5.334  0.1969 -1.3412  0.3647
 9308SOL    HW239558   1.668   4.662   5.244  0.0327  0.2404  0.1745
 9309SOL     OW39559   2.109   0.836   4.759  0.2125  0.2177  0.1191
 9309SOL    HW139560   2.055   0.897   4.709  0.4284  1.1375  0.9922
 9309SOL    HW239561   2.156   0.890   4.824 -0.4603  0.4446  0.4220
 9310SOL     OW39562   4.107   3.949   3.182 -0.3386  0.1500 -0.2841
 9310SOL    HW139563   4.030   3.904   3.148  0.3168 -1.0919 -0.1024
 9310SOL    HW239564   4.149   3.870   3.215 -3.6717 -1.9306 -1.0607
 9311SOL     OW39565   4.282   3.519   5.771 -0.0631  0.0839 -0.2862
 9311SOL    HW139566   4.331   3.449   5.729 -0.0886  0.5563 -1.1063
 9311SOL    HW239567   4.297   3.592   5.711 -1.6762  1.1025  0.5486
 9312SOL     OW39568   2.651   1.433   3.163  0.6650 -0.1661  0.2011
 9312SOL    HW139569   2.654   1.366   3.231 -0.4811 -0.1986  0.2193
 9312SOL    HW239570   2.621   1.378   3.091  2.3157 -1.4760  0.5121
 9313SOL     OW39571   2.359   3.479   6.647 -0.3815 -0.2073 -0.3957
 9313SOL    HW139572   2.299   3.414   6.611 -0.5480 -0.0300 -0.4418
 9313SOL    HW239573   2.441   3.431   6.636 -0.8769 -1.2654  0.5853
 9314SOL     OW39574   3.880   4.515   6.982  0.3718 -0.7173  0.2853
 9314SOL    HW139575   3.912   4.544   7.068 -0.4398  1.6307 -0.1924
 9314SOL    HW239576   3.853   4.600   6.948 -0.7157 -2.2105 -2.5487
 9315SOL     OW39577   4.491   3.603   8.558  0.1451 -0.2266  0.2388
 9315SOL    HW139578   4.398   3.583   8.546  0.4415 -1.2905 -0.3458
 9315SOL    HW239579   4.525   3.525   8.602  1.1264 -0.3224 -0.6984
 9316SOL     OW39580   3.359   3.956   4.222  0.3507  0.3380  0.1966
 9316SOL    HW139581   3.348   3.880   4.280 -1.0410 -0.0761 -0.6097
 9316SOL    HW239582   3.411   4.021   4.269  1.7444  0.5501 -1.6477
 9317SOL     OW39583   1.059   2.514   0.523  0.1828  0.0686  0.1853
 9317SOL    HW139584   1.005   2.466   0.585  0.1165  2.5694  2.0458
 9317SOL    HW239585   1.135   2.524   0.580  0.1818 -2.2145  0.5878
 9318SOL     OW39586   4.696   0.868   5.558  0.4358  0.2361  0.1013
 9318SOL    HW139587   4.705   0.958   5.526 -1.7450  0.5738  0.3883
 9318SOL    HW239588   0.026   0.870   5.625 -1.6361  0.2451  2.2114
 9319SOL     OW39589   3.847   1.809   4.747  0.0592 -0.3385  0.4813
 9319SOL    HW139590   3.928   1.855   4.768 -0.4426 -0.3142  2.3324
 9319SOL    HW239591   3.793   1.877   4.786  1.6069  0.5475  1.0774
 9320SOL     OW39592   1.531   2.132   4.880  0.1824  0.1855 -0.1717
 9320SOL    HW139593   1.573   2.191   4.943  1.5900  1.0934 -1.9560
 9320SOL    HW239594   1.473   2.191   4.831 -0.9306 -0.0583  0.8378
 9321SOL     OW39595   0.620   2.762   8.442 -0.3671 -0.7738 -0.4116
 9321SOL    HW139596   0.682   2.830   8.468 -1.6333  0.0782  0.3413
 9321SOL    HW239597   0.606   2.795   8.353  1.2451  1.7223  0.2607
 9322SOL     OW39598   0.375   1.000  15.334 -0.2853 -0.1769  0.2074
 9322SOL    HW139599   0.406   0.910  15.346 -0.2781 -0.4135 -1.5626
 9322SOL    HW239600   0.454   1.052  15.320 -0.3902 -0.1405 -0.2511
 9323SOL     OW39601   3.396   2.540   6.343  0.6080 -0.3636  0.2256
 9323SOL    HW139602   3.379   2.613   6.402  1.5896  0.7721 -0.8768
 9323SOL    HW239603   3.312   2.522   6.301  0.6833  1.0652 -0.5349
 9324SOL     OW39604   1.389   0.338   4.675 -0.1867 -0.1577 -0.1224
 9324SOL    HW139605   1.348   0.407   4.624 -0.0122 -1.0288 -1.4443
 9324SOL    HW239606   1.342   0.329   4.758 -0.3952 -0.8727 -0.3173
 9325SOL     OW39607   2.385   2.368   8.987 -0.0343 -0.1906 -0.5707
 9325SOL    HW139608   2.362   2.458   8.964 -1.4272 -0.4709 -0.2438
 9325SOL    HW239609   2.475   2.361   8.954  0.9248  0.7135  1.7878
 9326SOL     OW39610   2.114   4.284   4.167 -0.5670  0.2839  0.3017
 9326SOL    HW139611   2.023   4.256   4.175 -1.2405  2.1602 -0.9520
 9326SOL    HW239612   2.155   4.228   4.233  0.9772  1.2790  0.1919
 9327SOL     OW39613   1.143   0.802   9.461 -0.2195 -0.4908  0.1820
 9327SOL    HW139614   1.128   0.874   9.523  1.6390 -1.0744  1.3059
 9327SOL    HW239615   1.066   0.748   9.482 -0.7152  0.8004  1.7384
 9328SOL     OW39616   2.063   0.216   7.780  0.0936  0.3819 -0.2916
 9328SOL    HW139617   2.051   0.253   7.693  3.4941  0.5134 -0.6934
 9328SOL    HW239618   2.096   0.292   7.829  1.9214  0.0647 -1.0195
 9329SOL     OW39619   2.804   4.654  14.903  0.1069  0.0337 -0.5667
 9329SOL    HW139620   2.811   4.680  14.811  0.8185  1.4066 -0.1225
 9329SOL    HW239621   2.793   4.559  14.899 -0.4827 -0.0090  1.6761
 9330SOL     OW39622   3.675   0.206   9.677  0.2526 -0.0137 -0.1556
 9330SOL    HW139623   3.717   0.292   9.673  0.0228 -0.0137 -2.2017
 9330SOL    HW239624   3.647   0.187   9.767  0.3329 -1.3549 -0.4164
 9331SOL     OW39625   2.393   1.689  12.587  0.3640  0.2738  0.3689
 9331SOL    HW139626   2.458   1.735  12.535  0.4351 -1.5914 -1.1574
 9331SOL    HW239627   2.394   1.748  12.664  2.1398 -0.0431  0.5928
 9332SOL     OW39628   2.749   3.556  15.531 -0.9505  0.2440 -0.3434
 9332SOL    HW139629   2.838   3.573  15.561 -1.1067 -1.2965  1.0201
 9332SOL    HW239630   2.755   3.585  15.440  1.0537  0.8981 -0.0004
 9333SOL     OW39631   3.596   4.156   2.742 -0.5143  0.3103  0.2899
 9333SOL    HW139632   3.526   4.161   2.808 -1.3243  1.9834 -0.7148
 9333SOL    HW239633   3.551   4.097   2.682 -2.3667  1.4421  0.5620
 9334SOL     OW39634   3.701   1.413   2.001 -0.0728 -0.2068  0.0888
 9334SOL    HW139635   3.761   1.408   2.075 -0.0383 -1.2311 -0.0115
 9334SOL    HW239636   3.693   1.508   1.993  0.2577 -0.2974 -1.2935
 9335SOL     OW39637   3.385   3.201  17.714 -0.1190 -0.5155  0.2713
 9335SOL    HW139638   3.393   3.137   0.033 -2.3606 -1.5991 -0.4913
 9335SOL    HW239639   3.367   3.284   0.007  1.2236 -0.8243  1.4297
 9336SOL     OW39640   1.487   1.217   7.668 -1.0308  0.2160 -0.4559
 9336SOL    HW139641   1.550   1.275   7.711 -1.1910 -0.1748  0.2960
 9336SOL    HW239642   1.546   1.164   7.614 -2.9026 -1.0684 -1.2122
 9337SOL     OW39643   3.765   3.799   8.914  0.0881  0.7192 -0.1068
 9337SOL    HW139644   3.782   3.880   8.963  2.8981  0.2771 -0.3973
 9337SOL    HW239645   3.854   3.782   8.884 -0.1171 -0.6533  0.0932
 9338SOL     OW39646   2.525   1.518   3.498 -0.1240 -0.1529  0.2854
 9338SOL    HW139647   2.555   1.449   3.556 -0.5824 -0.9879 -0.4666
 9338SOL    HW239648   2.484   1.471   3.425 -0.3192  0.3750  0.0519
 9339SOL     OW39649   1.734   1.606   7.830 -0.1835 -0.1017  0.1931
 9339SOL    HW139650   1.814   1.613   7.778 -0.1902 -0.1903  0.1723
 9339SOL    HW239651   1.661   1.609   7.768 -0.1305 -1.2363  0.0800
 9340SOL     OW39652   0.244   3.903   2.878  0.0561 -0.2940 -0.1341
 9340SOL    HW139653   0.297   3.862   2.946  0.7978  2.9607  1.2616
 9340SOL    HW239654   0.309   3.928   2.812 -1.1322  0.0934 -1.1601
 9341SOL     OW39655   4.200   0.554   6.456  0.5376 -0.3973  0.3017
 9341SOL    HW139656   4.167   0.557   6.546  0.3282  0.1348  0.2103
 9341SOL    HW239657   4.214   0.463   6.432  0.6768 -0.2221 -0.2753
 9342SOL     OW39658   0.828   1.179   0.544  0.4570 -0.0501 -0.4006
 9342SOL    HW139659   0.838   1.156   0.637 -2.1176  1.6601  0.3025
 9342SOL    HW239660   0.819   1.273   0.555 -0.2578  0.3286 -4.2663
 9343SOL     OW39661   3.925   1.964   7.596  0.4937  0.0259  0.3737
 9343SOL    HW139662   3.836   1.999   7.604  0.5825 -0.0097  1.4942
 9343SOL    HW239663   3.907   1.871   7.584  2.7806 -0.5284  1.2987
 9344SOL     OW39664   4.423   3.568   4.047  0.1017 -0.1686  0.8258
 9344SOL    HW139665   4.514   3.598   4.056 -0.0847  1.6914 -3.0907
 9344SOL    HW239666   4.369   3.640   4.080  0.5295 -0.0074  1.1759
 9345SOL     OW39667   4.149   1.619  14.560  0.3728 -0.4821  0.0995
 9345SOL    HW139668   4.240   1.602  14.585  0.3474 -0.1345  0.4355
 9345SOL    HW239669   4.108   1.655  14.638  1.8206  2.2777 -0.4180
 9346SOL     OW39670   2.082   1.138  10.510 -0.7421  0.3537  0.3300
 9346SOL    HW139671   2.045   1.097  10.589  1.4650  0.2032  1.2903
 9346SOL    HW239672   2.177   1.133  10.516 -0.6704  1.4225  0.0862
 9347SOL     OW39673   1.060   1.238   6.543 -0.4908 -0.2335  0.3740
 9347SOL    HW139674   1.040   1.307   6.480 -0.5784  0.8290  1.5814
 9347SOL    HW239675   1.004   1.252   6.619  0.4196  0.4310  0.9100
 9348SOL     OW39676   0.884   1.260   2.768 -0.4533 -0.1999 -0.1646
 9348SOL    HW139677   0.850   1.344   2.736 -2.0543 -0.2680  1.3570
 9348SOL    HW239678   0.857   1.201   2.697 -1.2045  0.6598 -0.6041
 9349SOL     OW39679   3.889   2.259  12.813 -0.3466 -0.7780  0.2898
 9349SOL    HW139680   3.824   2.307  12.863 -1.4380 -0.2785 -1.6259
 9349SOL    HW239681   3.895   2.307  12.730  0.5357  1.0318  1.3826
 9350SOL     OW39682   3.698   3.988   3.949 -0.4960  0.2241 -0.0143
 9350SOL    HW139683   3.605   3.991   3.970 -0.7027 -0.0072 -0.9269
 9350SOL    HW239684   3.693   4.004   3.855  2.0513 -2.0772 -0.5361
 9351SOL     OW39685   1.177   1.001   3.255  0.1750 -0.2817  0.2748
 9351SOL    HW139686   1.213   0.996   3.344 -1.8256  1.9044  1.2111
 9351SOL    HW239687   1.164   1.095   3.245 -1.4387 -0.4924  0.4003
 9352SOL     OW39688   4.536   1.928   7.434 -0.5066 -0.2669  0.0562
 9352SOL    HW139689   4.558   1.965   7.520 -1.2213  0.9582 -0.2829
 9352SOL    HW239690   4.496   2.006   7.395 -2.0208 -0.3884  1.3759
 9353SOL     OW39691   1.385   0.665   5.805  0.0927  0.3066  0.3059
 9353SOL    HW139692   1.458   0.645   5.864 -0.9265 -2.3395  0.6737
 9353SOL    HW239693   1.387   0.593   5.742 -0.9093 -1.0778  1.8722
 9354SOL     OW39694   2.802   4.572   1.958  0.1418 -0.4346 -0.5683
 9354SOL    HW139695   2.848   4.490   1.974 -1.7484 -1.1694  1.1247
 9354SOL    HW239696   2.787   4.610   2.045  3.1901  2.1833 -1.1930
 9355SOL     OW39697   4.084   2.606   2.722 -0.8646 -0.4338 -0.7103
 9355SOL    HW139698   4.097   2.540   2.790 -0.5609  2.2354  1.8198
 9355SOL    HW239699   4.161   2.590   2.667  1.0556  1.4987  1.4096
 9356SOL     OW39700   3.077   4.224   7.574 -0.6697 -0.3065  0.6001
 9356SOL    HW139701   3.110   4.245   7.661 -1.2236  0.2736  0.6676
 9356SOL    HW239702   3.080   4.309   7.529  3.3551 -0.6533  0.1800
 9357SOL     OW39703   0.482   2.328   4.912  0.0832  0.3034 -0.0069
 9357SOL    HW139704   0.452   2.277   4.836 -0.2209 -1.6831  1.4621
 9357SOL    HW239705   0.499   2.251   4.966 -0.6188  1.4509  1.8467
 9358SOL     OW39706   4.494   3.974   9.235  0.7984  0.2539 -0.4445
 9358SOL    HW139707   4.439   3.977   9.313  0.8034 -0.3339 -0.4207
 9358SOL    HW239708   4.576   4.017   9.262 -0.3004  0.3504  2.6663
 9359SOL     OW39709   3.236   2.106   9.640  0.6655 -0.1368 -0.5107
 9359SOL    HW139710   3.318   2.081   9.682  1.0339  0.8405 -0.6552
 9359SOL    HW239711   3.170   2.042   9.668 -0.8961  1.2830 -0.9324
 9360SOL     OW39712   0.388   1.504  16.039 -0.3145 -0.2364 -0.2757
 9360SOL    HW139713   0.475   1.482  16.008 -0.3465 -1.2024  0.3450
 9360SOL    HW239714   0.410   1.570  16.105  0.9236  0.2581 -1.1841
 9361SOL     OW39715   2.585   2.648  13.055 -0.4382 -0.4335 -0.4625
 9361SOL    HW139716   2.524   2.647  13.128  1.0339 -1.0738  0.7530
 9361SOL    HW239717   2.618   2.558  13.060 -1.8920 -0.7908  2.5130
 9362SOL     OW39718   0.973   3.548   9.412  0.1953 -0.6870  0.0132
 9362SOL    HW139719   0.899   3.516   9.462 -0.8120  0.3857 -0.7794
 9362SOL    HW239720   1.048   3.515   9.461  0.8777 -0.5910 -0.9621
 9363SOL     OW39721   2.786   1.834   9.635 -0.2322  0.7197 -0.0414
 9363SOL    HW139722   2.718   1.864   9.695 -1.2616 -3.0917  0.6647
 9363SOL    HW239723   2.831   1.775   9.695 -1.8243  1.1304  1.5531
 9364SOL     OW39724   4.359   1.035   6.243  0.4914 -0.3137  0.1336
 9364SOL    HW139725   4.342   0.981   6.320 -1.0634  1.8742  1.3238
 9364SOL    HW239726   4.353   0.971   6.172  0.1469 -0.2996  0.1498
 9365SOL     OW39727   4.246   4.575  15.140 -0.2728 -0.5408  0.1802
 9365SOL    HW139728   4.280   4.492  15.105  1.4023  1.0453 -1.9065
 9365SOL    HW239729   4.218   4.621  15.061  1.6916 -1.9431 -1.3511
 9366SOL     OW39730   3.981   0.290   1.925 -0.3937  0.5708 -0.2420
 9366SOL    HW139731   3.895   0.332   1.933 -1.4758 -2.1465  2.2441
 9366SOL    HW239732   3.968   0.218   1.987 -0.0795 -0.2130 -1.0788
 9367SOL     OW39733   3.764   1.605  13.600 -0.5789  0.3023 -0.8521
 9367SOL    HW139734   3.804   1.692  13.604 -0.9884  0.4465 -0.0315
 9367SOL    HW239735   3.826   1.542  13.564 -1.3336 -0.3862 -0.9394
 9368SOL     OW39736   4.061   0.275   8.918  0.3946  0.0023 -0.3242
 9368SOL    HW139737   3.981   0.226   8.938  0.2370  0.2562 -0.3382
 9368SOL    HW239738   4.055   0.354   8.972 -0.6028 -1.1778  1.2802
 9369SOL     OW39739   3.484   2.589  11.620 -0.4164  0.3714  0.0328
 9369SOL    HW139740   3.499   2.651  11.548  0.0973  0.9021  0.6059
 9369SOL    HW239741   3.388   2.589  11.629 -0.5272  2.7327 -0.9695
 9370SOL     OW39742   3.992   1.446  11.443  0.3498  0.3712 -0.0772
 9370SOL    HW139743   4.085   1.457  11.426  0.4124 -0.1060 -0.0442
 9370SOL    HW239744   3.961   1.527  11.484  0.8271  1.7593 -2.4470
 9371SOL     OW39745   0.500   4.676  16.728  0.1190 -0.6224 -0.3915
 9371SOL    HW139746   0.466   4.735  16.795  2.7937 -0.5775  0.9309
 9371SOL    HW239747   0.588   4.714  16.718 -0.1896  0.2816  0.4240
 9372SOL     OW39748   4.357   4.269  15.291 -0.5971 -0.5405 -0.4730
 9372SOL    HW139749   4.339   4.245  15.382  0.4420 -2.7066 -0.8544
 9372SOL    HW239750   4.393   4.358  15.298  1.7799 -1.7067  2.1536
 9373SOL     OW39751   0.969   0.472   4.810  0.5675 -0.2053  0.6115
 9373SOL    HW139752   0.987   0.454   4.718 -3.2984 -1.6254  0.1300
 9373SOL    HW239753   0.881   0.510   4.806  1.0755  0.8428 -0.3021
 9374SOL     OW39754   1.330   1.838   9.469 -0.4147  0.3937 -0.0578
 9374SOL    HW139755   1.380   1.757   9.459 -1.9591 -0.5892  0.0754
 9374SOL    HW239756   1.311   1.858   9.377  0.2794  0.4558 -0.1855
 9375SOL     OW39757   2.997   1.644   8.471  0.4922  0.2680  0.4532
 9375SOL    HW139758   2.935   1.714   8.492  0.6622  1.2126 -2.2660
 9375SOL    HW239759   2.974   1.584   8.542 -2.3804 -2.1627 -2.5421
 9376SOL     OW39760   4.108   0.985   5.753 -0.1849 -0.1396 -0.1307
 9376SOL    HW139761   4.194   1.020   5.775 -0.4071  0.2014  0.1917
 9376SOL    HW239762   4.144   0.921   5.691  2.8469  1.4819 -0.0012
 9377SOL     OW39763   3.527   1.385  16.020  0.1738  0.0347  0.2364
 9377SOL    HW139764   3.440   1.405  16.054  0.0709 -0.3945  0.2211
 9377SOL    HW239765   3.537   1.291  16.033 -0.5131 -0.2051 -1.0037
 9378SOL     OW39766   2.631   0.757   3.384 -0.2572 -0.1833 -0.0904
 9378SOL    HW139767   2.552   0.714   3.416  0.3422 -1.6100 -0.5397
 9378SOL    HW239768   2.609   0.849   3.400 -1.0452 -0.4609  0.3949
 9379SOL     OW39769   3.094   1.389   6.110  0.0546  0.4835  0.7681
 9379SOL    HW139770   3.157   1.417   6.043  1.5795 -4.7300  0.0462
 9379SOL    HW239771   3.055   1.474   6.131 -1.2468  0.1912 -0.4447
 9380SOL     OW39772   4.555   1.486   7.112  0.2920  0.1748  0.4233
 9380SOL    HW139773   4.615   1.557   7.092  0.7475 -0.3238  0.0153
 9380SOL    HW239774   4.604   1.429   7.172 -2.2708 -1.4191  1.0094
 9381SOL     OW39775   1.225   0.129   2.069  0.1133 -0.1140  0.3283
 9381SOL    HW139776   1.188   0.111   1.983 -1.0648  1.7853  0.4375
 9381SOL    HW239777   1.264   0.216   2.061 -0.2338  0.2116  1.9702
 9382SOL     OW39778   1.496   2.295   2.788  0.2943 -0.1758 -0.0477
 9382SOL    HW139779   1.413   2.254   2.811 -0.2937  0.6442 -0.6881
 9382SOL    HW239780   1.514   2.352   2.863  5.2272 -0.5259 -0.9892
 9383SOL     OW39781   0.111   2.988   3.194 -0.6021 -0.1390  0.1647
 9383SOL    HW139782   0.067   3.029   3.268  0.3162 -0.2649  0.7941
 9383SOL    HW239783   0.120   3.062   3.134  0.2036 -1.3836 -1.2733
 9384SOL     OW39784   1.115   2.602   5.093 -0.0415  0.0998  0.0887
 9384SOL    HW139785   1.136   2.613   5.000 -3.4372 -0.9964 -0.8069
 9384SOL    HW239786   1.135   2.690   5.123 -0.9689 -0.0815  1.2070
 9385SOL     OW39787   2.869   0.066  16.353 -0.7090 -0.1348 -0.1503
 9385SOL    HW139788   2.776   0.054  16.334 -0.7239 -0.9159  0.3636
 9385SOL    HW239789   2.909   0.024  16.276 -1.4952 -1.9554  0.4258
 9386SOL     OW39790   3.119   1.135   4.291  0.8122  0.1214  0.2031
 9386SOL    HW139791   3.031   1.173   4.298  0.9323  0.7877 -2.0109
 9386SOL    HW239792   3.106   1.056   4.239  1.5650  0.4894 -0.5265
 9387SOL     OW39793   4.252   2.246   6.725  0.1787  0.7102 -0.5013
 9387SOL    HW139794   4.179   2.299   6.693  0.2043  1.6323  0.9452
 9387SOL    HW239795   4.299   2.230   6.644  1.3369 -0.0940  0.3241
 9388SOL     OW39796   2.449   1.558   3.939 -0.1493 -0.6045 -0.4066
 9388SOL    HW139797   2.362   1.596   3.929  0.2587  1.0029  2.1841
 9388SOL    HW239798   2.483   1.630   3.992  0.8389 -0.0365 -1.8077
 9389SOL     OW39799   4.443   3.755   8.303  0.4773 -0.2484  0.4777
 9389SOL    HW139800   4.481   3.702   8.372 -0.9082 -2.6088 -0.5676
 9389SOL    HW239801   4.462   3.839   8.344 -2.9346  1.3523 -1.2454
 9390SOL     OW39802   3.506   1.673   0.294 -0.1085  0.0242 -0.1766
 9390SOL    HW139803   3.441   1.676   0.364 -0.9043  0.5853 -0.9469
 9390SOL    HW239804   3.453   1.728   0.236  0.6739  0.4547 -0.4886
 9391SOL     OW39805   0.734   3.133   7.743  0.2019 -0.1753 -0.3177
 9391SOL    HW139806   0.799   3.175   7.799 -0.2590  1.1355 -0.7642
 9391SOL    HW239807   0.782   3.061   7.703 -0.7759 -1.5286  0.9840
 9392SOL     OW39808   0.673   1.267   8.384  0.4982 -0.4067  0.1757
 9392SOL    HW139809   0.641   1.350   8.347  2.6697  1.2024  1.9106
 9392SOL    HW239810   0.700   1.221   8.305  1.9316  1.8183 -0.6264
 9393SOL     OW39811   2.578   3.429   5.276  0.3719 -0.0654  0.0045
 9393SOL    HW139812   2.563   3.483   5.353 -0.1562  0.3625 -0.3917
 9393SOL    HW239813   2.603   3.503   5.221  1.3675  0.3002  0.9542
 9394SOL     OW39814   0.240   1.237   7.737 -0.1245  0.0643  0.0290
 9394SOL    HW139815   0.235   1.263   7.829  2.6253  0.6219  0.0233
 9394SOL    HW239816   0.313   1.292   7.709  2.6792 -3.2739  0.7114
 9395SOL     OW39817   1.136   0.055  13.687 -0.3762 -0.2684 -0.0776
 9395SOL    HW139818   1.120   4.730  13.618  0.3601  0.2877 -0.7636
 9395SOL    HW239819   1.197   0.012  13.747 -0.6835 -0.4681  0.0872
 9396SOL     OW39820   3.259   1.759   8.533  0.3631  0.0051  0.0186
 9396SOL    HW139821   3.265   1.851   8.509  1.4047  0.1672  0.8970
 9396SOL    HW239822   3.182   1.724   8.489  1.2815 -0.0430 -1.5683
 9397SOL     OW39823   0.230   0.510  11.783  0.4357 -0.1070 -0.1765
 9397SOL    HW139824   0.166   0.528  11.852  0.0311  0.2324 -0.6396
 9397SOL    HW239825   0.214   0.590  11.733 -0.0920 -0.3612 -0.4154
 9398SOL     OW39826   1.762   2.457   6.556 -0.4358  0.5690  0.2546
 9398SOL    HW139827   1.733   2.366   6.554  0.1196  0.3335  2.7431
 9398SOL    HW239828   1.857   2.447   6.543 -0.9547 -2.7936 -0.9533
 9399SOL     OW39829   2.840   1.773   4.169  0.8396 -0.7616 -0.4886
 9399SOL    HW139830   2.897   1.775   4.245 -0.3746 -4.1603  0.5274
 9399SOL    HW239831   2.807   1.861   4.155 -0.3353 -0.9259  1.3403
 9400SOL     OW39832   2.628   3.023   2.782  0.6688  0.0707  0.3543
 9400SOL    HW139833   2.578   2.944   2.763 -0.0029 -0.1319  2.9173
 9400SOL    HW239834   2.592   3.082   2.716  1.2146  0.0728  0.0636
 9401SOL     OW39835   2.020   0.759   6.661  0.1896 -0.2462  0.0559
 9401SOL    HW139836   2.029   0.767   6.566 -1.1529 -0.7695 -0.1161
 9401SOL    HW239837   2.073   0.832   6.691  0.4813 -0.6810  0.5851
 9402SOL     OW39838   4.129   2.917   4.283  0.4586 -0.1942  0.2327
 9402SOL    HW139839   4.107   2.976   4.211  1.4353 -0.2559 -0.1137
 9402SOL    HW239840   4.134   2.837   4.231  1.8541 -0.7757  1.2837
 9403SOL     OW39841   3.236   0.553  11.646  0.0336 -0.1442  0.2146
 9403SOL    HW139842   3.187   0.550  11.564  0.2230  2.5208  0.0227
 9403SOL    HW239843   3.300   0.622  11.629 -1.1305  0.8928  0.0627
 9404SOL     OW39844   2.316   3.557  15.552  0.3378 -0.6093 -0.4950
 9404SOL    HW139845   2.261   3.613  15.497 -0.7476 -1.7467 -0.5914
 9404SOL    HW239846   2.372   3.506  15.494 -0.2000 -0.9964 -0.6740
 9405SOL     OW39847   3.676   1.867   6.452 -0.1069  0.4194  0.2607
 9405SOL    HW139848   3.652   1.776   6.468  0.6473 -0.2378 -2.3551
 9405SOL    HW239849   3.727   1.881   6.532 -0.6145 -0.4837  0.7439
 9406SOL     OW39850   2.902   3.426   5.996  0.4273  0.2650 -0.1157
 9406SOL    HW139851   2.905   3.339   6.037  0.5698  0.9035  1.2370
 9406SOL    HW239852   2.918   3.471   6.079  0.5487  2.2823 -1.2434
 9407SOL     OW39853   1.334   3.307  12.158  0.0200 -0.1429 -0.2489
 9407SOL    HW139854   1.276   3.238  12.190  0.3828 -0.6171 -0.5954
 9407SOL    HW239855   1.390   3.257  12.098  2.1908 -0.2014  1.8146
 9408SOL     OW39856   1.352   2.981  12.679 -0.1118  0.3154  0.0513
 9408SOL    HW139857   1.274   2.925  12.676 -1.5283  2.3310 -0.4838
 9408SOL    HW239858   1.361   3.002  12.586  0.8009 -1.9737 -0.3790
 9409SOL     OW39859   3.411   0.702   0.221 -0.1561 -0.5979  0.2126
 9409SOL    HW139860   3.498   0.741   0.234  0.7389 -2.4741 -0.0546
 9409SOL    HW239861   3.426   0.610   0.243  4.6746  0.3100  0.8657
 9410SOL     OW39862   1.043   2.847   8.219 -0.0784  0.7629  0.8128
 9410SOL    HW139863   1.114   2.910   8.207 -1.9340  2.8223  0.5098
 9410SOL    HW239864   0.975   2.891   8.168 -0.8024 -1.3137 -0.0269
 9411SOL     OW39865   2.982   2.223   5.291 -0.2069  0.1535 -0.0169
 9411SOL    HW139866   2.925   2.227   5.368  0.5791  0.4785  0.5507
 9411SOL    HW239867   2.958   2.137   5.256  1.2481 -0.7689  1.2158
 9412SOL     OW39868   3.386   1.291   8.995  0.1251 -0.2315  0.7233
 9412SOL    HW139869   3.386   1.352   8.920  1.8418 -0.5468  0.4749
 9412SOL    HW239870   3.294   1.300   9.019 -0.2307  2.1402 -1.4902
 9413SOL     OW39871   2.482   0.827   5.552 -0.4684  0.0883 -0.2009
 9413SOL    HW139872   2.527   0.778   5.483  0.1908  0.6392 -0.1572
 9413SOL    HW239873   2.494   0.770   5.628  1.5658 -0.3831 -0.8740
 9414SOL     OW39874   3.755   3.645   6.692 -0.3188 -0.8807 -0.2635
 9414SOL    HW139875   3.848   3.668   6.685 -0.9573  1.7847  0.0186
 9414SOL    HW239876   3.741   3.629   6.785  2.0012 -2.1270 -0.1276
 9415SOL     OW39877   0.180   3.057   4.893 -0.3884  0.7897 -0.3477
 9415SOL    HW139878   0.115   3.127   4.883 -1.6329 -0.6413 -2.3866
 9415SOL    HW239879   0.200   3.035   4.802  0.0079 -2.3099  0.4885
 9416SOL     OW39880   4.458   4.348   1.714 -0.4300 -0.2396 -0.1171
 9416SOL    HW139881   4.474   4.373   1.804 -1.3747  1.8208 -0.5150
 9416SOL    HW239882   4.537   4.377   1.668 -1.8564  1.0412 -1.7863
 9417SOL     OW39883   4.273   4.441   5.672 -0.0468 -0.0673 -0.1716
 9417SOL    HW139884   4.213   4.435   5.598  1.0481  0.3020 -1.1022
 9417SOL    HW239885   4.239   4.376   5.733  2.4876  0.2851  1.6121
 9418SOL     OW39886   3.219   0.430   4.669 -0.1054  0.5269 -0.1124
 9418SOL    HW139887   3.223   0.390   4.582 -0.5246  0.4249 -0.0856
 9418SOL    HW239888   3.284   0.499   4.658  0.1428  0.0841 -1.4082
 9419SOL     OW39889   1.170   0.885  14.115  0.7957  0.2636  0.3696
 9419SOL    HW139890   1.113   0.820  14.074  2.7667 -0.8024 -0.6706
 9419SOL    HW239891   1.237   0.891  14.047  0.9704 -3.5258  0.2237
 9420SOL     OW39892   2.331   1.334   5.440  0.0300 -0.4042  0.3188
 9420SOL    HW139893   2.246   1.378   5.439  0.9588  1.4506  1.1436
 9420SOL    HW239894   2.304   1.246   5.465  0.3301 -1.0173 -1.5468
 9421SOL     OW39895   1.672   0.422  11.650  0.2093  0.1630 -0.8706
 9421SOL    HW139896   1.636   0.484  11.586 -0.7046  1.1456  0.5957
 9421SOL    HW239897   1.753   0.397  11.606  0.0601  1.2372 -1.7527
 9422SOL     OW39898   2.552   2.682   3.638  0.5811  0.3601  0.2492
 9422SOL    HW139899   2.616   2.752   3.649 -0.2739  1.3885 -1.2270
 9422SOL    HW239900   2.589   2.630   3.567 -0.2819 -0.1711  0.1892
 9423SOL     OW39901   3.532   4.416   8.105  0.2428  0.3573 -0.2453
 9423SOL    HW139902   3.536   4.508   8.079 -0.6145  0.7191  0.8748
 9423SOL    HW239903   3.611   4.417   8.159 -0.6890  0.8468  1.1187
 9424SOL     OW39904   2.946   2.005   2.279 -0.4756 -0.0070 -0.2999
 9424SOL    HW139905   2.986   2.066   2.217  0.6616  0.9865  1.4428
 9424SOL    HW239906   2.886   2.063   2.326 -1.0379 -0.7015 -0.1538
 9425SOL     OW39907   1.353   4.474  16.083 -0.4128  0.1343 -0.2971
 9425SOL    HW139908   1.417   4.429  16.029 -0.9582 -1.7160  0.6135
 9425SOL    HW239909   1.357   4.561  16.042 -0.6574 -0.9101 -2.5297
 9426SOL     OW39910   1.005   4.426   2.934  0.6218 -0.3459 -0.0742
 9426SOL    HW139911   0.970   4.375   3.007 -0.1966  0.1547 -0.1099
 9426SOL    HW239912   0.962   4.374   2.866 -1.1294 -0.7206  1.3048
 9427SOL     OW39913   1.245   2.644   7.711 -0.0050 -0.5804  0.0130
 9427SOL    HW139914   1.260   2.732   7.675 -1.2052  0.0708  1.1189
 9427SOL    HW239915   1.152   2.631   7.690 -0.7543  1.5273  1.9956
 9428SOL     OW39916   3.462   3.203   2.312 -0.2347 -0.2905 -0.1174
 9428SOL    HW139917   3.548   3.198   2.269 -0.6551  0.4511 -1.0390
 9428SOL    HW239918   3.478   3.272   2.376  1.4504  0.0856 -0.9347
 9429SOL     OW39919   2.608   2.486   6.030  0.2437 -0.2172 -0.0182
 9429SOL    HW139920   2.628   2.578   6.047  0.1526 -0.3551  0.8327
 9429SOL    HW239921   2.584   2.462   6.120  0.2141 -2.8973 -0.7402
 9430SOL     OW39922   0.628   0.907   8.448  0.1687  0.5569  0.0372
 9430SOL    HW139923   0.593   0.888   8.535 -2.3963  0.4047 -1.0272
 9430SOL    HW239924   0.702   0.962   8.475 -0.1466  1.5167 -1.0465
 9431SOL     OW39925   1.483   2.691   9.947 -0.9392  0.2367 -0.2811
 9431SOL    HW139926   1.568   2.682   9.990 -1.4145  1.7271  0.9301
 9431SOL    HW239927   1.506   2.636   9.872 -0.5968 -0.6336  0.4625
 9432SOL     OW39928   1.333   4.502   1.969  0.6036 -0.5036 -0.0510
 9432SOL    HW139929   1.412   4.531   2.015  1.8643 -0.8242 -2.0370
 9432SOL    HW239930   1.332   4.559   1.892  0.3430 -0.3940  0.0312
 9433SOL     OW39931   0.880   0.903   8.688 -0.8090  0.0649  0.5259
 9433SOL    HW139932   0.937   0.946   8.625 -0.8308 -1.2307 -0.3703
 9433SOL    HW239933   0.866   0.970   8.755  1.5902  1.0634  0.0182
 9434SOL     OW39934   4.448   4.153   2.838  0.1004  0.4722  0.0278
 9434SOL    HW139935   4.398   4.085   2.884  2.0036 -1.8123 -1.2901
 9434SOL    HW239936   4.458   4.104   2.757 -1.7548 -0.6351  0.4717
 9435SOL     OW39937   2.292   0.069  12.383 -0.1012 -0.0465  0.5007
 9435SOL    HW139938   2.363   0.005  12.378 -0.3168 -0.0361 -2.5576
 9435SOL    HW239939   2.264   0.069  12.292  1.6660 -1.2382 -0.0370
 9436SOL     OW39940   0.711   0.110   6.592  0.2666  0.5030  0.0582
 9436SOL    HW139941   0.662   0.190   6.611  0.4756  0.2273  1.7783
 9436SOL    HW239942   0.758   0.096   6.674 -0.8399 -3.9199 -0.0454
 9437SOL     OW39943   4.626   4.307   6.779 -0.3477 -0.5159  0.2630
 9437SOL    HW139944   4.669   4.222   6.783  0.4750 -0.0983  0.3159
 9437SOL    HW239945   4.553   4.303   6.718  1.4778 -0.1753 -1.9304
 9438SOL     OW39946   3.770   4.284   9.903 -0.2045 -0.3795  0.0901
 9438SOL    HW139947   3.792   4.235   9.983  4.1624  0.4918 -0.6256
 9438SOL    HW239948   3.839   4.349   9.901 -1.0165  0.5101  1.0122
 9439SOL     OW39949   1.407   4.672   2.747  0.5014  0.2808  0.3181
 9439SOL    HW139950   1.409   4.578   2.732 -1.1924  0.0979  1.3018
 9439SOL    HW239951   1.457   4.678   2.828  1.4463 -1.8179 -0.1291
 9440SOL     OW39952   3.243   1.119   0.815 -0.3184  0.3687  0.0238
 9440SOL    HW139953   3.224   1.092   0.725  0.9178  0.0546 -0.1393
 9440SOL    HW239954   3.290   1.041   0.844  1.2542  2.2328  2.5505
 9441SOL     OW39955   4.387   0.109   2.470  0.1942 -0.1195  1.0660
 9441SOL    HW139956   4.373   0.124   2.377  0.7532 -0.7234  0.8833
 9441SOL    HW239957   4.295   0.120   2.493  0.1505 -0.8161  1.2498
 9442SOL     OW39958   2.445   3.552   3.135  0.0246  0.0357  0.2281
 9442SOL    HW139959   2.488   3.637   3.140  2.9270 -1.5412  2.0845
 9442SOL    HW239960   2.471   3.520   3.221  1.2232 -0.8443 -0.4558
 9443SOL     OW39961   0.033   4.057   7.241  0.3862  0.4625 -0.0633
 9443SOL    HW139962   0.123   4.025   7.252 -0.9848 -2.8585  1.4386
 9443SOL    HW239963   4.732   4.024   7.322  1.2241  0.7209  0.4489
 9444SOL     OW39964   0.455   2.962   7.995  0.1257  0.5753 -0.7803
 9444SOL    HW139965   0.376   2.956   8.049  0.2784 -3.5087 -1.0431
 9444SOL    HW239966   0.426   2.926   7.911  0.5759  0.1027 -0.7290
 9445SOL     OW39967   3.353   2.099  13.850 -0.3352 -0.0624  0.6122
 9445SOL    HW139968   3.353   2.192  13.830 -1.3627 -0.2217 -0.1267
 9445SOL    HW239969   3.421   2.069  13.790 -1.7737  0.3794 -1.2199
 9446SOL     OW39970   1.104   0.166   2.652  0.3039 -0.3129  0.1317
 9446SOL    HW139971   1.095   0.261   2.660  0.3138 -0.1111 -2.2604
 9446SOL    HW239972   1.147   0.141   2.733  0.7379 -0.8107 -0.2469
 9447SOL     OW39973   0.619   0.716   3.699 -0.1075 -0.1795  0.1538
 9447SOL    HW139974   0.668   0.752   3.773  1.0065 -1.2728 -0.0512
 9447SOL    HW239975   0.698   0.684   3.655  0.2595 -0.1559  0.7949
 9448SOL     OW39976   0.334   0.370   3.232 -0.3044 -0.7282 -0.0322
 9448SOL    HW139977   0.425   0.387   3.209 -0.0919 -2.1499 -0.2413
 9448SOL    HW239978   0.290   0.454   3.246 -2.8530 -1.7314 -1.9119
 9449SOL     OW39979   2.551   1.212   4.016 -0.2754 -0.1835 -0.2699
 9449SOL    HW139980   2.494   1.225   3.940 -0.5928  1.2229  0.2105
 9449SOL    HW239981   2.566   1.299   4.052 -1.4606 -0.2019  0.2575
 9450SOL     OW39982   4.198   4.121   8.411  0.0719 -0.2123 -0.4469
 9450SOL    HW139983   4.154   4.153   8.490  2.5887  0.7162  0.5760
 9450SOL    HW239984   4.249   4.195   8.379 -1.8800  1.1600 -0.3517
 9451SOL     OW39985   1.638   0.501   4.609  0.9827 -0.1366 -0.3548
 9451SOL    HW139986   1.590   0.421   4.630  0.4013  0.6411  1.2949
 9451SOL    HW239987   1.696   0.454   4.550  0.8534 -0.9799  0.1832
 9452SOL     OW39988   4.424   4.128   4.643  0.3448 -0.0246  0.1930
 9452SOL    HW139989   4.432   4.161   4.554 -0.1057 -1.3707 -0.3420
 9452SOL    HW239990   4.510   4.157   4.673  0.5760  0.1344 -0.6413
 9453SOL     OW39991   4.327   2.148   8.402 -0.1481 -0.5547 -0.0475
 9453SOL    HW139992   4.232   2.137   8.404  0.0207 -1.6736  1.6266
 9453SOL    HW239993   4.350   2.057   8.419  0.1748 -0.5429 -0.4197
 9454SOL     OW39994   4.375   0.982   3.284  0.3513  0.0689 -0.1309
 9454SOL    HW139995   4.409   0.965   3.196  0.3518  0.3768 -0.1883
 9454SOL    HW239996   4.325   0.900   3.295  3.0006 -1.6943 -1.2528
 9455SOL     OW39997   0.204   0.913  17.401 -0.4980  0.1539 -0.2910
 9455SOL    HW139998   0.246   0.908  17.487  0.4361 -0.0631 -0.7569
 9455SOL    HW239999   0.213   0.825  17.364 -2.0817  0.6057 -1.7469
 9456SOL     OW40000   1.775   0.508   1.456 -0.2287  0.5825  0.0144
 9456SOL    HW140001   1.860   0.464   1.468  0.1654  1.1321 -0.8128
 9456SOL    HW240002   1.770   0.529   1.550  1.5094  0.6710  0.0916
 9457SOL     OW40003   0.988   2.091   9.569  0.0554 -1.0320  0.3196
 9457SOL    HW140004   0.996   2.137   9.486 -0.9965 -0.8711  0.3028
 9457SOL    HW240005   0.948   2.006   9.547 -0.0399 -0.5110 -1.5541
 9458SOL     OW40006   0.317   1.767   5.241 -0.6576  0.5795  0.3135
 9458SOL    HW140007   0.327   1.849   5.290  0.3693  0.7865 -0.2325
 9458SOL    HW240008   0.286   1.808   5.160  2.5515 -2.0306 -2.2076
 9459SOL     OW40009   3.096   1.651   5.850  0.1736  0.0770  0.0846
 9459SOL    HW140010   3.030   1.612   5.793  2.7154 -3.5145 -0.3748
 9459SOL    HW240011   3.161   1.590   5.882  0.2251  0.2961  0.3947
 9460SOL     OW40012   1.503   3.172   4.454 -0.1686 -0.5732  0.3760
 9460SOL    HW140013   1.539   3.219   4.379 -1.7561  0.1281  0.0614
 9460SOL    HW240014   1.409   3.180   4.439  0.1577 -0.8537 -1.8556
 9461SOL     OW40015   2.570   1.174   1.633  0.4544 -0.0609  0.5883
 9461SOL    HW140016   2.503   1.220   1.583  0.6117  0.2986  0.7081
 9461SOL    HW240017   2.590   1.246   1.692 -0.1123  1.5798 -1.2313
 9462SOL     OW40018   3.158   3.084   2.049 -0.2314  1.1089 -0.8742
 9462SOL    HW140019   3.073   3.066   2.009 -0.2265 -1.4426  0.2198
 9462SOL    HW240020   3.184   2.995   2.071 -0.2633  1.4233  0.4282
 9463SOL     OW40021   1.142   0.561   3.107 -0.6848 -0.0562 -0.3858
 9463SOL    HW140022   1.188   0.642   3.083 -1.6662  0.1954 -1.3815
 9463SOL    HW240023   1.103   0.575   3.193  0.8970 -0.9267  0.4689
 9464SOL     OW40024   1.252   3.883   3.398 -0.6274 -0.6337  0.3559
 9464SOL    HW140025   1.310   3.815   3.434 -2.3759 -1.6384  1.3056
 9464SOL    HW240026   1.174   3.837   3.367 -0.4412 -0.7144  0.0145
 9465SOL     OW40027   2.244   2.082   2.462  0.8237 -0.0908 -0.3178
 9465SOL    HW140028   2.287   2.109   2.381 -0.6788 -1.4980 -1.5728
 9465SOL    HW240029   2.315   2.037   2.508  0.7784  1.2388  1.0542
 9466SOL     OW40030   0.688   4.207   5.846 -0.3735  0.1914 -0.0207
 9466SOL    HW140031   0.781   4.227   5.859  0.1112  0.8687 -4.5043
 9466SOL    HW240032   0.691   4.139   5.778 -2.7131  0.9032 -0.8060
 9467SOL     OW40033   2.911   1.954  15.160 -0.3771 -0.4848  0.4832
 9467SOL    HW140034   2.882   2.026  15.105  2.9435 -0.3305 -1.0362
 9467SOL    HW240035   2.828   1.910  15.177  1.0702 -3.1573  0.6953
 9468SOL     OW40036   0.455   0.992   1.572  0.2748 -0.3909  0.2625
 9468SOL    HW140037   0.515   1.041   1.515 -0.4553  0.3500  0.1386
 9468SOL    HW240038   0.523   0.962   1.633  0.5645  0.6447  0.4450
 9469SOL     OW40039   0.606   1.704   4.811  0.3141 -0.1659 -0.3527
 9469SOL    HW140040   0.651   1.623   4.833  1.6827  0.1071 -2.2005
 9469SOL    HW240041   0.590   1.740   4.899  3.0173  1.6922 -0.5957
 9470SOL     OW40042   3.226   2.004   2.544  0.0792  0.1854 -0.2395
 9470SOL    HW140043   3.131   2.020   2.548  0.0819  1.1056 -3.4148
 9470SOL    HW240044   3.255   1.999   2.635 -0.8062  1.9940  0.1670
 9471SOL     OW40045   3.467   2.704  16.236  0.0511 -0.5760  0.0823
 9471SOL    HW140046   3.397   2.675  16.178 -0.8492  1.2242  0.2887
 9471SOL    HW240047   3.412   2.739  16.306 -2.5835 -2.0294 -1.2816
 9472SOL     OW40048   3.953   4.239   4.820  0.2294 -0.1970 -0.0873
 9472SOL    HW140049   3.887   4.263   4.755 -1.2121  0.2820  1.5508
 9472SOL    HW240050   4.030   4.234   4.764 -1.7714  0.3392 -2.9063
 9473SOL     OW40051   3.010   3.712   5.678  0.3841  0.1826 -0.0211
 9473SOL    HW140052   3.098   3.686   5.706  0.8249  0.0255 -1.5197
 9473SOL    HW240053   3.001   3.694   5.584 -0.6778 -2.0842  0.5040
 9474SOL     OW40054   0.108   2.946  14.973 -0.0281 -0.2550  0.0312
 9474SOL    HW140055   0.193   2.990  14.979  0.4935 -1.1772 -0.4536
 9474SOL    HW240056   0.059   3.013  15.019  3.0920 -0.4074  3.5842
 9475SOL     OW40057   4.690   3.114  14.802 -0.4058  0.2769 -0.0113
 9475SOL    HW140058   0.033   3.126  14.851 -1.4374  0.8563  1.5628
 9475SOL    HW240059   4.698   3.191  14.746  0.4617 -1.4682 -2.2655
 9476SOL     OW40060   1.419   2.715  13.764  0.6160 -0.0216 -0.5371
 9476SOL    HW140061   1.488   2.771  13.801  0.4467 -1.0303  1.3167
 9476SOL    HW240062   1.463   2.636  13.796 -0.2356 -0.0322  0.6042
 9477SOL     OW40063   4.707   0.674   5.800 -0.5552 -0.3682 -0.0799
 9477SOL    HW140064   0.001   0.727   5.727 -0.2399 -1.9646 -1.0758
 9477SOL    HW240065   0.040   0.617   5.825 -0.2731 -0.2418 -0.5961
 9478SOL     OW40066   3.598   3.734   7.375  0.4165  0.2295 -0.2560
 9478SOL    HW140067   3.525   3.753   7.434  1.2242 -3.7372  2.0547
 9478SOL    HW240068   3.665   3.701   7.435  0.2791 -0.9007 -0.7295
 9479SOL     OW40069   2.094   3.328   6.335 -0.1658  0.0051  0.4502
 9479SOL    HW140070   2.052   3.388   6.396  2.1142 -0.5193  2.5513
 9479SOL    HW240071   2.052   3.247   6.364 -3.4548  2.3155  2.1244
 9480SOL     OW40072   4.075   2.940   5.182  0.0214  0.2381 -0.3259
 9480SOL    HW140073   4.027   3.023   5.177 -1.1055 -0.4085 -0.3973
 9480SOL    HW240074   4.102   2.936   5.090  1.2107 -0.4559  0.0602
 9481SOL     OW40075   2.391   3.202   3.746  1.0074  0.3219  0.1178
 9481SOL    HW140076   2.458   3.201   3.678  0.4351  1.3767 -0.4565
 9481SOL    HW240077   2.377   3.107   3.752 -2.7170  0.8981  0.6278
 9482SOL     OW40078   0.245   2.040   5.361  0.3929 -0.1110  0.0041
 9482SOL    HW140079   0.210   2.128   5.347  0.1293 -0.0757  0.9158
 9482SOL    HW240080   0.329   2.073   5.393  0.5251 -0.1505 -0.3007
 9483SOL     OW40081   0.379   1.799   2.894  0.4160  0.1648 -0.0830
 9483SOL    HW140082   0.348   1.717   2.855  0.6987 -0.5311  1.1615
 9483SOL    HW240083   0.471   1.775   2.888  0.1031 -0.8245 -0.8396
 9484SOL     OW40084   2.230   4.366   3.728  0.0864 -0.0843  0.2004
 9484SOL    HW140085   2.171   4.291   3.732 -0.0652  0.0534  0.5873
 9484SOL    HW240086   2.313   4.326   3.756  0.9603 -0.1496 -2.4573
 9485SOL     OW40087   0.102   2.698   5.390  0.2933  0.1862 -0.3225
 9485SOL    HW140088   0.140   2.763   5.449  0.1877  0.8453 -0.9682
 9485SOL    HW240089   0.131   2.735   5.307 -1.4755  1.9874 -0.1399
 9486SOL     OW40090   4.536   0.729  16.861 -0.0220 -0.1168  0.7111
 9486SOL    HW140091   4.553   0.757  16.951 -0.3601  2.0717  0.0868
 9486SOL    HW240092   4.551   0.635  16.852  0.6092  0.1240 -0.6569
 9487SOL     OW40093   3.850   3.372   5.476  0.0432  0.2207  0.0872
 9487SOL    HW140094   3.852   3.284   5.437  2.6356 -0.7126  2.3201
 9487SOL    HW240095   3.830   3.342   5.565 -1.6604  0.8851 -0.0705
 9488SOL     OW40096   3.666   2.861   0.066  0.0487 -0.0875  0.7991
 9488SOL    HW140097   3.741   2.906   0.104  2.2744 -1.9415 -1.3423
 9488SOL    HW240098   3.629   2.828   0.147 -1.7700  2.0121  0.8064
 9489SOL     OW40099   2.169   2.288   1.954  0.4597 -0.0800  0.0826
 9489SOL    HW140100   2.118   2.216   1.918 -0.9606  2.2546 -2.4895
 9489SOL    HW240101   2.255   2.244   1.954  0.6339  0.2677 -0.1967
 9490SOL     OW40102   2.432   2.664   0.352 -0.0475  0.3404  0.2415
 9490SOL    HW140103   2.509   2.615   0.321 -0.7939 -0.5503 -0.2117
 9490SOL    HW240104   2.440   2.640   0.444  3.5144  1.4108  0.2200
 9491SOL     OW40105   3.004   1.029  11.914  0.3414  0.2382 -0.2438
 9491SOL    HW140106   3.054   1.093  11.863  0.5603  2.0185  2.2357
 9491SOL    HW240107   2.914   1.045  11.883  0.9883  2.1324 -1.1229
 9492SOL     OW40108   1.037   2.269   7.827 -0.5071  0.1686  0.0471
 9492SOL    HW140109   0.952   2.230   7.850 -0.9119  1.6677  1.0778
 9492SOL    HW240110   1.041   2.351   7.876 -0.0929  0.9018 -1.2273
 9493SOL     OW40111   2.659   4.477   4.673 -0.3832 -0.2896  0.0330
 9493SOL    HW140112   2.581   4.422   4.667 -0.3981 -0.1154 -1.4724
 9493SOL    HW240113   2.642   4.530   4.595  1.9082 -0.7994 -0.8227
 9494SOL     OW40114   4.167   2.219   1.865 -0.9123 -0.4739 -0.2570
 9494SOL    HW140115   4.188   2.290   1.926  1.3792 -2.7914  1.6282
 9494SOL    HW240116   4.165   2.258   1.777 -4.0852  1.4270  0.6728
 9495SOL     OW40117   4.688   4.525   8.588 -0.2608 -0.1986 -0.0151
 9495SOL    HW140118   4.644   4.575   8.520  0.8052  0.2303 -0.4028
 9495SOL    HW240119   4.677   4.580   8.665  1.0556  0.4018 -0.2471
 9496SOL     OW40120   2.074   1.388   3.754  0.1408  0.4790 -0.0434
 9496SOL    HW140121   2.057   1.409   3.846 -0.8619 -0.9487  0.1035
 9496SOL    HW240122   2.104   1.470   3.714  0.3683 -0.2244 -1.3184
 9497SOL     OW40123   1.107   2.577   3.226  0.3042  0.4678  0.4733
 9497SOL    HW140124   1.194   2.595   3.190  0.5790  0.6800  1.2557
 9497SOL    HW240125   1.107   2.640   3.298 -1.4442  0.6435  0.2960
 9498SOL     OW40126   4.583   2.971   4.105  0.0770 -0.0145  0.0143
 9498SOL    HW140127   4.514   2.988   4.040  1.1217 -0.6277 -1.2674
 9498SOL    HW240128   4.660   3.016   4.071  1.0752 -0.7055  1.3688
 9499SOL     OW40129   1.144   3.247  13.593 -0.0473 -0.2292 -0.2265
 9499SOL    HW140130   1.153   3.152  13.587 -0.7125 -0.2432 -0.8943
 9499SOL    HW240131   1.104   3.257  13.680 -2.4037  0.4249 -1.4101
 9500SOL     OW40132   0.550   1.275   1.264 -0.0127 -0.5620 -0.0715
 9500SOL    HW140133   0.581   1.222   1.338 -1.6103  0.9326  1.6526
 9500SOL    HW240134   0.464   1.291   1.303  0.0777 -0.9857  0.3057
 9501SOL     OW40135   0.255   2.487   2.225  0.0779  0.2109  0.0867
 9501SOL    HW140136   0.172   2.509   2.269  0.4373 -0.9297  1.3308
 9501SOL    HW240137   0.221   2.436   2.152 -2.6037  0.1501  1.3778
 9502SOL     OW40138   4.162   3.383   8.775  0.2373  0.2831 -0.5250
 9502SOL    HW140139   4.200   3.458   8.821  1.8399 -1.5797  1.1883
 9502SOL    HW240140   4.069   3.394   8.795  0.0888 -0.7668 -0.6673
 9503SOL     OW40141   4.242   1.072   5.255 -0.0405  0.1733  0.0331
 9503SOL    HW140142   4.312   1.079   5.190 -2.4983  0.2231 -2.6099
 9503SOL    HW240143   4.223   1.161   5.282 -0.7856  1.3293 -4.3468
 9504SOL     OW40144   4.472   4.462   1.961 -0.0643 -0.1386  0.2446
 9504SOL    HW140145   4.382   4.484   1.939  0.5616  0.8800 -1.3191
 9504SOL    HW240146   4.499   4.539   2.011 -3.4880 -0.4902  2.6567
 9505SOL     OW40147   2.620   3.931   8.416  0.5325  0.1458 -0.1902
 9505SOL    HW140148   2.541   3.956   8.369  1.0652  1.6490 -0.2771
 9505SOL    HW240149   2.616   3.997   8.485  0.8783  0.5551 -0.5661
 9506SOL     OW40150   3.693   4.543   7.345  0.3318  0.2664  0.7521
 9506SOL    HW140151   3.782   4.508   7.342 -0.6966 -2.3500  0.4817
 9506SOL    HW240152   3.640   4.473   7.306  0.7789  1.9674 -2.9358
 9507SOL     OW40153   0.963   2.465   9.853 -0.2336 -0.3154  0.3270
 9507SOL    HW140154   1.052   2.484   9.880 -1.2277  0.4028  3.0208
 9507SOL    HW240155   0.975   2.437   9.762  0.1553 -0.8258  0.5403
 9508SOL     OW40156   2.358   2.633   2.237 -0.6322 -0.6646 -0.3367
 9508SOL    HW140157   2.328   2.683   2.161  0.6283 -0.5608 -0.7529
 9508SOL    HW240158   2.281   2.646   2.293 -0.0222 -2.1408  0.8401
 9509SOL     OW40159   0.338   4.332  10.220  0.5521 -0.3847  0.4392
 9509SOL    HW140160   0.333   4.291  10.134 -0.9945  2.6592 -0.9255
 9509SOL    HW240161   0.313   4.260  10.278  0.8708 -0.5902  0.3226
 9510SOL     OW40162   3.729   4.235   4.968 -0.2005  0.1751 -0.0058
 9510SOL    HW140163   3.691   4.218   4.882 -1.7179 -1.2402  0.9354
 9510SOL    HW240164   3.819   4.206   4.954 -0.7196  0.5099 -3.9509
 9511SOL     OW40165   0.037   0.705   2.576  0.0204  0.0637  0.2225
 9511SOL    HW140166   0.083   0.675   2.655 -0.2786 -0.9100  0.0237
 9511SOL    HW240167   0.074   0.793   2.572  0.7843 -0.2471  0.5710
 9512SOL     OW40168   1.810   1.789   8.875 -0.2827  0.0311  0.1643
 9512SOL    HW140169   1.727   1.796   8.922  1.2805 -1.4240  3.1731
 9512SOL    HW240170   1.796   1.860   8.813  2.3565 -0.5675 -1.1013
 9513SOL     OW40171   4.045   2.875   3.270 -0.0685  0.4028 -0.1327
 9513SOL    HW140172   4.124   2.875   3.215  0.1990  0.6429  0.2487
 9513SOL    HW240173   4.028   2.969   3.260  2.2432  0.6780 -1.4441
 9514SOL     OW40174   0.880   0.391  13.197 -1.0660 -0.3009 -0.9624
 9514SOL    HW140175   0.921   0.305  13.197 -1.0506 -0.2882 -0.0784
 9514SOL    HW240176   0.962   0.438  13.209  0.2978 -2.7404 -0.8098
 9515SOL     OW40177   0.486   4.193   3.737  0.0730  0.2252 -0.2363
 9515SOL    HW140178   0.407   4.232   3.774  0.4991  0.5649  0.3204
 9515SOL    HW240179   0.462   4.173   3.646 -1.1271 -0.2040  0.1824
 9516SOL     OW40180   2.922   1.344   1.543  0.2375  0.3450 -0.1708
 9516SOL    HW140181   2.948   1.391   1.465  0.1281  3.4081  1.6304
 9516SOL    HW240182   2.996   1.346   1.604 -1.0167 -1.9849  1.4554
 9517SOL     OW40183   1.036   3.340  15.901 -0.5917  0.7730 -0.3490
 9517SOL    HW140184   0.960   3.302  15.945  1.8814 -4.2996 -0.5011
 9517SOL    HW240185   1.039   3.278  15.829  0.8242  1.3640 -0.7962
 9518SOL     OW40186   0.844   3.745  10.245 -0.4195  0.0079  0.5148
 9518SOL    HW140187   0.916   3.808  10.236 -0.9299  0.2260 -1.9134
 9518SOL    HW240188   0.786   3.804  10.293  0.6658  0.3494  1.4277
 9519SOL     OW40189   4.401   3.365   1.305 -0.2900 -0.0532  0.0558
 9519SOL    HW140190   4.476   3.367   1.245 -0.3190 -1.6042 -0.0446
 9519SOL    HW240191   4.368   3.441   1.258  0.8035  1.8084  2.3395
 9520SOL     OW40192   4.471   4.088   6.232  0.1071 -0.1470  0.1344
 9520SOL    HW140193   4.553   4.104   6.186  0.4449 -0.2267  0.7060
 9520SOL    HW240194   4.483   4.140   6.311  1.1236  0.4500 -0.4188
 9521SOL     OW40195   2.954   2.282   7.922  0.0990 -0.2688 -0.4642
 9521SOL    HW140196   2.988   2.193   7.923  3.2721  0.9430  1.4391
 9521SOL    HW240197   2.961   2.300   7.829 -0.0133  0.6531 -0.2928
 9522SOL     OW40198   2.910   4.140  15.764  0.0879 -0.0645  0.0439
 9522SOL    HW140199   2.982   4.077  15.752  0.4647  0.3673  0.0172
 9522SOL    HW240200   2.955   4.215  15.802  2.8631 -3.0051  2.6574
 9523SOL     OW40201   4.338   0.629   5.279  0.7073 -0.6197 -0.0152
 9523SOL    HW140202   4.386   0.562   5.328  0.4056 -1.6843 -1.1796
 9523SOL    HW240203   4.288   0.668   5.351 -0.1469 -0.6818 -0.5709
 9524SOL     OW40204   0.573   2.865   8.684  1.1380  0.0259 -0.4458
 9524SOL    HW140205   0.567   2.828   8.596  0.3295  0.0998 -0.4284
 9524SOL    HW240206   0.610   2.950   8.661  1.0438  0.2289  0.1715
 9525SOL     OW40207   0.367   4.318  14.117  0.0440 -0.2058 -0.8258
 9525SOL    HW140208   0.310   4.274  14.054 -0.5608 -0.3434 -0.1827
 9525SOL    HW240209   0.370   4.410  14.093 -0.1646  0.0487  0.1075
 9526SOL     OW40210   0.337   1.980  16.698 -0.6740  0.2766 -0.0061
 9526SOL    HW140211   0.414   2.031  16.673 -1.2796  0.7357 -0.8910
 9526SOL    HW240212   0.328   1.922  16.623  0.6388 -0.0427  0.0800
 9527SOL     OW40213   2.789   1.813   4.936  0.7854  0.0643 -0.3821
 9527SOL    HW140214   2.871   1.824   4.888  1.3302 -1.1229  0.2703
 9527SOL    HW240215   2.814   1.822   5.027 -0.3909 -1.0954  0.0681
 9528SOL     OW40216   0.797   4.085  13.958  0.3580  0.1959  0.0281
 9528SOL    HW140217   0.785   4.136  14.039  1.8961 -0.4346  0.6520
 9528SOL    HW240218   0.768   4.000  13.990 -0.9335  1.4699  2.2620
 9529SOL     OW40219   2.710   0.839   2.191  0.6909  0.3403  0.0784
 9529SOL    HW140220   2.729   0.749   2.166 -0.3689  0.0599  0.2967
 9529SOL    HW240221   2.797   0.877   2.185  0.3854  0.5626 -3.3813
 9530SOL     OW40222   0.938   1.395  17.345 -0.0824 -0.4501  0.0871
 9530SOL    HW140223   0.886   1.371  17.268  1.4721 -0.5712 -0.9119
 9530SOL    HW240224   0.868   1.398  17.410  0.6044 -0.5473  0.8228
 9531SOL     OW40225   1.984   0.346   1.449  0.2090 -0.1076 -0.7989
 9531SOL    HW140226   2.010   0.272   1.504  0.3601  1.3507  1.0844
 9531SOL    HW240227   2.071   0.358   1.409 -0.1969 -1.2285 -2.0007
 9532SOL     OW40228   3.765   0.042  11.220 -0.4316 -0.4659 -0.1597
 9532SOL    HW140229   3.765   0.128  11.261  2.4237 -0.8056  0.5621
 9532SOL    HW240230   3.794   4.733  11.298  0.5304 -0.2690 -0.3921
 9533SOL     OW40231   3.146   4.693  11.159  0.3060  0.3627 -0.4885
 9533SOL    HW140232   3.188   4.621  11.112  1.2608  1.4200 -1.2563
 9533SOL    HW240233   3.088   4.728  11.091  0.2638  1.2973  0.0218
 9534SOL     OW40234   0.684   0.943   1.735 -0.1330 -0.5558  0.2501
 9534SOL    HW140235   0.677   0.989   1.819 -1.2666 -0.1366 -0.0712
 9534SOL    HW240236   0.776   0.916   1.733 -0.0007 -0.0678 -0.1989
 9535SOL     OW40237   0.695   1.090   9.828 -0.8459 -0.6811  0.1002
 9535SOL    HW140238   0.631   1.160   9.817 -1.3382 -1.3930 -1.5901
 9535SOL    HW240239   0.742   1.128   9.902 -2.9919 -2.3059  2.2866
 9536SOL     OW40240   3.989   4.540   2.452 -0.0602  0.2745 -0.0157
 9536SOL    HW140241   4.049   4.525   2.526 -0.1434  2.8330  0.5723
 9536SOL    HW240242   3.912   4.586   2.485 -0.5768  0.4590 -1.5144
 9537SOL     OW40243   3.370   0.871   7.925 -0.1526  0.2826 -0.8351
 9537SOL    HW140244   3.404   0.940   7.981  0.9005 -0.4104 -0.6235
 9537SOL    HW240245   3.450   0.828   7.896  0.9988  2.0838 -0.3530
 9538SOL     OW40246   0.191   0.119  11.736  0.5257 -0.3357  0.1566
 9538SOL    HW140247   0.251   0.188  11.763 -0.1315 -0.0806  0.9364
 9538SOL    HW240248   0.213   0.053  11.801 -1.6354 -2.7872 -1.5896
 9539SOL     OW40249   4.470   3.034   2.916  0.5506  0.4976 -0.3403
 9539SOL    HW140250   4.498   3.001   3.001  1.3471 -1.1999 -1.2636
 9539SOL    HW240251   4.542   3.095   2.895  0.0525  0.5238 -2.0390
 9540SOL     OW40252   1.141   2.309   3.819  0.1996 -0.1130 -0.2706
 9540SOL    HW140253   1.076   2.238   3.821 -0.4858  0.5001 -0.8931
 9540SOL    HW240254   1.215   2.251   3.800  0.4676 -0.3108  1.3648
 9541SOL     OW40255   4.094   4.207   2.312  0.8217 -0.2539  0.0891
 9541SOL    HW140256   4.106   4.113   2.325 -0.9001 -0.5389 -0.4517
 9541SOL    HW240257   4.010   4.223   2.356  0.4085  0.6590 -1.0387
 9542SOL     OW40258   1.475   2.370  12.255 -0.0871  0.1873  0.4777
 9542SOL    HW140259   1.552   2.359  12.310  1.0032  2.4107 -0.6374
 9542SOL    HW240260   1.475   2.464  12.236  0.1664  0.3771  1.4319
 9543SOL     OW40261   3.477   3.056  13.545 -0.1023  0.3775  0.4160
 9543SOL    HW140262   3.528   3.072  13.466  1.2023 -2.5784  0.6515
 9543SOL    HW240263   3.403   3.114  13.527 -1.5018 -1.5178  0.0039
 9544SOL     OW40264   3.227   4.060   7.416 -0.3174  0.2900 -0.2267
 9544SOL    HW140265   3.162   4.124   7.445  2.1067  2.3563  0.6927
 9544SOL    HW240266   3.303   4.084   7.468 -0.6251  1.7611 -0.4563
 9545SOL     OW40267   4.556   3.093   8.041 -0.7838  0.0812  0.0817
 9545SOL    HW140268   4.540   3.016   7.987 -0.7331 -0.2177  0.5021
 9545SOL    HW240269   4.467   3.102   8.075  0.0198  1.9457  1.7357
 9546SOL     OW40270   1.753   0.792   1.450 -0.0138  0.3410  1.0393
 9546SOL    HW140271   1.674   0.821   1.495  0.6564  2.3768  0.9022
 9546SOL    HW240272   1.739   0.697   1.446  0.5608  0.2383  1.3791
 9547SOL     OW40273   0.331   2.521   5.034  0.5505 -0.4900 -0.2655
 9547SOL    HW140274   0.387   2.457   4.990 -0.7529 -0.8545 -1.3759
 9547SOL    HW240275   0.395   2.579   5.077 -0.9345 -1.4104  3.1558
 9548SOL     OW40276   3.283   2.828  10.762  0.1452 -0.1710  0.1758
 9548SOL    HW140277   3.332   2.767  10.817 -1.2601  0.0804  1.7051
 9548SOL    HW240278   3.195   2.794  10.774  0.6968 -0.5625  3.0924
 9549SOL     OW40279   1.788   1.565  10.069 -0.0885  0.7223 -0.0224
 9549SOL    HW140280   1.881   1.546  10.071 -0.2432  0.2408  2.0315
 9549SOL    HW240281   1.767   1.543  10.160 -1.7702 -1.9592 -1.0512
 9550SOL     OW40282   2.971   4.209   5.008  0.2291 -0.2004  0.4818
 9550SOL    HW140283   3.045   4.270   5.001 -0.2570  0.0409 -2.7136
 9550SOL    HW240284   2.895   4.266   5.001  0.0996 -0.5605 -1.0763
 9551SOL     OW40285   4.674   0.028   0.684 -0.6575  0.4477 -0.6919
 9551SOL    HW140286   4.620   0.080   0.625 -0.7056  0.4092 -0.6817
 9551SOL    HW240287   4.736   0.012   0.613 -0.6338 -2.2443 -0.0533
 9552SOL     OW40288   1.656   3.408   4.545 -0.5873  0.2174  0.3357
 9552SOL    HW140289   1.599   3.355   4.489  2.1782  0.2274 -2.4957
 9552SOL    HW240290   1.689   3.341   4.605  0.8658  0.5428 -0.0976
 9553SOL     OW40291   1.838   3.714   4.742  0.1436  0.0571 -0.6661
 9553SOL    HW140292   1.854   3.728   4.648  0.0013  0.2962 -0.6544
 9553SOL    HW240293   1.746   3.689   4.745  0.2551 -0.2146  0.4644
 9554SOL     OW40294   1.375   4.009   7.138  0.5042  0.0452  0.5904
 9554SOL    HW140295   1.430   4.028   7.061  0.8974  1.2999  1.1831
 9554SOL    HW240296   1.309   3.951   7.100 -0.4831  1.2993  0.3906
 9555SOL     OW40297   4.669   1.677   3.697  0.0310 -0.4696 -0.0403
 9555SOL    HW140298   4.703   1.597   3.658  1.7346  0.2820 -0.1130
 9555SOL    HW240299   4.682   1.741   3.626  1.4788 -0.4605  0.2206
 9556SOL     OW40300   0.864   4.238   1.054 -0.3031  0.1296  0.4944
 9556SOL    HW140301   0.794   4.173   1.055  1.7957 -2.1904 -0.9343
 9556SOL    HW240302   0.875   4.242   0.959  1.7871 -1.5730  0.6551
 9557SOL     OW40303   0.221   1.258   4.731  1.0124 -0.6331  0.7433
 9557SOL    HW140304   0.315   1.264   4.750  0.9848 -0.9732  0.9782
 9557SOL    HW240305   0.188   1.203   4.802 -2.8496  0.0786 -0.5177
 9558SOL     OW40306   2.247   0.154   8.319 -0.2974 -0.3012 -0.0041
 9558SOL    HW140307   2.168   0.101   8.308  0.0293 -0.9309  0.6916
 9558SOL    HW240308   2.312   0.093   8.354  0.0457  0.9978  1.6042
 9559SOL     OW40309   3.435   3.224  14.527 -0.0164  0.0772  0.4476
 9559SOL    HW140310   3.376   3.229  14.452  0.4754 -0.9674 -0.0012
 9559SOL    HW240311   3.493   3.152  14.504  0.0891  0.5113 -0.6605
 9560SOL     OW40312   1.803   4.583   5.025  0.7245  0.2320  0.3917
 9560SOL    HW140313   1.841   4.566   4.938  0.1234 -0.2770  0.2185
 9560SOL    HW240314   1.862   4.534   5.081  0.3039  1.2447  1.6967
 9561SOL     OW40315   2.202   3.531   2.300 -0.5448 -0.1720  0.4511
 9561SOL    HW140316   2.180   3.614   2.257  1.7043 -1.0047 -2.3063
 9561SOL    HW240317   2.267   3.564   2.362 -0.5138  0.9043 -0.1435
 9562SOL     OW40318   0.293   1.974   5.019  0.3429 -0.6027 -0.1850
 9562SOL    HW140319   0.374   2.015   5.051  0.5491 -0.1021 -1.3555
 9562SOL    HW240320   0.232   2.046   5.039 -1.1950 -2.6616  2.5849
 9563SOL     OW40321   1.218   0.477   3.706 -0.2150  0.0827 -0.7384
 9563SOL    HW140322   1.237   0.489   3.799 -3.7165  0.4833 -0.0767
 9563SOL    HW240323   1.255   0.561   3.679  1.8833 -0.6712 -0.1868
 9564SOL     OW40324   2.675   2.215   4.521  0.4955 -0.7987 -0.2513
 9564SOL    HW140325   2.609   2.161   4.478  0.0050 -0.6993  0.3951
 9564SOL    HW240326   2.666   2.189   4.612 -0.7361  1.7173  0.3370
 9565SOL     OW40327   0.310   4.440   4.154  0.1341  0.5255  0.1352
 9565SOL    HW140328   0.318   4.422   4.060  0.8696  1.6482 -0.0196
 9565SOL    HW240329   0.322   4.351   4.186 -0.3901  0.3958 -0.0179
 9566SOL     OW40330   3.793   1.334  16.121  0.6951  0.0383  0.3637
 9566SOL    HW140331   3.796   1.247  16.081 -2.8972  1.0313 -2.1007
 9566SOL    HW240332   3.810   1.312  16.213  0.7657 -1.1916  0.0546
 9567SOL     OW40333   4.625   0.396   8.428 -0.2327 -0.5098 -0.3933
 9567SOL    HW140334   4.584   0.446   8.358  1.1597  1.2064  0.0221
 9567SOL    HW240335   4.568   0.405   8.504  0.5560  1.9507 -0.1078
 9568SOL     OW40336   4.010   0.056   0.611 -0.1054  0.2195  0.1720
 9568SOL    HW140337   4.055   0.103   0.681  0.5205 -0.9343  0.5460
 9568SOL    HW240338   4.081   4.730   0.606  0.6285  1.0801 -0.2478
 9569SOL     OW40339   2.859   2.461  17.608 -0.2960 -0.2120 -0.6989
 9569SOL    HW140340   2.809   2.491  17.532  0.1916  0.6647 -0.6735
 9569SOL    HW240341   2.831   2.513  17.683  1.9584  1.5681 -1.0897
 9570SOL     OW40342   2.235   4.683   8.853  0.3805  0.3807  0.2454
 9570SOL    HW140343   2.198   0.030   8.829  0.6324  0.9563  1.9585
 9570SOL    HW240344   2.235   4.633   8.771 -0.9004  2.4037 -0.9885
 9571SOL     OW40345   0.307   0.358  16.891 -0.1901 -0.0824 -0.0176
 9571SOL    HW140346   0.308   0.378  16.797  1.9153  1.1353  0.2608
 9571SOL    HW240347   0.218   0.362  16.926 -0.7855 -0.6887 -1.4369
   4.73829   4.73829  17.75119
