Membrane in water
40347
    1TMC1    C1    1   1.941   2.924  10.974 -0.4046  0.2180 -0.6481
    1TMC1    C2    2   1.874   2.869  10.865 -0.3777 -0.2279  0.4036
    1TMC1    C3    3   1.950   2.845  10.755 -0.5314 -0.0214  0.2066
    1TMC1    C4    4   2.079   2.930  10.970 -1.5224  0.2147 -0.1808
    1TMC1    C5    5   2.150   2.890  10.860 -0.2580  1.1162 -0.0056
    1TMC1    C6    6   2.090   2.851  10.747 -0.1417  0.0443 -0.4307
    1TMC1     C    7   1.896   2.866  11.103  0.3480  0.1341 -0.5421
    1TMC1     O    8   1.973   2.835  11.192  0.0022  0.4347  0.2019
    1TMC1     H    9   1.766   2.876  10.864 -0.3238  0.3623 -1.3011
    1TMC1    H1   10   2.131   2.965  11.060 -1.6038 -0.5831  0.1733
    1TMC1    H2   11   2.153   2.818  10.666 -0.0226 -2.0574  0.5167
    1TMC1    C7   12   2.285   2.920  10.848  0.4459  0.3249 -0.2199
    1TMC1    C8   13   1.874   2.823  10.635  0.4169 -0.2301 -0.2624
    1TMC1    O1   14   2.360   2.932  10.941 -0.1202  0.4693  0.1711
    1TMC1    O2   15   1.757   2.792  10.634 -0.0995 -0.4636 -0.2510
    1TMC1    O3   16   2.289   3.008  10.745 -0.0975 -0.2148 -0.1777
    1TMC1    H3   17   2.213   3.007  10.684 -1.0320  2.2338  0.9572
    1TMC1    O5   18   1.950   2.841  10.529 -0.4577  0.0430 -0.6058
    1TMC1    H5   19   2.023   2.903  10.553  0.2800 -1.7158  1.6818
    2MPD2     C   20   1.518   2.721  11.436 -0.5965 -0.2186 -0.2082
    2MPD2    C1   21   1.650   2.671  11.414 -0.1980 -1.3075 -0.1143
    2MPD2    C2   22   1.725   2.717  11.306 -0.4066  0.0063  0.8108
    2MPD2    C3   23   1.681   2.817  11.217  0.3130 -0.5371 -0.9306
    2MPD2    C4   24   1.559   2.864  11.246 -0.2813 -0.5637 -1.0115
    2MPD2    C5   25   1.480   2.814  11.349 -0.1226  0.5685 -0.1544
    2MPD2     H   26   1.826   2.678  11.298 -0.5821  0.3272 -3.3506
    2MPD2    H1   27   1.514   2.946  11.191  0.1482 -0.0629 -0.6120
    2MPD2    H2   28   1.449   2.695  11.515 -1.1794 -0.0469 -0.6588
    2MPD2    H3   29   1.386   2.864  11.370 -0.5297 -1.3467  2.6253
    2MPD2     N   30   1.759   2.870  11.110 -0.1107 -0.1877  0.0891
    2MPD2    H5   31   1.712   2.929  11.043  0.3190  1.1067  0.9367
    2MPD2    N1   32   1.704   2.575  11.511  0.4356 -0.0707  0.0742
    2MPD2    H7   33   1.803   2.560  11.522  0.3325 -0.1839  0.8526
    3TMC1    C1   34   1.037   3.804  10.919 -0.2048 -0.1483 -0.2046
    3TMC1    C2   35   0.959   3.698  10.877  0.1645 -0.5562  1.4157
    3TMC1    C3   36   0.981   3.637  10.756 -0.1775 -0.6332  0.0681
    3TMC1    C4   37   1.141   3.850  10.842  0.8406  0.4228  0.0037
    3TMC1    C5   38   1.172   3.779  10.732  0.2228  0.3821  0.0179
    3TMC1    C6   39   1.089   3.675  10.685  0.7675  0.3569  0.9293
    3TMC1     C   40   0.972   3.904  11.006 -0.1387 -0.0140  0.3536
    3TMC1     O   41   1.003   4.022  10.984  0.2657 -0.1165  0.6159
    3TMC1     H   42   0.878   3.657  10.936 -1.7916  0.8010 -0.3638
    3TMC1    H1   43   1.203   3.929  10.882 -0.9160  0.8950  1.8258
    3TMC1    H2   44   1.128   3.610  10.607 -0.5403  1.6653 -0.8339
    3TMC1    C7   45   1.259   3.835  10.633 -0.7118 -0.6920  0.0515
    3TMC1    C8   46   0.908   3.528  10.707  0.1654  0.1780  0.3468
    3TMC1    O1   47   1.295   3.779  10.528  0.7710  0.5214  0.6317
    3TMC1    O2   48   0.943   3.465  10.609 -0.4707  0.1072 -0.1043
    3TMC1    O3   49   1.211   3.964  10.634  0.1894 -0.4067 -0.3563
    3TMC1    H3   50   1.163   3.998  10.713 -1.6399 -0.2673 -1.5467
    3TMC1    O5   51   0.779   3.540  10.745 -0.4748  0.4071 -0.1365
    3TMC1    H5   52   0.740   3.617  10.792 -0.1948 -0.4151  1.4107
    4MPD2     C   53   0.632   4.050  11.360 -0.5653  0.2653 -0.2419
    4MPD2    C1   54   0.674   4.111  11.249  0.4958  0.2846  0.4472
    4MPD2    C2   55   0.771   4.052  11.170  0.0651 -0.0362  0.0487
    4MPD2    C3   56   0.796   3.914  11.177  0.6936 -0.2840 -0.7420
    4MPD2    C4   57   0.725   3.846  11.282  0.5322 -0.2595 -0.0580
    4MPD2    C5   58   0.650   3.916  11.373 -0.4553  0.7697  0.1650
    4MPD2     H   59   0.812   4.109  11.088 -0.6759  1.4940  0.7496
    4MPD2    H1   60   0.724   3.739  11.302 -1.4137 -0.5139 -1.5312
    4MPD2    H2   61   0.559   4.096  11.425  0.9332 -1.1326  2.3878
    4MPD2    H3   62   0.596   3.863  11.452  0.7633  0.1582  0.5835
    4MPD2     N   63   0.895   3.853  11.103 -0.3130 -0.3572  0.3502
    4MPD2    H5   64   0.914   3.756  11.127  1.3922  0.3485  1.7685
    4MPD2    N1   65   0.661   4.248  11.226 -0.2845  0.4818  0.5105
    4MPD2    H7   66   0.718   4.287  11.151 -0.9345 -0.6189 -0.5568
    5TCq1    O1   67   1.161   1.252  11.859 -0.0049 -0.2781 -0.0981
    5TCq1    C1   68   1.104   1.164  11.782  0.0113 -0.0201  0.6664
    5TCq1    O2   69   1.009   1.190  11.707 -0.1274 -0.1994  0.0158
    5TCq1    C2   70   1.212   1.068  11.755  0.0275  0.6306 -0.0662
    5TCq1    C3   71   1.292   1.016  11.852 -0.1202  0.6408  0.3027
    5TCq1    C4   72   1.386   0.920  11.821  0.1688 -0.8762  0.1783
    5TCq1    C5   73   1.391   0.867  11.700  0.7350  0.0693 -0.0326
    5TCq1    C6   74   1.296   0.918  11.604 -0.1940 -0.4586  0.5576
    5TCq1    C7   75   1.210   1.015  11.628  0.5268  0.0172 -0.3292
    5TCq1    C8   76   1.304   0.854  11.475  0.1017 -0.1280  0.6824
    5TCq1    O4   77   1.399   0.785  11.443 -0.0324 -0.5508 -0.1726
    5TCq1    C9   78   1.453   0.854  11.930 -0.0111  0.7220  0.3071
    5TCq1    O5   79   1.426   0.883  12.051  0.3097  0.0641 -0.2060
    5TCq1    O6   80   1.536   0.760  11.899  0.6239  0.0897  0.2722
    5TCq1    H1   81   1.235   1.220  11.914  1.4288  3.0957 -0.0882
    5TCq1    H2   82   1.290   1.054  11.954  0.9098 -1.6143  1.1682
    5TCq1    H3   83   1.459   0.788  11.670 -0.3503 -0.2048 -1.8062
    5TCq1    H4   84   1.155   1.072  11.554  0.1925  1.1860  0.8151
    6MPD2     C   85   1.008   0.850  11.256  0.0447  0.6502 -0.2300
    6MPD2    C1   86   1.134   0.810  11.294  0.4394  0.1128  0.1779
    6MPD2    C2   87   1.207   0.723  11.207  0.2732 -0.5047  0.4131
    6MPD2    C3   88   1.146   0.670  11.101 -0.1788  0.2480 -0.2852
    6MPD2    C4   89   1.016   0.704  11.074 -0.4495 -0.0972 -0.3088
    6MPD2    C5   90   0.952   0.793  11.146 -0.6940  0.2236  0.4343
    6MPD2     H   91   1.310   0.696  11.227  0.0487 -2.1876 -0.7136
    6MPD2    H1   92   0.967   0.658  10.988 -0.9464  1.4030 -0.8211
    6MPD2    H2   93   0.948   0.925  11.306  0.9897  0.4788  1.1441
    6MPD2    H3   94   0.849   0.820  11.122 -1.0551 -2.1568 -0.7332
    6MPD2     N   95   1.218   0.573  11.018  0.1497 -0.3017 -0.1409
    6MPD2    H5   96   1.313   0.555  11.046 -0.5004 -0.1462  2.1476
    6MPD2    N1   97   1.183   0.872  11.414 -0.2364  0.2902  0.4152
    6MPD2    H7   98   1.115   0.932  11.461  1.2448  2.0407  0.3097
    7TCq1    O1   99   0.396   0.176  12.633 -0.2806 -0.7560  0.2817
    7TCq1    C1  100   0.399   0.112  12.744  0.0068  0.6515 -0.1707
    7TCq1    O2  101   0.491   0.052  12.797 -0.1164 -0.1951 -0.1620
    7TCq1    C2  102   0.253   0.085  12.767 -0.3923 -0.1607  0.0516
    7TCq1    C3  103   0.169   0.190  12.754 -0.8789  0.8617 -0.0448
    7TCq1    C4  104   0.039   0.165  12.780 -0.0917 -0.0353  1.0529
    7TCq1    C5  105   4.734   0.040  12.818 -0.1384  0.3749  0.1065
    7TCq1    C6  106   0.084   4.679  12.819 -0.3995  0.4694 -0.1176
    7TCq1    C7  107   0.215   4.702  12.798 -0.3432 -0.7987  0.3903
    7TCq1    C8  108   0.036   4.545  12.848 -0.3216 -0.3487 -0.7419
    7TCq1    O4  109   4.702   4.532  12.947 -0.3042 -0.6978  0.1580
    7TCq1    C9  110   4.683   0.275  12.778  0.0546 -0.5329 -0.0960
    7TCq1    O5  111   4.562   0.244  12.754  0.2780  0.3831 -0.6603
    7TCq1    O6  112   4.734   0.389  12.746 -0.6577 -0.0710  0.3225
    7TCq1    H1  113   0.305   0.196  12.603 -0.1433  1.0291  1.0376
    7TCq1    H2  114   0.201   0.289  12.723 -1.8311  1.3622  0.5852
    7TCq1    H3  115   4.629   0.020  12.837 -0.3483  2.5551  1.2516
    7TCq1    H4  116   0.281   4.618  12.779  2.2334  2.1077 -3.4746
    8MPD2     C  117   4.740   4.038  12.779  0.4318 -0.6898 -0.3144
    8MPD2    C1  118   4.715   4.115  12.896  0.4290 -0.1256 -0.1449
    8MPD2    C2  119   0.007   4.250  12.888 -0.5753  0.6431  0.8306
    8MPD2    C3  120   0.056   4.314  12.777  0.8189  0.1666  0.0455
    8MPD2    C4  121   0.078   4.236  12.665  0.9892 -0.5496 -0.4857
    8MPD2    C5  122   0.050   4.101  12.669 -0.3082  0.8244  0.0820
    8MPD2     H  123   4.720   4.311  12.973 -0.0427 -0.0914  1.5404
    8MPD2    H1  124   0.128   4.275  12.577  1.4371 -1.0195 -0.4363
    8MPD2    H2  125   4.723   3.931  12.779  2.8156 -1.0555 -0.9676
    8MPD2    H3  126   0.073   4.047  12.578 -2.5278 -0.0517  0.0409
    8MPD2     N  127   0.084   4.452  12.755  1.0360  0.5723  0.6929
    8MPD2    H5  128   0.124   4.493  12.671 -2.4781  1.7960 -0.4026
    8MPD2    N1  129   4.667   4.052  13.004 -0.4253 -0.3138 -0.4784
    8MPD2    H7  130   4.650   3.952  12.999 -1.4146 -0.1506 -0.4397
    9TMC1    C1  131   1.732   3.529  10.548 -0.1178 -0.1233 -0.3605
    9TMC1    C2  132   1.747   3.582  10.415 -0.2516  0.1888  0.5219
    9TMC1    C3  133   1.637   3.624  10.347  0.3695 -0.4232  0.7426
    9TMC1    C4  134   1.605   3.485  10.585  0.3814  0.1030  0.4136
    9TMC1    C5  135   1.501   3.513  10.496 -0.0546  0.0462  0.8183
    9TMC1    C6  136   1.511   3.584  10.380  0.2113 -0.1659 -0.4275
    9TMC1     C  137   1.854   3.496  10.619  0.3488 -0.3682  0.0416
    9TMC1     O  138   1.961   3.533  10.565 -0.0379 -0.6479  0.2490
    9TMC1     H  139   1.847   3.601  10.377  0.2371 -2.9197  0.2148
    9TMC1    H1  140   1.586   3.445  10.684 -0.0461  1.8399  1.0313
    9TMC1    H2  141   1.427   3.624  10.325  0.9185  1.0290 -0.6488
    9TMC1    C7  142   1.371   3.495  10.555 -0.0061  0.1840 -0.0663
    9TMC1    C8  143   1.651   3.692  10.221 -0.5685 -0.8164 -0.2590
    9TMC1    O1  144   1.355   3.492  10.677 -0.2609  0.2753 -0.3618
    9TMC1    O2  145   1.595   3.647  10.124  0.3668  0.0489  0.1991
    9TMC1    O3  146   1.285   3.447  10.461  0.0072  0.2380 -0.0751
    9TMC1    H3  147   1.328   3.453  10.373 -1.2502  0.7992 -0.6513
    9TMC1    O5  148   1.742   3.787  10.229  0.1514 -0.0207 -0.0159
    9TMC1    H5  149   1.773   3.810  10.319 -1.0236  0.1571  0.3387
   10MPD2     C  150   2.068   3.371  10.783 -0.0096  0.5283  0.1651
   10MPD2    C1  151   1.943   3.385  10.820 -0.5264 -0.3040 -0.1355
   10MPD2    C2  152   1.903   3.349  10.946 -0.0998  0.3318  0.3201
   10MPD2    C3  153   1.989   3.292  11.042  0.1507  0.2787  0.0670
   10MPD2    C4  154   2.115   3.260  10.998 -0.5504  0.1058  0.0637
   10MPD2    C5  155   2.148   3.301  10.870  0.1641  0.3794 -0.2610
   10MPD2     H  156   1.800   3.366  10.973  0.0569 -1.9989  2.3727
   10MPD2    H1  157   2.188   3.211  11.061  0.6481 -0.3681 -1.7038
   10MPD2    H2  158   2.112   3.405  10.690  3.6311 -0.2292  1.6319
   10MPD2    H3  159   2.254   3.284  10.852  0.5186  0.3031  1.8693
   10MPD2     N  160   1.949   3.267  11.174  0.0860  0.2769 -0.0358
   10MPD2    H5  161   2.020   3.224  11.233 -0.6977 -0.6004  0.2743
   10MPD2    N1  162   1.838   3.439  10.738  0.8737 -0.0035  0.4764
   10MPD2    H7  163   1.743   3.446  10.773  0.4287 -2.2029 -0.2479
   11TCq1    O1  164   2.221   3.602  14.639 -0.7829 -0.1857  0.1461
   11TCq1    C1  165   2.345   3.608  14.682  0.3368 -0.2407 -0.7430
   11TCq1    O2  166   2.383   3.598  14.798 -0.1315  0.3252 -0.2806
   11TCq1    C2  167   2.426   3.579  14.566 -0.0914 -0.2328 -0.2723
   11TCq1    C3  168   2.531   3.485  14.581  0.5086  0.3032  0.0099
   11TCq1    C4  169   2.620   3.469  14.481 -0.3246 -0.0033 -0.4642
   11TCq1    C5  170   2.590   3.516  14.356 -0.5734 -0.1994 -0.1276
   11TCq1    C6  171   2.478   3.601  14.338  0.3708  0.5335  0.5278
   11TCq1    C7  172   2.402   3.642  14.450  0.1283  0.0810  0.0399
   11TCq1    C8  173   2.426   3.634  14.200  0.4049 -0.4606  0.2715
   11TCq1    O4  174   2.355   3.732  14.176 -0.3849  0.7773 -0.0995
   11TCq1    C9  175   2.735   3.386  14.496  0.0200 -0.3796  0.2924
   11TCq1    O5  176   2.812   3.373  14.398  0.3625  0.0283 -0.0671
   11TCq1    O6  177   2.745   3.316  14.599  0.2036  0.0158 -0.7003
   11TCq1    H1  178   2.204   3.603  14.542 -1.3182 -1.4854  0.2151
   11TCq1    H2  179   2.547   3.418  14.664  2.0549  2.9484  1.8501
   11TCq1    H3  180   2.662   3.493  14.278 -1.2793  0.1772 -0.8957
   11TCq1    H4  181   2.327   3.719  14.438  2.4824  2.5319  0.9322
   12MPD2     C  182   2.386   3.618  13.913  0.2001  0.1475  0.7837
   12MPD2    C1  183   2.439   3.511  13.988  0.2075 -0.6735  0.7267
   12MPD2    C2  184   2.465   3.384  13.929 -0.1372  0.4085 -0.1642
   12MPD2    C3  185   2.433   3.370  13.796 -0.1034 -0.0517 -0.1810
   12MPD2    C4  186   2.375   3.472  13.728  0.5023 -0.3329 -0.5646
   12MPD2    C5  187   2.360   3.601  13.776  0.7026  0.6212  0.2284
   12MPD2     H  188   2.494   3.299  13.989 -1.5049 -0.9807 -1.4798
   12MPD2    H1  189   2.339   3.459  13.627  0.4418 -0.3615 -0.5397
   12MPD2    H2  190   2.368   3.719  13.948  1.9573  0.7194  0.0444
   12MPD2    H3  191   2.333   3.684  13.711  0.5329 -0.1727 -0.7170
   12MPD2     N  192   2.454   3.253  13.725 -0.0857  0.0297  0.0225
   12MPD2    H5  193   2.419   3.256  13.630  0.6633 -0.9308 -0.2851
   12MPD2    N1  194   2.470   3.532  14.123 -0.2752  0.4114  0.1531
   12MPD2    H7  195   2.512   3.455  14.175 -0.4136  0.5843  0.5218
   13TCq1    O1  196   1.899   3.472  10.130 -0.2940 -0.2050 -0.5693
   13TCq1    C1  197   1.815   3.361  10.128 -0.1296  0.3416  0.0772
   13TCq1    O2  198   1.715   3.343  10.058 -0.0233  0.1825 -0.5158
   13TCq1    C2  199   1.846   3.288  10.249 -0.2380 -0.2311  0.7768
   13TCq1    C3  200   1.976   3.256  10.295 -0.4518 -0.0030 -0.5292
   13TCq1    C4  201   1.989   3.182  10.417 -0.0624  0.1350  0.0647
   13TCq1    C5  202   1.878   3.163  10.499 -0.2328 -1.2577  0.4463
   13TCq1    C6  203   1.755   3.194  10.451  0.1821  0.2878  0.1108
   13TCq1    C7  204   1.741   3.267  10.331 -0.6207 -0.1797  0.8068
   13TCq1    C8  205   1.641   3.177  10.546  0.2270 -0.1094  0.3922
   13TCq1    O4  206   1.651   3.160  10.666 -0.4903  0.0711 -0.0147
   13TCq1    C9  207   2.118   3.120  10.444  0.5901 -0.0778  0.0954
   13TCq1    O5  208   2.124   3.037  10.539 -0.2982  0.3762 -0.1073
   13TCq1    O6  209   2.206   3.147  10.353  0.5616  0.7650  0.1722
   13TCq1    H1  210   1.965   3.468  10.202  1.1135 -0.6731 -1.9049
   13TCq1    H2  211   2.059   3.275  10.229 -1.5745 -1.1853 -2.2820
   13TCq1    H3  212   1.902   3.127  10.598 -1.1055 -0.7917  0.8247
   13TCq1    H4  213   1.647   3.307  10.295  0.0826 -0.2766 -1.1175
   14MPD2     C  214   1.296   3.147  10.436 -1.0431  0.2155  0.5917
   14MPD2    C1  215   1.396   3.159  10.531 -1.0796  0.6191  0.5984
   14MPD2    C2  216   1.360   3.175  10.664 -0.1121 -0.0758 -0.1104
   14MPD2    C3  217   1.227   3.175  10.695  0.2176 -0.1434  0.2456
   14MPD2    C4  218   1.132   3.152  10.596  0.2705 -0.1304  0.3005
   14MPD2    C5  219   1.166   3.148  10.465  0.2232 -0.1252 -0.5871
   14MPD2     H  220   1.435   3.204  10.736  1.0797 -1.0563 -0.9449
   14MPD2    H1  221   1.026   3.147  10.616  0.3835  1.0591  1.1965
   14MPD2    H2  222   1.327   3.137  10.332  0.9522 -1.3827  1.3328
   14MPD2    H3  223   1.084   3.130  10.396  2.0006 -0.8878 -2.4912
   14MPD2     N  224   1.188   3.201  10.830  0.4002  0.3637 -0.0344
   14MPD2    H5  225   1.259   3.238  10.893 -0.2453  1.8444 -0.1723
   14MPD2    N1  226   1.526   3.171  10.476 -0.5844 -0.0348  0.1219
   14MPD2    H7  227   1.540   3.186  10.377  3.6522  0.2982  0.7642
   15TCq1    O1  228   3.340   3.225   0.966  0.3556 -0.1582  0.1509
   15TCq1    C1  229   3.407   3.313   0.888  0.3983 -0.0659 -0.0250
   15TCq1    O2  230   3.405   3.432   0.907 -0.0924 -0.4190  0.5849
   15TCq1    C2  231   3.398   3.249   0.759 -0.8809 -0.4069 -0.4116
   15TCq1    C3  232   3.372   3.325   0.653  0.7192 -0.6018  0.0523
   15TCq1    C4  233   3.390   3.268   0.530  0.3861 -0.0916 -0.7790
   15TCq1    C5  234   3.406   3.132   0.517 -0.1740 -0.1043 -0.4626
   15TCq1    C6  235   3.431   3.063   0.629 -0.1381 -0.0241  0.3664
   15TCq1    C7  236   3.425   3.114   0.753 -0.2885  0.3118  0.2920
   15TCq1    C8  237   3.448   2.916   0.630 -0.5721  0.1285  0.3145
   15TCq1    O4  238   3.507   2.871   0.726  0.1619  0.6886  0.0528
   15TCq1    C9  239   3.358   3.344   0.411 -0.0019 -0.1476  0.5358
   15TCq1    O5  240   3.369   3.286   0.303  0.4204 -0.4332 -0.2941
   15TCq1    O6  241   3.356   3.471   0.427 -0.1262 -0.4534  0.5086
   15TCq1    H1  242   3.319   3.136   0.930  1.1027  0.2689 -1.3510
   15TCq1    H2  243   3.346   3.427   0.677 -0.9699 -0.2904 -3.1223
   15TCq1    H3  244   3.415   3.084   0.420  1.4574  0.8477 -0.7640
   15TCq1    H4  245   3.443   3.051   0.840 -0.8828  0.3818  0.4675
   16MPD2     C  246   3.264   2.659   0.442 -0.4450  0.0592 -0.2431
   16MPD2    C1  247   3.364   2.712   0.513  0.3290 -0.4215 -0.3411
   16MPD2    C2  248   3.456   2.625   0.580 -0.8426 -0.1327 -0.0243
   16MPD2    C3  249   3.439   2.489   0.558 -0.8046 -0.1671  0.1953
   16MPD2    C4  250   3.333   2.433   0.490 -0.0030 -0.0594  0.4789
   16MPD2    C5  251   3.249   2.521   0.427 -0.1105  0.1915 -0.2794
   16MPD2     H  252   3.548   2.660   0.626  0.8134 -1.5569 -2.2700
   16MPD2    H1  253   3.312   2.330   0.465  3.7446 -0.7747  0.2767
   16MPD2    H2  254   3.199   2.718   0.377  1.0064  1.4898 -0.3869
   16MPD2    H3  255   3.164   2.487   0.369 -1.5377 -0.1415  2.0103
   16MPD2     N  256   3.534   2.401   0.621  0.3162 -0.4038 -0.3715
   16MPD2    H5  257   3.606   2.455   0.668 -0.4417 -0.0808  0.4212
   16MPD2    N1  258   3.371   2.850   0.536  0.6400  0.4329 -0.4575
   16MPD2    H7  259   3.302   2.904   0.484 -2.1623 -0.9676  1.8412
   17TMC1    C1  260   0.747   2.092  10.188  0.3219 -0.0745  0.1350
   17TMC1    C2  261   0.842   2.085  10.288  0.4114 -0.2435 -0.1916
   17TMC1    C3  262   0.796   2.022  10.400  0.5193 -0.3813  0.3675
   17TMC1    C4  263   0.621   2.043  10.186 -0.4575  0.0553 -0.1280
   17TMC1    C5  264   0.585   1.973  10.300  0.4258 -0.0093 -0.0540
   17TMC1    C6  265   0.677   1.960  10.400  0.7513 -0.5552  0.7147
   17TMC1     C  266   0.773   2.199  10.091 -0.1236  0.0493  1.0135
   17TMC1     O  267   0.750   2.175   9.972  0.6552 -0.3103  0.1061
   17TMC1     H  268   0.946   2.114  10.274  0.6996 -1.2921 -0.2315
   17TMC1    H1  269   0.556   2.059  10.100 -0.1026  1.4868 -0.1207
   17TMC1    H2  270   0.641   1.923  10.496 -0.5858 -2.4944 -0.5398
   17TMC1    C7  271   0.454   1.906  10.315  0.6084 -0.6177 -0.1068
   17TMC1    C8  272   0.896   1.965  10.488 -0.3591 -0.1275 -0.3527
   17TMC1    O1  273   0.405   1.884  10.422 -0.1017  0.0637 -0.2147
   17TMC1    O2  274   0.899   1.847  10.516 -0.2898  0.1183 -0.5381
   17TMC1    O3  275   0.407   1.876  10.199 -0.4687  0.1172  0.1242
   17TMC1    H3  276   0.477   1.895  10.133  1.4683  2.9520  3.0053
   17TMC1    O5  277   0.986   2.059  10.533 -0.2385  0.0878 -0.3075
   17TMC1    H5  278   0.951   2.150  10.522 -0.6256 -0.0668 -0.3473
   18MPD2     C  279   0.853   2.460   9.977 -0.1477  0.4793 -0.4793
   18MPD2    C1  280   0.882   2.426  10.104  0.5181 -0.5055 -0.9374
   18MPD2    C2  281   0.953   2.514  10.183 -0.0162  0.5979 -0.5022
   18MPD2    C3  282   1.006   2.624  10.123 -0.0777 -0.4336 -0.6646
   18MPD2    C4  283   0.987   2.648   9.987  0.7928 -0.2915  0.6254
   18MPD2    C5  284   0.895   2.581   9.919  0.0751 -0.2473  0.0431
   18MPD2     H  285   0.984   2.488  10.284 -2.1862  0.2721  0.0595
   18MPD2    H1  286   1.035   2.728   9.931 -0.4595 -1.3131 -1.8949
   18MPD2    H2  287   0.780   2.403   9.920 -1.1671  3.6723 -2.4038
   18MPD2    H3  288   0.869   2.602   9.816 -0.7221  1.5067  0.6153
   18MPD2     N  289   1.088   2.711  10.195  0.1718 -0.5538 -0.2670
   18MPD2    H5  290   1.137   2.778  10.137  2.1258 -1.7533 -0.0154
   18MPD2    N1  291   0.832   2.304  10.158 -0.0444  0.7319 -0.0618
   18MPD2    H7  292   0.851   2.294  10.257  1.1997  1.0528 -0.2640
   19TMC2    C1  293   3.189   3.337  13.990  0.2302  0.1327  0.5764
   19TMC2    C2  294   3.075   3.372  13.920 -0.0995 -0.3607 -1.0568
   19TMC2    C3  295   3.000   3.262  13.874 -1.1457 -0.0492 -0.1867
   19TMC2    C4  296   3.218   3.203  14.028  0.9860  0.0991  0.4288
   19TMC2    C5  297   3.143   3.102  13.984  0.0692 -0.3024  0.6139
   19TMC2    C6  298   3.038   3.135  13.905 -0.1011  0.1711 -1.1796
   19TMC2     C  299   3.279   3.447  14.026 -0.0043  0.0925  0.2327
   19TMC2     O  300   3.251   3.555  13.985  0.1174 -0.4018  0.0083
   19TMC2     H  301   3.065   3.475  13.889  1.9609  0.6003  1.4788
   19TMC2    H1  302   3.313   3.177  14.072  0.6977 -1.0328  0.3769
   19TMC2    H2  303   2.965   3.065  13.865 -1.6500  0.5291  1.0327
   19TMC2    C7  304   3.128   2.977  14.050 -0.0346 -0.3582  0.2979
   19TMC2    C8  305   2.902   3.281  13.779 -0.0967 -0.7237  0.4023
   19TMC2    O1  306   3.059   2.889  13.995  0.5356 -0.3516  0.6648
   19TMC2    O2  307   2.812   3.207  13.745 -0.1973  0.1546  1.0280
   19TMC2    O5  308   2.963   3.363  13.690 -0.4218  0.1798 -0.5717
   19TMC2    H5  309   3.048   3.403  13.718 -0.9095  1.1065 -0.4047
   20MPD2     C  310   3.522   3.607  14.130 -0.2187 -0.1980 -0.4908
   20MPD2    C1  311   3.491   3.474  14.155 -0.8653 -0.9702  0.3025
   20MPD2    C2  312   3.579   3.406  14.231 -0.5022 -0.6094  0.3557
   20MPD2    C3  313   3.690   3.455  14.287 -0.1700 -1.3596 -0.5936
   20MPD2    C4  314   3.717   3.592  14.271  0.2781  0.8603 -0.0156
   20MPD2    C5  315   3.634   3.669  14.188 -0.1038 -0.3807 -0.3991
   20MPD2     H  316   3.554   3.302  14.249  1.5862 -0.9401  1.3683
   20MPD2    H1  317   3.808   3.635  14.310 -0.2536 -0.4363  2.6427
   20MPD2    H2  318   3.466   3.666  14.059  0.4007 -0.4006 -1.1570
   20MPD2    H3  319   3.653   3.769  14.152 -0.5777  0.5069  1.7952
   20MPD2     N  320   3.784   3.384  14.360 -0.6426 -0.2246 -0.0049
   20MPD2    H5  321   3.860   3.439  14.400 -1.5109  0.8358  0.1685
   20MPD2    N1  322   3.377   3.404  14.108  0.2667  0.1229 -0.0323
   20MPD2    H7  323   3.369   3.307  14.140 -3.1973  1.7964  4.2532
   21TMC2    C1  324   1.245   3.162  14.405 -1.1784  0.3037  0.2467
   21TMC2    C2  325   1.312   3.048  14.453  0.1547 -0.1463 -0.3317
   21TMC2    C3  326   1.241   2.965  14.536  0.2504  0.0391  0.4542
   21TMC2    C4  327   1.119   3.200  14.443 -0.1043  0.2306  0.7758
   21TMC2    C5  328   1.050   3.111  14.520 -0.4213  0.3439 -0.1959
   21TMC2    C6  329   1.111   2.998  14.566 -0.8061 -0.0770 -0.2566
   21TMC2     C  330   1.327   3.255  14.336 -0.0950 -0.5171  0.0725
   21TMC2     O  331   1.420   3.206  14.273 -0.0320 -0.0189 -0.3398
   21TMC2     H  332   1.414   3.034  14.422 -0.3206 -0.7375 -1.6429
   21TMC2    H1  333   1.075   3.295  14.417  0.0035 -0.3546 -1.4829
   21TMC2    H2  334   1.067   2.929  14.638  1.1262  0.7823  1.7489
   21TMC2    C7  335   0.982   3.179  14.630 -0.1490  0.5481 -0.6505
   21TMC2    C8  336   1.293   2.850  14.602  0.4819 -0.7095  0.4025
   21TMC2    O1  337   1.009   3.159  14.748  0.4270 -0.3124  0.1745
   21TMC2    O2  338   1.229   2.794  14.693  0.0472 -0.2634 -0.5894
   21TMC2    O5  339   1.415   2.829  14.552 -0.6145  0.0061 -0.1727
   21TMC2    H5  340   1.448   2.870  14.469  0.8205 -0.0417  0.3735
   22MPD2     C  341   1.465   3.732  14.206  0.5068  1.0238 -0.5817
   22MPD2    C1  342   1.541   3.613  14.197  0.1303 -0.4658  0.7020
   22MPD2    C2  343   1.477   3.496  14.232 -1.1675  0.4003  0.4846
   22MPD2    C3  344   1.352   3.501  14.296  0.0051 -0.0956  0.6378
   22MPD2    C4  345   1.286   3.620  14.312  0.5804 -0.0878 -0.1336
   22MPD2    C5  346   1.341   3.733  14.259 -0.1852 -0.2684 -0.0027
   22MPD2     H  347   1.528   3.400  14.228 -0.2874  0.8813  0.1663
   22MPD2    H1  348   1.199   3.627  14.376 -0.0465 -0.8997 -0.9165
   22MPD2    H2  349   1.502   3.825  14.165 -2.4287  2.1367 -0.6861
   22MPD2    H3  350   1.283   3.824  14.251 -0.5593 -0.6910 -2.0589
   22MPD2     N  351   1.280   3.386  14.336  0.1190 -0.0272  0.3650
   22MPD2    H5  352   1.200   3.415  14.391  2.4424  2.0615  2.6112
   22MPD2    N1  353   1.682   3.604  14.165 -0.0777  0.3883  1.0085
   22MPD2    H7  354   1.726   3.513  14.178 -2.1330 -0.7027  0.2667
   23TMC2    C1  355   2.254   4.482  14.041  0.2106 -0.0097 -0.2175
   23TMC2    C2  356   2.226   4.415  13.924 -0.2829 -0.1872 -0.7202
   23TMC2    C3  357   2.105   4.440  13.878 -0.1782 -0.6675 -0.7396
   23TMC2    C4  358   2.163   4.567  14.094 -0.0868  0.5419 -0.3180
   23TMC2    C5  359   2.044   4.597  14.037  0.0768  0.5621 -0.0453
   23TMC2    C6  360   2.022   4.539  13.918 -0.8285 -0.0108  0.6934
   23TMC2     C  361   2.380   4.456  14.106 -0.4502 -0.3475  0.0398
   23TMC2     O  362   2.391   4.499  14.223 -0.0773 -0.1622 -0.2902
   23TMC2     H  363   2.281   4.324  13.905  0.5270 -0.0859  1.1256
   23TMC2    H1  364   2.197   4.616  14.184 -0.2641 -1.8765  1.0798
   23TMC2    H2  365   1.949   4.577  13.848  1.4572 -0.8513 -2.1780
   23TMC2    C7  366   1.958   4.696  14.103  0.5111 -0.5277 -0.4022
   23TMC2    C8  367   2.081   4.390  13.743 -0.2109 -0.6996  0.2975
   23TMC2    O1  368   2.005   0.030  14.191  0.1899 -0.2332 -0.6254
   23TMC2    O2  369   2.175   4.360  13.675 -0.8300 -0.0159 -0.6207
   23TMC2    O5  370   1.946   4.369  13.727  0.1080  0.1496 -0.0026
   23TMC2    H5  371   1.893   4.388  13.807  0.8292 -1.6009  0.9003
   24MPD2     C  372   2.866   4.313  14.160 -1.1028 -0.2996 -0.0026
   24MPD2    C1  373   2.766   4.325  14.255  0.9086  0.4822 -0.0311
   24MPD2    C2  374   2.639   4.350  14.211  0.2133  1.1207  0.1943
   24MPD2    C3  375   2.604   4.353  14.077  0.2801  0.1360  0.0764
   24MPD2    C4  376   2.700   4.337  13.987 -0.3621  0.4976 -0.0760
   24MPD2    C5  377   2.827   4.315  14.027 -0.4006  0.6192  0.2266
   24MPD2     H  378   2.556   4.354  14.281  1.0756  1.5446  1.1960
   24MPD2    H1  379   2.676   4.344  13.882  0.4441  1.7675 -0.1666
   24MPD2    H2  380   2.971   4.299  14.182 -1.1212 -1.4610 -0.6368
   24MPD2    H3  381   2.902   4.301  13.951  0.2999  1.1009  0.8295
   24MPD2     N  382   2.479   4.394  14.031  0.6066  0.0349  0.0834
   24MPD2    H5  383   2.457   4.381  13.933 -1.0957 -0.3870  0.5227
   24MPD2    N1  384   2.789   4.319  14.399 -0.1142  0.0153 -0.2120
   24MPD2    H7  385   2.716   4.359  14.457  0.7624  0.6507  0.4652
   25TMC2    C1  386   1.258   1.953  11.242  0.2456 -0.2031  0.0203
   25TMC2    C2  387   1.379   2.019  11.219 -0.0447 -0.0637 -0.4050
   25TMC2    C3  388   1.391   2.150  11.242  0.0491  0.2832 -0.1004
   25TMC2    C4  389   1.148   2.029  11.281  0.2011 -0.6747 -0.8525
   25TMC2    C5  390   1.162   2.165  11.279 -0.0550  0.4004  0.0763
   25TMC2    C6  391   1.286   2.231  11.272  0.3373 -0.4737 -0.2278
   25TMC2     C  392   1.245   1.808  11.207 -0.0872 -0.2497  0.1680
   25TMC2     O  393   1.348   1.742  11.198  0.4726  0.5897 -0.0805
   25TMC2     H  394   1.471   1.962  11.222 -0.2636 -0.4218 -0.4933
   25TMC2    H1  395   1.048   1.995  11.303  0.4241 -0.2111  0.9001
   25TMC2    H2  396   1.294   2.337  11.291  0.0233 -0.3240 -0.9683
   25TMC2    C7  397   1.063   2.243  11.353 -0.3461 -0.7278  0.0172
   25TMC2    C8  398   1.523   2.200  11.261  0.3523  0.0556 -0.8316
   25TMC2    O1  399   1.031   2.352  11.307 -0.1330 -0.0228 -0.1501
   25TMC2    O2  400   1.621   2.178  11.187  0.0417 -0.0958 -0.6388
   25TMC2    O5  401   1.527   2.280  11.372  0.2392  0.6641  0.4724
   25TMC2    H5  402   1.442   2.278  11.423  0.9940  2.3851  1.7819
   26MPD2     C  403   0.959   1.416  11.059  0.9293  0.4289 -0.7410
   26MPD2    C1  404   0.879   1.513  11.115 -0.3311  0.0019 -0.4995
   26MPD2    C2  405   0.933   1.633  11.151  0.3886 -0.5095 -0.8014
   26MPD2    C3  406   1.071   1.654  11.153  0.4526  0.0009  0.6494
   26MPD2    C4  407   1.155   1.545  11.122 -0.3916  0.4956  0.6557
   26MPD2    C5  408   1.092   1.441  11.060 -0.4203  0.6523 -0.2847
   26MPD2     H  409   0.870   1.710  11.196  1.8579  0.9234 -1.1820
   26MPD2    H1  410   1.263   1.546  11.136 -0.4686  1.9723  1.1363
   26MPD2    H2  411   0.922   1.318  11.029  1.3176  0.5712 -1.6896
   26MPD2    H3  412   1.156   1.357  11.032 -1.7311 -0.1483 -0.8847
   26MPD2     N  413   1.117   1.778  11.194  0.4283 -0.2287 -0.4263
   26MPD2    H5  414   1.046   1.851  11.191  0.4884 -0.0256  3.0561
   26MPD2    N1  415   0.734   1.484  11.124 -0.6044  0.0192  0.1285
   26MPD2    H7  416   0.708   1.397  11.078  0.1939 -0.9867  1.5641
   27TMC2    C1  417   0.174   4.198  12.051  0.4284  0.6290 -0.0796
   27TMC2    C2  418   0.071   4.280  12.025 -0.6452 -0.1522 -0.1741
   27TMC2    C3  419   0.108   4.399  11.964  0.9568 -0.8462  0.5890
   27TMC2    C4  420   0.311   4.228  12.030 -0.3694 -0.0088 -0.3982
   27TMC2    C5  421   0.336   4.358  11.998 -0.2500  0.3202 -0.2443
   27TMC2    C6  422   0.236   4.439  11.955  0.1540  0.1312 -0.2127
   27TMC2     C  423   0.149   4.079  12.113 -0.0625 -0.3009 -0.0398
   27TMC2     O  424   0.237   3.992  12.103  0.3050  0.4323 -0.3805
   27TMC2     H  425   4.707   4.253  12.031 -0.7534  0.0977 -0.8893
   27TMC2    H1  426   0.391   4.158  12.052 -0.5263 -0.2464 -0.5823
   27TMC2    H2  427   0.256   4.540  11.920  0.0334 -0.5534 -2.2560
   27TMC2    C7  428   0.411   4.419  12.098 -0.4659 -0.5405 -0.2256
   27TMC2    C8  429   4.736   4.483  11.914 -0.3653  0.1939  0.3366
   27TMC2    O1  430   0.445   4.535  12.081  0.1915  0.7890  0.3036
   27TMC2    O2  431   4.619   4.457  11.938 -0.3531  0.7457 -0.0051
   27TMC2    O5  432   0.034   4.529  11.793 -0.1726 -0.0004 -0.4476
   27TMC2    H5  433   0.128   4.517  11.767  0.4401 -1.3041  2.3567
   28MPD2     C  434   4.642   3.764  12.424 -0.9920 -0.0467 -0.1346
   28MPD2    C1  435   4.591   3.895  12.438  0.3675  0.7247 -0.4115
   28MPD2    C2  436   4.651   3.990  12.359 -0.2790 -0.6672 -0.2427
   28MPD2    C3  437   0.003   3.959  12.261 -0.6676 -0.2618 -0.0455
   28MPD2    C4  438   0.041   3.824  12.236 -0.0126 -0.4346 -0.2900
   28MPD2    C5  439   4.731   3.729  12.328  0.9382 -0.1357  0.3481
   28MPD2     H  440   4.628   4.089  12.394 -0.6498 -0.4671 -1.0552
   28MPD2    H1  441   0.086   3.795  12.142 -1.0657  0.6197 -1.1201
   28MPD2    H2  442   4.607   3.681  12.484 -0.8040  1.5172  2.1540
   28MPD2    H3  443   0.019   3.625  12.312  0.5286 -0.3695  1.1558
   28MPD2     N  444   0.044   4.074  12.193  0.3724 -0.4156 -0.4224
   28MPD2    H5  445   0.011   4.165  12.222  1.1171 -0.0166 -0.8274
   28MPD2    N1  446   4.493   3.921  12.537  0.0355  0.9323 -0.7651
   28MPD2    H7  447   4.463   3.849  12.602  2.3755 -0.6819 -1.4711
   29TMC2    C1  448   4.679   1.719  13.979  0.4717 -0.2970 -0.3887
   29TMC2    C2  449   4.589   1.761  14.070  0.5399  0.3420 -0.0825
   29TMC2    C3  450   4.636   1.872  14.140 -0.6178  0.2377 -0.5685
   29TMC2    C4  451   0.056   1.784  13.950  0.1381  0.2671  0.2623
   29TMC2    C5  452   0.087   1.899  14.016 -0.1994 -0.3114  0.4019
   29TMC2    C6  453   0.004   1.950  14.117 -0.5397  0.8837  0.6157
   29TMC2     C  454   4.660   1.596  13.910  0.0633 -0.5417 -0.3415
   29TMC2     O  455   0.014   1.525  13.890  0.2354 -0.3042  0.2065
   29TMC2     H  456   4.506   1.702  14.107 -0.8632  2.2096 -0.2507
   29TMC2    H1  457   0.108   1.737  13.868  0.1928  0.4727  0.1776
   29TMC2    H2  458   0.021   2.049  14.157 -0.9430  0.1080  2.6864
   29TMC2    C7  459   0.225   1.941  13.992  0.1806 -0.1282  1.3626
   29TMC2    C8  460   4.550   1.916  14.241 -1.0386 -1.1110 -0.3799
   29TMC2    O1  461   0.268   1.891  13.886  0.1816  0.1865 -0.2580
   29TMC2    O2  462   4.432   1.879  14.244 -0.3426 -0.3329 -0.8633
   29TMC2    O5  463   4.639   1.921  14.342  0.4401  0.0516 -0.2242
   29TMC2    H5  464   4.734   1.942  14.333  0.0791  0.1212 -3.7870
   30MPD2     C  465   4.359   1.285  13.642 -0.5786 -0.3277 -0.1967
   30MPD2    C1  466   4.481   1.260  13.701  0.2299 -0.5092  0.1512
   30MPD2    C2  467   4.547   1.358  13.781 -0.0597 -0.1181 -0.2996
   30MPD2    C3  468   4.474   1.475  13.804 -0.1463  0.5349 -0.3853
   30MPD2    C4  469   4.347   1.493  13.761  0.3499  0.0201 -0.1833
   30MPD2    C5  470   4.289   1.391  13.682  0.8179 -0.5373  0.6489
   30MPD2     H  471   4.650   1.348  13.813 -1.0415  0.6429  3.0876
   30MPD2    H1  472   4.293   1.584  13.781  0.3456 -0.0209 -0.0133
   30MPD2    H2  473   4.308   1.218  13.573  2.2018 -1.9992 -0.6114
   30MPD2    H3  474   4.187   1.405  13.648  1.2184 -2.4799 -1.3158
   30MPD2     N  475   4.528   1.579  13.881 -0.2522 -0.1987 -0.0346
   30MPD2    H5  476   4.467   1.653  13.915  0.3067  0.1178  0.2888
   30MPD2    N1  477   4.549   1.132  13.697  0.0139 -0.6226 -0.3336
   30MPD2    H7  478   4.644   1.136  13.733  0.4355  0.6443 -1.5972
   31TMC2    C1  479   2.279   0.414  14.897 -0.0063 -0.3974 -0.3789
   31TMC2    C2  480   2.152   0.373  14.871  0.4012  0.4329 -0.0794
   31TMC2    C3  481   2.116   0.257  14.921  0.2293  0.4106 -0.1963
   31TMC2    C4  482   2.359   0.347  14.986  0.0264 -0.5625 -0.3971
   31TMC2    C5  483   2.311   0.238  15.046 -0.0866 -0.5062 -0.4435
   31TMC2    C6  484   2.192   0.180  15.002  0.1436  0.5654  0.6083
   31TMC2     C  485   2.332   0.521  14.812  0.6183 -0.8100  0.0825
   31TMC2     O  486   2.253   0.575  14.730  0.6978  0.1118  0.6719
   31TMC2     H  487   2.086   0.429  14.805  0.2051  2.0000  1.4390
   31TMC2    H1  488   2.461   0.377  15.008 -0.4061 -1.0512  2.3387
   31TMC2    H2  489   2.145   0.094  15.050  2.0459 -0.2281  1.0618
   31TMC2    C7  490   2.351   0.220  15.180  0.2887  0.8790 -0.1810
   31TMC2    C8  491   2.008   0.197  14.854 -0.2996  0.0774  0.1677
   31TMC2    O1  492   2.347   0.106  15.217  0.4287 -0.1358  0.6704
   31TMC2    O2  493   1.996   0.074  14.844  0.1972 -0.5813  0.2217
   31TMC2    O5  494   1.902   0.275  14.880  0.2571  0.0674 -0.2708
   31TMC2    H5  495   1.916   0.368  14.909  1.6267  0.5047 -2.3567
   32MPD2     C  496   2.743   0.758  14.614 -0.8043 -0.3092 -1.1754
   32MPD2    C1  497   2.611   0.761  14.577 -0.1599  0.0596  0.0502
   32MPD2    C2  498   2.523   0.699  14.655  0.4854  1.0513  0.8966
   32MPD2    C3  499   2.559   0.621  14.766  0.2415 -0.1734 -0.1102
   32MPD2    C4  500   2.695   0.613  14.802  0.3619  0.3979 -0.1163
   32MPD2    C5  501   2.783   0.684  14.722  0.3864  0.5342 -0.3484
   32MPD2     H  502   2.419   0.700  14.624  0.9224 -1.3166 -0.7221
   32MPD2    H1  503   2.739   0.548  14.876 -1.9443 -1.3035 -0.2256
   32MPD2    H2  504   2.820   0.813  14.561 -0.1977  0.8726  0.9350
   32MPD2    H3  505   2.890   0.673  14.728  0.2700  0.5986  1.7197
   32MPD2     N  506   2.471   0.537  14.833 -0.7818 -0.0111 -0.3756
   32MPD2    H5  507   2.511   0.482  14.909 -1.5020  1.1489  0.8526
   32MPD2    N1  508   2.586   0.837  14.459 -0.0478  0.4766 -0.3525
   32MPD2    H7  509   2.670   0.876  14.418 -0.0074  0.1939 -0.5440
   33TMC2    C1  510   1.751   3.215   9.748 -0.4822 -0.1144 -0.3223
   33TMC2    C2  511   1.639   3.284   9.706 -0.2620  0.2881 -0.2579
   33TMC2    C3  512   1.653   3.368   9.606  0.8922 -0.4300 -0.3934
   33TMC2    C4  513   1.873   3.245   9.695  0.2222 -0.4032 -0.2784
   33TMC2    C5  514   1.880   3.338   9.595  0.3087 -0.0891  0.3625
   33TMC2    C6  515   1.768   3.386   9.538 -0.1461 -1.0107 -0.1451
   33TMC2     C  516   1.729   3.119   9.849  0.3914  0.2023 -0.1705
   33TMC2     O  517   1.613   3.083   9.877  0.2549 -0.8083  0.0889
   33TMC2     H  518   1.544   3.260   9.751 -0.3663  0.4557 -0.3899
   33TMC2    H1  519   1.970   3.205   9.721  1.4011  0.9463 -2.5837
   33TMC2    H2  520   1.762   3.467   9.466 -2.0329 -0.7587  0.3010
   33TMC2    C7  521   1.997   3.411   9.575  0.2756  0.3905 -0.2834
   33TMC2    C8  522   1.548   3.356   9.514 -0.2994  0.0108 -0.5394
   33TMC2    O1  523   2.089   3.384   9.653 -0.3988  0.2631 -0.2582
   33TMC2    O2  524   1.507   3.248   9.481  0.0628 -0.4235 -0.0563
   33TMC2    O5  525   1.509   3.481   9.475  0.2683 -0.4733 -0.0160
   33TMC2    H5  526   1.554   3.556   9.519  0.4600 -0.5210 -0.1324
   34MPD2     C  527   1.892   2.807  10.228  0.2126 -0.0296 -0.2891
   34MPD2    C1  528   1.775   2.881  10.214 -0.0116 -0.0041  0.8255
   34MPD2    C2  529   1.766   2.967  10.109  0.6300  0.5580  0.4520
   34MPD2    C3  530   1.863   2.980  10.011  0.2478  0.7157 -0.0162
   34MPD2    C4  531   1.985   2.915  10.032  0.1928  0.2723 -0.1422
   34MPD2    C5  532   1.989   2.819  10.131 -0.0110 -0.0593 -0.9263
   34MPD2     H  533   1.674   3.024  10.099 -0.9867 -1.7073  2.2230
   34MPD2    H1  534   2.062   2.920   9.956 -0.8002  1.3640 -1.0777
   34MPD2    H2  535   1.917   2.730  10.300  0.7664  1.4980  1.1654
   34MPD2    H3  536   2.083   2.772  10.153 -0.6198  0.1707  2.1059
   34MPD2     N  537   1.845   3.063   9.896  0.2272  0.4874  0.3079
   34MPD2    H5  538   1.936   3.084   9.856 -1.1739  0.8465 -2.7065
   34MPD2    N1  539   1.664   2.848  10.298  0.0944  0.2269 -0.0315
   34MPD2    H7  540   1.678   2.796  10.384  0.6627  1.2141  0.4737
   35TMC2    C1  541   2.662   3.903  11.536  0.1755  0.4020  0.4918
   35TMC2    C2  542   2.594   3.914  11.414 -0.5202  0.4728 -0.3704
   35TMC2    C3  543   2.514   3.813  11.373 -0.2817  0.3158 -0.6479
   35TMC2    C4  544   2.647   3.794  11.618  0.4137 -0.0244  0.0952
   35TMC2    C5  545   2.554   3.704  11.571  0.0824 -0.2322 -0.5243
   35TMC2    C6  546   2.491   3.705  11.447  0.9593 -0.1805  0.0445
   35TMC2     C  547   2.752   4.014  11.565  0.1399  0.4196  0.4145
   35TMC2     O  548   2.726   4.117  11.504 -0.1028  0.0105 -0.0651
   35TMC2     H  549   2.616   3.998  11.349  1.6836  0.2099  0.0399
   35TMC2    H1  550   2.698   3.773  11.711  1.6956 -1.9704 -1.0346
   35TMC2    H2  551   2.426   3.629  11.405 -0.0256 -0.6734  2.4576
   35TMC2    C7  552   2.516   3.591  11.656  0.0837 -0.5100  0.1865
   35TMC2    C8  553   2.440   3.820  11.249  0.1354  0.3984  0.3913
   35TMC2    O1  554   2.578   3.572  11.760  0.5276 -0.0407 -0.3063
   35TMC2    O2  555   2.401   3.721  11.183  0.2899  0.3688 -0.1070
   35TMC2    O5  556   2.370   3.934  11.258 -0.2297 -0.4296  1.1294
   35TMC2    H5  557   2.392   3.990  11.336 -1.0903  1.9005 -0.3355
   36MPD2     C  558   3.164   4.242  11.776 -0.1004  0.3871 -0.0895
   36MPD2    C1  559   3.154   4.122  11.843 -0.0671  0.3007 -1.0442
   36MPD2    C2  560   3.043   4.044  11.812  0.0938  0.2162 -0.4619
   36MPD2    C3  561   2.959   4.078  11.708 -0.5640 -0.0776  0.8825
   36MPD2    C4  562   2.970   4.202  11.641 -0.3961 -0.1731 -1.3429
   36MPD2    C5  563   3.072   4.284  11.684  0.0677  0.2840  0.6580
   36MPD2     H  564   3.019   3.953  11.864  2.6976 -0.7190 -0.8742
   36MPD2    H1  565   2.906   4.232  11.559 -1.6491 -1.3907 -0.8087
   36MPD2    H2  566   3.249   4.309  11.786  0.5082 -0.0184 -2.6184
   36MPD2    H3  567   3.095   4.382  11.642 -1.4155  0.7484  0.9163
   36MPD2     N  568   2.845   3.992  11.666  0.0287  0.0388  0.3441
   36MPD2    H5  569   2.841   3.900  11.710  0.7192  0.1549  0.6401
   36MPD2    N1  570   3.252   4.084  11.933  0.3319 -0.2551 -0.2524
   36MPD2    H7  571   3.329   4.150  11.936 -0.7090  1.1800 -4.2765
   37TMC2    C1  572   0.823   4.735  11.959  0.0933  0.8662 -0.3157
   37TMC2    C2  573   0.729   4.659  11.900 -0.6215 -0.1519 -0.1703
   37TMC2    C3  574   0.727   4.665  11.763 -0.3543  0.1264  0.0251
   37TMC2    C4  575   0.927   0.049  11.887  0.1627  0.7823 -0.0766
   37TMC2    C5  576   0.928   0.040  11.751 -0.0422 -0.3650  0.8155
   37TMC2    C6  577   0.820   4.723  11.682  1.0638  0.1945 -0.7276
   37TMC2     C  578   0.847   4.730  12.101  0.4278  0.0992 -0.3447
   37TMC2     O  579   0.751   0.015  12.166  0.5036  0.0272 -0.0595
   37TMC2     H  580   0.648   4.617  11.959 -2.0927  1.7195 -0.8493
   37TMC2    H1  581   1.005   0.108  11.934  0.2972  1.0619 -0.6555
   37TMC2    H2  582   0.802   4.735  11.576  0.2375 -1.2074 -0.7394
   37TMC2    C7  583   1.048   0.069  11.684 -0.5235  0.5607 -0.5450
   37TMC2    C8  584   0.627   4.600  11.675  0.1936 -0.2265 -0.0427
   37TMC2    O1  585   1.150   0.049  11.751 -0.1110 -0.7619 -0.0927
   37TMC2    O2  586   0.587   4.652  11.571  0.2909 -0.3436  0.0958
   37TMC2    O5  587   0.556   4.520  11.751  0.4818 -0.1095  0.1137
   37TMC2    H5  588   0.614   4.470  11.812 -0.0535 -2.8933 -1.6694
   38MPD2     C  589   1.128   4.563  12.506  0.4561  0.3012  0.3701
   38MPD2    C1  590   1.212   4.562  12.398 -0.2102  0.3988 -0.0930
   38MPD2    C2  591   1.157   4.605  12.275 -0.2602 -0.2475 -0.7956
   38MPD2    C3  592   1.028   4.653  12.257  0.1404  0.0791 -0.5107
   38MPD2    C4  593   0.948   4.648  12.367  0.5412  0.2734  0.2441
   38MPD2    C5  594   1.002   4.608  12.488 -0.3592  0.2353  0.6243
   38MPD2     H  595   1.226   4.613  12.192 -0.8677  0.2471 -1.2527
   38MPD2    H1  596   0.840   4.657  12.360  0.7887  3.9165  1.3876
   38MPD2    H2  597   1.154   4.546  12.610 -0.4585 -0.0207  0.5452
   38MPD2    H3  598   0.936   4.601  12.573  0.3642  0.4265  1.2040
   38MPD2     N  599   0.980   4.693  12.131 -0.3140  0.8595 -0.7436
   38MPD2    H5  600   1.045   4.682  12.054  2.7311  0.3790  1.8798
   38MPD2    N1  601   1.351   4.528  12.405  0.9022 -0.5273 -0.4712
   38MPD2    H7  602   1.403   4.542  12.320 -1.1217  2.1122 -1.2846
   39TMC2    C1  603   4.112   2.195   1.439 -0.1414  0.5568 -0.2753
   39TMC2    C2  604   4.026   2.283   1.502 -0.0344 -0.0814  0.2328
   39TMC2    C3  605   4.075   2.366   1.600  0.2504 -1.0494  0.4572
   39TMC2    C4  606   4.251   2.203   1.459 -0.6745  0.0214  0.0909
   39TMC2    C5  607   4.293   2.291   1.555  0.6311  0.1390  0.4072
   39TMC2    C6  608   4.204   2.360   1.634 -0.4946 -0.3822 -0.3635
   39TMC2     C  609   4.045   2.094   1.356 -0.1951  0.4789 -0.3007
   39TMC2     O  610   3.922   2.100   1.345 -0.6667 -0.3949 -0.0434
   39TMC2     H  611   3.925   2.288   1.464  0.5029  0.5151 -1.1124
   39TMC2    H1  612   4.323   2.158   1.392 -1.5835  0.7525 -1.3631
   39TMC2    H2  613   4.246   2.431   1.704 -1.6871 -2.9783  2.9568
   39TMC2    C7  614   4.441   2.297   1.567  0.0835  0.5443 -0.2929
   39TMC2    C8  615   4.008   2.496   1.610  0.4714  0.2229 -0.1075
   39TMC2    O1  616   4.508   2.201   1.540  0.2910  0.4606 -0.2484
   39TMC2    O2  617   4.061   2.603   1.590 -0.6762  0.5809  0.2814
   39TMC2    O5  618   3.873   2.477   1.612 -0.6266  0.0487 -0.1409
   39TMC2    H5  619   3.838   2.390   1.641  0.9362 -0.1789  1.0712
   40MPD2     C  620   4.166   1.788   1.188 -0.0807 -0.1177 -0.3667
   40MPD2    C1  621   4.075   1.890   1.218  0.2118 -0.2673 -0.0896
   40MPD2    C2  622   3.941   1.859   1.179 -1.0663  0.3126 -0.4450
   40MPD2    C3  623   3.904   1.746   1.104  0.2621 -0.1416  0.2000
   40MPD2    C4  624   4.000   1.647   1.086  0.4428  0.4915 -0.6663
   40MPD2    C5  625   4.131   1.673   1.123 -0.0022 -0.6495 -1.2153
   40MPD2     H  626   3.866   1.932   1.205 -0.4341  0.4970  0.8190
   40MPD2    H1  627   3.974   1.561   1.024  0.3063 -0.3698  0.5951
   40MPD2    H2  628   4.270   1.790   1.216 -0.4558 -1.1311  1.0836
   40MPD2    H3  629   4.213   1.610   1.089 -0.6049 -0.4385 -3.0934
   40MPD2     N  630   3.772   1.727   1.061 -0.0922 -0.2872  0.0848
   40MPD2    H5  631   3.747   1.644   1.008 -0.0204  0.3583 -0.9600
   40MPD2    N1  632   4.124   2.003   1.291  0.1887  0.8535  0.1988
   40MPD2    H7  633   4.223   2.013   1.308 -0.0293  1.4537  1.1197
   41TMC2    C1  634   3.045   4.664  13.655  0.1313  1.4516 -0.5128
   41TMC2    C2  635   2.928   4.639  13.721 -0.3577 -0.5187  0.6255
   41TMC2    C3  636   2.819   4.715  13.675  0.4930  0.8077 -0.0119
   41TMC2    C4  637   3.060   4.740  13.542  0.3809  0.3483  0.6234
   41TMC2    C5  638   2.945   0.075  13.512 -0.5625  0.2329  0.3661
   41TMC2    C6  639   2.829   0.067  13.576  0.0230  0.1121 -0.9710
   41TMC2     C  640   3.167   4.601  13.700 -0.8041  0.0803 -0.5729
   41TMC2     O  641   3.269   4.606  13.632  0.2960  0.4495  0.5634
   41TMC2     H  642   2.922   4.555  13.788  1.1197 -1.3998 -0.3317
   41TMC2    H1  643   3.158   0.038  13.516  0.4794 -1.9073 -2.3080
   41TMC2    H2  644   2.740   0.121  13.547 -0.6246 -1.1732 -1.4034
   41TMC2    C7  645   2.949   0.162  13.393 -0.0270 -0.1432 -0.2649
   41TMC2    C8  646   2.682   4.676  13.717 -0.1266 -0.0231  0.0270
   41TMC2    O1  647   2.877   0.259  13.409  0.0592  0.4762 -0.4338
   41TMC2    O2  648   2.577   4.714  13.674 -0.0287 -0.7182  0.0657
   41TMC2    O5  649   2.707   4.666  13.853  0.5170 -0.3602 -0.9294
   41TMC2    H5  650   2.804   4.654  13.866  0.3222 -2.7928 -1.7013
   42MPD2     C  651   3.347   4.404  13.844  0.2170 -0.2148  0.2501
   42MPD2    C1  652   3.246   4.475  13.910 -0.7951  0.1780  0.0780
   42MPD2    C2  653   3.227   4.460  14.046 -0.2499 -0.3431  0.2591
   42MPD2    C3  654   3.314   4.383  14.121  0.3951  0.9034  0.1528
   42MPD2    C4  655   3.412   4.312  14.052  0.7263 -0.3899 -0.3401
   42MPD2    C5  656   3.430   4.328  13.916  0.3700  0.1381  0.3154
   42MPD2     H  657   3.145   4.507  14.099 -2.1166 -2.4321 -0.7707
   42MPD2    H1  658   3.475   4.237  14.099  0.0852 -0.3426  0.5869
   42MPD2    H2  659   3.361   4.420  13.738  0.9296 -0.4603  0.3106
   42MPD2    H3  660   3.515   4.274  13.874  0.4534  0.5772 -0.0876
   42MPD2     N  661   3.307   4.362  14.261 -0.2854  0.0724 -0.1176
   42MPD2    H5  662   3.375   4.297  14.300 -0.3870 -0.0903 -0.2111
   42MPD2    N1  663   3.158   4.562  13.835 -0.7057  0.3221  0.1326
   42MPD2    H7  664   3.080   4.606  13.882 -1.8605 -2.3837  0.7102
   43TMC2    C1  665   0.033   3.222   0.770 -0.6316 -0.1185 -0.3747
   43TMC2    C2  666   4.663   3.245   0.842  0.0512 -0.0518 -0.5017
   43TMC2    C3  667   4.667   3.331   0.945 -0.4372  0.2660 -0.3530
   43TMC2    C4  668   0.143   3.297   0.784  0.0212 -0.5763  0.0655
   43TMC2    C5  669   0.145   3.392   0.884 -0.4765  0.2843 -0.1706
   43TMC2    C6  670   0.037   3.413   0.963 -0.1489 -0.2962 -0.0163
   43TMC2     C  671   0.015   3.141   0.651  0.3095 -0.3240 -0.3657
   43TMC2     O  672   4.667   3.057   0.658 -0.8447 -0.0936  0.7361
   43TMC2     H  673   4.577   3.178   0.850  0.3613 -0.5620 -1.4378
   43TMC2    H1  674   0.235   3.273   0.732  0.2047 -3.6741  1.7592
   43TMC2    H2  675   0.036   3.487   1.042 -0.0667 -1.3443  0.9653
   43TMC2    C7  676   0.283   3.418   0.933  0.1758 -0.0777 -0.4569
   43TMC2    C8  677   4.576   3.324   1.050 -0.0823  0.1598 -0.0252
   43TMC2    O1  678   0.375   3.402   0.855  0.0511 -0.6145  0.1687
   43TMC2    O2  679   4.624   3.331   1.161 -0.3819 -0.3790 -0.1326
   43TMC2    O5  680   4.471   3.396   1.013 -0.6852 -0.6437 -0.3614
   43TMC2    H5  681   4.439   3.386   0.921 -0.3952 -0.9997 -0.4246
   44MPD2     C  682   0.039   3.076   0.166 -0.9989 -0.2266  1.1110
   44MPD2    C1  683   4.737   2.982   0.262  0.3780  0.0577 -0.5506
   44MPD2    C2  684   0.027   3.017   0.389 -0.6808  0.4089  0.3475
   44MPD2    C3  685   0.079   3.143   0.418  0.2262  1.4409  0.4434
   44MPD2    C4  686   0.115   3.237   0.320 -0.2703 -0.4855  0.4891
   44MPD2    C5  687   0.090   3.199   0.186  0.2972  0.1598 -0.5079
   44MPD2     H  688   0.006   2.945   0.468 -2.0333  0.6397  0.1966
   44MPD2    H1  689   0.160   3.334   0.335 -0.3749 -0.2699 -0.5846
   44MPD2    H2  690   0.018   3.059   0.061 -2.7581 -0.8097  1.5514
   44MPD2    H3  691   0.109   3.271   0.107 -0.0325  0.2670 -0.4924
   44MPD2     N  692   0.095   3.187   0.548  0.8328 -0.4658 -0.0337
   44MPD2    H5  693   0.145   3.275   0.548 -2.9239  1.6883  1.1645
   44MPD2    N1  694   4.665   2.861   0.230 -0.0948 -0.3451  0.4773
   44MPD2    H7  695   4.646   2.797   0.306  0.1840 -1.9986 -0.8253
   45TMC2    C1  696   0.802   4.366   9.815 -0.0506  0.0516  0.3644
   45TMC2    C2  697   0.934   4.347   9.823 -0.3020 -0.2365 -0.0186
   45TMC2    C3  698   1.015   4.457   9.853 -0.2190  0.4893 -0.8367
   45TMC2    C4  699   0.745   4.485   9.836  0.2440  0.2867 -0.1622
   45TMC2    C5  700   0.822   4.597   9.865 -0.2453  0.4092 -0.3341
   45TMC2    C6  701   0.958   4.584   9.871  0.4203 -0.5762 -0.2243
   45TMC2     C  702   0.711   4.253   9.803 -0.5575 -0.5868 -0.1077
   45TMC2     O  703   0.755   4.147   9.847 -0.5051  0.1131  0.2859
   45TMC2     H  704   0.973   4.248   9.804  2.2099  0.7497 -0.1756
   45TMC2    H1  705   0.637   4.493   9.847  0.0280 -2.4901 -0.2658
   45TMC2    H2  706   1.026   4.668   9.889  0.6592 -0.5671 -1.1748
   45TMC2    C7  707   0.766   4.725   9.844  0.1567  0.3844 -0.2279
   45TMC2    C8  708   1.162   4.442   9.828 -0.0398 -0.1691 -0.8817
   45TMC2    O1  709   0.673   4.739   9.766 -0.2638 -0.0456 -0.3424
   45TMC2    O2  710   1.248   4.525   9.850 -0.0748  0.3492  0.3345
   45TMC2    O5  711   1.185   4.340   9.739 -0.0978  0.0660 -0.2448
   45TMC2    H5  712   1.103   4.289   9.721 -1.5972  1.1660  3.4185
   46MPD2     C  713   0.514   4.051   9.724 -0.9268  0.7136  0.8524
   46MPD2    C1  714   0.495   4.182   9.703 -0.9736 -0.3169 -0.1553
   46MPD2    C2  715   0.385   4.219   9.635  0.1101  0.0233  0.1672
   46MPD2    C3  716   0.297   4.125   9.592  0.2090 -0.7373  0.4774
   46MPD2    C4  717   0.313   3.990   9.612 -0.3318  0.1052  0.6891
   46MPD2    C5  718   0.424   3.956   9.675  0.4486 -0.6627 -0.2818
   46MPD2     H  719   0.356   4.323   9.637 -0.2571 -0.0007 -3.1379
   46MPD2    H1  720   0.251   3.910   9.574  0.8953  0.9284 -3.0283
   46MPD2    H2  721   0.601   4.007   9.770 -1.4844  0.5809  1.7731
   46MPD2    H3  722   0.454   3.852   9.673 -1.6984 -1.2724 -0.5190
   46MPD2     N  723   0.182   4.185   9.536 -0.2392 -0.0939 -0.1211
   46MPD2    H5  724   0.184   4.286   9.530  1.7656 -0.0740  0.9888
   46MPD2    N1  725   0.593   4.281   9.737  0.4772 -0.2612 -0.5237
   46MPD2    H7  726   0.583   4.375   9.700 -0.9228 -0.1042  0.2439
   47TMC2    C1  727   3.157   0.765   8.935  0.1504  0.2455 -0.5361
   47TMC2    C2  728   3.173   0.838   8.819  0.2927 -0.7778  0.5463
   47TMC2    C3  729   3.059   0.869   8.751  0.8850  0.0043 -0.2023
   47TMC2    C4  730   3.038   0.716   8.981  0.4164 -0.1652 -0.1917
   47TMC2    C5  731   2.923   0.748   8.906 -0.0019 -0.2444  0.0473
   47TMC2    C6  732   2.936   0.815   8.786 -0.0722  0.2423  0.1089
   47TMC2     C  733   3.271   0.738   9.023  0.1048  0.6858 -0.1582
   47TMC2     O  734   3.368   0.808   9.001  0.1376  0.3844  0.5074
   47TMC2     H  735   3.266   0.878   8.780 -0.2415 -0.1235 -0.0726
   47TMC2    H1  736   3.028   0.670   9.078  1.5531 -0.2542 -0.1155
   47TMC2    H2  737   2.855   0.820   8.714 -0.8038  0.3187  0.9383
   47TMC2    C7  738   2.791   0.750   8.972 -0.1590 -0.2718  0.7852
   47TMC2    C8  739   3.067   0.907   8.614 -0.1843 -0.0264  0.2975
   47TMC2    O1  740   2.787   0.676   9.069 -0.1021  0.3490  0.1581
   47TMC2    O2  741   2.973   0.949   8.541  0.0711 -0.0457  0.1528
   47TMC2    O5  742   3.187   0.862   8.559 -0.4321  0.2396 -0.1545
   47TMC2    H5  743   3.245   0.798   8.605 -1.0138  1.0761  1.7263
   48MPD2     C  744   3.470   0.604   9.188  0.0859 -0.5874  0.6477
   48MPD2    C1  745   3.343   0.561   9.186  0.1137  0.3022  0.5098
   48MPD2    C2  746   3.305   0.468   9.280  0.3224  0.3539 -0.6253
   48MPD2    C3  747   3.392   0.406   9.367 -0.3004  0.1557 -0.0775
   48MPD2    C4  748   3.523   0.447   9.366 -0.0159  0.1857  0.5203
   48MPD2    C5  749   3.562   0.535   9.270  0.2222 -0.6354  0.2291
   48MPD2     H  750   3.204   0.427   9.272  0.9473 -0.9416 -1.9829
   48MPD2    H1  751   3.599   0.405   9.430  0.3212  0.4758  0.3088
   48MPD2    H2  752   3.514   0.681   9.125 -1.3303 -0.0257  0.3565
   48MPD2    H3  753   3.664   0.571   9.267  0.0940 -0.1062  2.0825
   48MPD2     N  754   3.360   0.300   9.461 -0.1903  0.1974  1.1271
   48MPD2    H5  755   3.275   0.246   9.451 -1.5107  2.0169  2.6565
   48MPD2    N1  756   3.248   0.628   9.104  0.0382 -0.1918  0.3897
   48MPD2    H7  757   3.152   0.595   9.112  0.4491 -2.1600 -3.1141
   49TMC2    C1  758   0.022   2.014  10.130 -0.7126 -0.2153  0.4713
   49TMC2    C2  759   0.068   1.976  10.256 -0.7279  0.6511 -0.2323
   49TMC2    C3  760   4.720   1.904  10.334 -0.0089  0.2587 -0.8382
   49TMC2    C4  761   4.639   1.974  10.084  0.3120 -0.4308  0.1979
   49TMC2    C5  762   4.547   1.916  10.170 -0.0282  0.0462 -0.4756
   49TMC2    C6  763   4.587   1.880  10.295  0.0019  0.4951  0.3449
   49TMC2     C  764   0.094   2.115  10.052  0.5433 -0.2422 -0.4575
   49TMC2     O  765   0.058   2.145   9.940 -0.7792 -0.1127  0.1256
   49TMC2     H  766   0.172   1.994  10.278 -1.4130  1.4191  2.4480
   49TMC2    H1  767   4.613   2.009   9.985  1.5455 -0.7665 -0.2377
   49TMC2    H2  768   4.527   1.814  10.356 -2.3633  1.4961 -0.8980
   49TMC2    C7  769   4.406   1.935  10.145 -0.4839 -0.2633 -0.5173
   49TMC2    C8  770   0.022   1.863  10.466  0.2303  0.5254  0.3419
   49TMC2    O1  771   4.327   1.884  10.222 -0.9974  0.0276 -0.0804
   49TMC2    O2  772   4.722   1.767  10.527  0.8944 -0.0651  0.1910
   49TMC2    O5  773   0.109   1.956  10.511 -0.3566 -0.1395 -0.2490
   49TMC2    H5  774   0.101   2.035  10.453  1.2491 -1.1423 -1.8765
   50MPD2     C  775   0.295   2.290   9.920  0.1101  0.1286  0.0054
   50MPD2    C1  776   0.300   2.261  10.060  0.2096 -0.1791 -0.1227
   50MPD2    C2  777   0.380   2.337  10.146  0.4042 -0.5635 -0.1321
   50MPD2    C3  778   0.463   2.436  10.094  0.4421  0.0013  0.4465
   50MPD2    C4  779   0.461   2.456   9.958  0.2401 -0.4939  0.4644
   50MPD2    C5  780   0.381   2.386   9.871 -0.9372 -0.6325  0.6603
   50MPD2     H  781   0.380   2.315  10.253 -1.1535  0.3893  0.0693
   50MPD2    H1  782   0.519   2.537   9.916 -2.4302  0.0781 -2.1103
   50MPD2    H2  783   0.232   2.237   9.850  1.2187 -0.3397 -0.6476
   50MPD2    H3  784   0.383   2.414   9.766  0.8440 -0.8181  0.6328
   50MPD2     N  785   0.547   2.517  10.164 -0.4652 -0.4472  0.1013
   50MPD2    H5  786   0.593   2.584  10.104 -0.2103 -0.6892  0.0297
   50MPD2    N1  787   0.210   2.166  10.112  0.2354 -0.0912  0.7311
   50MPD2    H7  788   0.230   2.137  10.207 -1.8766 -0.7255  0.9894
   51TMC2    C1  789   1.110   2.003   0.799 -0.2760 -0.2697 -0.2124
   51TMC2    C2  790   1.137   2.071   0.918 -0.2343  0.6085  0.4637
   51TMC2    C3  791   1.235   2.165   0.924 -0.2511  0.6177  0.5914
   51TMC2    C4  792   1.175   2.037   0.683  0.0199  0.0089 -0.1173
   51TMC2    C5  793   1.270   2.140   0.694 -0.0699 -0.4283  0.4424
   51TMC2    C6  794   1.299   2.211   0.809  0.1374  0.4151  0.1256
   51TMC2     C  795   1.083   1.859   0.801  0.6065 -0.1709  0.1885
   51TMC2     O  796   1.120   1.788   0.709 -0.7293  0.2723  0.2832
   51TMC2     H  797   1.100   2.035   1.013  3.2237 -0.3873  1.4197
   51TMC2    H1  798   1.160   1.978   0.593 -3.0325  1.2338 -0.4192
   51TMC2    H2  799   1.343   2.309   0.818 -1.1995  0.8835  1.5675
   51TMC2    C7  800   1.364   2.162   0.585 -0.3073 -0.1719  0.5628
   51TMC2    C8  801   1.237   2.264   1.039  0.1586  0.2726 -0.2232
   51TMC2    O1  802   1.471   2.205   0.625 -0.3829 -0.3267 -0.2743
   51TMC2    O2  803   1.148   2.263   1.128  0.5653 -0.0359  0.1034
   51TMC2    O5  804   1.370   2.284   1.066  0.4091 -0.2625  0.0619
   51TMC2    H5  805   1.444   2.276   1.002  1.6184  2.7071  1.0745
   52MPD2     C  806   0.983   1.423   1.078 -0.2989 -0.2169  0.9076
   52MPD2    C1  807   1.035   1.442   0.948 -0.5585  0.3835 -0.5524
   52MPD2    C2  808   1.030   1.567   0.889 -0.1358  0.0251 -0.0053
   52MPD2    C3  809   0.993   1.679   0.957  0.7840 -0.1352 -0.3981
   52MPD2    C4  810   0.927   1.655   1.080 -0.0237  0.6626  0.2173
   52MPD2    C5  811   0.915   1.530   1.124  0.0184 -0.5192 -0.7846
   52MPD2     H  812   1.067   1.570   0.787 -1.8397 -0.8281 -0.6645
   52MPD2    H1  813   0.882   1.734   1.140 -1.0876  0.4610 -0.3298
   52MPD2    H2  814   0.947   1.332   1.124  3.4640 -1.6975  0.8710
   52MPD2    H3  815   0.868   1.514   1.221 -1.5428 -2.9108 -1.9172
   52MPD2     N  816   1.009   1.811   0.915 -0.5637 -0.0192 -0.7715
   52MPD2    H5  817   0.966   1.886   0.969  1.4456 -1.3973  2.7200
   52MPD2    N1  818   1.073   1.334   0.872  0.5180  0.6159  0.0523
   52MPD2    H7  819   1.092   1.361   0.777  0.1159 -0.9186 -0.4649
   53TMC2    C1  820   1.705   0.072  11.349  0.0042 -0.1185  0.8233
   53TMC2    C2  821   1.727   4.683  11.309 -0.1662 -0.8132 -0.1675
   53TMC2    C3  822   1.778   4.592  11.400 -0.2804 -1.1974 -0.5200
   53TMC2    C4  823   1.743   0.110  11.475  0.1250  0.4441  0.4034
   53TMC2    C5  824   1.810   0.028  11.558  0.3554 -0.0603 -0.0392
   53TMC2    C6  825   1.818   4.634  11.523 -0.6662  0.3173  0.5593
   53TMC2     C  826   1.590   0.142  11.308 -0.2460 -0.2494  0.0324
   53TMC2     O  827   1.589   0.193  11.197  0.0463 -0.0938 -0.5165
   53TMC2     H  828   1.678   4.657  11.216  1.3036  1.5123 -1.5757
   53TMC2    H1  829   1.709   0.207  11.507 -3.4726 -0.6952  0.0891
   53TMC2    H2  830   1.845   4.550  11.587 -1.7547 -0.2853  0.2361
   53TMC2    C7  831   1.800   0.065  11.705 -0.2083 -0.6605 -0.3870
   53TMC2    C8  832   1.757   4.447  11.374  0.3913  0.0421  0.7249
   53TMC2    O1  833   1.733   0.159  11.743  0.4194  0.7471 -0.2738
   53TMC2    O2  834   1.702   4.373  11.452  0.2007 -0.2751 -0.1288
   53TMC2    O5  835   1.747   4.445  11.241  0.2635  0.0740 -0.0292
   53TMC2    H5  836   1.822   4.488  11.196  2.1473 -0.8317  2.2592
   54MPD2     C  837   1.315   0.264  11.288  0.0325 -0.1824  0.8599
   54MPD2    C1  838   1.358   0.182  11.389  0.0844  0.4837 -0.3482
   54MPD2    C2  839   1.266   0.140  11.481  0.6231  1.0007 -0.5891
   54MPD2    C3  840   1.136   0.176  11.472 -0.8001 -0.3214  0.0745
   54MPD2    C4  841   1.095   0.242  11.360  0.4225  0.5543  0.0630
   54MPD2    C5  842   1.180   0.289  11.268  0.0529 -0.1787 -0.2087
   54MPD2     H  843   1.287   0.070  11.562  1.4091  1.5344 -0.3329
   54MPD2    H1  844   0.994   0.281  11.357  0.7827  1.3438 -1.5589
   54MPD2    H2  845   1.379   0.301  11.209 -0.9556 -2.9055 -1.1967
   54MPD2    H3  846   1.147   0.350  11.185 -0.3527 -2.1631 -1.5142
   54MPD2     N  847   1.036   0.134  11.562  0.5440  0.1499 -0.3946
   54MPD2    H5  848   0.946   0.174  11.540  0.6015  1.1997  1.2220
   54MPD2    N1  849   1.489   0.127  11.398  0.3746  0.1297  0.1896
   54MPD2    H7  850   1.515   0.075  11.480  0.3297  0.3127  0.3194
   55TMC2    C1  851   3.302   3.823  17.016 -0.4104  0.0980  0.4279
   55TMC2    C2  852   3.363   3.841  16.892 -0.7358 -0.2855 -0.3660
   55TMC2    C3  853   3.415   3.731  16.844  0.3298 -0.1890  0.4520
   55TMC2    C4  854   3.294   3.711  17.080  0.3314 -0.7807 -0.5652
   55TMC2    C5  855   3.347   3.599  17.032  0.4367 -0.5271 -0.0675
   55TMC2    C6  856   3.404   3.604  16.903 -0.8812 -0.0561  0.0741
   55TMC2     C  857   3.197   3.909  17.052 -0.3091 -0.0319  0.3781
   55TMC2     O  858   3.218   3.991  17.140  0.2812 -0.4624 -0.1627
   55TMC2     H  859   3.383   3.931  16.836  0.6585  0.0292  0.6286
   55TMC2    H1  860   3.236   3.717  17.172  0.5882 -1.7022 -0.3405
   55TMC2    H2  861   3.439   3.509  16.862  0.6925  0.5965 -0.0898
   55TMC2    C7  862   3.303   3.475  17.073 -0.5760  0.6832  0.5802
   55TMC2    C8  863   3.463   3.737  16.708 -0.3565 -0.0325 -0.4538
   55TMC2    O1  864   3.312   3.387  16.990  0.2110  0.1506 -0.5060
   55TMC2    O2  865   3.391   3.779  16.617 -0.2264  0.2184 -0.1222
   55TMC2    O5  866   3.575   3.669  16.692 -0.6644 -0.2308 -0.0258
   55TMC2    H5  867   3.601   3.634  16.780 -2.2358 -2.6719 -0.5359
   56MPD2     C  868   2.839   3.827  16.994 -0.3292  0.1929 -0.0157
   56MPD2    C1  869   2.951   3.878  17.059  0.7900 -0.0600  0.2851
   56MPD2    C2  870   2.923   3.936  17.182 -0.1499  0.4932  0.4507
   56MPD2    C3  871   2.798   3.949  17.234  0.0984  0.6415 -0.5806
   56MPD2    C4  872   2.688   3.895  17.164  0.4536  0.8299 -0.3235
   56MPD2    C5  873   2.711   3.847  17.038  0.6268  0.3032  0.1075
   56MPD2     H  874   3.012   3.966  17.236 -0.4439  1.2282  0.5162
   56MPD2    H1  875   2.585   3.895  17.198  0.1969 -0.5185 -1.0761
   56MPD2    H2  876   2.840   3.779  16.897  0.9358  0.9356 -0.3651
   56MPD2    H3  877   2.623   3.810  16.987  1.8426 -3.2226  0.5347
   56MPD2     N  878   2.791   3.998  17.371 -0.0331 -0.3797 -0.2090
   56MPD2    H5  879   2.887   4.002  17.404  0.0057  1.9078 -0.5623
   56MPD2    N1  880   3.076   3.855  17.003  0.0941 -0.5988 -0.4874
   56MPD2    H7  881   3.078   3.788  16.926  1.5960 -1.5645  0.4070
   57TMC2    C1  882   1.721   3.511  12.964 -0.7620 -0.7033 -0.7816
   57TMC2    C2  883   1.652   3.538  12.845  0.3799  0.3905  0.3593
   57TMC2    C3  884   1.722   3.591  12.741 -0.3141  0.3439  0.0424
   57TMC2    C4  885   1.858   3.521  12.968 -0.0472  0.2432 -0.1629
   57TMC2    C5  886   1.921   3.567  12.854  0.2605 -0.2383  0.3351
   57TMC2    C6  887   1.860   3.597  12.737 -0.7291  0.5199 -0.1504
   57TMC2     C  888   1.669   3.419  13.059 -0.3854  0.2045 -0.2791
   57TMC2     O  889   1.731   3.408  13.164  0.0506  0.1534 -0.0840
   57TMC2     H  890   1.544   3.536  12.847  0.3885  0.6390  1.0652
   57TMC2    H1  891   1.902   3.493  13.063 -1.1034 -1.7546 -0.2574
   57TMC2    H2  892   1.912   3.623  12.646  0.1970  0.7422  0.4342
   57TMC2    C7  893   2.066   3.553  12.839 -0.3469  0.8759 -0.7399
   57TMC2    C8  894   1.656   3.578  12.616 -0.4673 -0.2114 -0.4650
   57TMC2    O1  895   2.134   3.643  12.796 -0.6404  0.0462 -0.3362
   57TMC2    O2  896   1.552   3.508  12.605 -0.0576 -0.2854  0.6012
   57TMC2    O5  897   1.690   3.693  12.555  0.1981  0.1789  0.7463
   57TMC2    H5  898   1.772   3.737  12.586 -0.3233  0.8970  1.1073
   58MPD2     C  899   1.320   3.121  13.269 -0.3749  0.6561 -0.1948
   58MPD2    C1  900   1.390   3.227  13.315 -0.0574  0.6773  0.6147
   58MPD2    C2  901   1.476   3.289  13.235 -0.4308 -0.8569  0.0834
   58MPD2    C3  902   1.476   3.277  13.094 -0.3914  0.1265  0.7128
   58MPD2    C4  903   1.389   3.186  13.041  0.1357  0.2555 -0.6619
   58MPD2    C5  904   1.319   3.103  13.130 -0.3985  0.2451  0.3200
   58MPD2     H  905   1.526   3.373  13.283 -1.3071 -1.0357  1.3166
   58MPD2    H1  906   1.386   3.165  12.935  0.1944  1.8007 -0.9623
   58MPD2    H2  907   1.253   3.071  13.337  0.1020  0.2744 -0.0080
   58MPD2    H3  908   1.274   3.016  13.085  1.2720 -0.6216  0.3330
   58MPD2     N  909   1.556   3.358  13.015 -0.8804 -0.2174  0.4393
   58MPD2    H5  910   1.547   3.360  12.914 -1.5726  1.3248  0.5271
   58MPD2    N1  911   1.387   3.275  13.449  0.4144 -0.0907 -0.6915
   58MPD2    H7  912   1.446   3.356  13.466 -0.1692  0.1149  0.3724
   59TMC2    C1  913   4.233   3.290  12.718 -0.1366 -0.1126 -0.6394
   59TMC2    C2  914   4.328   3.210  12.662  0.4119 -0.0910  0.1856
   59TMC2    C3  915   4.301   3.161  12.530  0.0945  0.8290 -0.5502
   59TMC2    C4  916   4.121   3.313  12.645 -0.2946 -0.2511  0.0137
   59TMC2    C5  917   4.104   3.277  12.516 -0.1444  0.1701 -0.4727
   59TMC2    C6  918   4.196   3.196  12.455 -0.7688  0.1306  0.2335
   59TMC2     C  919   4.233   3.311  12.863 -0.1225  0.3362  0.4916
   59TMC2     O  920   4.125   3.334  12.914  0.0125 -0.5704 -0.7087
   59TMC2     H  921   4.410   3.172  12.722  1.8480 -0.2067 -1.8416
   59TMC2    H1  922   4.032   3.357  12.690  0.4340  1.6297 -0.3630
   59TMC2    H2  923   4.173   3.141  12.364 -0.3525  0.9273 -0.3534
   59TMC2    C7  924   3.964   3.253  12.479 -0.4333  0.8388  0.5356
   59TMC2    C8  925   4.376   3.045  12.490  0.3228 -0.0147 -0.3461
   59TMC2    O1  926   3.939   3.138  12.442  0.1405 -0.1281 -0.5323
   59TMC2    O2  927   4.391   3.031  12.371  0.3429  0.2639 -0.0340
   59TMC2    O5  928   4.324   2.946  12.564  0.5813 -0.2368  0.2533
   59TMC2    H5  929   4.265   2.961  12.641  0.0072  2.4421 -0.7044
   60MPD2     C  930   4.286   3.373  13.147  0.1895 -0.3319  0.4641
   60MPD2    C1  931   4.388   3.359  13.047 -0.4370 -0.1879  0.3874
   60MPD2    C2  932   4.524   3.394  13.083 -0.3920  0.3305  0.6835
   60MPD2    C3  933   4.550   3.438  13.215  0.8414  0.3174  0.0568
   60MPD2    C4  934   4.448   3.440  13.309 -0.2410  0.6380 -0.2976
   60MPD2    C5  935   4.316   3.406  13.275  0.1135  0.0422  0.3893
   60MPD2     H  936   4.593   3.414  13.001 -0.3320 -0.6722  0.4870
   60MPD2    H1  937   4.477   3.462  13.412  0.3296 -1.6040  0.0422
   60MPD2    H2  938   4.184   3.349  13.120 -0.0427  1.4214 -0.2159
   60MPD2    H3  939   4.237   3.413  13.349  0.1327  1.7749  0.2554
   60MPD2     N  940   4.667   3.496  13.247 -0.1871 -0.6029  0.1975
   60MPD2    H5  941   4.670   3.524  13.345 -1.4178  4.8545 -1.3479
   60MPD2    N1  942   4.362   3.320  12.911 -0.1607  0.4328 -0.3409
   60MPD2    H7  943   4.443   3.292  12.857 -0.4664  0.0737 -0.6107
   61TMC2    C1  944   3.779   4.646  14.827 -0.6885  0.7159  0.2732
   61TMC2    C2  945   3.749   4.542  14.917 -0.3899 -0.7523 -0.1294
   61TMC2    C3  946   3.750   4.577  15.053  0.3217  0.3712 -0.2374
   61TMC2    C4  947   3.793   0.032  14.874 -0.3632 -0.7347  0.0797
   61TMC2    C5  948   3.785   0.059  15.006  0.2956 -0.0768 -0.6834
   61TMC2    C6  949   3.761   4.703  15.101 -0.0243  0.7397  0.0930
   61TMC2     C  950   3.733   4.623  14.691 -1.2691  0.1946  0.4316
   61TMC2     O  951   3.677   4.513  14.669 -0.2210 -0.0155 -0.3785
   61TMC2     H  952   3.722   4.442  14.886 -1.4150 -0.9637  1.4490
   61TMC2    H1  953   3.806   0.116  14.807  2.5773 -0.4637  0.9979
   61TMC2    H2  954   3.760   4.705  15.209  1.2801 -3.1887  0.1496
   61TMC2    C7  955   3.790   0.196  15.041  0.2880 -0.6262 -0.1759
   61TMC2    C8  956   3.699   4.475  15.150 -0.6119  0.3184 -0.2799
   61TMC2    O1  957   3.807   0.276  14.949  0.5493 -0.0971  0.3557
   61TMC2    O2  958   3.750   4.478  15.262 -0.2266  0.4501 -0.1882
   61TMC2    O5  959   3.570   4.448  15.121 -0.2177 -0.1734 -0.4998
   61TMC2    H5  960   3.535   4.493  15.040  0.6410  0.9651 -0.2390
   62MPD2     C  961   3.609   4.664  14.419 -0.2543  0.1102  0.0425
   62MPD2    C1  962   3.688   0.015  14.488 -0.7025 -0.0663  0.0228
   62MPD2    C2  963   3.710   0.147  14.442 -0.2542  0.0023 -0.7117
   62MPD2    C3  964   3.623   0.195  14.350 -0.3220 -0.1948 -0.2893
   62MPD2    C4  965   3.526   0.112  14.298 -0.5179 -0.1259  0.8704
   62MPD2    C5  966   3.525   4.714  14.328 -0.3524  0.4820  0.1868
   62MPD2     H  967   3.783   0.212  14.488 -1.8263  0.5847  0.9581
   62MPD2    H1  968   3.448   0.145  14.230 -1.5318  0.4740  2.3144
   62MPD2    H2  969   3.591   4.560  14.447 -1.5699  0.6540  1.2001
   62MPD2    H3  970   3.453   4.648  14.281  0.8061  0.3947 -1.4760
   62MPD2     N  971   3.617   0.328  14.298 -0.0733  0.5696  0.0558
   62MPD2    H5  972   3.541   0.357  14.238 -0.9299 -0.5328  0.6030
   62MPD2    N1  973   3.745   4.737  14.617 -0.8603  0.4406  0.4405
   62MPD2    H7  974   3.792   0.074  14.662  1.9213 -0.4977 -0.8315
   63TMC2    C1  975   2.997   0.452  10.251 -0.0305 -0.3959 -0.7806
   63TMC2    C2  976   3.107   0.413  10.324 -0.4937 -0.1196 -0.2661
   63TMC2    C3  977   3.215   0.364  10.254  0.5492  0.5143 -0.0946
   63TMC2    C4  978   3.007   0.451  10.111  0.7903  0.0941 -0.3492
   63TMC2    C5  979   3.110   0.394  10.050 -0.6787 -0.3263  0.6689
   63TMC2    C6  980   3.219   0.350  10.116  0.0463 -0.6796  0.3872
   63TMC2     C  981   2.864   0.424  10.316  0.0848  0.2333  0.5013
   63TMC2     O  982   2.762   0.480  10.273 -0.6925  0.2693  0.3580
   63TMC2     H  983   3.109   0.403  10.432  1.7674 -0.8701 -0.3702
   63TMC2    H1  984   2.921   0.476  10.050  0.5808  0.4077  0.0785
   63TMC2    H2  985   3.307   0.323  10.059 -1.1584 -1.5482 -1.0500
   63TMC2    C7  986   3.113   0.378   9.904  0.0404 -0.7699  0.1315
   63TMC2    C8  987   3.320   0.301  10.332 -0.3187  0.5917 -0.1343
   63TMC2    O1  988   3.113   0.260   9.860  0.2840  0.7032 -0.3102
   63TMC2    O2  989   3.328   0.339  10.447 -0.1456  1.1828  0.6774
   63TMC2    O5  990   3.328   0.170  10.285 -0.2789  1.0613  0.3834
   63TMC2    H5  991   3.337   0.158  10.188 -1.1602  0.8582  0.3287
   64MPD2     C  992   2.544   0.123  10.560  0.3204 -0.5936 -0.3974
   64MPD2    C1  993   2.666   0.062  10.541  0.0009  0.8585 -0.3246
   64MPD2    C2  994   2.778   0.130  10.497  0.5343  0.5562 -0.1121
   64MPD2    C3  995   2.760   0.260  10.465 -0.5580  0.2359  0.2771
   64MPD2    C4  996   2.640   0.325  10.462 -0.7269 -0.3275 -0.7847
   64MPD2    C5  997   2.532   0.260  10.522 -0.3191 -0.0259 -0.0050
   64MPD2     H  998   2.871   0.075  10.488 -0.1262 -0.5275 -0.3805
   64MPD2    H1  999   2.627   0.427  10.426  0.5613  0.1430  0.1136
   64MPD2    H2 1000   2.451   0.080  10.596 -1.1435  1.9619 -1.0932
   64MPD2    H3 1001   2.438   0.312  10.509 -0.3923 -0.5113 -1.4500
   64MPD2     N 1002   2.872   0.323  10.409 -0.0926 -0.2621  0.2154
   64MPD2    H5 1003   2.962   0.280  10.427  0.9314  0.9472 -1.9462
   64MPD2    N1 1004   2.693   4.665  10.567  0.0917 -0.9460 -0.3913
   64MPD2    H7 1005   2.789   4.634  10.558  0.5102 -0.1542  1.4167
   65TMC2    C1 1006   4.677   0.002  15.345  0.2047  0.0482 -0.4492
   65TMC2    C2 1007   4.616   4.737  15.227 -0.2153  0.7071 -0.2349
   65TMC2    C3 1008   4.612   0.107  15.146 -0.2029 -0.1897  0.3295
   65TMC2    C4 1009   4.716   0.125  15.386  0.1621 -0.8681  0.2828
   65TMC2    C5 1010   4.706   0.235  15.305 -0.3558  0.0743  0.1257
   65TMC2    C6 1011   4.662   0.230  15.176  0.4459  0.1815  0.3635
   65TMC2     C 1012   4.664   4.622  15.426  0.6952 -1.5929  0.0809
   65TMC2     O 1013   4.649   4.517  15.359  0.1975 -0.2581  0.1338
   65TMC2     H 1014   4.576   4.642  15.193 -1.5471  0.0054  3.3047
   65TMC2    H1 1015   0.010   0.143  15.487 -1.9600  0.0818  0.8341
   65TMC2    H2 1016   4.629   0.314  15.116  0.1693  0.5162  0.9863
   65TMC2    C7 1017   4.691   0.361  15.367 -0.9210  0.5050 -0.8187
   65TMC2    C8 1018   4.533   0.102  15.028 -1.1535 -0.8915  0.9221
   65TMC2    O1 1019   4.713   0.456  15.290 -0.2803  0.2030  0.2480
   65TMC2    O2 1020   4.556   0.164  14.925  0.0356  0.0365  0.1891
   65TMC2    O5 1021   4.444   0.002  15.043 -0.3185 -0.2833  0.6519
   65TMC2    H5 1022   4.427   4.721  15.137  1.4116 -3.4530  0.2635
   66MPD2     C 1023   0.014   4.585  15.789 -0.2646 -0.8024 -0.2862
   66MPD2    C1 1024   4.698   4.547  15.667  0.2337 -0.1963 -0.2704
   66MPD2    C2 1025   4.627   4.423  15.650  0.8380 -0.4367  0.2420
   66MPD2    C3 1026   4.621   4.335  15.754  0.0011 -0.4525 -0.5208
   66MPD2    C4 1027   4.665   4.383  15.877 -0.4154 -0.2761 -0.6124
   66MPD2    C5 1028   4.730   4.510  15.900 -0.1191  0.1766  0.6962
   66MPD2     H 1029   4.573   4.414  15.557  1.1348 -0.1936  0.0438
   66MPD2    H1 1030   4.658   4.322  15.967 -1.0774  1.2046  0.3260
   66MPD2    H2 1031   0.071   4.677  15.794  0.0307 -0.9693 -0.6233
   66MPD2    H3 1032   0.018   4.546  15.998 -1.3254  0.3648  0.9755
   66MPD2     N 1033   4.567   4.205  15.742  0.1459 -0.5497 -0.0163
   66MPD2    H5 1034   4.566   4.157  15.832  0.2346 -0.2935  0.1226
   66MPD2    N1 1035   4.702   4.644  15.562  0.7218  0.3092  0.3015
   66MPD2    H7 1036   4.739   4.732  15.597 -1.6291  2.3021 -2.2379
   67TMC2    C1 1037   4.387   3.818  14.073  0.2766  0.4968 -0.1053
   67TMC2    C2 1038   4.356   3.951  14.098  0.0338  1.0176 -0.4620
   67TMC2    C3 1039   4.404   4.004  14.221 -0.4114 -0.3935  0.4051
   67TMC2    C4 1040   4.438   3.736  14.171 -0.2229 -0.4764 -0.2511
   67TMC2    C5 1041   4.470   3.794  14.292 -0.3591  1.0095  0.4968
   67TMC2    C6 1042   4.448   3.925  14.324 -0.8063  0.6699 -0.3873
   67TMC2     C 1043   4.329   3.748  13.956  0.2500 -0.2640  0.3004
   67TMC2     O 1044   4.337   3.629  13.941  0.1687 -0.2205  0.8395
   67TMC2     H 1045   4.287   4.017  14.045 -0.0654  0.2325 -1.3041
   67TMC2    H1 1046   4.460   3.632  14.147 -0.5947 -0.8042  0.8014
   67TMC2    H2 1047   4.472   3.971  14.419 -1.5548  1.1541 -0.4387
   67TMC2    C7 1048   4.581   3.725  14.370 -0.2583  0.5479  0.3226
   67TMC2    C8 1049   4.345   4.119  14.256  0.7435 -0.8754 -0.0627
   67TMC2    O1 1050   4.643   3.639  14.307  0.5831 -0.1841 -0.2664
   67TMC2    O2 1051   4.408   4.218  14.290 -0.2618 -0.0914  0.4692
   67TMC2    O5 1052   4.230   4.078  14.316  0.7262 -0.5133 -0.3519
   67TMC2    H5 1053   4.215   3.982  14.306  1.7389 -0.7336  0.2377
   68MPD2     C 1054   4.132   3.692  13.725  0.5027 -0.3072  0.6280
   68MPD2    C1 1055   4.204   3.810  13.746  0.5912 -0.8806 -0.6522
   68MPD2    C2 1056   4.179   3.913  13.658 -1.1509  0.6782  0.4894
   68MPD2    C3 1057   4.109   3.898  13.548 -0.3050 -0.2505 -0.2872
   68MPD2    C4 1058   4.052   3.772  13.515  0.2617  0.2644 -0.2963
   68MPD2    C5 1059   4.059   3.677  13.612 -0.2336 -0.2901  0.6256
   68MPD2     H 1060   4.235   4.006  13.673  1.1031 -0.4561 -0.9432
   68MPD2    H1 1061   3.998   3.760  13.422 -1.4075 -3.0785  1.0979
   68MPD2    H2 1062   4.141   3.606  13.791  1.2264  0.1277  1.0938
   68MPD2    H3 1063   4.025   3.578  13.585  2.4436 -1.1086  0.3309
   68MPD2     N 1064   4.067   4.006  13.461 -0.0402  0.2703 -0.1964
   68MPD2    H5 1065   4.007   3.986  13.383  0.2966 -0.5997 -0.2295
   68MPD2    N1 1066   4.287   3.840  13.861 -0.4449 -0.3431 -0.0647
   68MPD2    H7 1067   4.319   3.936  13.867  1.3389 -0.9097 -0.4912
   69TMC2    C1 1068   1.893   0.424  12.351  0.1551 -0.1269  0.8042
   69TMC2    C2 1069   1.873   0.561  12.372  0.2537 -1.0066 -0.2720
   69TMC2    C3 1070   1.892   0.647  12.269  0.1223 -0.5279  0.2518
   69TMC2    C4 1071   1.916   0.376  12.224  0.1615  0.3397 -0.6330
   69TMC2    C5 1072   1.924   0.471  12.124 -0.1172  0.9176 -0.7569
   69TMC2    C6 1073   1.914   0.602  12.144 -0.1436 -0.9639  0.4996
   69TMC2     C 1074   1.852   0.335  12.462 -0.5992  0.2459 -0.6060
   69TMC2     O 1075   1.773   0.383  12.539  0.4916  0.0327  0.4235
   69TMC2     H 1076   1.854   0.591  12.475 -0.5214 -2.3436 -0.0159
   69TMC2    H1 1077   1.931   0.271  12.201 -2.3241  0.1368 -1.2592
   69TMC2    H2 1078   1.961   0.661  12.066 -0.3079 -1.1023  0.2948
   69TMC2    C7 1079   1.932   0.414  11.989 -0.1956  0.2454 -0.3726
   69TMC2    C8 1080   1.910   0.780  12.314  0.2511 -0.2203  0.3914
   69TMC2    O1 1081   1.987   0.305  11.968 -0.1405  0.1124 -0.3259
   69TMC2    O2 1082   1.949   0.812  12.425 -0.1951  0.6329  0.5066
   69TMC2    O5 1083   1.920   0.868  12.213 -0.3649 -0.2893  0.5423
   69TMC2    H5 1084   1.886   0.843  12.124 -0.2961 -0.3049  0.5204
   70MPD2     C 1085   1.943   4.731  12.522 -0.0029  0.1516 -0.5645
   70MPD2    C1 1086   1.869   0.098  12.537  0.1037 -0.9631  0.2549
   70MPD2    C2 1087   1.751   0.088  12.619  0.1517 -0.4918 -0.1851
   70MPD2    C3 1088   1.716   4.711  12.683  0.1000  0.0062 -0.1563
   70MPD2    C4 1089   1.801   4.601  12.663  0.2309 -0.0700 -0.0189
   70MPD2    C5 1090   1.913   4.611  12.585 -0.1771 -0.1082  0.4868
   70MPD2     H 1091   1.691   0.178  12.631  1.5922  0.2354  1.5086
   70MPD2    H1 1092   1.793   4.505  12.713 -0.4466 -0.9372 -1.7990
   70MPD2    H2 1093   2.025   4.733  12.450  0.3955 -0.3795 -0.1297
   70MPD2    H3 1094   1.982   4.529  12.571 -0.2849 -0.2283  0.6523
   70MPD2     N 1095   1.610   4.689  12.772 -0.2179  0.5445  0.4803
   70MPD2    H5 1096   1.594   4.591  12.794 -1.2059 -0.0775 -2.9409
   70MPD2    N1 1097   1.905   0.213  12.458  0.2133 -0.1870  0.4150
   70MPD2    H7 1098   1.987   0.194  12.401 -0.2278  0.7907 -0.5611
   71TMC2    C1 1099   3.051   1.625   0.952 -0.4466  0.3727 -0.0269
   71TMC2    C2 1100   3.103   1.714   1.039  0.2260  0.1506 -0.1198
   71TMC2    C3 1101   3.030   1.821   1.078 -0.4604  0.1252 -0.5304
   71TMC2    C4 1102   2.919   1.631   0.922  0.3334 -0.5300  0.9097
   71TMC2    C5 1103   2.841   1.735   0.963  0.0985 -0.1722 -0.5643
   71TMC2    C6 1104   2.895   1.828   1.048 -0.0234 -0.8239  0.3346
   71TMC2     C 1105   3.153   1.536   0.884  0.0473 -0.8918  0.0432
   71TMC2     O 1106   3.269   1.562   0.899 -0.0212 -0.3245 -0.2836
   71TMC2     H 1107   3.206   1.713   1.071  0.0341 -0.9357  0.4650
   71TMC2    H1 1108   2.891   1.576   0.832 -1.0092  2.6851 -0.6523
   71TMC2    H2 1109   2.848   1.923   1.069  0.6558 -1.0284  2.7654
   71TMC2    C7 1110   2.706   1.768   0.909  0.1620 -0.0144 -0.1844
   71TMC2    C8 1111   3.078   1.897   1.193  0.0220 -0.1159 -0.1568
   71TMC2    O1 1112   2.674   1.886   0.904 -0.3034 -0.4915  0.5090
   71TMC2    O2 1113   3.198   1.917   1.214  0.0974 -0.6631  0.5662
   71TMC2    O5 1114   2.977   1.928   1.278 -1.0637 -0.5355 -0.2026
   71TMC2    H5 1115   2.886   1.906   1.248 -1.7962  1.3085  0.5991
   72MPD2     C 1116   3.277   1.077   0.700 -0.2917 -0.4175 -0.1093
   72MPD2    C1 1117   3.359   1.183   0.725 -0.5848  0.1349  0.0511
   72MPD2    C2 1118   3.296   1.295   0.764  0.1190  0.3898  0.2648
   72MPD2    C3 1119   3.163   1.304   0.789 -0.4960  0.3393 -0.2899
   72MPD2    C4 1120   3.088   1.191   0.763  0.1045 -0.2832 -0.3363
   72MPD2    C5 1121   3.140   1.080   0.710 -0.2755  0.5697 -0.8193
   72MPD2     H 1122   3.344   1.389   0.784  1.2821  0.0923 -1.1666
   72MPD2    H1 1123   2.986   1.178   0.798  0.7350  1.9476  2.2799
   72MPD2    H2 1124   3.310   0.990   0.645 -3.3430 -2.6950  1.6950
   72MPD2    H3 1125   3.078   0.993   0.691  1.0602 -0.3394 -1.0291
   72MPD2     N 1126   3.093   1.419   0.839  0.0479 -0.1174 -0.1797
   72MPD2    H5 1127   2.994   1.403   0.848  0.5505 -2.4817  1.1496
   72MPD2    N1 1128   3.500   1.172   0.720  0.7422 -0.1985 -0.3185
   72MPD2    H7 1129   3.557   1.249   0.753 -2.9165  1.4401  2.1462
   73TMC2    C1 1130   3.474   2.612  14.036 -0.2244 -0.1756 -0.6723
   73TMC2    C2 1131   3.501   2.529  13.929 -0.3389 -0.3718 -0.0925
   73TMC2    C3 1132   3.598   2.433  13.957 -0.1102  0.0040  0.0165
   73TMC2    C4 1133   3.534   2.613  14.160 -0.1179  0.5302 -0.1216
   73TMC2    C5 1134   3.640   2.528  14.173 -0.2828  0.6789  0.2798
   73TMC2    C6 1135   3.664   2.432  14.081 -0.5758 -0.3514 -0.2244
   73TMC2     C 1136   3.471   2.749  13.993 -0.3232  0.3921 -0.0339
   73TMC2     O 1137   3.514   2.827  14.074  0.3425 -0.7404  0.0654
   73TMC2     H 1138   3.445   2.531  13.837  1.3251 -1.0728 -1.1345
   73TMC2    H1 1139   3.497   2.674  14.242 -0.9824  0.1633 -0.2289
   73TMC2    H2 1140   3.753   2.371  14.085 -1.6178 -1.8035  1.0172
   73TMC2    C7 1141   3.756   2.588  14.231  0.2261 -0.2001 -0.2862
   73TMC2    C8 1142   3.618   2.311  13.888  0.6829 -0.1238 -0.4406
   73TMC2    O1 1143   3.858   2.518  14.236 -0.6368 -0.6872  0.1597
   73TMC2    O2 1144   3.626   2.205  13.954  0.0478  0.7617  0.1478
   73TMC2    O5 1145   3.551   2.334  13.771 -0.0611  0.0476  0.6798
   73TMC2    H5 1146   3.576   2.419  13.729 -1.8972  0.0367 -0.4070
   74MPD2     C 1147   3.352   3.154  13.706  0.0526 -0.1489 -0.7840
   74MPD2    C1 1148   3.448   3.137  13.802 -0.0789  0.0610 -0.9178
   74MPD2    C2 1149   3.459   3.015  13.859  0.4466 -0.0370 -0.1056
   74MPD2    C3 1150   3.387   2.904  13.824  0.4344  0.2386 -0.1389
   74MPD2    C4 1151   3.303   2.929  13.718 -0.0736 -0.5393  0.4136
   74MPD2    C5 1152   3.283   3.050  13.660 -0.3385  0.8001  0.0222
   74MPD2     H 1153   3.530   3.021  13.941  1.2614 -2.6283 -0.6255
   74MPD2    H1 1154   3.243   2.846  13.683 -2.4953  1.3995 -0.0605
   74MPD2    H2 1155   3.334   3.253  13.667 -0.9059 -1.2529 -3.1286
   74MPD2    H3 1156   3.208   3.056  13.583  0.4879 -0.4789 -0.9005
   74MPD2     N 1157   3.395   2.778  13.879  0.1646  0.7766 -0.2875
   74MPD2    H5 1158   3.328   2.707  13.849 -0.2699  1.3582 -0.7028
   74MPD2    N1 1159   3.519   3.256  13.834 -0.4643 -0.3724  0.0726
   74MPD2    H7 1160   3.495   3.346  13.792 -0.9605 -0.5939 -0.1222
   75TMC2    C1 1161   4.004   4.221  13.385  0.8217 -0.4203 -0.2926
   75TMC2    C2 1162   4.043   4.345  13.378  0.7178 -0.4235 -0.1191
   75TMC2    C3 1163   3.960   4.438  13.316  0.1515 -0.1056  0.5464
   75TMC2    C4 1164   3.881   4.182  13.348 -0.5793  0.7558  0.2616
   75TMC2    C5 1165   3.803   4.277  13.286  0.0826  0.4613  0.2087
   75TMC2    C6 1166   3.842   4.406  13.264 -0.2823  0.2293 -0.1618
   75TMC2     C 1167   4.085   4.136  13.473  0.4086 -0.0253  0.0409
   75TMC2     O 1168   4.169   4.193  13.545  0.1518 -0.3979 -0.1862
   75TMC2     H 1169   4.142   4.376  13.409  0.1343  1.3538 -0.0611
   75TMC2    H1 1170   3.848   4.079  13.353 -0.8410  0.8780  1.1345
   75TMC2    H2 1171   3.785   4.484  13.216 -1.3111 -0.6852 -0.4272
   75TMC2    C7 1172   3.670   4.237  13.237  0.2191 -0.5592 -0.0309
   75TMC2    C8 1173   4.006   4.565  13.273  0.0315 -0.4040  0.5294
   75TMC2    O1 1174   3.624   4.127  13.268 -0.6401 -0.1865 -0.4849
   75TMC2    O2 1175   3.993   4.605  13.156 -0.5703  0.0803  0.0878
   75TMC2    O5 1176   4.026   4.635  13.385  0.1654 -0.0793 -0.5364
   75TMC2    H5 1177   4.039   4.590  13.471  0.5486 -1.7685 -1.4791
   76TMC2    C1 1178   2.749   4.448  11.945 -0.6638  0.5933  0.1578
   76TMC2    C2 1179   2.646   4.420  12.029  0.9226 -0.5313  0.3375
   76TMC2    C3 1180   2.660   4.325  12.125  0.9152  0.2986  0.5323
   76TMC2    C4 1181   2.867   4.390  11.964  0.2051 -0.0244  0.0110
   76TMC2    C5 1182   2.884   4.290  12.055 -0.6981 -0.2048  0.9299
   76TMC2    C6 1183   2.776   4.261  12.139  0.1888 -0.0270  0.8098
   76TMC2     C 1184   2.707   4.488  11.813 -0.4246 -0.3936  0.0903
   76TMC2     O 1185   2.592   4.500  11.784  0.4709 -0.3431 -0.0174
   76TMC2     H 1186   2.546   4.453  12.003  0.2041 -2.6625  0.4123
   76TMC2    H1 1187   2.952   4.417  11.902 -0.1095 -3.3384 -1.9203
   76TMC2    H2 1188   2.789   4.180  12.210 -1.0158 -1.3202 -0.4520
   76TMC2    C7 1189   3.001   4.315  12.129 -0.3545  0.2087 -0.4715
   76TMC2    C8 1190   2.540   4.258  12.165 -0.3929  0.2111 -0.0663
   76TMC2    O1 1191   3.039   4.434  12.140 -0.1862  0.1103 -0.1992
   76TMC2    O2 1192   2.435   4.256  12.100 -0.3675 -0.6202 -0.1249
   76TMC2    O5 1193   2.565   4.178  12.275  0.3084 -0.0770  0.3949
   76TMC2    H5 1194   2.645   4.180  12.331  0.1611 -1.1808  0.6381
   77MPD2     C 1195   2.780   4.738  11.371  0.2111  0.5878 -0.0748
   77MPD2    C1 1196   2.672   4.704  11.447 -0.1101 -0.5696 -0.5905
   77MPD2    C2 1197   2.680   4.638  11.566 -0.0297  0.6739  0.4254
   77MPD2    C3 1198   2.799   4.599  11.616  0.2360  0.1364  0.1730
   77MPD2    C4 1199   2.913   4.632  11.540  0.2040 -0.3846  0.7297
   77MPD2    C5 1200   2.905   4.701  11.423  0.2127  0.0989  1.1774
   77MPD2     H 1201   2.582   4.604  11.596 -0.0150  0.4443  0.2169
   77MPD2    H1 1202   3.015   4.607  11.570  1.0803  0.1464 -1.7621
   77MPD2    H2 1203   2.770   0.043  11.273  1.2002  0.7286 -0.1106
   77MPD2    H3 1204   3.000   4.717  11.373 -0.5936  0.6429 -0.1620
   77MPD2     N 1205   2.814   4.534  11.740  0.2473 -0.8373  0.6000
   77MPD2    H5 1206   2.906   4.537  11.783  0.8278 -0.5258 -0.6838
   77MPD2    N1 1207   2.545   4.734  11.405  0.1062  0.2288 -0.0664
   77MPD2    H7 1208   2.476   4.723  11.479  3.0224  3.6059  3.1260
   78TMC2    C1 1209   3.602   0.671   0.369 -0.3370  0.2363 -0.1802
   78TMC2    C2 1210   3.473   0.635   0.398  0.0796 -0.0548 -0.5298
   78TMC2    C3 1211   3.449   0.593   0.525 -0.3389 -0.2257  0.0390
   78TMC2    C4 1212   3.704   0.691   0.456 -0.0445  0.9442  0.5298
   78TMC2    C5 1213   3.661   0.661   0.588  0.2604  0.7788  0.1872
   78TMC2    C6 1214   3.543   0.602   0.623  0.2623  0.6302 -0.2721
   78TMC2     C 1215   3.642   0.658   0.226 -0.4151 -0.4602 -0.2596
   78TMC2     O 1216   3.555   0.606   0.157  0.1214 -1.0339  0.1041
   78TMC2     H 1217   3.408   0.592   0.322  0.6370 -0.8871 -0.5353
   78TMC2    H1 1218   3.803   0.723   0.425 -1.2747  0.6147 -3.7673
   78TMC2    H2 1219   3.506   0.573   0.721 -0.8758  1.5555 -0.4168
   78TMC2    C7 1220   3.765   0.672   0.685 -0.4612 -0.3260 -0.2208
   78TMC2    C8 1221   3.337   0.506   0.554  0.0553  0.8622 -0.5929
   78TMC2    O1 1222   3.867   0.712   0.639  1.0274  0.0385 -0.1455
   78TMC2    O2 1223   3.344   0.427   0.644  0.4261 -0.0385  0.3144
   78TMC2    O5 1224   3.222   0.562   0.512 -0.9265  0.1266 -0.0938
   78TMC2    H5 1225   3.238   0.650   0.472  1.4499  0.4876  1.6802
   79MPD1     C 1226   3.884   0.817  17.557 -1.1126 -0.5387 -0.6653
   79MPD1    C1 1227   3.808   0.704  17.577 -0.6493 -0.3802 -0.6125
   79MPD1    C2 1228   3.763   0.681  17.708  0.7828 -0.8179  0.5750
   79MPD1    C3 1229   3.790   0.768   0.059  0.6525 -0.1180 -0.1702
   79MPD1    C4 1230   3.853   0.884   0.033  0.7359 -0.3445  0.6377
   79MPD1    C5 1231   3.901   0.901  17.662 -0.3614 -0.1626  0.2867
   79MPD1     H 1232   3.702   0.594  17.731  0.4142 -0.8165 -0.4186
   79MPD1    H1 1233   3.871   0.949   0.118  1.1916  1.0421 -0.5257
   79MPD1    H2 1234   3.934   0.843  17.464  0.2157 -0.5731  0.0361
   79MPD1    H3 1235   3.972   0.983  17.651  1.3376 -1.3922  2.0431
   79MPD1     N 1236   3.742   0.742   0.190 -0.1690 -0.1107 -0.1362
   79MPD1    H5 1237   3.784   0.798   0.263  2.7083  0.3221 -2.1036
   79MPD1    N1 1238   3.803   0.609  17.481 -0.4397 -0.1558 -0.6135
   79MPD1    H6 1239   3.722   0.551  17.502  0.7720 -1.4847  0.3430
   79MPD1    H7 1240   3.800   0.646  17.386  0.0170 -0.1255 -0.6169
   80TMC2    C1 1241   1.803   3.803  11.654  1.0535  0.6119  0.0454
   80TMC2    C2 1242   1.825   3.815  11.519 -0.5227 -0.5017  0.1020
   80TMC2    C3 1243   1.743   3.733  11.444  0.2333 -0.6202  0.0577
   80TMC2    C4 1244   1.708   3.723  11.717 -0.6976  0.7248 -0.8547
   80TMC2    C5 1245   1.627   3.652  11.631  0.6827 -0.5128 -0.7090
   80TMC2    C6 1246   1.652   3.648  11.497  0.3370  0.4585 -0.6849
   80TMC2     C 1247   1.906   3.853  11.744  0.0912 -0.3307 -0.1067
   80TMC2     O 1248   2.018   3.873  11.694  0.0574  0.0208 -0.0271
   80TMC2     H 1249   1.909   3.873  11.481 -0.6840  0.2157  0.8443
   80TMC2    H1 1250   1.695   3.723  11.824 -1.3594 -0.4929 -0.9352
   80TMC2    H2 1251   1.579   3.604  11.431  0.0597 -0.5423  0.2835
   80TMC2    C7 1252   1.523   3.571  11.675 -0.5065  0.4416 -0.2672
   80TMC2    C8 1253   1.769   3.721  11.307 -0.8481 -0.2100  0.0172
   80TMC2    O1 1254   1.478   3.488  11.595  0.2445  0.0549  0.0380
   80TMC2    O2 1255   1.702   3.653  11.234 -0.2811  0.5474  0.0238
   80TMC2    O5 1256   1.903   3.702  11.319 -0.1924  0.0911 -0.5394
   80TMC2    H5 1257   1.948   3.789  11.324  3.2590 -1.7926  1.5056
   81MPD2     C 1258   2.057   3.957  11.974  0.6087  0.3896 -0.8159
   81MPD2    C1 1259   1.923   3.981  11.963 -0.6638 -0.2378  0.0807
   81MPD2    C2 1260   1.856   4.067  12.049  0.7275  0.7170  0.0191
   81MPD2    C3 1261   1.925   4.130  12.151 -0.6396  0.7187 -0.6218
   81MPD2    C4 1262   2.059   4.106  12.162  0.0712 -0.2494 -0.3223
   81MPD2    C5 1263   2.124   4.021  12.076  0.1799 -0.1183 -0.0880
   81MPD2     H 1264   1.749   4.084  12.040  0.8818  1.3217 -0.6730
   81MPD2    H1 1265   2.122   4.158  12.234  0.6372 -0.3546 -0.7414
   81MPD2    H2 1266   2.114   3.898  11.903 -0.4960 -1.6571  0.0157
   81MPD2    H3 1267   2.231   4.010  12.090 -0.2679 -0.5421  3.0329
   81MPD2     N 1268   1.862   4.208  12.251 -0.4284 -0.4519  0.5143
   81MPD2    H5 1269   1.918   4.232  12.332  0.6549  0.4967 -0.5263
   81MPD2    N1 1270   1.851   3.916  11.852  0.5827  0.1304 -0.1455
   81MPD2    H7 1271   1.753   3.939  11.836  0.6437  0.4496 -0.0458
   82TMC2    C1 1272   4.240   3.546  11.140  0.7044 -0.0353  0.4802
   82TMC2    C2 1273   4.294   3.604  11.253 -0.1301 -0.6383 -0.0533
   82TMC2    C3 1274   4.267   3.542  11.377  0.7343 -0.0912 -0.0935
   82TMC2    C4 1275   4.160   3.434  11.149 -0.4627  0.0632 -0.0677
   82TMC2    C5 1276   4.148   3.376  11.271  0.2767 -0.6481 -0.5467
   82TMC2    C6 1277   4.187   3.436  11.389 -0.2178 -0.3955 -0.1030
   82TMC2     C 1278   4.239   3.617  11.012  0.1572  0.2012  0.4994
   82TMC2     O 1279   4.169   3.562  10.931 -0.2496  0.0573 -0.2517
   82TMC2     H 1280   4.367   3.684  11.262  0.7656 -1.7388  2.6121
   82TMC2    H1 1281   4.133   3.386  11.055 -0.5676  1.0170 -0.5219
   82TMC2    H2 1282   4.146   3.399  11.482 -0.1189  0.0502  0.1170
   82TMC2    C7 1283   4.101   3.243  11.293  0.3886  1.0877  0.0042
   82TMC2    C8 1284   4.292   3.620  11.494  0.1664 -0.0319  0.3133
   82TMC2    O1 1285   4.108   3.208  11.411 -0.2341 -0.0348  0.5039
   82TMC2    O2 1286   4.255   3.735  11.489  0.0545 -0.3076  0.6928
   82TMC2    O5 1287   4.297   3.537  11.595  0.1719 -0.1687 -0.0363
   82TMC2    H5 1288   4.327   3.449  11.565 -1.2661  0.3901 -3.1106
   83MPD2     C 1289   4.321   4.010  10.681  0.4384  0.1199  0.2006
   83MPD2    C1 1290   4.228   3.907  10.683 -0.1286  0.7838  0.7012
   83MPD2    C2 1291   4.230   3.811  10.788  0.0667  0.7687  0.3930
   83MPD2    C3 1292   4.326   3.814  10.886 -1.0629 -0.2667  0.1559
   83MPD2    C4 1293   4.424   3.918  10.884  0.7128 -0.2797  0.1374
   83MPD2    C5 1294   4.417   4.012  10.782  0.2167 -0.3158  0.5742
   83MPD2     H 1295   4.157   3.731  10.792  1.7549 -0.9143 -2.2141
   83MPD2    H1 1296   4.497   3.937  10.962  0.6703  1.6714 -0.2929
   83MPD2    H2 1297   4.321   4.085  10.604 -1.6336 -0.6349 -0.5279
   83MPD2    H3 1298   4.486   4.095  10.779 -3.1393  2.5084  1.2715
   83MPD2     N 1299   4.327   3.722  10.994 -0.7454 -0.2291 -0.0535
   83MPD2    H5 1300   4.392   3.737  11.070 -0.7133 -0.1035 -0.1056
   83MPD2    N1 1301   4.136   3.909  10.583 -0.0143 -0.2238  0.0140
   83MPD2    H7 1302   4.153   3.991  10.526  0.0831 -1.0389 -1.1308
   84TMC2    C1 1303   0.696   2.781  10.533 -0.0324 -0.5276  0.1658
   84TMC2    C2 1304   0.770   2.865  10.457  0.4261  0.0630 -0.6693
   84TMC2    C3 1305   0.762   2.839  10.321 -0.4081 -0.0277  0.7511
   84TMC2    C4 1306   0.627   2.673  10.482 -0.1617 -0.0799 -0.0530
   84TMC2    C5 1307   0.636   2.641  10.351  0.0309 -0.5593 -0.4286
   84TMC2    C6 1308   0.709   2.723  10.271  0.6644 -0.1439 -0.2250
   84TMC2     C 1309   0.669   2.823  10.671 -0.3619  0.8659 -0.4223
   84TMC2     O 1310   0.701   2.937  10.700 -0.3423  0.3064  0.5091
   84TMC2     H 1311   0.809   2.957  10.501  0.2270  0.2120 -0.8050
   84TMC2    H1 1312   0.558   2.615  10.544  0.9000 -0.8529  0.4046
   84TMC2    H2 1313   0.739   2.688  10.173 -0.6432 -0.4096 -0.5221
   84TMC2    C7 1314   0.559   2.520  10.305 -0.1904  0.0127  0.0182
   84TMC2    C8 1315   0.837   2.935  10.238 -0.1706  0.8718  0.0720
   84TMC2    O1 1316   0.501   2.455  10.388 -0.3938 -0.3239  0.3449
   84TMC2    O2 1317   0.920   3.011  10.283  0.0558  0.5982 -0.0537
   84TMC2    O5 1318   0.816   2.907  10.104 -0.7382 -0.1484  0.3185
   84TMC2    H5 1319   0.728   2.866  10.091 -0.6065  0.3623 -2.1119
   85TMC2    C1 1320   2.600   0.589  16.005  0.2400  1.3742 -0.5687
   85TMC2    C2 1321   2.710   0.529  16.043  0.5310  0.1192 -0.0381
   85TMC2    C3 1322   2.815   0.601  16.089 -0.2909 -0.7534  0.2598
   85TMC2    C4 1323   2.583   0.726  16.003  0.0011 -0.1304 -0.4500
   85TMC2    C5 1324   2.692   0.803  16.045  0.1477 -0.1336  0.5247
   85TMC2    C6 1325   2.811   0.740  16.081  0.1843  0.1641 -0.2340
   85TMC2     C 1326   2.488   0.506  16.028  0.3047 -0.5242 -0.4424
   85TMC2     O 1327   2.385   0.538  15.972  0.0461 -0.5305 -0.3166
   85TMC2     H 1328   2.718   0.421  16.038 -0.4185  0.2040 -4.0762
   85TMC2    H1 1329   2.497   0.784  15.972 -1.1319 -1.2412  0.6000
   85TMC2    H2 1330   2.905   0.788  16.104 -0.7448  1.2390  1.3416
   85TMC2    C7 1331   2.700   0.941  16.007 -1.2772 -0.1441 -0.0469
   85TMC2    C8 1332   2.940   0.529  16.098 -0.5702 -0.0706  0.1792
   85TMC2    O1 1333   2.593   0.996  15.988  0.0151 -0.0698 -0.0164
   85TMC2    O2 1334   2.937   0.410  16.063  0.8117  0.2370  0.7722
   85TMC2    O5 1335   3.001   0.574  16.208  0.2960  0.1685  0.4794
   85TMC2    H5 1336   2.989   0.666  16.239 -0.5059 -0.1561  1.1374
   86MPD2     C 1337   2.244   0.210  16.373 -0.1134  0.2765 -0.1968
   86MPD2    C1 1338   2.194   0.264  16.253 -0.1220  0.0892 -0.4779
   86MPD2    C2 1339   2.283   0.341  16.177  0.1772 -0.3408  0.1093
   86MPD2    C3 1340   2.417   0.356  16.211  0.5097  0.2461 -0.0753
   86MPD2    C4 1341   2.470   0.289  16.322 -0.6860  0.1230 -0.1443
   86MPD2    C5 1342   2.378   0.219  16.402 -0.5461  0.2607 -0.0309
   86MPD2     H 1343   2.240   0.391  16.091  1.9842 -1.9953 -1.7931
   86MPD2    H1 1344   2.578   0.285  16.335 -0.5373  0.0706 -1.4851
   86MPD2    H2 1345   2.193   0.156  16.452 -1.4144 -1.3317 -2.1559
   86MPD2    H3 1346   2.429   0.157  16.474  2.3398  1.0288 -1.3739
   86MPD2     N 1347   2.512   0.422  16.132 -0.6588 -0.2272  0.3147
   86MPD2    H5 1348   2.608   0.427  16.164 -0.1417 -1.7186 -1.0180
   86MPD2    N1 1349   2.065   0.221  16.201 -0.5564 -0.1226  0.6878
   86MPD2    H7 1350   2.042   0.243  16.104  0.5038 -0.4366  0.3579
   87TMC2    C1 1351   4.289   4.072   0.861 -0.5785 -0.6769 -0.0023
   87TMC2    C2 1352   4.367   4.069   0.971  0.1407 -0.3903 -0.1716
   87TMC2    C3 1353   4.325   4.143   1.078  0.1765  0.3995  0.2205
   87TMC2    C4 1354   4.170   4.134   0.859 -0.4359 -0.2738 -0.2724
   87TMC2    C5 1355   4.135   4.214   0.966  0.0262  0.0896  0.5015
   87TMC2    C6 1356   4.207   4.215   1.078 -0.0271 -0.5858  0.6031
   87TMC2     C 1357   4.332   4.000   0.746 -0.1104 -0.2029  0.1736
   87TMC2     O 1358   4.296   4.040   0.636  0.1812  0.6341 -0.0598
   87TMC2     H 1359   4.461   4.016   0.962  0.5756  0.2327  0.7577
   87TMC2    H1 1360   4.108   4.139   0.771 -1.2589  0.3794  0.3406
   87TMC2    H2 1361   4.180   4.272   1.165 -1.8676 -1.2421  0.4804
   87TMC2    C7 1362   4.005   4.275   0.973  0.2518  0.3249 -0.5395
   87TMC2    C8 1363   4.434   4.179   1.169 -0.3453 -0.1759 -0.1747
   87TMC2    O1 1364   3.993   4.373   1.043  0.4527  0.6180 -0.3378
   87TMC2    O2 1365   4.529   4.105   1.181  0.5370  0.8328  0.0685
   87TMC2    O5 1366   4.407   4.274   1.256  0.1513  0.1124  0.0163
   87TMC2    H5 1367   4.340   4.340   1.229  0.5732  0.5460  0.0395
   88MPD2     C 1368   3.741   4.196   0.730  0.0779 -0.3099 -0.5390
   88MPD2    C1 1369   3.802   4.269   0.831 -0.1127  0.8837 -0.1900
   88MPD2    C2 1370   3.750   4.386   0.874 -0.0510 -0.7066  0.1091
   88MPD2    C3 1371   3.640   4.440   0.803  0.3580  0.2384 -0.2657
   88MPD2    C4 1372   3.568   4.364   0.713 -0.5394 -0.7746  0.2264
   88MPD2    C5 1373   3.621   4.242   0.678 -0.2278  0.0801  0.1466
   88MPD2     H 1374   3.790   4.441   0.958  0.6740  0.7312 -1.1694
   88MPD2    H1 1375   3.484   4.403   0.656 -0.4749  1.3213  1.5354
   88MPD2    H2 1376   3.781   4.108   0.681 -1.2378 -0.1897 -1.8184
   88MPD2    H3 1377   3.572   4.181   0.604 -0.6315 -1.0511  1.3463
   88MPD2     N 1378   3.599   4.577   0.811  0.1830  0.6011  0.5011
   88MPD2    H5 1379   3.521   4.608   0.753  1.3722 -1.4332 -2.1869
   88MPD2    N1 1380   3.920   4.215   0.881 -0.3186 -0.5081 -0.5700
   88MPD2    H7 1381   3.940   4.126   0.839 -1.0697 -0.3467 -1.2794
   89TMC2    C1 1382   0.197   2.938   1.803 -0.4275  0.6536 -1.3145
   89TMC2    C2 1383   0.306   2.987   1.867  0.0875 -0.3377 -0.1153
   89TMC2    C3 1384   0.375   3.094   1.812 -0.1597 -0.5519 -0.9836
   89TMC2    C4 1385   0.142   2.995   1.692  0.2082 -0.5661 -0.8269
   89TMC2    C5 1386   0.219   3.106   1.646 -0.4005  0.6379  0.3307
   89TMC2    C6 1387   0.325   3.168   1.705 -0.5387  0.0786 -0.2959
   89TMC2     C 1388   0.167   2.794   1.831  0.2766 -0.0749  0.0853
   89TMC2     O 1389   0.260   2.734   1.879  0.3075  0.5916 -0.7399
   89TMC2     H 1390   0.350   2.936   1.951 -0.1981  0.8023  0.7257
   89TMC2    H1 1391   0.079   2.942   1.620 -2.1118 -1.4568  1.8574
   89TMC2    H2 1392   0.376   3.248   1.653 -0.6140  1.3585  1.6216
   89TMC2    C7 1393   0.189   3.132   1.508 -0.4537 -0.1110 -0.9435
   89TMC2    C8 1394   0.479   3.148   1.893  0.3715  0.5988 -0.1509
   89TMC2    O1 1395   0.073   3.143   1.479 -0.1638 -0.1212  0.5940
   89TMC2    O2 1396   0.481   3.136   2.012  0.3059 -0.4995 -0.4411
   89TMC2    O5 1397   0.571   3.201   1.812  0.5923  0.2002  0.0102
   89TMC2    H5 1398   0.551   3.192   1.716  0.0840 -0.2775  0.1605
   90MPD2     C 1399   4.715   2.337   1.689 -0.9532 -0.3846 -0.1162
   90MPD2    C1 1400   4.625   2.439   1.654 -0.4641 -0.1167 -0.4105
   90MPD2    C2 1401   4.655   2.568   1.683 -0.2137 -0.0699  0.4427
   90MPD2    C3 1402   0.034   2.601   1.740  0.2827  0.8530 -0.0830
   90MPD2    C4 1403   0.114   2.502   1.792  0.3987 -0.0287 -0.0784
   90MPD2    C5 1404   0.082   2.374   1.755 -0.2302 -0.0624 -0.3997
   90MPD2     H 1405   4.580   2.640   1.650  1.3940  2.7609  2.9843
   90MPD2    H1 1406   0.208   2.506   1.846 -0.3776  0.5191  1.2289
   90MPD2    H2 1407   4.698   2.234   1.660 -2.1679  0.1702 -1.3687
   90MPD2    H3 1408   0.148   2.295   1.790  0.0910  0.8722  1.1521
   90MPD2     N 1409   0.056   2.743   1.766 -0.1590  0.7611 -0.3625
   90MPD2    H5 1410   4.722   2.807   1.741 -3.6415 -2.3291  2.1977
   90MPD2    N1 1411   4.489   2.417   1.607 -0.4962 -0.1775  0.2442
   90MPD2    H7 1412   4.424   2.495   1.607 -0.0935  0.1564  0.3479
   91TMC2    C1 1413   2.283   1.138  16.134 -0.3261  0.2267  0.2131
   91TMC2    C2 1414   2.399   1.117  16.203 -0.5815 -0.6130 -0.1134
   91TMC2    C3 1415   2.400   1.032  16.318  0.2422  0.0922  0.5952
   91TMC2    C4 1416   2.168   1.065  16.160  0.1635 -0.3188 -0.1305
   91TMC2    C5 1417   2.171   0.981  16.274  0.4056  0.5824  0.3120
   91TMC2    C6 1418   2.283   0.959  16.349 -0.2380  0.1753  0.0251
   91TMC2     C 1419   2.266   1.259  16.056  0.4560  0.5223  0.1548
   91TMC2     O 1420   2.209   1.247  15.950 -0.2697 -0.2752 -0.1787
   91TMC2     H 1421   2.481   1.169  16.157  0.1343 -0.7782  0.9640
   91TMC2    H1 1422   2.082   1.100  16.104  1.4638  2.1921 -0.5787
   91TMC2    H2 1423   2.282   0.883  16.427  0.5979 -2.5926 -2.6670
   91TMC2    C7 1424   2.054   0.923  16.319 -0.1585 -0.4173 -0.1491
   91TMC2    C8 1425   2.526   0.988  16.364  0.5515 -1.3178  0.5447
   91TMC2    O1 1426   2.058   0.889  16.437  0.1894 -0.1380 -0.2638
   91TMC2    O2 1427   2.627   0.996  16.303  0.0841 -0.0113  0.0872
   91TMC2    O5 1428   2.518   0.998  16.495  0.3545 -0.2384 -0.1753
   91TMC2    H5 1429   2.430   1.032  16.524  0.4028  1.0399 -1.5626
   92MPD2     C 1430   2.191   1.541  15.985 -0.0794  0.0245 -0.6265
   92MPD2    C1 1431   2.291   1.506  16.067  0.2537 -0.1963 -0.0956
   92MPD2    C2 1432   2.374   1.609  16.113 -0.7111  0.2879 -0.1042
   92MPD2    C3 1433   2.353   1.737  16.081  0.0648 -0.3713  0.7677
   92MPD2    C4 1434   2.263   1.774  15.980  1.2632  0.4579  0.2723
   92MPD2    C5 1435   2.179   1.674  15.945  0.1458 -0.3359 -0.3541
   92MPD2     H 1436   2.458   1.590  16.180 -0.5713 -0.1110 -0.3911
   92MPD2    H1 1437   2.243   1.877  15.954 -0.6423 -0.1310 -0.6120
   92MPD2    H2 1438   2.117   1.469  15.951 -0.9724  0.1545  1.0343
   92MPD2    H3 1439   2.096   1.693  15.879 -1.0893 -0.1010  1.2629
   92MPD2     N 1440   2.433   1.833  16.146  0.0474  0.7319 -0.3915
   92MPD2    H5 1441   2.504   1.798  16.210  0.2323  0.1983 -0.8795
   92MPD2    N1 1442   2.308   1.374  16.116 -0.1760  0.9934 -0.1337
   92MPD2    H7 1443   2.356   1.361  16.204 -0.0276 -0.6646 -0.4677
   93TMC2    C1 1444   3.852   1.981  14.049 -0.2019 -0.5412  0.3159
   93TMC2    C2 1445   3.807   2.049  14.156 -0.9983  0.2781 -0.2388
   93TMC2    C3 1446   3.892   2.145  14.208  0.5253 -0.2030 -0.8124
   93TMC2    C4 1447   3.969   2.015  13.983  0.0146  0.7340 -0.5287
   93TMC2    C5 1448   4.053   2.102  14.047  0.4865 -0.1076  0.5420
   93TMC2    C6 1449   4.019   2.169  14.163 -1.1881 -0.0086 -0.2585
   93TMC2     C 1450   3.755   1.914  13.962  0.6588  0.0941  0.0454
   93TMC2     O 1451   3.804   1.849  13.871 -0.2239 -0.4444 -0.5041
   93TMC2     H 1452   3.715   2.021  14.207 -1.0756  0.7362 -0.1259
   93TMC2    H1 1453   3.997   1.965  13.891  1.7128 -1.2018  1.0188
   93TMC2    H2 1454   4.080   2.253  14.194 -1.1226  0.4066 -1.4816
   93TMC2    C7 1455   4.191   2.105  13.995  0.0423 -0.6355  0.0535
   93TMC2    C8 1456   3.835   2.203  14.334 -0.3194  0.0303 -0.2320
   93TMC2    O1 1457   4.220   2.050  13.886 -0.2832 -0.7512 -0.3974
   93TMC2    O2 1458   3.713   2.200  14.365  0.4994  0.3518  0.2629
   93TMC2    O5 1459   3.940   2.223  14.421  0.5285  0.3486 -0.2291
   93TMC2    H5 1460   4.032   2.214  14.389  0.6142  0.4288 -0.0037
   94MPD2     C 1461   3.539   1.823  13.803  0.0664 -0.8009  0.4263
   94MPD2    C1 1462   3.523   1.881  13.929  0.1886 -0.0185  0.4066
   94MPD2    C2 1463   3.395   1.881  13.975  0.3090  0.4573  0.0342
   94MPD2    C3 1464   3.283   1.834  13.901 -0.1437  0.7797  0.2508
   94MPD2    C4 1465   3.306   1.788  13.771  0.3441 -0.6944  0.3858
   94MPD2    C5 1466   3.437   1.781  13.728 -0.1346 -0.0127  0.3858
   94MPD2     H 1467   3.378   1.919  14.075 -1.1971  1.6062 -0.6522
   94MPD2    H1 1468   3.228   1.758  13.702 -0.0103  0.3442  0.3378
   94MPD2    H2 1469   3.636   1.809  13.756 -0.2829 -0.7422 -0.3126
   94MPD2    H3 1470   3.449   1.735  13.631  0.2404  2.2468 -0.6208
   94MPD2     N 1471   3.152   1.834  13.950  0.3465  0.4105 -0.4986
   94MPD2    H5 1472   3.075   1.817  13.887  0.0502  0.7835 -0.2398
   94MPD2    N1 1473   3.628   1.929  14.005  0.3822 -0.5765  0.4320
   94MPD2    H7 1474   3.606   1.970  14.095  0.3593 -1.9568  1.0616
   95TMC2    C1 1475   3.847   4.022  16.410  0.3655  0.0970 -0.3119
   95TMC2    C2 1476   3.943   4.100  16.476  1.0089  0.0253  0.6960
   95TMC2    C3 1477   3.901   4.161  16.596  0.0405  0.4524  0.0004
   95TMC2    C4 1478   3.723   4.003  16.456 -0.2702  0.1229 -0.3901
   95TMC2    C5 1479   3.686   4.065  16.578  0.6380  0.0274  0.0140
   95TMC2    C6 1480   3.770   4.147  16.636  0.0039  0.0166 -0.4246
   95TMC2     C 1481   3.883   3.982  16.278 -0.0826  1.0409  0.4348
   95TMC2     O 1482   3.969   4.046  16.222  0.1821 -0.5346 -0.3800
   95TMC2     H 1483   4.047   4.100  16.445  0.9418  2.1839  0.4992
   95TMC2    H1 1484   3.656   3.933  16.407  0.2563 -1.0958  0.6125
   95TMC2    H2 1485   3.739   4.194  16.729 -1.6048  0.2908 -1.0910
   95TMC2    C7 1486   3.546   4.085  16.587  0.8109 -0.0103 -0.3452
   95TMC2    C8 1487   3.968   4.265  16.669 -0.6634  0.2483 -0.5656
   95TMC2    O1 1488   3.479   4.060  16.487 -0.3208  0.0820 -0.5378
   95TMC2    O2 1489   3.949   4.294  16.788  0.1081 -0.2036  0.3794
   95TMC2    O5 1490   3.999   4.363  16.576 -0.2129 -0.1757 -0.0447
   95TMC2    H5 1491   3.982   4.338  16.482  2.8244 -2.0595 -0.0940
   96MPD2     C 1492   3.909   3.667  15.880  0.0205 -0.2398  0.0032
   96MPD2    C1 1493   3.966   3.790  15.894 -0.1231  0.3019  0.3453
   96MPD2    C2 1494   3.938   3.866  16.008 -0.2084 -0.7362  0.7471
   96MPD2    C3 1495   3.852   3.813  16.106  0.3687 -0.1383 -0.2171
   96MPD2    C4 1496   3.791   3.697  16.082  0.2136 -0.1498 -0.4407
   96MPD2    C5 1497   3.821   3.621  15.975 -0.3348  0.2511  0.7797
   96MPD2     H 1498   3.980   3.966  16.016 -1.5425 -0.2796  2.0192
   96MPD2    H1 1499   3.727   3.653  16.157 -2.7797  0.3723 -2.6908
   96MPD2    H2 1500   3.934   3.587  15.810  1.1397  0.7353 -0.7108
   96MPD2    H3 1501   3.767   3.528  15.964  0.0258  0.2407 -0.9872
   96MPD2     N 1502   3.819   3.870  16.234  0.5465 -0.0980  0.1467
   96MPD2    H5 1503   3.768   3.811  16.299  0.1703  0.9672  0.8195
   96MPD2    N1 1504   4.065   3.823  15.802 -0.4722  0.2864 -0.3754
   96MPD2    H7 1505   4.070   3.760  15.723  2.6990 -0.5203  0.4788
   97TMC2    C1 1506   1.246   2.475   0.285  0.6516  0.6093  0.1813
   97TMC2    C2 1507   1.188   2.459   0.163  0.5188 -0.4438 -0.1538
   97TMC2    C3 1508   1.260   2.486   0.058  0.1748 -0.8092 -0.9248
   97TMC2    C4 1509   1.375   2.515   0.309 -0.0377  0.1784  0.5662
   97TMC2    C5 1510   1.447   2.534   0.190  0.2253 -0.0091  0.2925
   97TMC2    C6 1511   1.390   2.533   0.065  0.7441 -0.0616 -0.0111
   97TMC2     C 1512   1.152   2.467   0.394 -0.0331 -0.7904 -0.2453
   97TMC2     O 1513   1.158   2.555   0.477  0.5483  0.0367 -0.3918
   97TMC2     H 1514   1.085   2.427   0.148 -0.0800  0.2751  2.3447
   97TMC2    H1 1515   1.421   2.535   0.405 -1.9493  2.2110  1.0879
   97TMC2    H2 1516   1.446   2.560  17.736  0.0346 -0.1647 -0.4961
   97TMC2    C7 1517   1.578   2.587   0.201 -0.2470  0.1995  0.3302
   97TMC2    C8 1518   1.214   2.469  17.676  0.2528  0.4019  0.2739
   97TMC2    O1 1519   1.627   2.641   0.106  0.1319 -0.1616 -0.2087
   97TMC2    O2 1520   1.284   2.528  17.595  0.3811 -0.1933 -0.0094
   97TMC2    O5 1521   1.163   2.350  17.669  0.3802 -0.0041 -0.2478
   97TMC2    H5 1522   1.112   2.316  17.746  1.3248  0.4610  0.5764
   98MPD2     C 1523   0.804   2.187   0.662 -0.3281  0.4584  0.3545
   98MPD2    C1 1524   0.881   2.292   0.699  0.5457 -0.0427  0.2956
   98MPD2    C2 1525   0.966   2.351   0.604 -0.3451 -0.1262  0.2362
   98MPD2    C3 1526   0.974   2.304   0.476  0.4782 -0.0192  0.2666
   98MPD2    C4 1527   0.902   2.189   0.442  0.0632 -0.6620  0.2617
   98MPD2    C5 1528   0.815   2.137   0.534  0.1654 -0.0186  0.4571
   98MPD2     H 1529   1.032   2.431   0.636  0.3994 -0.6154 -0.0921
   98MPD2    H1 1530   0.906   2.145   0.343 -1.1528 -2.3872  0.9741
   98MPD2    H2 1531   0.748   2.127   0.732  0.6757  1.4448  2.0019
   98MPD2    H3 1532   0.751   2.053   0.510  0.2503 -0.5217  2.0211
   98MPD2     N 1533   1.064   2.359   0.379  0.1469  0.1378  0.3910
   98MPD2    H5 1534   1.074   2.302   0.296  1.0037  2.3704 -1.0495
   98MPD2    N1 1535   0.858   2.341   0.827 -0.2227 -0.0883  0.0400
   98MPD2    H7 1536   0.803   2.288   0.893  2.5870 -0.8987  1.7245
   99TMC2    C1 1537   0.497   3.564   1.739 -0.3103  0.3069  0.1590
   99TMC2    C2 1538   0.573   3.524   1.845 -0.3209 -0.2759 -0.0167
   99TMC2    C3 1539   0.515   3.551   1.967 -0.0323  0.0539 -0.2767
   99TMC2    C4 1540   0.371   3.616   1.744 -0.4641  0.7997  0.0693
   99TMC2    C5 1541   0.323   3.637   1.872  0.4692 -0.1840  0.0927
   99TMC2    C6 1542   0.386   3.599   1.985  0.1764 -0.6269  0.9573
   99TMC2     C 1543   0.555   3.534   1.609  0.1438 -0.2991 -0.2943
   99TMC2     O 1544   0.673   3.494   1.604 -0.0151  0.0153 -0.8839
   99TMC2     H 1545   0.665   3.469   1.831  0.4044  1.1230 -0.7956
   99TMC2    H1 1546   0.326   3.666   1.659 -0.9919  0.9404  0.4300
   99TMC2    H2 1547   0.330   3.603   2.078  1.6844  1.2864  1.7862
   99TMC2    C7 1548   0.190   3.694   1.888  0.2262 -0.4269  0.5449
   99TMC2    C8 1549   0.582   3.504   2.085  0.7307 -0.3251 -0.4483
   99TMC2    O1 1550   0.163   3.758   1.992  0.2142  0.0266  0.3481
   99TMC2    O2 1551   0.647   3.398   2.094 -0.4511 -0.3514  0.0721
   99TMC2    O5 1552   0.542   3.578   2.189  0.3515  0.8129  0.6519
   99TMC2    H5 1553   0.517   3.670   2.166  0.1956  1.1440  2.1411
  100MPD2     C 1554   0.604   3.436   1.326 -0.1234  0.0325 -0.2584
  100MPD2    C1 1555   0.483   3.477   1.375  0.3800 -0.3605 -0.5205
  100MPD2    C2 1556   0.376   3.472   1.289  0.1921 -0.4838  1.2266
  100MPD2    C3 1557   0.399   3.440   1.151  0.1539 -0.3020  0.5672
  100MPD2    C4 1558   0.523   3.397   1.105 -0.6469 -0.8652 -0.1927
  100MPD2    C5 1559   0.625   3.402   1.191 -0.7539  0.0046  1.0649
  100MPD2     H 1560   0.278   3.506   1.321 -0.2284 -1.2931  0.7989
  100MPD2    H1 1561   0.540   3.353   1.007 -2.9783 -1.0663 -0.4986
  100MPD2    H2 1562   0.686   3.418   1.394 -1.9804 -4.2562  0.8913
  100MPD2    H3 1563   0.724   3.367   1.163 -0.2910  2.6904 -0.6433
  100MPD2     N 1564   0.283   3.451   1.065  0.3651 -0.3860 -0.7901
  100MPD2    H5 1565   0.190   3.466   1.103  0.4964  1.5846 -1.2426
  100MPD2    N1 1566   0.461   3.522   1.510  0.4814  0.2003  0.0381
  100MPD2    H7 1567   0.368   3.554   1.534  0.3301 -0.6380  0.5737
  101TMC2    C1 1568   0.737   4.439  13.090  0.5039  0.4101  0.2141
  101TMC2    C2 1569   0.638   4.496  13.166 -0.1067 -0.4659  0.0082
  101TMC2    C3 1570   0.598   4.626  13.128 -0.6363 -0.1668  0.5276
  101TMC2    C4 1571   0.808   4.500  12.992 -0.1171 -0.6682  0.3253
  101TMC2    C5 1572   0.770   4.625  12.954 -0.0182 -0.0453  0.7206
  101TMC2    C6 1573   0.659   4.683  13.016 -0.4123 -0.1332  0.1433
  101TMC2     C 1574   0.744   4.295  13.106  0.4049  0.0590  0.9454
  101TMC2     O 1575   0.743   4.242  13.217  0.3167  0.2393 -0.3117
  101TMC2     H 1576   0.581   4.439  13.239  2.0682 -0.5533  1.6514
  101TMC2    H1 1577   0.898   4.455  12.953 -1.0973 -3.0613  0.8069
  101TMC2    H2 1578   0.644   0.049  13.002  0.9973 -0.0106 -0.4022
  101TMC2    C7 1579   0.840   4.698  12.854  0.3582 -0.2513 -0.0354
  101TMC2    C8 1580   0.469   4.665  13.170 -0.1286  0.3454  0.2491
  101TMC2    O1 1581   0.959   4.664  12.830 -0.2369  0.2936  0.7431
  101TMC2    O2 1582   0.406   4.602  13.258  0.4409 -0.2846  0.4202
  101TMC2    O5 1583   0.413   4.701  13.056 -0.2667 -0.3469 -0.4465
  101TMC2    H5 1584   0.487   4.718  12.993  1.1449  0.0712  1.2979
  102MPD2     C 1585   0.723   4.048  12.841  0.6409  0.4112  0.2533
  102MPD2    C1 1586   0.704   4.098  12.972  0.1192  0.6370 -0.6244
  102MPD2    C2 1587   0.638   4.021  13.057  0.1837 -0.2442  0.4728
  102MPD2    C3 1588   0.591   3.896  13.026  0.7434 -0.2135  0.2692
  102MPD2    C4 1589   0.619   3.845  12.900  0.6088  0.5193 -0.1305
  102MPD2    C5 1590   0.691   3.924  12.806  0.0683  0.5441 -0.1036
  102MPD2     H 1591   0.609   4.062  13.153 -0.0932 -0.4303  0.4673
  102MPD2    H1 1592   0.592   3.744  12.870  0.8141 -0.4245  2.8881
  102MPD2    H2 1593   0.772   4.103  12.761 -0.4609  0.2818 -0.5031
  102MPD2    H3 1594   0.721   3.885  12.709 -2.3461 -1.0710 -0.2063
  102MPD2     N 1595   0.521   3.824  13.124  0.2959  0.8437  0.0539
  102MPD2    H5 1596   0.513   3.862  13.217  2.2514  0.7027  0.2850
  102MPD2    N1 1597   0.731   4.235  12.988  0.1812 -0.1554  0.2128
  102MPD2    H7 1598   0.747   4.292  12.906 -1.7587 -1.4485 -1.0687
  103TMC2    C1 1599   3.398   4.592  12.603 -0.1691 -0.5161 -0.0203
  103TMC2    C2 1600   3.516   4.525  12.625  0.0700  0.2186  0.1024
  103TMC2    C3 1601   3.604   4.587  12.709 -0.0685 -0.1574  0.1951
  103TMC2    C4 1602   3.363   4.707  12.667  0.1119  0.1166  0.3167
  103TMC2    C5 1603   3.443   0.019  12.762  0.3633 -0.0567 -0.4105
  103TMC2    C6 1604   3.557   4.693  12.781 -0.3250  0.3923 -0.1246
  103TMC2     C 1605   3.294   4.518  12.543  0.1617  0.0093 -0.5922
  103TMC2     O 1606   3.193   4.573  12.501 -0.2737  0.8479  0.6297
  103TMC2     H 1607   3.553   4.432  12.584  0.3166 -0.1076  1.0574
  103TMC2    H1 1608   3.264   0.009  12.651  0.0248 -0.7739 -1.5442
  103TMC2    H2 1609   3.609   4.728  12.870 -1.3502 -1.0593  1.0442
  103TMC2    C7 1610   3.379   0.062  12.887 -0.6475 -0.3986 -0.3711
  103TMC2    C8 1611   3.711   4.511  12.754  0.4144  0.0020 -0.0517
  103TMC2    O1 1612   3.420   0.009  12.990  0.3912  0.4444  0.4612
  103TMC2    O2 1613   3.762   4.425  12.680 -0.1280  0.3875  0.5234
  103TMC2    O5 1614   3.733   4.524  12.887  0.3726  0.7303 -0.5980
  103TMC2    H5 1615   3.677   4.586  12.938  0.5743 -1.0161  1.7466
  104MPD2     C 1616   3.274   4.147  12.537  0.0836  0.5347 -0.3128
  104MPD2    C1 1617   3.260   4.273  12.481  0.7153 -0.7899 -0.3299
  104MPD2    C2 1618   3.187   4.303  12.366  0.1166  0.0317 -1.2295
  104MPD2    C3 1619   3.119   4.193  12.315 -0.4848 -0.3108  0.7457
  104MPD2    C4 1620   3.136   4.066  12.369 -0.1890 -0.1743 -0.2626
  104MPD2    C5 1621   3.213   4.043  12.480  0.1133 -0.0635 -0.0795
  104MPD2     H 1622   3.183   4.404  12.326  1.5483  1.4475  2.2453
  104MPD2    H1 1623   3.073   3.984  12.337  1.1986 -1.9117  1.4414
  104MPD2    H2 1624   3.334   4.136  12.626 -1.1635 -2.9194  0.1165
  104MPD2    H3 1625   3.205   3.947  12.529  3.0737 -0.1376  0.2063
  104MPD2     N 1626   3.032   4.203  12.205  0.2118 -0.2597 -0.2341
  104MPD2    H5 1627   2.970   4.124  12.188 -1.8946  1.6624 -1.5575
  104MPD2    N1 1628   3.327   4.381  12.549 -0.8234  0.3168 -0.2858
  104MPD2    H7 1629   3.393   4.348  12.619 -0.3322  0.0401 -0.8839
  105TMC2    C1 1630   0.004   3.719  17.693 -0.6931  0.2721  0.1260
  105TMC2    C2 1631   4.710   3.853  17.666  0.2125 -0.1717  0.8855
  105TMC2    C3 1632   4.676   3.932   0.012  0.3350  0.0248  0.1327
  105TMC2    C4 1633   0.014   3.670   0.061 -0.2662 -0.8382 -0.3139
  105TMC2    C5 1634   4.713   3.757   0.156 -0.6228  0.2364 -0.3731
  105TMC2    C6 1635   4.679   3.888   0.137  0.2916 -0.1815  0.2975
  105TMC2     C 1636   0.054   3.632  17.595  0.2297 -0.0722  0.1147
  105TMC2     O 1637   0.068   3.517  17.637 -0.0646  0.3099  0.4336
  105TMC2     H 1638   4.703   3.898  17.568  1.4496 -0.5849  0.6058
  105TMC2    H1 1639   0.039   3.569   0.092  1.9267 -0.4798 -0.8869
  105TMC2    H2 1640   4.677   3.958   0.220  1.5520  0.2461 -0.0192
  105TMC2    C7 1641   4.700   3.711   0.289  0.6379 -0.2715  0.9014
  105TMC2    C8 1642   4.658   4.071  17.733 -0.8857 -0.5893 -0.0459
  105TMC2    O1 1643   0.049   3.638   0.326  0.0456 -0.7472 -0.5330
  105TMC2    O2 1644   4.675   4.117  17.620  0.7245  0.1434 -0.3175
  105TMC2    O5 1645   4.586   4.124   0.071 -0.0646  1.0110 -0.4604
  105TMC2    H5 1646   4.552   4.061   0.139  1.4528 -0.1163 -0.7504
  106MPD2     C 1647   0.222   3.503  17.136  0.1710  0.2553 -0.3253
  106MPD2    C1 1648   0.202   3.638  17.135  0.8752  1.2158  0.0458
  106MPD2    C2 1649   0.134   3.691  17.240  0.0970 -0.4511  0.4287
  106MPD2    C3 1650   0.112   3.622  17.358 -0.8407  0.1809 -0.9381
  106MPD2    C4 1651   0.136   3.491  17.358 -0.1802  0.0450 -1.2385
  106MPD2    C5 1652   0.187   3.431  17.245  0.1837 -0.3665 -0.4402
  106MPD2     H 1653   0.135   3.799  17.250 -1.7447 -0.3979  0.1582
  106MPD2    H1 1654   0.131   3.430  17.447  0.7862 -1.1766 -2.0089
  106MPD2    H2 1655   0.283   3.450  17.064  0.1876  0.8813 -0.7678
  106MPD2    H3 1656   0.217   3.327  17.242 -0.7807 -0.6061 -1.9628
  106MPD2     N 1657   0.071   3.695  17.473 -0.5552 -0.1992 -0.0082
  106MPD2    H5 1658   0.067   3.795  17.456 -3.9638 -0.6897 -2.1001
  106MPD2    N1 1659   0.253   3.729  17.036  0.1240  0.3266 -0.5881
  106MPD2    H7 1660   0.222   3.825  17.044 -1.9108 -0.4963  1.3800
  107TMC2    C1 1661   0.294   3.362  11.400  0.4352 -0.4792 -0.6636
  107TMC2    C2 1662   0.394   3.443  11.366 -0.2945 -0.2727  0.2052
  107TMC2    C3 1663   0.480   3.395  11.269 -0.2152 -0.4604  0.3024
  107TMC2    C4 1664   0.265   3.239  11.335 -0.8409  0.0065  0.3571
  107TMC2    C5 1665   0.354   3.196  11.240  0.2991 -0.4428 -0.1343
  107TMC2    C6 1666   0.462   3.272  11.208  0.2177 -0.3012  0.2105
  107TMC2     C 1667   0.206   3.398  11.505  0.1933  0.3544  0.4222
  107TMC2     O 1668   0.170   3.308  11.582  0.4701  0.4460  0.0036
  107TMC2     H 1669   0.404   3.537  11.419 -1.2712 -0.2490  0.3548
  107TMC2    H1 1670   0.185   3.180  11.378 -0.3700 -0.7028  0.2600
  107TMC2    H2 1671   0.541   3.225  11.150  1.0381  1.2024  0.1159
  107TMC2    C7 1672   0.337   3.056  11.199  0.1985  0.8273  0.4238
  107TMC2    C8 1673   0.612   3.452  11.272  0.4440 -0.4146  0.6737
  107TMC2    O1 1674   0.270   2.986  11.274 -0.4421  0.0400  0.2530
  107TMC2    O2 1675   0.656   3.524  11.360  0.1693  0.3636 -1.0744
  107TMC2    O5 1676   0.641   3.468  11.141 -0.0747  0.6885  0.1859
  107TMC2    H5 1677   0.591   3.418  11.073 -0.0927  2.0124 -0.7785
  108MPD2     C 1678   0.027   3.715  11.508 -0.2136 -0.2570  0.9715
  108MPD2    C1 1679   0.062   3.591  11.558 -0.2957 -0.2786  0.1302
  108MPD2    C2 1680   0.004   3.539  11.673 -0.9521  0.6916 -0.3788
  108MPD2    C3 1681   4.645   3.609  11.732  0.0820 -0.6799  0.7458
  108MPD2    C4 1682   4.598   3.727  11.677  0.8513  0.4011 -0.2560
  108MPD2    C5 1683   4.658   3.781  11.565  0.7488 -0.3677  0.0934
  108MPD2     H 1684   0.035   3.443  11.713 -2.4969  0.1335 -0.5134
  108MPD2    H1 1685   4.522   3.789  11.723 -0.3700 -2.0438  1.0715
  108MPD2    H2 1686   0.072   3.763  11.422 -0.7294 -1.1078  0.2241
  108MPD2    H3 1687   4.623   3.872  11.518 -2.2358 -0.6825  1.6776
  108MPD2     N 1688   4.589   3.577  11.849 -0.0599  0.0599 -0.0864
  108MPD2    H5 1689   4.532   3.648  11.893  1.6440 -0.1453  2.4107
  108MPD2    N1 1690   0.165   3.526  11.489  0.0102  0.7395  0.1841
  108MPD2    H7 1691   0.193   3.560  11.398 -1.0088  0.7183 -0.1428
  109TMC2    C1 1692   0.182   1.707   1.018  0.6878  0.2354  0.1217
  109TMC2    C2 1693   0.057   1.742   1.007  0.1165 -0.1628  0.1782
  109TMC2    C3 1694   0.017   1.862   1.041  0.7176 -0.5689 -0.2549
  109TMC2    C4 1695   0.272   1.786   1.076 -0.0984 -0.1844  0.2650
  109TMC2    C5 1696   0.222   1.908   1.124  0.5262  0.7138  0.6219
  109TMC2    C6 1697   0.095   1.951   1.101  1.0435  0.0021 -0.4243
  109TMC2     C 1698   0.242   1.581   0.982 -0.1490  0.5370 -0.3440
  109TMC2     O 1699   0.363   1.576   0.981  0.1329  0.2520 -0.2670
  109TMC2     H 1700   4.734   1.676   0.948  0.4400  2.6630 -3.3324
  109TMC2    H1 1701   0.372   1.759   1.109 -0.1335 -0.2595  0.3082
  109TMC2    H2 1702   0.061   2.054   1.110 -0.7171 -0.3786 -2.6248
  109TMC2    C7 1703   0.319   2.001   1.171 -0.2764  0.8270 -0.1565
  109TMC2    C8 1704   4.631   1.911   1.009  0.3873  0.1083 -1.0935
  109TMC2    O1 1705   0.433   1.974   1.152 -0.2915  0.2921 -0.4312
  109TMC2    O2 1706   4.605   2.030   1.002 -0.5367 -0.3563 -0.2888
  109TMC2    O5 1707   4.541   1.814   1.046 -0.6127 -0.0032  0.2821
  109TMC2    H5 1708   4.585   1.728   1.062  0.9132  0.8212  0.5598
  110MPD2     C 1709   0.245   1.069   0.890 -0.4302  0.4683  0.4728
  110MPD2    C1 1710   0.117   1.110   0.916  0.0101  0.1930 -0.3019
  110MPD2    C2 1711   0.087   1.244   0.941 -0.0506  0.1372  0.1443
  110MPD2    C3 1712   0.190   1.337   0.949 -1.3065  0.0413  0.3998
  110MPD2    C4 1713   0.321   1.293   0.917  0.4254  0.1359 -0.2842
  110MPD2    C5 1714   0.343   1.162   0.896 -0.4041  0.3692 -0.5649
  110MPD2     H 1715   4.724   1.272   0.958 -0.8715 -1.4870 -2.1171
  110MPD2    H1 1716   0.405   1.360   0.922  0.2263  0.3455  0.3747
  110MPD2    H2 1717   0.270   0.965   0.874  1.2087  1.1579 -1.3797
  110MPD2    H3 1718   0.444   1.125   0.879 -0.6018  0.0586 -1.0646
  110MPD2     N 1719   0.159   1.472   0.973  0.4030 -0.0929 -0.4399
  110MPD2    H5 1720   0.059   1.482   0.989  0.7610  0.0562  1.6615
  110MPD2    N1 1721   0.017   1.014   0.920 -0.5206 -0.3196 -0.0142
  110MPD2    H7 1722   0.040   0.920   0.888 -0.0815 -0.2350  0.0579
  111TMC2    C1 1723   0.482   0.383  11.887  0.4467 -0.0577 -0.9331
  111TMC2    C2 1724   0.414   0.314  11.985  0.7014  0.2917 -0.6202
  111TMC2    C3 1725   0.487   0.270  12.089  0.5943  0.9976 -0.0098
  111TMC2    C4 1726   0.621   0.377  11.870  0.2089 -0.3285  0.3505
  111TMC2    C5 1727   0.688   0.327  11.979  1.0784 -0.4716 -0.2645
  111TMC2    C6 1728   0.626   0.275  12.090 -0.3217 -0.2042 -0.1634
  111TMC2     C 1729   0.412   0.437  11.775  0.2146  0.3415  0.6681
  111TMC2     O 1730   0.475   0.470  11.679 -0.0822 -0.2382 -0.3658
  111TMC2     H 1731   0.306   0.324  11.994  0.5542 -0.7765 -1.1355
  111TMC2    H1 1732   0.671   0.431  11.791  0.9701 -1.2827  0.1754
  111TMC2    H2 1733   0.684   0.246  12.177 -2.9277 -0.9389  1.3337
  111TMC2    C7 1734   0.825   0.369  12.008 -0.1334 -0.2529  0.5967
  111TMC2    C8 1735   0.424   0.209  12.203 -0.2325  1.0142 -0.2548
  111TMC2    O1 1736   0.877   0.357  12.119 -0.3833  0.0671  0.7548
  111TMC2    O2 1737   0.309   0.237  12.234  0.2801  0.2035  0.1833
  111TMC2    O5 1738   0.500   0.097  12.241  0.1065  0.1358  0.3229
  111TMC2    H5 1739   0.579   0.092  12.183 -2.4848 -1.2092 -3.1414
  112MPD2     C 1740   4.708   0.492  11.535 -0.0287 -0.1460  0.3837
  112MPD2    C1 1741   0.091   0.467  11.485  0.9644 -0.5229  0.4892
  112MPD2    C2 1742   0.198   0.462  11.572  0.8231  0.3036  0.5236
  112MPD2    C3 1743   0.179   0.483  11.708  0.3060 -0.1219 -0.4284
  112MPD2    C4 1744   0.056   0.516  11.751 -0.7319 -0.1818  0.1500
  112MPD2    C5 1745   4.689   0.518  11.667  0.2986  0.6405 -0.0585
  112MPD2     H 1746   0.300   0.458  11.537  0.3662 -1.4995 -0.5547
  112MPD2    H1 1747   0.033   0.519  11.857  0.6095 -0.8583  0.4652
  112MPD2    H2 1748   4.618   0.488  11.475  0.2424 -0.7638  0.0162
  112MPD2    H3 1749   4.590   0.526  11.712  0.9070 -1.8015  1.7474
  112MPD2     N 1750   0.281   0.469  11.806  0.0904  0.3154  0.4028
  112MPD2    H5 1751   0.253   0.475  11.903 -1.4000  1.8929 -0.1368
  112MPD2    N1 1752   0.128   0.434  11.354 -0.1372  0.4469 -0.2468
  112MPD2    H7 1753   0.229   0.443  11.341  0.2006 -1.6637  0.8372
  113TMC2    C1 1754   3.703   3.321   0.139 -0.1326 -0.1162 -0.1471
  113TMC2    C2 1755   3.745   3.407   0.044  0.6649  0.3991 -0.5840
  113TMC2    C3 1756   3.675   3.411  17.689  0.1038 -0.0770  0.0971
  113TMC2    C4 1757   3.595   3.241   0.125 -0.3099 -0.2391  0.3345
  113TMC2    C5 1758   3.534   3.238  17.758  0.1413 -0.1222  1.0132
  113TMC2    C6 1759   3.575   3.326  17.659 -0.1649 -0.0531  0.0125
  113TMC2     C 1760   3.720   3.375   0.276 -0.6376 -0.1148 -0.1521
  113TMC2     O 1761   3.730   3.496   0.276 -0.5439 -0.2281  0.3770
  113TMC2     H 1762   3.822   3.482   0.055  0.9400 -0.0483  0.4868
  113TMC2    H1 1763   3.552   3.184   0.206  0.7230 -2.8506 -0.9669
  113TMC2    H2 1764   3.547   3.332  17.555  2.2949  1.2892 -0.5791
  113TMC2    C7 1765   3.420   3.150  17.721 -0.1025  0.2793 -0.4148
  113TMC2    C8 1766   3.733   3.486  17.588  0.5841  0.3709  0.3760
  113TMC2    O1 1767   3.387   3.144  17.606  0.4066  0.0461 -0.1445
  113TMC2    O2 1768   3.853   3.484  17.577  0.5430 -0.0919  0.0750
  113TMC2    O5 1769   3.648   3.568  17.523 -0.3583 -0.4568  0.1921
  113TMC2    H5 1770   3.556   3.567  17.559  0.5428  1.5634  2.5713
  114MPD2     C 1771   3.732   3.351   0.791  0.3526 -0.0840  0.2016
  114MPD2    C1 1772   3.701   3.455   0.711 -0.8116  0.7064 -0.4949
  114MPD2    C2 1773   3.700   3.442   0.570 -0.1341 -0.6022 -0.2099
  114MPD2    C3 1774   3.721   3.315   0.514  0.1983  0.4004  0.4817
  114MPD2    C4 1775   3.742   3.209   0.601 -0.0131 -0.1109  0.0920
  114MPD2    C5 1776   3.760   3.228   0.736 -0.0443 -0.5536  0.5230
  114MPD2     H 1777   3.688   3.530   0.508  1.7425  0.3578  0.7837
  114MPD2    H1 1778   3.763   3.107   0.569  2.9128  0.1673  1.1252
  114MPD2    H2 1779   3.746   3.357   0.898  3.2767  1.3568 -0.2834
  114MPD2    H3 1780   3.775   3.139   0.797 -1.3072 -1.4147 -0.4289
  114MPD2     N 1781   3.734   3.286   0.380 -0.5262 -0.1772 -0.2527
  114MPD2    H5 1782   3.747   3.186   0.363  2.0098  0.5161 -2.3102
  114MPD2    N1 1783   3.686   3.588   0.768  0.2296  0.2933 -0.1634
  114MPD2    H7 1784   3.658   3.660   0.702  1.4806 -0.3953 -1.4412
  115TMC2    C1 1785   4.734   1.145  17.614 -0.2319 -0.2068  0.4068
  115TMC2    C2 1786   0.117   1.178  17.660  0.1198  0.1493 -0.3116
  115TMC2    C3 1787   0.156   1.300  17.652  0.3017 -0.3903  0.1250
  115TMC2    C4 1788   4.660   1.227  17.542 -0.6993 -0.7607 -0.6060
  115TMC2    C5 1789   4.708   1.355  17.528 -0.1542  0.2715 -0.1645
  115TMC2    C6 1790   0.085   1.397  17.582  0.2636  0.2234  0.4021
  115TMC2     C 1791   4.680   1.012  17.627  0.5147  1.1798  0.4723
  115TMC2     O 1792   4.607   0.983  17.532 -0.6245  0.2696  0.4453
  115TMC2     H 1793   0.177   1.110  17.719  0.2242 -0.4511 -1.1156
  115TMC2    H1 1794   4.567   1.197  17.494  0.2368 -0.5636 -2.5663
  115TMC2    H2 1795   0.105   1.504  17.583  0.9371  0.1059 -0.3525
  115TMC2    C7 1796   4.615   1.443  17.472 -0.2812 -0.4148  0.1599
  115TMC2    C8 1797   0.293   1.328  17.694 -0.2675 -0.4365  0.0266
  115TMC2    O1 1798   4.496   1.418  17.484  0.6252 -0.1971 -1.0489
  115TMC2    O2 1799   0.346   1.251   0.017  0.5122 -0.2347 -0.0175
  115TMC2    O5 1800   0.342   1.444  17.644  0.1674 -0.3101 -0.2041
  115TMC2    H5 1801   0.279   1.476  17.576 -0.3856  1.1220  1.0017
  116MPD2     C 1802   4.648   0.544   0.059  0.1141  0.7206 -0.0013
  116MPD2    C1 1803   4.579   0.598  17.715 -0.4280 -0.1153 -0.2151
  116MPD2    C2 1804   4.601   0.735  17.684 -0.6756 -0.2062 -0.9266
  116MPD2    C3 1805   4.691   0.806  17.758 -0.4925  0.4519  0.2893
  116MPD2    C4 1806   0.005   0.750   0.109  0.2811 -0.1776 -0.4837
  116MPD2    C5 1807   4.726   0.618   0.135  0.2270  0.0355  0.3221
  116MPD2     H 1808   4.555   0.787  17.601  2.6087  1.1200 -1.9380
  116MPD2    H1 1809   0.072   0.806   0.174  0.8640 -3.2575  1.5561
  116MPD2    H2 1810   4.636   0.438   0.082  0.1884  0.1241 -2.7887
  116MPD2    H3 1811   0.030   0.587   0.230 -0.7388 -1.0622  0.4129
  116MPD2     N 1812   4.727   0.943  17.734 -0.5462 -0.2383 -0.1132
  116MPD2    H5 1813   0.049   0.980   0.045 -0.1018 -0.5573 -0.3389
  116MPD2    N1 1814   4.486   0.520  17.638 -0.2375  0.7407  0.9366
  116MPD2    H7 1815   4.485   0.419  17.653 -1.7730  0.3948 -1.5845
  117TMC2    C1 1816   2.861   2.187  14.174 -0.6799  0.2489 -0.2029
  117TMC2    C2 1817   2.858   2.134  14.297  0.4215  0.2548 -0.9965
  117TMC2    C3 1818   2.961   2.167  14.381 -0.5428 -0.8626  0.2964
  117TMC2    C4 1819   2.955   2.273  14.135  0.2462  0.6176  0.1409
  117TMC2    C5 1820   3.049   2.321  14.219 -0.4173 -0.8433  0.3055
  117TMC2    C6 1821   3.059   2.260  14.344  1.1681 -0.1419  0.0219
  117TMC2     C 1822   2.749   2.164  14.088  0.4139  0.4075  0.5003
  117TMC2     O 1823   2.674   2.067  14.106 -0.7420  0.0440  0.4258
  117TMC2     H 1824   2.775   2.081  14.341  0.3804  0.8345 -0.3795
  117TMC2    H1 1825   2.965   2.307  14.033  2.0118 -0.3538 -0.0014
  117TMC2    H2 1826   3.131   2.283  14.422  0.9439  2.4121 -0.5336
  117TMC2    C7 1827   3.095   2.453  14.191  0.8846  0.4149 -0.0973
  117TMC2    C8 1828   2.963   2.110  14.514 -0.3361  0.0015 -0.5574
  117TMC2    O1 1829   3.037   2.518  14.099  0.3919  0.1658  0.0630
  117TMC2    O2 1830   2.869   2.102  14.587  0.1783 -0.5470 -0.2894
  117TMC2    O5 1831   3.086   2.074  14.550 -0.0448  0.0052 -0.0349
  117TMC2    H5 1832   3.144   2.047  14.476  0.5893 -0.6773  0.6996
  118MPD2     C 1833   3.294   2.657  14.428 -0.3301 -0.0024  0.4366
  118MPD2    C1 1834   3.223   2.627  14.312  0.0065 -0.3577 -0.1740
  118MPD2    C2 1835   3.183   2.728  14.226  0.1007 -0.1813 -0.3222
  118MPD2    C3 1836   3.217   2.860  14.256 -0.6990  0.0123 -0.0288
  118MPD2    C4 1837   3.291   2.887  14.372  0.1888  0.1056 -0.3102
  118MPD2    C5 1838   3.335   2.787  14.449  0.1832  0.3768 -0.1598
  118MPD2     H 1839   3.132   2.711  14.132  1.7471  0.8402 -1.4054
  118MPD2    H1 1840   3.325   2.987  14.398  0.4412 -0.3148  1.0105
  118MPD2    H2 1841   3.348   2.587  14.490 -1.0720 -1.6929 -0.8476
  118MPD2    H3 1842   3.396   2.807  14.536 -1.5988 -1.6877  1.5792
  118MPD2     N 1843   3.199   2.971  14.168  0.4414  0.4831 -0.3421
  118MPD2    H5 1844   3.255   3.052  14.191  0.4523 -0.3882  2.7468
  118MPD2    N1 1845   3.186   2.492  14.287 -0.3506  0.6423 -0.3147
  118MPD2    H7 1846   3.223   2.420  14.348  0.0235  0.8099 -0.3450
  119TMC2    C1 1847   1.038   3.414  13.179  0.6455  0.0158 -0.1647
  119TMC2    C2 1848   1.004   3.476  13.058 -0.0758 -0.1857  0.0373
  119TMC2    C3 1849   0.904   3.415  12.980  0.7890 -0.2472 -0.2760
  119TMC2    C4 1850   0.979   3.301  13.219  0.0272  0.0526 -0.2545
  119TMC2    C5 1851   0.889   3.240  13.139  1.2025 -0.5615  0.3973
  119TMC2    C6 1852   0.851   3.293  13.024  0.0180  0.0140  0.0545
  119TMC2     C 1853   1.127   3.486  13.270  0.7956  0.5951  0.5772
  119TMC2     O 1854   1.109   3.466  13.392 -0.2105  0.6071 -0.0797
  119TMC2     H 1855   1.061   3.561  13.021  0.5192 -0.9228 -0.7722
  119TMC2    H1 1856   0.997   3.280  13.324 -3.3996  2.1444  0.7642
  119TMC2    H2 1857   0.788   3.233  12.959  1.4235 -2.0564  0.5955
  119TMC2    C7 1858   0.775   3.222  13.226  0.7419 -0.2201  0.3180
  119TMC2    C8 1859   0.869   3.477  12.854 -0.0402  0.1750 -0.0903
  119TMC2    O1 1860   0.672   3.267  13.177 -0.5807 -0.4595  0.5107
  119TMC2    O2 1861   0.840   3.409  12.755  0.6552  0.2040 -0.1935
  119TMC2    O5 1862   0.936   3.587  12.842  0.8428 -0.0943 -0.0902
  119TMC2    H5 1863   0.939   3.640  12.924 -0.2226  2.0253 -1.3968
  120MPD2     C 1864   1.557   3.732  13.373 -0.2870 -0.3725  0.6049
  120MPD2    C1 1865   1.457   3.694  13.457 -0.3403  0.4344 -0.1876
  120MPD2    C2 1866   1.344   3.643  13.394 -0.4748  0.0845 -0.4705
  120MPD2    C3 1867   1.334   3.618  13.258  0.5386 -0.6027  0.0462
  120MPD2    C4 1868   1.440   3.656  13.179 -0.6681  0.0515 -0.1234
  120MPD2    C5 1869   1.539   3.721  13.236  0.2906 -0.0537 -0.5894
  120MPD2     H 1870   1.263   3.618  13.461  1.0013 -1.7217  0.6300
  120MPD2    H1 1871   1.429   3.657  13.072  2.0651 -1.3985 -0.4220
  120MPD2    H2 1872   1.650   3.773  13.411 -0.4968  1.1380 -0.4869
  120MPD2    H3 1873   1.622   3.762  13.180  0.5900  2.2206  1.5515
  120MPD2     N 1874   1.227   3.552  13.199  0.1064 -0.0364  0.3602
  120MPD2    H5 1875   1.225   3.539  13.099 -0.7900 -1.6648  0.5817
  120MPD2    N1 1876   1.472   3.726  13.597 -0.1109  0.0398  0.4866
  120MPD2    H7 1877   1.546   3.791  13.621  0.4532  1.5259 -5.4669
  121TMC2    C1 1878   2.368   0.520  14.320 -0.4044 -0.3090  0.0142
  121TMC2    C2 1879   2.382   0.415  14.409  0.6820 -1.3341  0.2893
  121TMC2    C3 1880   2.280   0.371  14.482  0.1883 -0.9237  0.1348
  121TMC2    C4 1881   2.249   0.580  14.305  0.2051 -0.4506  0.2921
  121TMC2    C5 1882   2.146   0.533  14.383  0.5180  0.1450  0.4696
  121TMC2    C6 1883   2.156   0.424  14.464 -0.2144  0.2762  0.0610
  121TMC2     C 1884   2.490   0.567  14.260  0.6415 -0.5900 -0.2782
  121TMC2     O 1885   2.594   0.506  14.288  0.4188 -0.1150  0.7905
  121TMC2     H 1886   2.478   0.368  14.424  0.6138 -0.5889  3.0872
  121TMC2    H1 1887   2.238   0.666  14.240  1.4472 -1.1501 -0.8221
  121TMC2    H2 1888   2.075   0.400  14.532 -2.8445  3.4834 -1.9081
  121TMC2    C7 1889   2.016   0.597  14.351  0.5048 -0.4409 -0.2811
  121TMC2    C8 1890   2.300   0.259  14.562 -0.5714 -0.6360  0.2634
  121TMC2    O1 1891   2.024   0.710  14.304  1.1826  0.1644  0.7245
  121TMC2    O2 1892   2.380   0.265  14.650  0.0474 -0.0967  0.2750
  121TMC2    O5 1893   2.180   0.187  14.565 -0.1173 -0.3013  0.5245
  121TMC2    H5 1894   2.122   0.216  14.491  1.4928 -2.3357 -1.5278
  122MPD2     C 1895   2.715   0.710  14.115  0.3098  0.8556  0.1047
  122MPD2    C1 1896   2.581   0.717  14.082  0.2617  0.0453 -0.2301
  122MPD2    C2 1897   2.554   0.788  13.964  0.0858 -0.1069 -0.3190
  122MPD2    C3 1898   2.652   0.843  13.884  0.0743  0.8297 -0.0359
  122MPD2    C4 1899   2.783   0.828  13.924 -0.0796  0.3337 -0.1881
  122MPD2    C5 1900   2.812   0.762  14.036 -0.0354 -0.3237  0.3362
  122MPD2     H 1901   2.453   0.779  13.927 -0.6318  0.9575  1.3318
  122MPD2    H1 1902   2.857   0.880  13.864  0.7871  1.0716  1.5452
  122MPD2    H2 1903   2.749   0.672  14.211  0.4778 -0.3409 -0.4215
  122MPD2    H3 1904   2.915   0.754  14.070  0.2214 -0.2963 -0.4158
  122MPD2     N 1905   2.630   0.917  13.769 -0.5166  0.3907 -0.1631
  122MPD2    H5 1906   2.712   0.960  13.727  0.1032 -0.2986  0.3458
  122MPD2    N1 1907   2.473   0.663  14.160 -0.4691 -0.2306 -0.0570
  122MPD2    H7 1908   2.381   0.684  14.122  0.2499 -0.9156 -2.1765
  123TMC2    C1 1909   0.327   3.737  11.081  0.2173  0.9203 -0.1069
  123TMC2    C2 1910   0.276   3.844  11.148 -0.1778  0.9199  0.4346
  123TMC2    C3 1911   0.339   3.963  11.118 -0.0255  0.1605  1.0574
  123TMC2    C4 1912   0.447   3.737  11.009  0.1916 -0.5802  0.2173
  123TMC2    C5 1913   0.506   3.856  10.996  0.3142 -0.2665  0.8518
  123TMC2    C6 1914   0.451   3.973  11.045 -0.2992 -0.3429 -0.9488
  123TMC2     C 1915   0.257   3.615  11.095  1.2831 -0.0660 -0.6005
  123TMC2     O 1916   0.181   3.604  11.193  0.0570  0.0627 -0.5184
  123TMC2     H 1917   0.177   3.838  11.193 -0.4778  2.6164  0.0032
  123TMC2    H1 1918   0.489   3.646  10.966  0.2305  0.2534 -1.5108
  123TMC2    H2 1919   0.508   4.065  11.040 -0.4715  0.0287  3.9625
  123TMC2    C7 1920   0.618   3.858  10.891 -0.5607 -0.8015  1.0360
  123TMC2    C8 1921   0.298   4.084  11.196  0.7185 -0.4161  0.0711
  123TMC2    O1 1922   0.662   3.747  10.864 -0.2221 -0.3943 -1.3928
  123TMC2    O2 1923   0.335   4.197  11.158 -0.1963  0.2464 -0.2219
  123TMC2    O5 1924   0.261   4.044  11.320  0.2612 -0.3975  0.0556
  123TMC2    H5 1925   0.274   3.954  11.357  1.7727 -0.6935 -1.2063
  124MPD2     C 1926   0.083   3.165  10.881  0.0056  0.4827  0.0154
  124MPD2    C1 1927   0.142   3.244  10.786  0.6178 -0.0695 -0.4898
  124MPD2    C2 1928   0.210   3.362  10.824  0.4256 -0.2904 -0.3421
  124MPD2    C3 1929   0.209   3.411  10.955  0.1493 -0.3076 -0.6384
  124MPD2    C4 1930   0.145   3.330  11.044 -0.1922  0.6941  0.0787
  124MPD2    C5 1931   0.085   3.213  11.008  0.2398  0.4625 -0.5317
  124MPD2     H 1932   0.263   3.425  10.753  0.8959  1.4944  1.5709
  124MPD2    H1 1933   0.134   3.352  11.150  0.0295 -0.6109  0.3752
  124MPD2    H2 1934   0.025   3.077  10.858 -0.1366  0.5389  0.1634
  124MPD2    H3 1935   0.019   3.162  11.077  0.7194  0.1106 -0.3297
  124MPD2     N 1936   0.272   3.536  10.981  0.3684  0.6388  0.2095
  124MPD2    H5 1937   0.330   3.574  10.907  2.0907 -2.7052 -0.1418
  124MPD2    N1 1938   0.135   3.205  10.651 -0.0863  0.7306  0.2148
  124MPD2    H7 1939   0.073   3.133  10.618 -0.4980  2.0015 -1.7769
  125TMC2    C1 1940   2.051   0.448   9.481  0.3444  0.8603  0.3332
  125TMC2    C2 1941   2.082   0.326   9.427 -0.6187 -0.2286 -0.2210
  125TMC2    C3 1942   2.127   0.324   9.298  0.6541 -0.0026  0.3626
  125TMC2    C4 1943   2.057   0.560   9.403  0.4543  0.3454  0.2965
  125TMC2    C5 1944   2.106   0.553   9.276 -0.0360  0.0937  0.1761
  125TMC2    C6 1945   2.145   0.437   9.224  0.2583 -0.3727  0.0224
  125TMC2     C 1946   2.000   0.465   9.610 -0.0382 -0.4805 -0.5144
  125TMC2     O 1947   1.959   0.580   9.639 -0.2238 -0.4175 -0.2562
  125TMC2     H 1948   2.059   0.233   9.479  1.5158 -0.8830 -0.4568
  125TMC2    H1 1949   2.051   0.657   9.450  0.6641  0.0596  0.9138
  125TMC2    H2 1950   2.184   0.429   9.124  0.7265 -3.8661  0.5031
  125TMC2    C7 1951   2.159   0.672   9.219  0.5562  0.1880 -0.0814
  125TMC2    C8 1952   2.176   0.191   9.251  0.2485 -0.4155 -0.9777
  125TMC2    O1 1953   2.101   0.772   9.240 -0.6473  0.4868 -0.0803
  125TMC2    O2 1954   2.122   0.088   9.294  0.1805  0.1571  0.6366
  125TMC2    O5 1955   2.290   0.210   9.187 -0.1147 -0.6372 -0.1729
  125TMC2    H5 1956   2.334   0.295   9.211 -1.4521  0.6852 -2.3713
  126MPD1     C 1957   1.792   0.277  10.042  0.5337  1.5109 -0.0497
  126MPD1    C1 1958   1.904   0.200  10.020 -0.8167  0.6323  0.1872
  126MPD1    C2 1959   1.962   0.224   9.893  0.6111 -0.6191  0.4425
  126MPD1    C3 1960   1.931   0.340   9.816 -0.8034 -0.0176 -0.1732
  126MPD1    C4 1961   1.829   0.422   9.848 -0.2631 -0.5887  0.3269
  126MPD1    C5 1962   1.762   0.387   9.963  0.0883 -0.0646  0.4132
  126MPD1     H 1963   2.048   0.172   9.853  0.0433 -1.0819 -0.1884
  126MPD1    H1 1964   1.791   0.500   9.783 -0.3951 -0.9389 -0.0160
  126MPD1    H2 1965   1.733   0.258  10.131  1.4332 -1.5056 -0.0876
  126MPD1    H3 1966   1.672   0.444   9.984 -0.6927 -0.5434 -1.6523
  126MPD1     N 1967   1.999   0.352   9.688 -0.8100  0.5300  0.4640
  126MPD1    H5 1968   2.061   0.280   9.653 -2.0790 -0.0070 -0.6654
  126MPD1    N1 1969   1.930   0.083  10.094 -0.4352  0.0102 -0.0924
  126MPD1    H6 1970   1.904   0.098  10.192  0.5985 -1.7806  0.4449
  126MPD1    H7 1971   2.029   0.064  10.086 -0.0246  1.7417  0.7584
  127TMC2    C1 1972   2.835   3.891   9.677 -0.9440 -0.7379  0.6293
  127TMC2    C2 1973   2.840   3.819   9.790  0.9391  0.1247 -0.4540
  127TMC2    C3 1974   2.745   3.719   9.796  0.0334 -0.4868  0.3521
  127TMC2    C4 1975   2.746   3.871   9.578 -0.0088  0.0754  0.1508
  127TMC2    C5 1976   2.670   3.758   9.578 -0.4275  0.4456 -0.2455
  127TMC2    C6 1977   2.663   3.685   9.696 -0.2915  0.5504  0.3607
  127TMC2     C 1978   2.940   3.997   9.667  0.3019 -0.4025  0.1987
  127TMC2     O 1979   2.984   4.047   9.768 -0.1671 -0.1321  0.4465
  127TMC2     H 1980   2.902   3.829   9.878  0.1456 -1.4775  0.2932
  127TMC2    H1 1981   2.743   3.938   9.493  1.2668  0.2203  0.2186
  127TMC2    H2 1982   2.592   3.603   9.698  2.4851 -1.9344 -0.8199
  127TMC2    C7 1983   2.560   3.748   9.475  0.1477  0.1385 -0.4694
  127TMC2    C8 1984   2.757   3.626   9.906  0.0172 -0.1694 -0.0887
  127TMC2    O1 1985   2.584   3.814   9.376 -0.1688 -0.2952  0.3558
  127TMC2    O2 1986   2.864   3.610   9.960 -0.1956 -0.7366  0.3442
  127TMC2    O5 1987   2.632   3.626   9.958  0.4422 -0.1600  0.1823
  127TMC2    H5 1988   2.567   3.664   9.895 -0.0440  1.0447  1.3837
  128MPD2     C 1989   3.108   4.110   9.364 -0.2015  0.3040 -0.1032
  128MPD2    C1 1990   3.079   4.113   9.498  0.3587 -0.6247 -0.5449
  128MPD2    C2 1991   3.125   4.218   9.583  0.3019  0.1142 -0.5422
  128MPD2    C3 1992   3.185   4.333   9.513 -0.2794  0.0694 -0.3281
  128MPD2    C4 1993   3.211   4.319   9.375 -0.2661 -0.6903 -0.5807
  128MPD2    C5 1994   3.165   4.215   9.302  0.2187 -0.0781  0.2480
  128MPD2     H 1995   3.094   4.231   9.686  1.0352  2.1313 -0.5638
  128MPD2    H1 1996   3.251   4.396   9.311 -1.3133 -0.9130 -1.4976
  128MPD2    H2 1997   3.073   4.029   9.301 -0.5893 -0.8948  1.6515
  128MPD2    H3 1998   3.175   4.216   9.194 -2.7959  2.3249 -0.0010
  128MPD2     N 1999   3.241   4.442   9.583 -0.3783 -0.0685 -0.1975
  128MPD2    H5 2000   3.236   4.428   9.683  1.2364 -1.4636 -0.2984
  128MPD2    N1 2001   2.982   4.014   9.540 -0.2727  0.3639  0.6372
  128MPD2    H7 2002   2.936   3.954   9.472  1.6008 -1.6800  1.1585
  129TMC2    C1 2003   1.377   0.374   1.515  0.4340  0.1714 -0.9976
  129TMC2    C2 2004   1.299   0.471   1.568  0.7630  0.5174 -0.0540
  129TMC2    C3 2005   1.228   0.445   1.674 -0.2928 -0.0134 -0.6574
  129TMC2    C4 2006   1.365   0.246   1.558 -0.1142 -0.9403 -0.0037
  129TMC2    C5 2007   1.270   0.219   1.650  0.1587  0.5428  0.3988
  129TMC2    C6 2008   1.196   0.317   1.712  0.6000 -0.2186 -0.2914
  129TMC2     C 2009   1.434   0.385   1.389  0.1561 -0.0976 -0.0047
  129TMC2     O 2010   1.514   0.303   1.355  0.0873 -0.3790 -0.2343
  129TMC2     H 2011   1.301   0.575   1.538  0.9253  0.5363  0.0255
  129TMC2    H1 2012   1.409   0.159   1.510  0.7063 -1.2663  1.3208
  129TMC2    H2 2013   1.133   0.297   1.798 -2.4189 -0.8774 -2.6492
  129TMC2    C7 2014   1.239   0.082   1.687  0.2973  0.0240 -0.2098
  129TMC2    C8 2015   1.144   0.556   1.708  0.2733 -0.1241 -0.4621
  129TMC2    O1 2016   1.124   0.049   1.711 -0.3288 -0.0464  0.5834
  129TMC2    O2 2017   1.189   0.668   1.721  0.0197 -0.1609  0.1709
  129TMC2    O5 2018   1.023   0.528   1.658 -0.7194  0.2268 -0.2579
  129TMC2    H5 2019   1.016   0.443   1.610  1.2933  0.6454 -1.3241
  130MPD2     C 2020   1.514   0.446   1.115  0.3734  0.8021 -0.3793
  130MPD2    C1 2021   1.407   0.502   1.173 -0.8693  0.6753  0.0777
  130MPD2    C2 2022   1.334   0.586   1.098  0.5841  0.2705  0.2854
  130MPD2    C3 2023   1.375   0.635   0.972  0.0724  1.0743  0.1954
  130MPD2    C4 2024   1.484   0.575   0.910  0.4079 -0.8257 -0.9243
  130MPD2    C5 2025   1.554   0.483   0.986  0.4704  0.6170 -0.2368
  130MPD2     H 2026   1.248   0.633   1.144 -0.3600 -1.1557 -0.0166
  130MPD2    H1 2027   1.530   0.605   0.817  1.8660  0.2957  0.1545
  130MPD2    H2 2028   1.562   0.356   1.153  0.8453  0.4346 -1.8657
  130MPD2    H3 2029   1.642   0.439   0.942 -0.0379 -0.7177  0.0743
  130MPD2     N 2030   1.298   0.743   0.915  0.7014 -0.1726 -0.5868
  130MPD2    H5 2031   1.219   0.764   0.974  1.3446  1.0078 -0.1274
  130MPD2    N1 2032   1.370   0.480   1.309 -0.3832 -0.4156  0.0987
  130MPD2    H7 2033   1.283   0.516   1.345 -0.1566 -0.0196  0.2581
  131TMC2    C1 2034   0.584   4.015  10.231  0.5265  0.7366 -0.0722
  131TMC2    C2 2035   0.530   4.086  10.336  0.1560 -0.2476 -0.3204
  131TMC2    C3 2036   0.589   4.201  10.385 -0.0920  0.1330  0.8919
  131TMC2    C4 2037   0.694   4.069  10.167  0.3066 -0.5561 -0.2514
  131TMC2    C5 2038   0.751   4.187  10.213 -0.4882 -0.0222 -0.8674
  131TMC2    C6 2039   0.695   4.255  10.318  0.2413 -0.1658 -0.1023
  131TMC2     C 2040   0.489   3.932  10.149 -0.0836  0.4316  0.2308
  131TMC2     O 2041   0.378   3.931  10.193  0.8737  0.6166  0.0914
  131TMC2     H 2042   0.433   4.055  10.372 -0.1075 -0.2348 -1.0294
  131TMC2    H1 2043   0.752   4.025  10.086  0.1778 -0.4456 -0.4019
  131TMC2    H2 2044   0.744   4.338  10.367  1.4517 -0.2410 -1.1716
  131TMC2    C7 2045   0.891   4.202  10.182 -0.3859  0.0969  0.4837
  131TMC2    C8 2046   0.564   4.248  10.521 -0.0521  0.4371 -0.1990
  131TMC2    O1 2047   0.960   4.104  10.181 -0.7374 -0.1498  0.6854
  131TMC2    O2 2048   0.594   4.360  10.558 -0.1810  0.0495  0.5155
  131TMC2    O5 2049   0.504   4.155  10.597  0.3139  0.0232  0.7835
  131TMC2    H5 2050   0.520   4.063  10.568  0.5199  0.7305 -1.3569
  132MPD2     C 2051   0.550   3.674   9.893 -0.7835  0.0431 -0.1794
  132MPD2    C1 2052   0.489   3.719  10.011  1.0036 -0.7832  0.3400
  132MPD2    C2 2053   0.395   3.653  10.076 -0.0855 -0.5073 -0.0490
  132MPD2    C3 2054   0.349   3.538  10.021  0.0173  0.7360  0.2990
  132MPD2    C4 2055   0.395   3.485   9.901 -0.1319 -0.1107 -0.2246
  132MPD2    C5 2056   0.499   3.556   9.836 -0.7348 -0.1592 -0.6336
  132MPD2     H 2057   0.360   3.691  10.171  0.0900  0.9448 -0.5682
  132MPD2    H1 2058   0.368   3.392   9.852  3.0811 -1.2597  0.2063
  132MPD2    H2 2059   0.642   3.712   9.849  0.1604 -1.5338  0.4275
  132MPD2    H3 2060   0.536   3.510   9.745 -1.1026 -0.9541 -0.3817
  132MPD2     N 2061   0.262   3.465  10.104 -0.7834 -0.4457  0.0386
  132MPD2    H5 2062   0.257   3.483  10.204  0.8861 -2.8345  0.5597
  132MPD2    N1 2063   0.543   3.840  10.062  0.0027  0.2349  0.3694
  132MPD2    H7 2064   0.636   3.854  10.024 -0.4277  1.9280 -0.0579
  133TMC2    C1 2065   0.452   0.058  10.025 -0.1003  0.7117  0.1148
  133TMC2    C2 2066   0.537   4.704  10.060 -0.6678 -0.3093  0.1283
  133TMC2    C3 2067   0.618   4.719  10.170 -0.3487  0.1193 -0.4056
  133TMC2    C4 2068   0.444   0.177  10.092 -0.2371 -0.4138  0.1377
  133TMC2    C5 2069   0.536   0.196  10.196 -0.0250  0.6094 -0.2698
  133TMC2    C6 2070   0.627   0.104  10.236 -0.9601 -0.2554 -0.0096
  133TMC2     C 2071   0.363   0.031   9.911 -0.1172 -0.0241  0.3150
  133TMC2     O 2072   0.342   4.653   9.891 -0.5129 -0.4361  0.5188
  133TMC2     H 2073   0.523   4.604  10.018 -1.9165 -1.1809  2.6238
  133TMC2    H1 2074   0.382   0.258  10.055 -1.7416 -1.2531  0.8490
  133TMC2    H2 2075   0.699   0.124  10.315 -1.7300 -2.5443  1.2899
  133TMC2    C7 2076   0.518   0.311  10.283  0.2740 -0.0180 -0.0890
  133TMC2    C8 2077   0.700   4.609  10.214 -0.6836 -0.9219  0.4891
  133TMC2    O1 2078   0.558   0.300  10.396  0.1414 -0.0018  0.1460
  133TMC2    O2 2079   0.721   4.508  10.147  0.2911 -0.8119  0.1395
  133TMC2    O5 2080   0.715   4.608  10.350 -0.6295 -0.0367 -0.4298
  133TMC2    H5 2081   0.678   4.688  10.393  0.3540  0.0147  0.3186
  134MPD2     C 2082   0.105   0.243   9.773 -0.2050 -0.3418  0.2269
  134MPD2    C1 2083   0.184   0.126   9.780 -0.4216  0.0630  0.8515
  134MPD2    C2 2084   0.129   0.015   9.709  0.7311  0.0271  0.2749
  134MPD2    C3 2085   0.017   0.026   9.625 -0.6058 -0.5389 -0.9534
  134MPD2    C4 2086   4.687   0.143   9.624 -0.2141  0.3775 -0.4080
  134MPD2    C5 2087   4.729   0.248   9.703  0.2028 -0.1910 -0.3881
  134MPD2     H 2088   0.185   4.663   9.712 -0.8313 -1.0407 -3.9585
  134MPD2    H1 2089   4.596   0.144   9.565 -0.9715 -0.7234  0.7360
  134MPD2    H2 2090   0.150   0.328   9.824  0.1787  0.9849 -2.3453
  134MPD2    H3 2091   4.661   0.333   9.703  0.3506 -0.0753 -1.3848
  134MPD2     N 2092   4.710   4.657   9.546  0.8793 -0.1026  0.1903
  134MPD2    H5 2093   4.616   4.655   9.507  0.5933 -0.3763  0.8878
  134MPD2    N1 2094   0.294   0.134   9.864 -0.1572  0.0939 -0.5179
  134MPD2    H7 2095   0.322   0.221   9.909 -2.2665 -0.2563  1.4335
  135TMC2    C1 2096   2.290   0.916   9.449 -0.2199  0.8459 -0.0892
  135TMC2    C2 2097   2.173   0.959   9.508  0.5162  0.8186 -0.6145
  135TMC2    C3 2098   2.130   0.883   9.613 -0.4333 -0.3159  0.5799
  135TMC2    C4 2099   2.365   0.813   9.488 -0.3708  0.2458  0.3381
  135TMC2    C5 2100   2.320   0.742   9.598 -0.3621 -0.2996  0.4034
  135TMC2    C6 2101   2.198   0.777   9.665  1.1902 -0.3018 -0.1361
  135TMC2     C 2102   2.348   1.015   9.355 -0.3542  1.1816  0.6849
  135TMC2     O 2103   2.283   1.114   9.332 -0.2246  0.1531  0.5933
  135TMC2     H 2104   2.123   1.047   9.470 -1.5630 -0.5836 -1.1460
  135TMC2    H1 2105   2.451   0.774   9.436 -1.6089 -1.8905 -0.1045
  135TMC2    H2 2106   2.165   0.734   9.759 -3.3539  0.6748 -1.2885
  135TMC2    C7 2107   2.357   0.603   9.613  0.0340 -0.4116  0.4130
  135TMC2    C8 2108   2.017   0.935   9.685  0.2192  0.1122  0.4390
  135TMC2    O1 2109   2.400   0.544   9.513  0.3916 -0.4791  0.1762
  135TMC2    O2 2110   1.989   1.057   9.689  0.0963  0.2217  0.1602
  135TMC2    O5 2111   1.946   0.831   9.733  0.4126 -0.1640 -0.0771
  135TMC2    H5 2112   1.974   0.744   9.697  1.2546 -0.3871  1.1220
  136MPD2     C 2113   2.487   1.147   9.135 -0.4186  0.1734  0.3314
  136MPD2    C1 2114   2.547   1.055   9.218 -0.6467 -0.6852  0.3245
  136MPD2    C2 2115   2.685   1.033   9.205  0.3956  0.2335 -0.4785
  136MPD2    C3 2116   2.767   1.110   9.127 -0.4493 -0.7355 -0.0804
  136MPD2    C4 2117   2.710   1.213   9.053 -0.2854  0.0797 -0.7785
  136MPD2    C5 2118   2.569   1.222   9.050  0.2058  0.8307 -0.4254
  136MPD2     H 2119   2.724   0.951   9.264  0.8121  0.7619 -0.0207
  136MPD2    H1 2120   2.769   1.277   8.987  1.5945 -1.9912 -1.1010
  136MPD2    H2 2121   2.383   1.174   9.125  0.3403  1.9115 -3.1334
  136MPD2    H3 2122   2.522   1.293   8.983 -0.2524  1.0779  0.1586
  136MPD2     N 2123   2.907   1.084   9.108 -0.1146  0.1670  0.2538
  136MPD2    H5 2124   2.948   1.155   9.048 -1.5990 -2.5976 -3.9634
  136MPD2    N1 2125   2.472   0.979   9.310  0.5805 -0.5806  0.2071
  136MPD2    H7 2126   2.519   0.899   9.350 -0.0808 -0.8278  0.4869
  137TMC2    C1 2127   1.752   0.121   9.313 -0.0596  0.2672  0.5225
  137TMC2    C2 2128   1.773   0.118   9.178  0.7876  0.2173  0.4248
  137TMC2    C3 2129   1.779   0.236   9.113  0.3324  0.2794 -0.3194
  137TMC2    C4 2130   1.750   0.234   9.389  0.2781  0.5084  0.6678
  137TMC2    C5 2131   1.753   0.348   9.315  1.0608  0.0624  0.4072
  137TMC2    C6 2132   1.778   0.356   9.182  0.0293 -0.5302 -0.7782
  137TMC2     C 2133   1.770   0.011   9.400  0.0258 -0.8572 -0.4507
  137TMC2     O 2134   1.827   0.023   9.507 -0.0336 -0.2233 -0.1841
  137TMC2     H 2135   1.822   0.036   9.127  0.0038 -0.5318  0.8681
  137TMC2    H1 2136   1.739   0.232   9.497 -1.8929  0.3956  0.4309
  137TMC2    H2 2137   1.806   0.448   9.132  0.6523 -0.8307 -0.9820
  137TMC2    C7 2138   1.696   0.471   9.381  0.1018  0.2665  0.9757
  137TMC2    C8 2139   1.854   0.239   8.988 -0.0008  0.3968  0.5612
  137TMC2    O1 2140   1.706   0.578   9.323  0.0079  0.5501  1.3373
  137TMC2    O2 2141   1.943   0.158   8.963  0.0562  0.1178 -0.1215
  137TMC2    O5 2142   1.777   0.322   8.903  0.5884  0.1257  0.0146
  137TMC2    H5 2143   1.698   0.364   8.944  2.7541  2.3617  1.9195
  138MPD2     C 2144   1.593   4.439   9.324  0.4819  0.1693  0.3157
  138MPD2    C1 2145   1.686   4.517   9.386  0.2755  0.2759 -0.2809
  138MPD2    C2 2146   1.776   4.466   9.478 -0.0735 -0.0413 -0.3035
  138MPD2    C3 2147   1.762   4.330   9.524  0.3439  0.2465  0.4149
  138MPD2    C4 2148   1.664   4.254   9.460 -0.5716 -0.1680 -0.4926
  138MPD2    C5 2149   1.585   4.303   9.357  0.7987  0.4452  0.0104
  138MPD2     H 2150   1.838   4.540   9.527 -0.1414 -0.2981  0.1682
  138MPD2    H1 2151   1.664   4.150   9.492  0.3068  0.4835  1.6327
  138MPD2    H2 2152   1.526   4.484   9.251 -0.4739 -0.6842  0.6621
  138MPD2    H3 2153   1.513   4.240   9.307 -0.6173  0.0965  2.4888
  138MPD2     N 2154   1.838   4.270   9.626 -0.5671 -0.1540 -0.3446
  138MPD2    H5 2155   1.821   4.175   9.656 -0.0608 -1.1468 -3.1665
  138MPD2    N1 2156   1.702   4.648   9.335  0.2223  0.3657  0.9571
  138MPD2    H7 2157   1.638   4.668   9.259  2.0453 -0.3471 -0.7618
  139TMC2    C1 2158   2.847   3.209  13.130  0.5850  0.5609  0.6803
  139TMC2    C2 2159   2.957   3.288  13.136  0.4349 -0.1615 -0.0753
  139TMC2    C3 2160   2.947   3.420  13.127 -0.7003 -0.0074  0.0521
  139TMC2    C4 2161   2.724   3.270  13.137 -0.3867  0.2460  0.6158
  139TMC2    C5 2162   2.716   3.405  13.118 -0.4221  0.2264  0.4663
  139TMC2    C6 2163   2.831   3.483  13.109 -0.7255  0.2191 -0.0231
  139TMC2     C 2164   2.866   3.067  13.173 -0.1506  0.6895 -0.3836
  139TMC2     O 2165   2.923   2.998  13.093 -0.1580  0.4619 -0.1538
  139TMC2     H 2166   3.049   3.231  13.139 -1.1731 -2.8279 -2.5072
  139TMC2    H1 2167   2.635   3.209  13.131 -0.5765  0.7009 -1.2139
  139TMC2    H2 2168   2.820   3.590  13.100  0.1122  0.2585 -0.5439
  139TMC2    C7 2169   2.595   3.474  13.163  0.0485 -0.0023  0.2067
  139TMC2    C8 2170   3.070   3.492  13.102 -0.3124  0.0076  0.2320
  139TMC2    O1 2171   2.589   3.597  13.171 -0.4645  0.4935 -0.0876
  139TMC2    O2 2172   3.159   3.459  13.028 -0.0268 -0.5633  0.0044
  139TMC2    O5 2173   3.083   3.590  13.197  0.5286 -0.7027 -0.0792
  139TMC2    H5 2174   3.010   3.585  13.263 -0.0920 -1.1604 -0.7984
  140MPD2     C 2175   2.900   2.953  13.512  0.3022 -0.3713  1.1508
  140MPD2    C1 2176   2.896   2.942  13.374  0.3428 -1.0106  0.2957
  140MPD2    C2 2177   2.935   2.817  13.314 -0.1654 -0.5215  0.6477
  140MPD2    C3 2178   2.986   2.723  13.403 -0.0424 -0.5596 -0.4359
  140MPD2    C4 2179   2.995   2.741  13.541  0.0926  0.3914 -0.5025
  140MPD2    C5 2180   2.950   2.858  13.600 -0.3949 -0.0998  0.3254
  140MPD2     H 2181   2.924   2.794  13.209 -0.9308  0.2498  0.5626
  140MPD2    H1 2182   3.030   2.662  13.607 -1.9769 -0.6253 -0.6108
  140MPD2    H2 2183   2.874   3.048  13.557 -0.0578 -0.8039  1.8423
  140MPD2    H3 2184   2.958   2.874  13.707 -0.5792  3.4393 -0.1844
  140MPD2     N 2185   3.034   2.605  13.341 -0.3452  0.0754 -0.2495
  140MPD2    H5 2186   3.017   2.604  13.241  0.9950 -1.4137 -0.4459
  140MPD2    N1 2187   2.842   3.056  13.307  0.2100  0.4812 -0.6301
  140MPD2    H7 2188   2.809   3.138  13.356 -0.4643  0.5064 -1.1154
  141TMC2    C1 2189   3.274   4.403  14.492 -0.4640  0.7024 -0.1185
  141TMC2    C2 2190   3.314   4.272  14.526 -0.1300  0.1082 -0.4651
  141TMC2    C3 2191   3.345   4.245  14.654  0.2968 -0.0471 -0.1406
  141TMC2    C4 2192   3.291   4.509  14.578 -0.8449  0.3705 -0.1453
  141TMC2    C5 2193   3.323   4.478  14.709 -0.5696 -0.2383  0.0206
  141TMC2    C6 2194   3.334   4.346  14.748 -0.4245  0.6633 -0.2088
  141TMC2     C 2195   3.229   4.432  14.357 -0.0381 -0.5255 -0.1771
  141TMC2     O 2196   3.170   4.539  14.336  0.7745 -0.0286  0.4184
  141TMC2     H 2197   3.308   4.184  14.463 -0.0991 -0.7422  0.7289
  141TMC2    H1 2198   3.269   4.611  14.549  1.2078  0.3495 -1.8029
  141TMC2    H2 2199   3.349   4.327  14.854  0.2729  0.2950 -0.3737
  141TMC2    C7 2200   3.378   4.578  14.803 -0.7174  0.0413  0.3771
  141TMC2    C8 2201   3.312   4.107  14.691  0.3345  0.2009 -0.3625
  141TMC2    O1 2202   3.414   4.547  14.921  0.1539 -0.1531 -0.6881
  141TMC2    O2 2203   3.218   4.041  14.641 -0.1056 -0.0222  0.5308
  141TMC2    O5 2204   3.352   4.095  14.818  0.3318  0.0508  0.5237
  141TMC2    H5 2205   3.441   4.134  14.833 -0.5684  2.0804  0.5217
  142TMC2    C1 2206   0.663   3.403  10.194 -0.2802  0.2586 -1.0706
  142TMC2    C2 2207   0.733   3.429  10.083  0.4567 -0.0825  0.6552
  142TMC2    C3 2208   0.816   3.541  10.087  0.1942 -0.4985 -1.2743
  142TMC2    C4 2209   0.647   3.496  10.290  0.3018 -0.1545 -1.0638
  142TMC2    C5 2210   0.736   3.597  10.298 -0.2897  0.0260  0.3721
  142TMC2    C6 2211   0.818   3.627  10.196 -0.4376 -0.0110 -1.2209
  142TMC2     C 2212   0.599   3.273  10.189  0.2244 -0.9080  0.2061
  142TMC2     O 2213   0.553   3.230  10.086 -0.1262 -0.1932 -0.2847
  142TMC2     H 2214   0.746   3.355  10.004  1.6323 -0.4275  1.1734
  142TMC2    H1 2215   0.576   3.481  10.371  0.3540 -0.9365 -1.1600
  142TMC2    H2 2216   0.878   3.717  10.196 -0.7044  0.1640 -2.1560
  142TMC2    C7 2217   0.725   3.689  10.414  0.2585  0.6597  0.2054
  142TMC2    C8 2218   0.938   3.506  10.019  0.2183 -0.2190  0.1823
  142TMC2    O1 2219   0.610   3.698  10.460  0.3885  0.3404  0.3254
  142TMC2    O2 2220   0.940   3.501   9.897 -0.3294 -0.3524  0.6063
  142TMC2    O5 2221   1.040   3.522  10.114  0.2631 -0.1610 -0.3189
  142TMC2    H5 2222   1.024   3.507  10.210  0.0644  3.8745  0.2785
  143MPD2     C 2223   0.332   2.932  10.445 -0.0094  0.1495 -0.0772
  143MPD2    C1 2224   0.351   2.942  10.310  0.2142 -0.5021  0.5525
  143MPD2    C2 2225   0.437   3.040  10.260 -0.0691 -0.3361 -0.3385
  143MPD2    C3 2226   0.509   3.118  10.351  0.7000 -0.2876 -0.2393
  143MPD2    C4 2227   0.498   3.092  10.485  0.2628 -0.5227 -0.4834
  143MPD2    C5 2228   0.416   2.993  10.529 -1.0066 -0.0908  0.3404
  143MPD2     H 2229   0.441   3.057  10.153  3.3086 -0.8015 -0.2817
  143MPD2    H1 2230   0.550   3.156  10.556  3.3291 -1.6048 -1.7686
  143MPD2    H2 2231   0.265   2.856  10.481 -0.9566  2.1503  2.3293
  143MPD2    H3 2232   0.408   2.981  10.636 -0.4385 -1.9993  0.1591
  143MPD2     N 2233   0.590   3.225  10.316 -0.9025  0.5265  0.4489
  143MPD2    H5 2234   0.645   3.260  10.393  1.0714 -1.2083 -0.1855
  143MPD2    N1 2235   0.268   2.857  10.232  0.6812 -0.0396 -0.0515
  143MPD2    H7 2236   0.200   2.804  10.285  1.6211 -0.1859  0.9947
  144TMC2    C1 2237   4.011   2.553   0.753  0.1833  0.2580  0.3357
  144TMC2    C2 2238   4.015   2.416   0.737  0.0105 -0.1256 -0.1103
  144TMC2    C3 2239   4.135   2.357   0.758 -0.4349 -0.2243  0.3926
  144TMC2    C4 2240   4.113   2.624   0.797 -0.1745 -0.6247  0.2477
  144TMC2    C5 2241   4.233   2.560   0.824  0.5484  0.1188 -0.2835
  144TMC2    C6 2242   4.242   2.425   0.811 -0.0371  0.1994 -0.5670
  144TMC2     C 2243   3.899   2.610   0.687  0.1956 -0.9000  0.2170
  144TMC2     O 2244   3.793   2.546   0.695  0.1952  0.4019  0.0328
  144TMC2     H 2245   3.936   2.355   0.694  1.0970 -2.8471  1.7292
  144TMC2    H1 2246   4.095   2.731   0.803  0.7399 -0.3853 -1.3265
  144TMC2    H2 2247   4.326   2.371   0.852 -0.3528  1.0474  1.2190
  144TMC2    C7 2248   4.342   2.634   0.890 -0.1205 -0.0254 -0.7448
  144TMC2    C8 2249   4.133   2.209   0.768 -0.4423 -0.3289 -0.7861
  144TMC2    O1 2250   4.450   2.580   0.870 -0.5450 -0.6602  0.1048
  144TMC2    O2 2251   4.117   2.157   0.878 -0.2041  0.1323 -0.5653
  144TMC2    O5 2252   4.070   2.159   0.659 -0.0681  0.0405  0.0944
  144TMC2    H5 2253   4.085   2.221   0.584 -2.0626 -1.1405 -1.2547
  145MPD2     C 2254   3.730   2.856   0.282 -0.2230 -0.8516 -0.3791
  145MPD2    C1 2255   3.684   2.742   0.340 -0.5089 -0.0455 -0.5469
  145MPD2    C2 2256   3.748   2.699   0.451 -0.1242  0.7759  0.7243
  145MPD2    C3 2257   3.860   2.766   0.505 -0.6006  0.1807  0.0391
  145MPD2    C4 2258   3.903   2.883   0.442  0.0443 -0.0443  0.1636
  145MPD2    C5 2259   3.831   2.928   0.334  0.5321  0.2950  0.0710
  145MPD2     H 2260   3.721   2.603   0.493  0.7110  1.0956  1.9872
  145MPD2    H1 2261   3.992   2.933   0.476 -0.8138  1.1335  0.6701
  145MPD2    H2 2262   3.703   2.880   0.179  2.2217  0.5872 -0.6552
  145MPD2    H3 2263   3.882   3.008   0.280  3.1110 -1.0846  0.4615
  145MPD2     N 2264   3.932   2.725   0.615 -0.6108  0.3993  1.1701
  145MPD2    H5 2265   4.023   2.768   0.627  0.1212 -0.5072 -0.9621
  145MPD2    N1 2266   3.589   2.665   0.281  0.0792  0.0233 -0.3542
  145MPD2    H7 2267   3.578   2.574   0.325 -0.6979  0.3332  0.0977
  146TMC2    C1 2268   4.672   0.680  12.392  0.1086  0.1611 -0.2507
  146TMC2    C2 2269   4.568   0.602  12.339  0.3068  0.3267  0.5186
  146TMC2    C3 2270   4.597   0.518  12.240  0.3746 -0.6065 -0.0409
  146TMC2    C4 2271   0.061   0.658  12.350  0.1237  0.2618 -0.2862
  146TMC2    C5 2272   0.086   0.568  12.252 -0.5163 -0.3045 -0.2976
  146TMC2    C6 2273   4.722   0.496  12.191  0.4188 -0.4939 -0.1230
  146TMC2     C 2274   4.652   0.762  12.508 -0.2386 -0.4775 -0.5157
  146TMC2     O 2275   4.542   0.812  12.514  0.6808 -0.0936  0.2529
  146TMC2     H 2276   4.468   0.615  12.378 -0.6029  0.1170 -1.7171
  146TMC2    H1 2277   0.142   0.725  12.378  0.4773  0.7005 -2.3914
  146TMC2    H2 2278   0.014   0.429  12.113  2.1423  1.0125 -0.7153
  146TMC2    C7 2279   0.215   0.560  12.207 -0.3862 -0.2462  0.5106
  146TMC2    C8 2280   4.491   0.458  12.162  0.6740 -0.8812  0.3370
  146TMC2    O1 2281   0.230   0.551  12.084 -0.0639  0.0932  0.6438
  146TMC2    O2 2282   4.456   0.526  12.066 -0.0319 -0.3121  0.1533
  146TMC2    O5 2283   4.408   0.414  12.262  0.0036  0.1965  0.0714
  146TMC2    H5 2284   4.454   0.374  12.339  1.6979  0.6958 -0.6613
  147MPD2     C 2285   0.724   0.592  12.281  0.1792  0.2111  0.0601
  147MPD2    C1 2286   0.664   0.573  12.407 -0.4457  0.7887 -0.3111
  147MPD2    C2 2287   0.525   0.567  12.407 -0.5392 -0.2901  0.5706
  147MPD2    C3 2288   0.443   0.595  12.297 -0.2921  1.0381  0.1362
  147MPD2    C4 2289   0.504   0.630  12.180  0.4451  0.1840 -0.2985
  147MPD2    C5 2290   0.640   0.624  12.176 -0.3228 -0.2671  0.8668
  147MPD2     H 2291   0.471   0.543  12.498 -1.0588 -1.1334  0.0387
  147MPD2    H1 2292   0.443   0.652  12.093 -0.0672  0.4246  0.1284
  147MPD2    H2 2293   0.831   0.609  12.270  0.0938  1.0169  0.5251
  147MPD2    H3 2294   0.698   0.643  12.087  0.9544 -0.6641  1.6111
  147MPD2     N 2295   0.307   0.578  12.310 -0.2394 -0.8274  0.2039
  147MPD2    H5 2296   0.267   0.563  12.402 -1.4009 -0.3128 -0.2237
  147MPD2    N1 2297   0.748   0.556  12.521  0.2175 -0.1304 -0.5066
  147MPD2    H7 2298   0.848   0.552  12.504  0.6796  0.0298  2.1409
  148TMC2    C1 2299   4.515   4.583  11.135  0.6440  0.0430  0.5927
  148TMC2    C2 2300   4.493   4.588  11.276  0.9216  0.4988  0.0051
  148TMC2    C3 2301   4.592   4.557  11.365  0.4288  0.0933 -0.5690
  148TMC2    C4 2302   4.642   4.549  11.087  0.3342 -0.1950  0.9481
  148TMC2    C5 2303   4.738   4.525  11.186 -0.2376  0.6323  0.4069
  148TMC2    C6 2304   4.719   4.523  11.320 -0.3561 -0.3109  0.0578
  148TMC2     C 2305   4.402   4.524  11.069  0.6549  0.2639  0.5603
  148TMC2     O 2306   4.336   4.460  11.145 -0.3420  0.0335 -0.1043
  148TMC2     H 2307   4.390   4.599  11.309  0.8126  0.5232 -0.3340
  148TMC2    H1 2308   4.655   4.545  10.980  0.1431 -1.1667  0.9600
  148TMC2    H2 2309   0.068   4.499  11.377 -1.7592 -1.8473  1.6032
  148TMC2    C7 2310   0.075   4.416  11.143 -0.2201  0.6880 -0.4718
  148TMC2    C8 2311   4.556   4.506  11.493 -0.1076  0.1720  0.0104
  148TMC2    O1 2312   0.044   4.309  11.195 -0.6378  0.1552  0.2057
  148TMC2    O2 2313   4.453   4.522  11.550  0.4367 -0.8728  0.3022
  148TMC2    O5 2314   4.645   4.410  11.512  0.4725 -0.1629  0.0988
  148TMC2    H5 2315   4.702   4.380  11.437  1.2928  0.4277  0.4807
  149MPD2     C 2316   4.193   4.411  10.900 -0.0788  0.3624 -0.2239
  149MPD2    C1 2317   4.311   4.469  10.850  0.3753 -0.8087 -0.6411
  149MPD2    C2 2318   4.343   4.459  10.718 -0.2377  0.8434 -0.2144
  149MPD2    C3 2319   4.272   4.382  10.632 -0.1565  0.5318  0.0445
  149MPD2    C4 2320   4.159   4.320  10.676 -0.1942 -0.0939 -0.3439
  149MPD2    C5 2321   4.126   4.330  10.812  0.0064  0.0692 -0.5939
  149MPD2     H 2322   4.433   4.506  10.680  0.7221 -1.2778 -0.5589
  149MPD2    H1 2323   4.094   4.258  10.616  0.2864 -1.0722  0.1364
  149MPD2    H2 2324   4.162   4.407  11.004  0.4432 -0.7828 -0.1091
  149MPD2    H3 2325   4.035   4.281  10.842  1.6816 -2.2279  0.7880
  149MPD2     N 2326   4.309   4.353  10.496 -0.7339  0.0687  0.9632
  149MPD2    H5 2327   4.241   4.296  10.448 -0.3694 -0.5422  1.1689
  149MPD2    N1 2328   4.398   4.532  10.933  0.6841  1.4388 -0.4029
  149MPD2    H7 2329   4.472   4.581  10.882  2.6680 -1.9099 -0.7214
  150TMC2    C1 2330   2.483   3.780  12.005 -0.1856  0.0125 -0.4524
  150TMC2    C2 2331   2.448   3.885  11.924  0.4950 -0.2261 -0.0555
  150TMC2    C3 2332   2.544   3.979  11.909 -0.3069 -0.7588 -0.2253
  150TMC2    C4 2333   2.609   3.767  12.066 -0.1075  0.7254  0.3657
  150TMC2    C5 2334   2.699   3.864  12.045 -0.0388 -0.4142 -0.4663
  150TMC2    C6 2335   2.668   3.969  11.963 -0.1785  0.6007 -0.6315
  150TMC2     C 2336   2.378   3.690  12.047 -0.1977  0.7135  0.4343
  150TMC2     O 2337   2.404   3.617  12.142  0.0130 -0.9378 -0.1817
  150TMC2     H 2338   2.348   3.911  11.890 -0.5990 -1.4900  2.1339
  150TMC2    H1 2339   2.615   3.695  12.147 -1.4630  1.0272  0.7345
  150TMC2    H2 2340   2.746   4.043  11.948  0.8933 -0.4098 -0.0503
  150TMC2    C7 2341   2.825   3.852  12.108 -0.4061  0.0456  0.0466
  150TMC2    C8 2342   2.511   4.099  11.834 -0.6375  0.7768  0.0415
  150TMC2    O1 2343   2.882   3.954  12.149  0.2423  0.1910 -0.3093
  150TMC2    O2 2344   2.601   4.176  11.826 -0.2252 -0.0715 -0.2233
  150TMC2    O5 2345   2.445   4.052  11.727 -0.4946  0.0861  0.4098
  150TMC2    H5 2346   2.395   3.967  11.724 -0.4616  0.1881 -3.1631
  151MPD2     C 2347   1.980   3.391  11.996  0.8411 -0.4223  0.1847
  151MPD2    C1 2348   2.001   3.447  11.875 -0.2783 -0.4654  0.5437
  151MPD2    C2 2349   2.094   3.548  11.865  0.0089  0.2070 -0.0879
  151MPD2    C3 2350   2.172   3.583  11.973 -0.1447 -1.0770 -0.1927
  151MPD2    C4 2351   2.155   3.525  12.097  0.0489  0.2986  0.6034
  151MPD2    C5 2352   2.054   3.429  12.106 -0.6060  0.0512  0.1477
  151MPD2     H 2353   2.125   3.585  11.768  0.0600 -0.5075 -0.3418
  151MPD2    H1 2354   2.198   3.561  12.189  1.6246 -0.5959  0.2207
  151MPD2    H2 2355   1.908   3.313  12.019 -0.8730  1.1803  0.2435
  151MPD2    H3 2356   2.021   3.397  12.203  0.2179  1.7207  0.9936
  151MPD2     N 2357   2.274   3.675  11.962  0.0448  0.7805  0.8772
  151MPD2    H5 2358   2.291   3.711  11.868  0.7762 -4.5273 -1.0146
  151MPD2    N1 2359   1.933   3.386  11.772  0.4285 -0.0155 -0.3036
  151MPD2    H7 2360   1.877   3.304  11.792 -1.7434  1.6735  0.4946
  152TMC2    C1 2361   2.087   3.276  12.513 -0.7878  0.1263  0.2109
  152TMC2    C2 2362   2.145   3.159  12.480  0.4510 -0.1260 -0.0205
  152TMC2    C3 2363   2.279   3.168  12.447  0.7250  0.6210 -0.2591
  152TMC2    C4 2364   2.152   3.397  12.504  0.4515 -0.3732 -0.3520
  152TMC2    C5 2365   2.284   3.394  12.471 -0.0529 -0.3849  0.4674
  152TMC2    C6 2366   2.357   3.276  12.455 -0.3875  0.5214  0.3106
  152TMC2     C 2367   1.946   3.280  12.538  0.4576 -0.5280 -0.1213
  152TMC2     O 2368   1.881   3.377  12.509  0.0400 -0.2603 -0.1624
  152TMC2     H 2369   2.089   3.066  12.474 -0.5596  0.5797 -1.5797
  152TMC2    H1 2370   2.106   3.491  12.531 -0.1303 -1.5553  2.7598
  152TMC2    H2 2371   2.461   3.271  12.425 -0.4914 -0.8994  0.2267
  152TMC2    C7 2372   2.336   3.522  12.443 -0.1109  0.0495  0.4875
  152TMC2    C8 2373   2.340   3.044  12.396 -0.3725 -0.1571 -0.5332
  152TMC2    O1 2374   2.252   3.615  12.430 -0.6696  0.8976 -0.5854
  152TMC2    O2 2375   2.291   2.936  12.426 -0.0196 -0.0845  0.5682
  152TMC2    O5 2376   2.389   3.081  12.278 -0.1566  0.5277  0.1925
  152TMC2    H5 2377   2.384   3.178  12.265  3.1235  1.0717  2.9741
  153MPD2     C 2378   1.765   3.006  12.714  0.0337  0.2808 -0.2426
  153MPD2    C1 2379   1.780   3.119  12.637 -0.6770 -0.7030  1.0209
  153MPD2    C2 2380   1.669   3.190  12.607  0.0268  0.3981 -0.3349
  153MPD2    C3 2381   1.538   3.153  12.650 -0.1911  0.2961 -0.1390
  153MPD2    C4 2382   1.525   3.041  12.723  0.3485  0.5123 -0.3361
  153MPD2    C5 2383   1.637   2.972  12.758 -0.2074 -0.7154  0.1107
  153MPD2     H 2384   1.679   3.275  12.540  1.2885 -0.9568 -1.8525
  153MPD2    H1 2385   1.429   3.007  12.759  1.5394 -1.6994  0.7730
  153MPD2    H2 2386   1.856   2.958  12.745 -1.5632 -3.0640 -0.7038
  153MPD2    H3 2387   1.635   2.886  12.823 -0.1090 -0.3692  0.5740
  153MPD2     N 2388   1.422   3.239  12.609  0.0623 -0.0013  0.3519
  153MPD2    H5 2389   1.434   3.319  12.548  1.9708  0.0114  0.7134
  153MPD2    N1 2390   1.908   3.160  12.598 -0.2367  0.3319  0.1252
  153MPD2    H7 2391   1.984   3.107  12.639  0.1668  0.1619 -0.8369
  154TMC2    C1 2392   3.895   3.739   0.448  0.1920  0.8052 -0.5487
  154TMC2    C2 2393   3.924   3.808   0.567  0.4347 -0.1589 -0.0624
  154TMC2    C3 2394   4.004   3.756   0.666 -0.6113  0.0900  0.2256
  154TMC2    C4 2395   3.957   3.619   0.434 -0.4500 -0.4233  0.2375
  154TMC2    C5 2396   4.037   3.562   0.535 -0.1083  0.5530 -0.1669
  154TMC2    C6 2397   4.060   3.636   0.653 -0.0120  0.1793 -0.3259
  154TMC2     C 2398   3.833   3.822   0.345  0.7952 -0.0989  0.4085
  154TMC2     O 2399   3.771   3.919   0.382 -0.3735  0.2405  0.0301
  154TMC2     H 2400   3.888   3.907   0.590  0.1385  0.6406 -3.8345
  154TMC2    H1 2401   3.930   3.564   0.345 -0.3550  0.9746 -0.6572
  154TMC2    H2 2402   4.137   3.605   0.724 -0.4989  1.6141  0.8310
  154TMC2    C7 2403   4.105   3.436   0.513  0.7722  0.4494  0.1474
  154TMC2    C8 2404   4.003   3.826   0.792 -0.4304 -0.5085  0.2833
  154TMC2    O1 2405   4.139   3.376   0.615  0.0510  0.6661 -0.3270
  154TMC2    O2 2406   3.945   3.937   0.801  0.0826 -0.3787 -0.8639
  154TMC2    O5 2407   4.040   3.757   0.903  0.1195  0.5389  0.0752
  154TMC2    H5 2408   4.049   3.662   0.879 -1.1314  0.6399 -0.8121
  155MPD2     C 2409   3.862   3.805  17.745  0.5401  0.4144 -0.0398
  155MPD2    C1 2410   3.796   3.828   0.107  0.1787 -0.2836  0.1951
  155MPD2    C2 2411   3.679   3.902   0.105  0.1634 -0.4927 -0.8993
  155MPD2    C3 2412   3.625   3.953  17.745 -0.4426  0.0417 -0.2934
  155MPD2    C4 2413   3.689   3.927  17.625 -0.5628  0.2681 -0.1324
  155MPD2    C5 2414   3.808   3.853  17.630 -0.9245 -0.3018 -0.4759
  155MPD2     H 2415   3.620   3.916   0.195  0.7189  1.8548 -0.9037
  155MPD2    H1 2416   3.656   3.955  17.526  0.2825  0.4659 -0.3612
  155MPD2    H2 2417   3.951   3.744  17.738  0.8258  0.8586 -0.3100
  155MPD2    H3 2418   3.864   3.832  17.539  0.8278 -0.4557  0.6180
  155MPD2     N 2419   3.510   4.033  17.751  0.3540 -0.1080 -0.2787
  155MPD2    H5 2420   3.463   4.038   0.082 -0.9833  1.1348 -1.0522
  155MPD2    N1 2421   3.845   3.770   0.219  0.5571 -0.2723  0.2725
  155MPD2    H7 2422   3.922   3.704   0.211 -0.4871 -1.6623  1.7071
  156TMC2    C1 2423   2.145   0.775  11.383 -0.9596 -0.0382 -0.1278
  156TMC2    C2 2424   2.165   0.660  11.314 -0.0420 -0.3675  0.0932
  156TMC2    C3 2425   2.085   0.640  11.210 -0.3187  1.3072  0.3892
  156TMC2    C4 2426   2.044   0.864  11.348  0.2211 -0.1003  0.4922
  156TMC2    C5 2427   1.972   0.837  11.240  0.2488  0.0722 -0.0644
  156TMC2    C6 2428   2.002   0.734  11.160  0.5697 -0.6651 -0.1859
  156TMC2     C 2429   2.187   0.782  11.525  0.3227 -0.4611 -0.1458
  156TMC2     O 2430   2.199   0.893  11.575 -0.4303  0.1886 -0.2590
  156TMC2     H 2431   2.245   0.588  11.330  1.0058  0.7462 -0.1328
  156TMC2    H1 2432   2.014   0.936  11.423 -1.9923  0.1686 -0.6471
  156TMC2    H2 2433   1.957   0.719  11.063 -1.3551  0.1679  0.5660
  156TMC2    C7 2434   1.871   0.928  11.201 -0.1737  0.4737 -0.0645
  156TMC2    C8 2435   2.090   0.511  11.146 -0.4780 -0.6225 -0.0665
  156TMC2    O1 2436   1.875   1.034  11.263 -0.0471 -0.4957  0.0263
  156TMC2    O2 2437   2.073   0.411  11.216 -0.0852  0.0498 -0.1132
  156TMC2    O5 2438   2.176   0.530  11.046  0.6892 -0.4213  0.5934
  156TMC2    H5 2439   2.194   0.626  11.050 -0.3861 -0.1849 -0.0445
  157MPD2     C 2440   2.261   0.514  11.764 -0.1071  0.8334 -0.2071
  157MPD2    C1 2441   2.242   0.639  11.722 -0.0805  0.0545  0.9587
  157MPD2    C2 2442   2.234   0.732  11.825 -0.3214 -0.8765 -0.0077
  157MPD2    C3 2443   2.256   0.706  11.958 -0.1064  0.3219  0.4368
  157MPD2    C4 2444   2.302   0.581  11.989 -0.0072  0.3770  0.2185
  157MPD2    C5 2445   2.308   0.489  11.891  0.6926 -0.4031  0.5576
  157MPD2     H 2446   2.191   0.829  11.804 -1.2062 -1.4425 -0.7820
  157MPD2    H1 2447   2.339   0.552  12.087  0.0992 -0.7411 -0.1495
  157MPD2    H2 2448   2.257   0.430  11.696 -0.4284  1.0440 -0.4486
  157MPD2    H3 2449   2.328   0.389  11.927  0.3997 -1.4287 -2.0818
  157MPD2     N 2450   2.255   0.816  12.046  0.2075 -0.3416  0.1770
  157MPD2    H5 2451   2.219   0.905  12.013 -1.6121 -1.3973 -0.7137
  157MPD2    N1 2452   2.211   0.655  11.587  0.6519  0.0078  0.5745
  157MPD2    H7 2453   2.219   0.575  11.525  0.5925  0.0090  0.5652
  158TMC2    C1 2454   2.884   4.581  13.142 -0.4725 -0.4336  0.2325
  158TMC2    C2 2455   2.940   4.655  13.043 -0.2942 -0.4828 -0.7745
  158TMC2    C3 2456   2.865   4.724  12.950 -0.0793  0.3939 -0.7964
  158TMC2    C4 2457   2.747   4.580  13.152 -0.0734  0.0801 -0.2339
  158TMC2    C5 2458   2.673   4.635  13.053  0.8039  0.3126  0.8442
  158TMC2    C6 2459   2.729   4.705  12.950 -0.2846 -0.3518  0.4401
  158TMC2     C 2460   2.975   4.527  13.244  0.2261 -0.3314 -0.0167
  158TMC2     O 2461   3.071   4.597  13.249  0.3265 -0.1160 -0.8130
  158TMC2     H 2462   3.048   4.660  13.034 -0.2788 -0.4103 -0.5458
  158TMC2    H1 2463   2.693   4.547  13.240  0.7251  0.2489  0.3180
  158TMC2    H2 2464   2.669   0.006  12.869  0.9348 -0.2229 -0.3835
  158TMC2    C7 2465   2.538   4.595  13.025 -0.8406 -0.4721  0.2669
  158TMC2    C8 2466   2.929   0.045  12.837 -0.5434  0.8252 -0.1418
  158TMC2    O1 2467   2.472   4.652  12.937 -0.1441  0.3501  0.5537
  158TMC2    O2 2468   3.036   0.005  12.789  0.0192 -0.1249 -0.2088
  158TMC2    O5 2469   2.845   0.123  12.764 -0.3011  0.0153  0.1160
  158TMC2    H5 2470   2.771   0.153  12.822  1.1774  0.0372  1.9813
  159MPD2     C 2471   3.100   4.239  13.649 -0.3871 -0.2960 -1.2788
  159MPD2    C1 2472   2.963   4.236  13.639 -0.0286 -0.4840 -0.2241
  159MPD2    C2 2473   2.901   4.304  13.528  0.4671  0.2064  0.2645
  159MPD2    C3 2474   2.978   4.381  13.443  0.1624 -0.0607  0.7355
  159MPD2    C4 2475   3.113   4.383  13.454 -0.2742  0.5820  0.7196
  159MPD2    C5 2476   3.169   4.306  13.550 -0.0755  0.1976 -0.0502
  159MPD2     H 2477   2.793   4.304  13.526  0.4638  1.2450  0.7186
  159MPD2    H1 2478   3.182   4.431  13.386  1.4032  0.8986  2.6548
  159MPD2    H2 2479   3.159   4.187  13.724 -1.1570  2.6063  1.3290
  159MPD2    H3 2480   3.276   4.321  13.553 -0.0664  0.7511 -3.4710
  159MPD2     N 2481   2.913   4.440  13.328 -0.0120 -0.5751 -0.4470
  159MPD2    H5 2482   2.822   4.401  13.307 -0.9801  0.3291  2.0955
  159MPD2    N1 2483   2.895   4.153  13.730 -0.3809  0.1720 -0.2150
  159MPD2    H7 2484   2.949   4.110  13.804  0.2743 -0.1169 -0.8540
  160TMC2    C1 2485   2.372   3.028   0.828 -0.1922 -0.3475  0.5060
  160TMC2    C2 2486   2.283   2.938   0.867 -0.3131  0.4508  0.4605
  160TMC2    C3 2487   2.312   2.810   0.902  0.0046 -0.1950 -0.1943
  160TMC2    C4 2488   2.501   2.996   0.842 -0.1760 -0.4119 -0.0692
  160TMC2    C5 2489   2.538   2.870   0.875  0.5426 -0.2172 -0.2525
  160TMC2    C6 2490   2.445   2.773   0.901 -0.1180  0.1675  0.3593
  160TMC2     C 2491   2.323   3.154   0.776 -0.2135  0.6493  0.5394
  160TMC2     O 2492   2.211   3.189   0.812 -0.0065  0.1202  0.4279
  160TMC2     H 2493   2.179   2.966   0.865 -0.3936  0.1760  0.6654
  160TMC2    H1 2494   2.570   3.078   0.828 -1.3137  0.6240  0.4385
  160TMC2    H2 2495   2.468   2.673   0.937 -1.2475 -0.3052 -0.2004
  160TMC2    C7 2496   2.669   2.843   0.931  0.3478  0.9504 -0.3482
  160TMC2    C8 2497   2.215   2.718   0.861 -0.0444 -0.0570  0.3775
  160TMC2    O1 2498   2.679   2.742   0.998 -0.6636  0.3569  0.6887
  160TMC2    O2 2499   2.145   2.733   0.763  0.1493 -0.4582  0.8264
  160TMC2    O5 2500   2.195   2.628   0.959  0.0720 -0.4282  0.2589
  160TMC2    H5 2501   2.259   2.642   1.032  0.8671  1.3274 -0.7841
  161MPD2     C 2502   2.529   3.387   0.587  0.6976  0.6558  0.5022
  161MPD2    C1 2503   2.410   3.335   0.635  0.6063 -0.1033  0.7995
  161MPD2    C2 2504   2.301   3.419   0.645 -0.7299 -0.4122  0.3736
  161MPD2    C3 2505   2.303   3.546   0.610  0.4828  0.5082  0.1000
  161MPD2    C4 2506   2.429   3.610   0.592 -0.3933  0.1280  0.6855
  161MPD2    C5 2507   2.536   3.528   0.578 -0.0109 -0.7076 -0.0494
  161MPD2     H 2508   2.209   3.385   0.689 -0.3078 -0.4517  1.2242
  161MPD2    H1 2509   2.442   3.714   0.565  0.0545 -0.0257  0.3075
  161MPD2    H2 2510   2.624   3.336   0.580 -0.3466 -1.5090  2.0906
  161MPD2    H3 2511   2.629   3.578   0.553 -0.7011  1.1806  1.1438
  161MPD2     N 2512   2.182   3.630   0.622 -0.0842 -0.7151  0.8656
  161MPD2    H5 2513   2.204   3.728   0.633  0.9314 -0.8563  0.0889
  161MPD2    N1 2514   2.411   3.205   0.683 -0.8089  0.0407 -0.7451
  161MPD2    H7 2515   2.484   3.144   0.649 -0.3509 -0.4553  1.1665
  162TMC2    C1 2516   0.280   0.070   0.934  0.2254  0.0693  0.4335
  162TMC2    C2 2517   0.205   0.046   1.043  0.3447 -0.7826  0.2390
  162TMC2    C3 2518   0.270   0.043   1.164  0.0652 -0.3824 -0.0125
  162TMC2    C4 2519   0.418   0.082   0.932  0.1451 -0.2963 -0.1271
  162TMC2    C5 2520   0.474   0.083   1.053 -0.0031  0.3399  0.1549
  162TMC2    C6 2521   0.405   0.058   1.170 -0.4265  0.2848 -0.0577
  162TMC2     C 2522   0.229   0.052   0.802 -0.0061  0.5398  0.4682
  162TMC2     O 2523   0.310   0.058   0.710  0.3197  0.2548 -0.0691
  162TMC2     H 2524   0.108   4.738   1.033  1.1523 -2.1608 -1.0285
  162TMC2    H1 2525   0.486   0.086   0.848  0.7071  1.0650  0.3828
  162TMC2    H2 2526   0.466   0.058   1.260 -0.2356  0.1922 -0.1880
  162TMC2    C7 2527   0.610   0.044   1.054 -0.3882 -0.0426  0.3001
  162TMC2    C8 2528   0.183   0.029   1.276 -0.0542  0.1385  0.0791
  162TMC2    O1 2529   0.695   0.103   0.988  0.2888 -0.2464  0.0089
  162TMC2    O2 2530   0.061   0.049   1.274  0.0246  0.8311  0.0498
  162TMC2    O5 2531   0.254   4.693   1.370  0.0592  0.3004 -0.6471
  162TMC2    H5 2532   0.340   4.660   1.339 -0.4715 -2.3978  0.7202
  163MPD2     C 2533   4.628   4.566   0.488  1.2110 -0.1536  0.0160
  163MPD2    C1 2534   0.018   4.607   0.468 -0.0408 -0.3066  0.3478
  163MPD2    C2 2535   0.082   4.681   0.563 -0.5056  0.1699 -0.5295
  163MPD2    C3 2536   0.027   4.715   0.685 -0.4460 -0.2544 -0.3895
  163MPD2    C4 2537   4.635   4.678   0.703  0.2748 -0.4545 -0.2747
  163MPD2    C5 2538   4.564   4.607   0.603  0.2035 -0.2189 -0.8193
  163MPD2     H 2539   0.190   4.680   0.566 -0.4739  1.2837 -1.3430
  163MPD2    H1 2540   4.585   4.694   0.798  0.6994 -0.6164 -0.0236
  163MPD2    H2 2541   4.579   4.503   0.415  1.2552 -0.6438  0.4088
  163MPD2    H3 2542   4.460   4.576   0.609  0.0555  0.3387 -0.5898
  163MPD2     N 2543   0.094   0.030   0.793  0.2700 -0.0452 -0.1656
  163MPD2    H5 2544   0.050   0.044   0.883  1.5169 -0.0634  0.4415
  163MPD2    N1 2545   0.078   4.553   0.359 -0.0567 -0.8048 -0.1215
  163MPD2    H7 2546   0.027   4.480   0.311  1.1603 -1.2890 -0.6766
  164TMC2    C1 2547   0.567   4.451  11.227 -0.1651  0.3684 -0.3271
  164TMC2    C2 2548   0.575   4.455  11.090  0.4209 -0.2756 -0.7042
  164TMC2    C3 2549   0.537   4.571  11.024  0.7946  0.4350 -0.3031
  164TMC2    C4 2550   0.509   4.553  11.297 -0.0446  0.2027  0.3088
  164TMC2    C5 2551   0.463   4.660  11.230  0.5698  0.0617 -0.2473
  164TMC2    C6 2552   0.487   4.680  11.096 -0.3536  0.1528 -0.5696
  164TMC2     C 2553   0.582   4.328  11.301 -0.3113  0.9548  0.4495
  164TMC2     O 2554   0.526   4.322  11.412 -0.5790  0.4207  0.0205
  164TMC2     H 2555   0.614   4.372  11.032  1.3376 -0.2317 -0.1676
  164TMC2    H1 2556   0.475   4.536  11.399  0.6608 -0.6529  0.4047
  164TMC2    H2 2557   0.455   0.023  11.034  0.7169  1.8282  1.1265
  164TMC2    C7 2558   0.362   0.008  11.293  0.0435 -0.3434  0.1930
  164TMC2    C8 2559   0.561   4.601  10.880 -0.8142 -1.0673  0.2700
  164TMC2    O1 2560   0.294   0.069  11.212  0.4668 -0.0400  0.0529
  164TMC2    O2 2561   0.549   4.714  10.831 -0.4361  0.2027 -0.1389
  164TMC2    O5 2562   0.642   4.508  10.829  0.3682 -0.1745 -0.0595
  164TMC2    H5 2563   0.639   4.419  10.870  0.8504 -0.1830 -0.0390
  165TMC2    C1 2564   1.938   2.289   0.237  0.2788  0.1954 -1.0182
  165TMC2    C2 2565   1.947   2.346   0.116  0.2943  0.3702 -0.6321
  165TMC2    C3 2566   2.058   2.414   0.086  0.2332  0.1656 -0.0631
  165TMC2    C4 2567   2.042   2.270   0.323 -0.2886 -0.5223  0.0473
  165TMC2    C5 2568   2.158   2.339   0.289 -0.8267  0.5927 -0.7638
  165TMC2    C6 2569   2.163   2.411   0.166 -0.8620 -0.4104 -0.6342
  165TMC2     C 2570   1.814   2.240   0.297  0.5491 -0.3940  0.6384
  165TMC2     O 2571   1.813   2.206   0.416 -0.0705  0.7210 -0.3278
  165TMC2     H 2572   1.861   2.384   0.061 -0.4106  0.2507  0.3823
  165TMC2    H1 2573   2.030   2.235   0.425 -0.6451  1.2620  0.6184
  165TMC2    H2 2574   2.252   2.462   0.130 -0.6343 -0.8280 -0.6696
  165TMC2    C7 2575   2.267   2.377   0.383 -0.7204  0.5370 -0.2293
  165TMC2    C8 2576   2.068   2.509  17.733  0.1740 -0.5001 -1.1684
  165TMC2    O1 2577   2.353   2.452   0.342  0.0295  0.2041  0.3241
  165TMC2    O2 2578   2.136   2.610  17.731  0.3529  0.4265 -0.4447
  165TMC2    O5 2579   2.002   2.444  17.636  0.1440  0.3788  0.5363
  165TMC2    H5 2580   1.958   2.359  17.653  0.0054  0.5329  0.9388
  166MPD2     C 2581   1.307   2.128   0.236  0.0935  0.0262  0.0266
  166MPD2    C1 2582   1.390   2.132   0.350 -0.0573 -0.2057 -0.4997
  166MPD2    C2 2583   1.527   2.151   0.339  0.4202 -0.4365 -0.6374
  166MPD2    C3 2584   1.587   2.161   0.219 -0.2374 -0.0372  0.6213
  166MPD2    C4 2585   1.505   2.155   0.111  0.2989  0.7892 -0.1632
  166MPD2    C5 2586   1.368   2.141   0.119  0.9083 -0.1070  0.4094
  166MPD2     H 2587   1.588   2.154   0.428  1.1699  0.3821 -1.1864
  166MPD2    H1 2588   1.538   2.173   0.009 -0.1656  0.6993 -0.3307
  166MPD2    H2 2589   1.199   2.117   0.242  0.4988 -3.2765  1.5500
  166MPD2    H3 2590   1.310   2.152   0.028 -1.3160 -0.6757  1.7424
  166MPD2     N 2591   1.719   2.204   0.202 -0.1752 -0.3609 -0.3542
  166MPD2    H5 2592   1.751   2.212   0.107 -0.2934  2.4223 -0.1643
  166MPD2    N1 2593   1.316   2.122   0.465  0.1286  0.4682 -0.1992
  166MPD2    H7 2594   1.219   2.090   0.461 -0.0808  1.0056  0.6170
  167TMC2    C1 2595   0.402   4.201  12.903  0.2845  0.8184  0.6538
  167TMC2    C2 2596   0.383   4.232  13.034 -0.4934  0.4240 -0.1598
  167TMC2    C3 2597   0.321   4.133  13.109 -0.6387 -0.6213  0.3289
  167TMC2    C4 2598   0.354   4.086  12.848 -0.2622 -0.3911  0.4868
  167TMC2    C5 2599   0.307   3.991  12.932  0.1554  0.6935 -0.4345
  167TMC2    C6 2600   0.279   4.017  13.060 -0.4532 -0.0949 -0.3367
  167TMC2     C 2601   0.452   4.307  12.816 -0.0578  0.0333  0.4225
  167TMC2     O 2602   0.489   4.408  12.869  0.2929  0.7026 -0.3169
  167TMC2     H 2603   0.437   4.311  13.085  1.1304 -2.1186  2.1064
  167TMC2    H1 2604   0.347   4.070  12.741  0.2090  2.4102  0.0378
  167TMC2    H2 2605   0.219   3.944  13.114  1.7568 -0.2658  1.8499
  167TMC2    C7 2606   0.258   3.864  12.885  0.8671 -0.5185  0.2170
  167TMC2    C8 2607   0.296   4.153  13.250  0.3145  0.4222 -0.2933
  167TMC2    O1 2608   0.167   3.808  12.947  0.1506  0.3806 -0.6776
  167TMC2    O2 2609   0.267   4.054  13.322 -0.5790  0.2192 -0.0404
  167TMC2    O5 2610   0.273   4.279  13.271  0.5694  0.0251  0.3747
  167TMC2    H5 2611   0.289   4.330  13.189 -2.4166  0.2973 -0.0557
  168MPD2     C 2612   0.554   4.478  12.593 -0.1223 -1.0768 -0.5717
  168MPD2    C1 2613   0.479   4.360  12.575  0.0805 -0.7848 -0.8654
  168MPD2    C2 2614   0.437   4.327  12.449  0.2706  0.8623  0.6875
  168MPD2    C3 2615   0.470   4.395  12.335  0.3125 -0.3175  0.8827
  168MPD2    C4 2616   0.544   4.511  12.351  0.0871  0.8253 -0.7492
  168MPD2    C5 2617   0.581   4.549  12.478  0.4442 -0.0517 -0.3750
  168MPD2     H 2618   0.375   4.238  12.445  0.7066  0.5952 -0.1129
  168MPD2    H1 2619   0.573   4.581  12.273  1.8388 -0.1802 -1.0022
  168MPD2    H2 2620   0.584   4.520  12.688 -1.3497 -2.4520  0.4397
  168MPD2    H3 2621   0.649   4.633  12.492 -1.3498  1.0063  2.0378
  168MPD2     N 2622   0.411   4.345  12.216  0.4855 -0.2711  0.9270
  168MPD2    H5 2623   0.374   4.251  12.213  1.5752 -0.6224 -1.6802
  168MPD2    N1 2624   0.427   4.282  12.680 -0.6147 -0.0712 -0.6652
  168MPD2    H7 2625   0.369   4.200  12.661 -0.5954 -0.2089 -0.1379
  169MPD1     C 2626   1.952   3.655   8.661  0.9858  0.0164  0.0874
  169MPD1    C1 2627   1.889   3.540   8.706 -0.4776  0.2251  0.8705
  169MPD1    C2 2628   1.946   3.463   8.802  0.2761 -0.4690 -0.3058
  169MPD1    C3 2629   2.074   3.498   8.841  0.0192 -0.8710  0.0285
  169MPD1    C4 2630   2.148   3.611   8.785  0.6712 -0.3502 -0.2536
  169MPD1    C5 2631   2.074   3.690   8.699 -0.2375 -0.1451  0.2728
  169MPD1     H 2632   1.900   3.381   8.854  0.5900 -0.9420 -0.7726
  169MPD1    H1 2633   2.243   3.649   8.820  1.0917 -1.2904 -0.3931
  169MPD1    H2 2634   1.916   3.722   8.585  1.8518  2.0387  1.4687
  169MPD1    H3 2635   2.112   3.786   8.667  1.3560 -0.3707  1.5067
  169MPD1     N 2636   2.132   3.410   8.932  0.4876  0.2112  0.1800
  169MPD1    H5 2637   2.076   3.331   8.961 -0.0372  0.0576 -1.2287
  169MPD1    N1 2638   1.754   3.521   8.669 -0.0832  0.1600 -0.3928
  169MPD1    H6 2639   1.714   3.427   8.662  0.0423  0.0646  0.1279
  169MPD1    H7 2640   1.729   3.571   8.584  0.2019  0.1204 -0.5007
  170MPD1     C 2641   1.527   1.369  13.036  0.2823 -0.2254  0.0509
  170MPD1    C1 2642   1.440   1.474  13.018  1.1864 -0.2669  0.0393
  170MPD1    C2 2643   1.426   1.561  13.118  0.3974 -0.0406 -0.5373
  170MPD1    C3 2644   1.511   1.574  13.227 -0.2042  0.0884  0.0219
  170MPD1    C4 2645   1.623   1.483  13.230 -0.4777  1.0354 -0.4088
  170MPD1    C5 2646   1.621   1.378  13.137 -0.0668 -0.6285 -0.3542
  170MPD1     H 2647   1.347   1.636  13.115  0.4890  0.0927  0.5179
  170MPD1    H1 2648   1.695   1.485  13.311 -1.3729 -1.2355  0.4586
  170MPD1    H2 2649   1.523   1.278  12.978 -2.0393  0.5869 -1.0967
  170MPD1    H3 2650   1.681   1.290  13.159 -2.1040 -1.9611 -0.2273
  170MPD1     N 2651   1.500   1.686  13.306 -0.7134  0.5279 -0.2360
  170MPD1    H5 2652   1.414   1.738  13.289 -0.9377 -0.0389 -0.8517
  170MPD1    N1 2653   1.346   1.460  12.911  0.1738  0.6306 -0.2340
  170MPD1    H6 2654   1.383   1.407  12.832 -1.5324 -1.3132  0.2374
  170MPD1    H7 2655   1.294   1.543  12.884 -0.2540 -0.4465 -2.7342
  171MPD1     C 2656   3.958   2.616  15.087  0.4518 -0.0624  0.0515
  171MPD1    C1 2657   4.089   2.636  15.085  0.0556  0.5765  0.5449
  171MPD1    C2 2658   4.179   2.571  15.169  0.6346  0.1489  0.1344
  171MPD1    C3 2659   4.128   2.478  15.258 -0.3068  0.5200  0.2729
  171MPD1    C4 2660   3.993   2.450  15.256 -1.8727 -0.2266  0.0879
  171MPD1    C5 2661   3.912   2.517  15.174 -0.2471 -0.5951 -0.5580
  171MPD1     H 2662   4.280   2.610  15.180  0.6238 -0.4839  2.4293
  171MPD1    H1 2663   3.947   2.370  15.312 -0.0928 -1.1906  0.1728
  171MPD1    H2 2664   3.887   2.663  15.019  2.3147  2.5388 -0.0835
  171MPD1    H3 2665   3.806   2.495  15.176 -0.5173  0.7078 -0.4382
  171MPD1     N 2666   4.215   2.409  15.349  0.6423 -0.2223 -0.1606
  171MPD1    H5 2667   4.168   2.369  15.430  0.7069 -1.4412 -0.7196
  171MPD1    N1 2668   4.133   2.742  15.010 -0.0784  0.1148  0.1982
  171MPD1    H6 2669   4.233   2.744  14.991 -0.2169  1.0595 -0.4043
  171MPD1    H7 2670   4.088   2.753  14.919 -1.4279  0.7209  0.9485
  172MPD1     C 2671   3.559   1.860   0.260  0.3378 -1.4486  0.0498
  172MPD1    C1 2672   3.532   1.979   0.321 -0.1627 -0.4815 -0.2719
  172MPD1    C2 2673   3.626   2.083   0.312 -0.2965 -0.4134 -0.7786
  172MPD1    C3 2674   3.742   2.062   0.239  0.2335  0.0717  0.5185
  172MPD1    C4 2675   3.775   1.937   0.195  0.7318  0.3032  0.4051
  172MPD1    C5 2676   3.680   1.839   0.202 -0.8958  0.3894 -0.1492
  172MPD1     H 2677   3.590   2.176   0.354  0.5272 -1.1087  1.4370
  172MPD1    H1 2678   3.866   1.913   0.140  1.4407  1.3850  1.1153
  172MPD1    H2 2679   3.494   1.774   0.264 -0.7113 -0.4439  4.7544
  172MPD1    H3 2680   3.719   1.740   0.180 -1.1256  0.5129 -1.1066
  172MPD1     N 2681   3.830   2.166   0.198 -0.1949 -0.0465  0.1905
  172MPD1    H5 2682   3.895   2.138   0.126 -0.6609 -0.9775  0.1248
  172MPD1    N1 2683   3.404   2.006   0.370 -0.2551  0.6967 -0.9499
  172MPD1    H6 2684   3.413   2.086   0.432  0.7362  0.7288 -1.1327
  172MPD1    H7 2685   3.355   1.924   0.406  3.1291 -1.1621 -0.5813
  173MPD1     C 2686   0.833   1.894  13.513 -0.0454  0.2056  0.1086
  173MPD1    C1 2687   0.702   1.858  13.534  0.4166 -0.6615  0.4122
  173MPD1    C2 2688   0.660   1.861  13.662 -0.1506 -0.4219 -0.3722
  173MPD1    C3 2689   0.744   1.902  13.763  0.8375  0.0736  0.6729
  173MPD1    C4 2690   0.880   1.928  13.738  0.7509  0.1885  0.4039
  173MPD1    C5 2691   0.927   1.920  13.610 -0.8510  0.0601  0.6703
  173MPD1     H 2692   0.557   1.833  13.684 -0.9954  1.7879 -1.4784
  173MPD1    H1 2693   0.958   1.921  13.813  2.6235 -0.8053 -1.6214
  173MPD1    H2 2694   0.870   1.914  13.414  1.3939 -1.0127  0.4036
  173MPD1    H3 2695   1.029   1.936  13.579 -0.8817 -1.7172 -0.3294
  173MPD1     N 2696   0.690   1.874  13.895 -0.2081  0.3469  0.4239
  173MPD1    H5 2697   0.596   1.841  13.913  0.9330 -3.2355 -0.1404
  173MPD1    N1 2698   0.624   1.829  13.423  0.3698  0.0807  0.8169
  173MPD1    H6 2699   0.673   1.765  13.361 -0.9884 -0.5232  0.3463
  173MPD1    H7 2700   0.532   1.796  13.454  0.5956 -0.3126  1.0685
  174MPD1     C 2701   1.330   1.596  14.603 -0.4543  0.1160  0.6048
  174MPD1    C1 2702   1.212   1.554  14.652 -0.9606  0.4559  0.5079
  174MPD1    C2 2703   1.105   1.582  14.563  0.3125  0.0747 -0.0531
  174MPD1    C3 2704   1.110   1.645  14.446 -0.0699 -0.4648 -0.1653
  174MPD1    C4 2705   1.233   1.691  14.401 -0.3534 -0.3437 -0.5214
  174MPD1    C5 2706   1.342   1.660  14.485 -0.1206 -0.3216  0.0390
  174MPD1     H 2707   1.016   1.538  14.608  0.4644  0.8357  0.9905
  174MPD1    H1 2708   1.239   1.755  14.314  2.7550  1.1041  0.7551
  174MPD1    H2 2709   1.425   1.582  14.652 -0.7307 -1.3867  0.7285
  174MPD1    H3 2710   1.439   1.688  14.445 -0.5147 -1.7263 -1.9378
  174MPD1     N 2711   0.994   1.667  14.367 -0.3640 -0.5529  1.2911
  174MPD1    H5 2712   1.002   1.718  14.280 -1.9081 -1.6678  0.4956
  174MPD1    N1 2713   1.190   1.523  14.784 -0.0609 -0.0220 -0.4185
  174MPD1    H6 2714   1.119   1.451  14.786 -1.1540  1.0503 -0.7577
  174MPD1    H7 2715   1.273   1.503  14.840 -0.7981  1.9330  1.3828
  175MPD1     C 2716   3.128   2.559  15.114  0.2530  0.0466 -0.4931
  175MPD1    C1 2717   3.173   2.470  15.205  0.3214  0.6564  0.5331
  175MPD1    C2 2718   3.217   2.523  15.325 -0.1345 -0.4310  0.2372
  175MPD1    C3 2719   3.240   2.653  15.347 -0.8049  0.0743 -0.0460
  175MPD1    C4 2720   3.210   2.737  15.242  0.1257 -0.1180  0.6809
  175MPD1    C5 2721   3.159   2.692  15.127  0.3897  0.2110 -0.4003
  175MPD1     H 2722   3.222   2.450  15.405 -0.5775  0.4469  1.0588
  175MPD1    H1 2723   3.237   2.842  15.247  0.7210 -0.1380 -1.9662
  175MPD1    H2 2724   3.078   2.531  15.021  1.2442 -1.6269 -0.5158
  175MPD1    H3 2725   3.123   2.762  15.053 -1.7196 -1.7608 -1.2387
  175MPD1     N 2726   3.297   2.705  15.467 -0.5521  0.3320 -0.5134
  175MPD1    H5 2727   3.325   2.802  15.465 -2.6399  0.9823  1.6213
  175MPD1    N1 2728   3.149   2.332  15.193  0.2720 -0.0417  0.3574
  175MPD1    H6 2729   3.225   2.284  15.240 -0.5651 -1.5078  0.2099
  175MPD1    H7 2730   3.128   2.306  15.097 -1.9207  2.1884  0.2192
  176MPD1     C 2731   1.002   4.281  16.624 -0.7355 -0.1996 -0.4900
  176MPD1    C1 2732   0.980   4.349  16.507 -0.2685  0.7907 -0.7272
  176MPD1    C2 2733   0.891   4.463  16.505  0.3088 -0.4500 -0.1628
  176MPD1    C3 2734   0.827   4.506  16.619  0.5513 -0.1628 -0.0166
  176MPD1    C4 2735   0.852   4.438  16.737  0.1914  0.4856 -0.6687
  176MPD1    C5 2736   0.930   4.324  16.737  0.2449 -0.1465  0.0895
  176MPD1     H 2737   0.887   4.532  16.422  0.3330 -0.7555 -0.4207
  176MPD1    H1 2738   0.801   4.478  16.823 -1.7040 -0.8735 -1.1655
  176MPD1    H2 2739   1.083   4.209  16.630  0.1540  0.7549 -1.1753
  176MPD1    H3 2740   0.951   4.283  16.835  1.2771  1.4117  0.5171
  176MPD1     N 2741   0.743   4.624  16.604  0.2290  0.0621  0.3641
  176MPD1    H5 2742   0.735   4.664  16.511 -2.1557 -3.9248 -1.1434
  176MPD1    N1 2743   1.074   4.332  16.399 -0.0943  0.3590 -0.1257
  176MPD1    H6 2744   1.037   4.341  16.304  2.9113  1.7201 -1.1775
  176MPD1    H7 2745   1.117   4.239  16.406  0.1909  0.5854  1.1071
  177MPD1     C 2746   3.531   4.411  10.347 -0.6488  0.2192 -0.1372
  177MPD1    C1 2747   3.444   4.346  10.257  0.2647  0.0668  0.5288
  177MPD1    C2 2748   3.398   4.415  10.140  0.2256 -0.1415  0.3982
  177MPD1    C3 2749   3.419   4.552  10.132 -0.2076  0.2806  0.7073
  177MPD1    C4 2750   3.494   4.614  10.231 -0.2320  0.3058  0.0976
  177MPD1    C5 2751   3.551   4.544  10.332  0.2501 -0.0690 -0.6486
  177MPD1     H 2752   3.333   4.360  10.072 -0.7628  0.0463  1.1797
  177MPD1    H1 2753   3.518   4.720  10.230 -0.7542  0.4253 -0.0264
  177MPD1    H2 2754   3.591   4.357  10.419  0.0909 -0.2668 -1.1207
  177MPD1    H3 2755   3.617   4.596  10.400 -0.5212 -0.2333  0.2111
  177MPD1     N 2756   3.361   4.611  10.014 -0.5369  0.1884  0.2793
  177MPD1    H5 2757   3.316   4.551   9.947  0.6620  0.9772 -1.2281
  177MPD1    N1 2758   3.418   4.210  10.262  0.0557 -0.0257  0.3455
  177MPD1    H6 2759   3.437   4.177  10.356 -1.6786 -1.0259  0.3497
  177MPD1    H7 2760   3.330   4.175  10.224 -0.1195  0.2610  0.4839
  178MPD1     C 2761   1.437   0.733   0.351  0.1658  0.1807 -0.2980
  178MPD1    C1 2762   1.475   0.613   0.284 -0.0276 -0.5471  0.0581
  178MPD1    C2 2763   1.537   0.621   0.160  0.0332  0.4000 -0.0793
  178MPD1    C3 2764   1.576   0.737   0.103 -0.1944  0.3468 -0.4320
  178MPD1    C4 2765   1.549   0.857   0.170 -0.7107  0.5685 -0.2392
  178MPD1    C5 2766   1.483   0.853   0.293  0.4683  0.0893  0.0294
  178MPD1     H 2767   1.553   0.529   0.106 -0.4465 -0.0137  0.4897
  178MPD1    H1 2768   1.585   0.950   0.127 -1.9982  2.1132  2.0793
  178MPD1    H2 2769   1.386   0.728   0.446  0.9587  1.7424  0.2017
  178MPD1    H3 2770   1.458   0.945   0.344 -0.3921 -0.4834  0.6313
  178MPD1     N 2771   1.643   0.741  17.735 -0.0028  0.2425  0.4547
  178MPD1    H5 2772   1.692   0.826  17.712 -0.9817  0.9877  1.1348
  178MPD1    N1 2773   1.414   0.494   0.324  0.4043  0.0609  0.7200
  178MPD1    H6 2774   1.450   0.407   0.284 -0.5701 -0.7821  1.6637
  178MPD1    H7 2775   1.402   0.480   0.425 -0.7354  1.0487  0.7128
  179MPD1     C 2776   0.830   4.127  16.102 -0.3222  0.8908  0.5351
  179MPD1    C1 2777   0.774   4.079  15.986 -0.0953  0.3249 -0.2911
  179MPD1    C2 2778   0.807   3.959  15.930  0.7198 -0.1581 -0.2417
  179MPD1    C3 2779   0.894   3.880  15.998  0.0047  0.0303 -0.4350
  179MPD1    C4 2780   0.947   3.920  16.112  0.5383 -0.6213 -0.0467
  179MPD1    C5 2781   0.907   4.039  16.171 -0.5485 -0.4161  0.3896
  179MPD1     H 2782   0.770   3.933  15.832  0.7113 -0.6092 -0.1155
  179MPD1    H1 2783   1.017   3.856  16.164  0.0056 -1.2045 -0.0326
  179MPD1    H2 2784   0.802   4.220  16.148  0.4621  1.5550 -0.3289
  179MPD1    H3 2785   0.957   4.072  16.261  0.4521  1.9168 -1.0162
  179MPD1     N 2786   0.939   3.760  15.937 -0.9055  0.5884 -0.3733
  179MPD1    H5 2787   1.009   3.704  15.986 -0.7924  0.7038 -0.4015
  179MPD1    N1 2788   0.709   4.175  15.906  0.2000 -0.1694  0.1569
  179MPD1    H6 2789   0.641   4.220  15.968 -0.6444  1.5491 -2.0111
  179MPD1    H7 2790   0.657   4.135  15.828  1.1349 -1.0765  0.0110
  180MPD1     C 2791   0.815   4.388  14.725 -0.1297 -0.2542 -0.3791
  180MPD1    C1 2792   0.845   4.445  14.603 -0.3231  0.6242 -0.3830
  180MPD1    C2 2793   0.826   4.580  14.590  0.2455 -0.0436  0.1916
  180MPD1    C3 2794   0.797   4.670  14.691 -0.5482 -0.0371 -0.5479
  180MPD1    C4 2795   0.760   4.613  14.808  0.7440  0.2717  0.2834
  180MPD1    C5 2796   0.781   4.475  14.828  0.1491  0.2118  0.0106
  180MPD1     H 2797   0.854   4.622  14.494  1.3677 -2.9953 -0.7753
  180MPD1    H1 2798   0.736   4.670  14.896  0.2084  0.0049  0.3114
  180MPD1    H2 2799   0.828   4.283  14.745  1.7446 -0.0211 -0.3203
  180MPD1    H3 2800   0.752   4.428  14.921 -2.6024  0.1360 -0.8973
  180MPD1     N 2801   0.787   0.068  14.666 -0.5511 -0.2396  0.3906
  180MPD1    H5 2802   0.811   0.102  14.574 -1.7292 -2.3781 -0.6879
  180MPD1    N1 2803   0.858   4.369  14.487  0.4304  0.1368 -0.7535
  180MPD1    H6 2804   0.897   4.278  14.512  1.3459  0.4463 -1.0458
  180MPD1    H7 2805   0.913   4.413  14.414  0.3127 -1.0424 -1.5672
  181MPD1     C 2806   1.617   1.495   9.979  0.4738 -0.2538  0.0987
  181MPD1    C1 2807   1.610   1.636   9.971 -0.0632  0.6130  0.8919
  181MPD1    C2 2808   1.720   1.713  10.000 -0.2499  0.6034  0.1280
  181MPD1    C3 2809   1.833   1.647  10.031  0.2365  0.4123  0.4003
  181MPD1    C4 2810   1.839   1.508  10.044 -0.3753 -0.3105 -0.8404
  181MPD1    C5 2811   1.733   1.434  10.016  0.5263  0.0465 -0.6586
  181MPD1     H 2812   1.712   1.821  10.004  0.5746  0.6315  1.0937
  181MPD1    H1 2813   1.931   1.458  10.071 -0.2528 -0.6634 -1.9131
  181MPD1    H2 2814   1.530   1.432   9.964  1.2714 -1.3867  0.2842
  181MPD1    H3 2815   1.729   1.327  10.033  0.8433 -0.2526 -2.4457
  181MPD1     N 2816   1.961   1.710  10.049  0.8774  0.4863 -0.4291
  181MPD1    H5 2817   2.038   1.647  10.069 -0.0624 -1.2403 -2.2201
  181MPD1    N1 2818   1.480   1.698   9.940  0.0390 -0.3796 -0.3240
  181MPD1    H6 2819   1.437   1.652   9.860  3.3042 -1.7232 -1.2933
  181MPD1    H7 2820   1.487   1.799   9.928 -1.5205 -0.2641 -0.2121
  182MPD1     C 2821   2.787   2.299   1.246  0.2290 -0.2701 -0.0910
  182MPD1    C1 2822   2.874   2.358   1.152  0.0763  0.3442  0.4729
  182MPD1    C2 2823   2.866   2.301   1.023 -0.4435 -0.5826  0.1849
  182MPD1    C3 2824   2.774   2.204   0.989 -0.4748 -0.8625 -0.2523
  182MPD1    C4 2825   2.693   2.148   1.089 -0.4649 -0.5123  0.0235
  182MPD1    C5 2826   2.705   2.195   1.213  0.3551 -0.2955 -0.3142
  182MPD1     H 2827   2.925   2.342   0.942 -0.8309  2.3209  1.3426
  182MPD1    H1 2828   2.614   2.078   1.063  1.1516 -2.7857  1.2574
  182MPD1    H2 2829   2.770   2.338   1.346  0.5854  2.8351 -1.2571
  182MPD1    H3 2830   2.637   2.158   1.289 -1.0209  0.2506 -1.2739
  182MPD1     N 2831   2.778   2.145   0.857 -0.4968  0.3720 -0.3754
  182MPD1    H5 2832   2.719   2.064   0.841  0.3411 -0.4480  0.7155
  182MPD1    N1 2833   2.950   2.469   1.188  0.0717 -0.1154 -0.2248
  182MPD1    H6 2834   3.027   2.475   1.122 -0.2390  2.4933 -0.3807
  182MPD1    H7 2835   2.992   2.479   1.280  1.5739 -0.7155 -0.8559
  183MPD1     C 2836   3.490   1.616   8.995  0.1666 -0.8384  1.1701
  183MPD1    C1 2837   3.503   1.525   9.099 -0.0673  0.2403 -0.7553
  183MPD1    C2 2838   3.415   1.545   9.204 -0.1234 -0.7246  0.2470
  183MPD1    C3 2839   3.328   1.654   9.220 -0.0008 -0.5313 -0.1833
  183MPD1    C4 2840   3.339   1.749   9.116 -0.2583  0.2331  0.3610
  183MPD1    C5 2841   3.419   1.726   9.010  0.4458  0.1336  0.2340
  183MPD1     H 2842   3.413   1.471   9.284 -1.7444 -1.8922 -0.8879
  183MPD1    H1 2843   3.269   1.831   9.110 -1.7493 -1.1537 -1.0551
  183MPD1    H2 2844   3.548   1.598   8.906  0.5745 -0.5683  1.3833
  183MPD1    H3 2845   3.420   1.801   8.932  0.0949  2.0634  2.0931
  183MPD1     N 2846   3.237   1.658   9.327 -0.5794 -0.3276  0.4954
  183MPD1    H5 2847   3.253   1.590   9.401 -1.3718  1.1105  1.9922
  183MPD1    N1 2848   3.572   1.403   9.079 -0.3040  1.1359 -0.0271
  183MPD1    H6 2849   3.609   1.374   9.169  0.5586  1.0257 -0.4250
  183MPD1    H7 2850   3.649   1.412   9.013 -0.6498 -0.6127 -0.6686
  184MPD1     C 2851   2.690   3.895  10.788 -0.0516 -1.0998 -0.7642
  184MPD1    C1 2852   2.815   3.922  10.729  0.3634 -0.0713  0.9506
  184MPD1    C2 2853   2.827   3.918  10.587  0.2413 -0.9137 -0.1386
  184MPD1    C3 2854   2.712   3.899  10.513  0.2469 -0.6393  0.0756
  184MPD1    C4 2855   2.587   3.891  10.572 -0.9087  0.5060  0.2214
  184MPD1    C5 2856   2.576   3.889  10.711  0.2228  0.4749  0.3187
  184MPD1     H 2857   2.924   3.936  10.542 -0.2164 -0.0605 -0.7796
  184MPD1    H1 2858   2.495   3.884  10.515 -0.1685  1.3451 -1.0688
  184MPD1    H2 2859   2.679   3.889  10.896  0.7420 -1.9721 -0.7253
  184MPD1    H3 2860   2.488   3.864  10.770  1.5177 -0.5258  1.8333
  184MPD1     N 2861   2.716   3.905  10.372  0.2271 -1.1818  0.3845
  184MPD1    H5 2862   2.628   3.921  10.323  0.4627  1.3352  0.7980
  184MPD1    N1 2863   2.932   3.930  10.806  0.7740 -0.1229  0.2774
  184MPD1    H6 2864   3.017   3.973  10.768  0.2953  0.1143 -0.5121
  184MPD1    H7 2865   2.915   3.940  10.906  0.3050  1.9329 -0.0091
  185MPD1     C 2866   2.129   3.943   9.597  0.2794  0.4527 -0.1494
  185MPD1    C1 2867   2.137   3.901   9.731  0.3744  0.0749 -0.1942
  185MPD1    C2 2868   2.257   3.904   9.792 -0.0349  0.8913 -0.2721
  185MPD1    C3 2869   2.367   3.964   9.737  0.0027  0.5450 -0.5837
  185MPD1    C4 2870   2.347   4.037   9.620  0.1112  0.2912  0.0681
  185MPD1    C5 2871   2.234   4.018   9.550  0.0558 -0.5717  0.0764
  185MPD1     H 2872   2.245   3.869   9.894  0.1236 -0.7870 -0.8418
  185MPD1    H1 2873   2.427   4.103   9.588  0.3727 -0.0901 -0.0671
  185MPD1    H2 2874   2.038   3.937   9.538  1.0624  1.4253 -1.4590
  185MPD1    H3 2875   2.223   4.066   9.453  1.5887  1.9452  1.1517
  185MPD1     N 2876   2.480   3.991   9.817 -0.5612  0.3718 -0.0817
  185MPD1    H5 2877   2.558   4.044   9.780 -0.9107  0.5882 -0.5025
  185MPD1    N1 2878   2.032   3.821   9.773  0.9717 -0.5989 -0.0561
  185MPD1    H6 2879   2.023   3.811   9.874 -1.5105 -1.4161 -0.3552
  185MPD1    H7 2880   1.944   3.860   9.739 -0.5233 -2.0809  2.1042
  186MPD1     C 2881   1.816   3.526  15.780 -0.1598 -0.1578  0.0164
  186MPD1    C1 2882   1.782   3.481  15.904  0.0755  0.1536  0.3770
  186MPD1    C2 2883   1.730   3.578  15.991  0.2043  0.3316 -0.1510
  186MPD1    C3 2884   1.746   3.716  15.976 -1.4462  0.5679 -0.5185
  186MPD1    C4 2885   1.808   3.752  15.854  0.6116  0.2754  0.1465
  186MPD1    C5 2886   1.828   3.658  15.758 -0.0891 -0.8589 -0.0553
  186MPD1     H 2887   1.696   3.536  16.086 -0.9235 -1.4700 -1.3574
  186MPD1    H1 2888   1.838   3.852  15.826  0.3568  0.5623  0.8764
  186MPD1    H2 2889   1.831   3.460  15.695 -1.6363  0.5213 -0.7808
  186MPD1    H3 2890   1.862   3.686  15.659  1.1864 -2.1573  0.0179
  186MPD1     N 2891   1.731   3.814  16.070  0.0726  0.5152  0.1587
  186MPD1    H5 2892   1.757   3.907  16.038 -3.3282  1.5724  0.4359
  186MPD1    N1 2893   1.765   3.343  15.932 -0.3691 -0.5160  0.5582
  186MPD1    H6 2894   1.758   3.315  16.030  1.4790  0.4478  0.9603
  186MPD1    H7 2895   1.822   3.278  15.878 -1.6576 -2.3325  1.4093
  187MPD1     C 2896   1.016   0.449  17.623  0.3918  0.1568  0.0748
  187MPD1    C1 2897   0.980   0.447  17.492 -1.2655  0.2564  0.5425
  187MPD1    C2 2898   0.887   0.538  17.444 -0.0722  0.4228  0.3870
  187MPD1    C3 2899   0.817   0.626  17.525  0.1911 -0.0588 -0.8073
  187MPD1    C4 2900   0.845   0.621  17.653 -0.3426 -0.4916  0.0954
  187MPD1    C5 2901   0.945   0.537  17.701  1.0460 -0.0177 -0.4018
  187MPD1     H 2902   0.880   0.543  17.336  1.3340 -0.7068  0.2371
  187MPD1    H1 2903   0.793   0.676  17.731  1.3522  1.1667  0.0653
  187MPD1    H2 2904   1.080   0.379  17.676  0.0703  0.5203  0.9486
  187MPD1    H3 2905   0.970   0.547   0.047 -1.0947 -0.9664  0.1951
  187MPD1     N 2906   0.730   0.725  17.476  0.4070  0.7058 -0.3920
  187MPD1    H5 2907   0.692   0.794  17.541  0.8986 -0.5662  1.2594
  187MPD1    N1 2908   1.035   0.360  17.396 -0.2315  0.1170 -0.7526
  187MPD1    H6 2909   0.980   0.340  17.313 -2.4784 -0.0472  0.7493
  187MPD1    H7 2910   1.066   0.271  17.436 -0.9487 -0.4463 -1.4475
  188MPD1     C 2911   0.119   1.102  10.633 -0.1690 -0.2154 -0.7871
  188MPD1    C1 2912   0.028   1.085  10.537 -0.5288  0.0634 -0.5280
  188MPD1    C2 2913   0.019   0.960  10.475 -0.0918  0.6118  0.1889
  188MPD1    C3 2914   0.100   0.854  10.521 -0.4968 -0.1144 -0.4345
  188MPD1    C4 2915   0.207   0.881  10.608 -0.6049  0.5037  0.4349
  188MPD1    C5 2916   0.216   1.009  10.662 -0.5879 -0.2569 -0.6517
  188MPD1     H 2917   4.682   0.929  10.407 -1.4763  0.6701  1.7332
  188MPD1    H1 2918   0.263   0.800  10.652  1.7173  3.4025  2.8275
  188MPD1    H2 2919   0.132   1.193  10.689  3.8661 -0.0926 -1.9377
  188MPD1    H3 2920   0.288   1.022  10.742  0.6781 -1.8891 -1.5467
  188MPD1     N 2921   0.088   0.721  10.477 -0.0875 -0.0619 -0.0669
  188MPD1    H5 2922   0.149   0.649  10.514 -0.3158 -0.2916 -0.1384
  188MPD1    N1 2923   4.660   1.178  10.520  0.0145 -0.4143 -0.1577
  188MPD1    H6 2924   4.692   1.270  10.549  1.8740 -0.4472 -2.0786
  188MPD1    H7 2925   4.613   1.181  10.429  1.0927 -0.1393 -0.7024
  189MPD1     C 2926   2.825   2.669  17.617 -0.3724 -0.0533  0.0293
  189MPD1    C1 2927   2.761   2.627  17.732  0.3962  0.1896 -0.0889
  189MPD1    C2 2928   2.659   2.698   0.023  0.1093  0.1997 -0.3526
  189MPD1    C3 2929   2.621   2.820  17.723  0.0282  1.0239 -0.3616
  189MPD1    C4 2930   2.686   2.862  17.601  0.0683 -0.6515 -0.4045
  189MPD1    C5 2931   2.785   2.784  17.552  0.6903  0.5887  1.2006
  189MPD1     H 2932   2.609   2.666   0.114 -0.8719  0.8732 -0.6557
  189MPD1    H1 2933   2.654   2.954  17.553  3.8094 -0.9014 -3.3465
  189MPD1    H2 2934   2.903   2.606  17.576 -2.3656 -1.7467 -1.1900
  189MPD1    H3 2935   2.838   2.808  17.460  3.0387  0.6030  2.5374
  189MPD1     N 2936   2.517   2.892   0.016 -0.7116  0.4048  0.4818
  189MPD1    H5 2937   2.477   2.844   0.097 -2.0813  0.5195 -0.1157
  189MPD1    N1 2938   2.815   2.509   0.018 -0.4945 -0.4805  0.2407
  189MPD1    H6 2939   2.735   2.461   0.058 -0.5990 -1.4627 -1.1537
  189MPD1    H7 2940   2.852   2.448  17.705 -0.9937 -2.7502  1.8985
  190MPD1     C 2941   0.901   0.552  15.062  0.2604 -0.5285  0.5188
  190MPD1    C1 2942   0.998   0.461  15.024  0.2003 -0.8611  0.4234
  190MPD1    C2 2943   1.088   0.424  15.120  0.2190  0.0818  0.2636
  190MPD1    C3 2944   1.097   0.481  15.241 -0.0356  0.2451 -0.0506
  190MPD1    C4 2945   1.015   0.585  15.266  0.1229  0.2281  0.3921
  190MPD1    C5 2946   0.918   0.623  15.178  0.6126  0.5054 -0.5250
  190MPD1     H 2947   1.162   0.350  15.089 -1.2101 -1.1438 -0.1995
  190MPD1    H1 2948   1.019   0.646  15.355  0.4835  0.7923 -0.0041
  190MPD1    H2 2949   0.813   0.569  15.000 -0.0419 -1.4288  0.7039
  190MPD1    H3 2950   0.850   0.706  15.199 -0.4925 -0.6651  0.5528
  190MPD1     N 2951   1.195   0.434  15.334 -0.3781 -0.2661  0.0461
  190MPD1    H5 2952   1.247   0.354  15.298 -0.8304 -0.6262  0.1840
  190MPD1    N1 2953   0.977   0.391  14.901  0.1047 -0.0630  0.1885
  190MPD1    H6 2954   1.064   0.350  14.866  1.3683  3.1442 -0.3902
  190MPD1    H7 2955   0.944   0.458  14.832 -0.0911 -0.9980 -0.6267
  191MPD1     C 2956   0.606   0.923  12.375  0.1295 -0.1174 -0.3716
  191MPD1    C1 2957   0.606   0.986  12.493  0.5821  0.1401 -0.5110
  191MPD1    C2 2958   0.577   1.122  12.494  0.1454  0.3729  0.2816
  191MPD1    C3 2959   0.551   1.190  12.381  0.3438  0.3649 -0.6807
  191MPD1    C4 2960   0.560   1.126  12.261 -0.4226 -0.6654 -0.2725
  191MPD1    C5 2961   0.589   0.991  12.258  0.0197  0.1995 -0.7908
  191MPD1     H 2962   0.573   1.172  12.590  0.2373 -0.2186  0.5894
  191MPD1    H1 2963   0.539   1.185  12.173  1.7504  2.1584  1.0994
  191MPD1    H2 2964   0.608   0.815  12.370  0.3777 -0.1452  0.3171
  191MPD1    H3 2965   0.591   0.936  12.165 -0.4502  0.8011 -1.1619
  191MPD1     N 2966   0.510   1.329  12.404  0.3977  0.1181 -0.3446
  191MPD1    H5 2967   0.507   1.357  12.502 -0.6958 -3.5065  0.6230
  191MPD1    N1 2968   0.609   0.905  12.608 -0.2384 -0.6114  0.5607
  191MPD1    H6 2969   0.679   0.833  12.594 -0.8459 -0.9765 -0.5980
  191MPD1    H7 2970   0.640   0.959  12.689  1.2405  1.7033 -1.5533
  192MPD1     C 2971   0.316   1.940  13.117 -0.0975 -0.3313  0.3744
  192MPD1    C1 2972   0.273   1.820  13.072 -0.1701 -0.6052 -0.6760
  192MPD1    C2 2973   0.280   1.788  12.936  0.4037  0.2744  0.0808
  192MPD1    C3 2974   0.364   1.868  12.858 -0.0889  0.0891  0.5663
  192MPD1    C4 2975   0.422   1.980  12.908  0.4007  0.1405 -0.5411
  192MPD1    C5 2976   0.402   2.016  13.041 -0.4621 -1.0614 -0.5038
  192MPD1     H 2977   0.219   1.706  12.899  1.4590 -1.6702  2.6343
  192MPD1    H1 2978   0.485   2.050  12.855  0.7094  0.9755  0.9241
  192MPD1    H2 2979   0.299   1.953  13.223 -1.0842 -1.0241  0.3051
  192MPD1    H3 2980   0.454   2.102  13.080  0.0559 -0.1979 -3.1108
  192MPD1     N 2981   0.388   1.832  12.723 -0.0930  0.3634  0.0049
  192MPD1    H5 2982   0.440   1.897  12.666  2.6851 -2.2601 -0.4512
  192MPD1    N1 2983   0.185   1.747  13.155 -0.4529  0.2863 -0.0727
  192MPD1    H6 2984   0.175   1.649  13.129 -2.0733  0.5000 -0.2606
  192MPD1    H7 2985   0.216   1.744  13.251  0.8156  1.4448 -0.4475
  193MPD1     C 2986   4.413   2.212  16.216  0.4876  0.1886  0.2047
  193MPD1    C1 2987   4.395   2.312  16.300 -0.5205 -0.0361  0.6520
  193MPD1    C2 2988   4.500   2.397  16.320  0.8865  0.0610 -0.2206
  193MPD1    C3 2989   4.619   2.375  16.251 -0.7273 -0.4334  0.1801
  193MPD1    C4 2990   4.630   2.273  16.163  0.1409  0.4775  0.0722
  193MPD1    C5 2991   4.525   2.190  16.146  0.4701  0.5575  0.4000
  193MPD1     H 2992   4.495   2.483  16.387  1.5133  2.1795 -2.8884
  193MPD1    H1 2993   4.723   2.254  16.109  0.2589 -1.5451  0.9753
  193MPD1    H2 2994   4.331   2.146  16.190  0.5890 -0.3884  1.3904
  193MPD1    H3 2995   4.543   2.097  16.094  1.3506  0.6878  0.4715
  193MPD1     N 2996   4.732   2.456  16.270 -0.9344  0.2412  0.2957
  193MPD1    H5 2997   0.067   2.435  16.206  1.1726  3.2193  1.8025
  193MPD1    N1 2998   4.284   2.320  16.382  0.1421 -0.2315  0.0827
  193MPD1    H6 2999   4.272   2.409  16.429 -1.1398 -0.1804 -0.3353
  193MPD1    H7 3000   4.201   2.282  16.337  1.1613  0.5174 -2.4596
  194MPD1     C 3001   2.029   4.663  17.394 -0.0836  0.5534 -0.6590
  194MPD1    C1 3002   2.065   4.701  17.272  0.0888  0.0471  0.7485
  194MPD1    C2 3003   2.158   4.625  17.204 -0.1209  0.5368  0.2626
  194MPD1    C3 3004   2.215   4.512  17.263  0.4442  0.1293 -0.2177
  194MPD1    C4 3005   2.174   4.479  17.398  0.2511  0.5086  0.4831
  194MPD1    C5 3006   2.069   4.545  17.453 -0.2885  0.1765 -0.2882
  194MPD1     H 3007   2.183   4.653  17.102 -1.1460 -0.6429 -0.3121
  194MPD1    H1 3008   2.221   4.397  17.451  2.5652  2.1173  0.9271
  194MPD1    H2 3009   1.954   4.723  17.444 -0.7476 -1.4481  0.7360
  194MPD1    H3 3010   2.038   4.528  17.555  0.7645 -1.0503 -0.1741
  194MPD1     N 3011   2.306   4.420  17.203  0.1561  0.0350  0.9891
  194MPD1    H5 3012   2.344   4.348  17.263 -0.6266 -1.0659  0.1749
  194MPD1    N1 3013   1.992   0.064  17.210  0.2312  0.6271  0.3142
  194MPD1    H6 3014   2.054   0.120  17.151 -2.3237  2.2851 -0.7874
  194MPD1    H7 3015   1.969   0.130  17.284  1.1919  0.3634  0.8540
  195MPD1     C 3016   0.168   1.480  17.124 -0.5542  0.2754  0.3597
  195MPD1    C1 3017   0.258   1.390  17.173  0.0437 -0.4138 -0.4066
  195MPD1    C2 3018   0.217   1.271  17.218 -0.6769  0.1683  0.7383
  195MPD1    C3 3019   0.084   1.236  17.189  0.5243 -0.6151 -0.4300
  195MPD1    C4 3020   4.737   1.321  17.124 -0.1797 -0.3936  0.0227
  195MPD1    C5 3021   0.037   1.443  17.092  0.0515 -1.0977 -0.1816
  195MPD1     H 3022   0.283   1.209  17.277  2.5446  2.3755 -0.5407
  195MPD1    H1 3023   4.639   1.293  17.088 -1.4820  3.3441  0.6791
  195MPD1    H2 3024   0.186   1.585  17.107  2.5346 -0.5133 -1.2452
  195MPD1    H3 3025   4.702   1.508  17.049  1.2289 -0.3908 -1.1892
  195MPD1     N 3026   0.047   1.101  17.205  0.3264 -0.2617 -0.0807
  195MPD1    H5 3027   4.698   1.073  17.166  0.5108 -1.8881  0.6349
  195MPD1    N1 3028   0.381   1.445  17.214  0.2731  0.4216 -0.1043
  195MPD1    H6 3029   0.451   1.379  17.248 -0.0345  1.0497  1.7732
  195MPD1    H7 3030   0.427   1.507  17.148 -1.2660 -1.1738 -2.6932
  196MPD1     C 3031   4.346   0.922   0.087  0.4083 -0.0470  0.3080
  196MPD1    C1 3032   4.233   0.853   0.116  0.3694  0.2898 -0.0460
  196MPD1    C2 3033   4.140   0.897   0.206 -0.2210  0.0344 -0.1654
  196MPD1    C3 3034   4.162   1.012   0.278  0.5299 -0.8163  0.2699
  196MPD1    C4 3035   4.281   1.076   0.254  0.0080 -0.2453 -0.7027
  196MPD1    C5 3036   4.367   1.032   0.160  0.2836  0.4598 -0.5157
  196MPD1     H 3037   4.054   0.836   0.231  0.0125 -0.4458 -0.5406
  196MPD1    H1 3038   4.297   1.171   0.303 -2.2013 -0.0700 -0.2932
  196MPD1    H2 3039   4.420   0.888   0.015  1.2298  0.6275  0.8298
  196MPD1    H3 3040   4.446   1.097   0.125  0.5575  1.0944  1.3006
  196MPD1     N 3041   4.076   1.066   0.378 -0.0668 -0.1965 -0.1028
  196MPD1    H5 3042   4.116   1.150   0.419  2.5052 -2.4705  2.1319
  196MPD1    N1 3043   4.228   0.719   0.073  0.2039 -0.7220 -0.2845
  196MPD1    H6 3044   4.255   0.709  17.735 -2.2474 -0.9422 -0.9336
  196MPD1    H7 3045   4.131   0.686   0.078  0.6602 -2.0680 -0.0844
  197MPD1     C 3046   3.438   2.524  17.312  0.0450 -0.5551  0.5137
  197MPD1    C1 3047   3.548   2.574  17.381 -0.2982  0.1837 -0.1651
  197MPD1    C2 3048   3.637   2.652  17.308  0.0268  0.4072 -0.3842
  197MPD1    C3 3049   3.615   2.677  17.172  0.0808 -0.6978 -0.2457
  197MPD1    C4 3050   3.507   2.625  17.107  0.5354 -0.2559 -0.4274
  197MPD1    C5 3051   3.422   2.547  17.180  1.0523 -0.7432  1.0094
  197MPD1     H 3052   3.720   2.693  17.364  1.5685  1.6705 -3.5889
  197MPD1    H1 3053   3.482   2.655  17.007  0.8255 -0.2038 -0.4862
  197MPD1    H2 3054   3.368   2.460  17.364 -0.4317 -1.4547 -1.2232
  197MPD1    H3 3055   3.349   2.493  17.121  0.4133  0.3712  0.7847
  197MPD1     N 3056   3.694   2.765  17.091 -0.0736  0.2272  0.0276
  197MPD1    H5 3057   3.661   2.785  16.997 -3.1762 -1.1127  0.8157
  197MPD1    N1 3058   3.571   2.554  17.518 -0.1916 -0.3535 -0.1763
  197MPD1    H6 3059   3.527   2.472  17.560  1.4430 -1.1600 -0.0330
  197MPD1    H7 3060   3.667   2.553  17.553 -0.3693  2.8975  0.3487
  198MPD1     C 3061   1.561   0.617  15.249 -0.2399 -0.3993  0.6400
  198MPD1    C1 3062   1.651   0.649  15.350  0.1964 -0.4253 -0.0998
  198MPD1    C2 3063   1.612   0.733  15.449 -0.5546 -0.7238 -0.2231
  198MPD1    C3 3064   1.483   0.787  15.446 -0.6175 -0.0204  0.3099
  198MPD1    C4 3065   1.394   0.751  15.350  0.3805  0.4702 -0.2690
  198MPD1    C5 3066   1.434   0.665  15.252  0.5169  0.1008  1.0624
  198MPD1     H 3067   1.676   0.769  15.529  0.0661  2.3878 -2.1009
  198MPD1    H1 3068   1.299   0.804  15.340  0.6265  0.7450 -1.1670
  198MPD1    H2 3069   1.597   0.544  15.177  0.3598 -0.8129  1.3596
  198MPD1    H3 3070   1.373   0.644  15.164  0.7367 -1.2113  1.2249
  198MPD1     N 3071   1.457   0.891  15.538  0.3525 -0.2446  0.0337
  198MPD1    H5 3072   1.531   0.907  15.605 -1.0503  1.7978  1.1134
  198MPD1    N1 3073   1.783   0.603  15.341  0.9288 -0.0470 -0.2537
  198MPD1    H6 3074   1.809   0.573  15.435  0.8740 -0.8656 -0.5017
  198MPD1    H7 3075   1.789   0.520  15.283 -1.3655  1.4386 -2.5773
  199MPD1     C 3076   3.031   2.212   9.945  0.2471 -0.1302 -0.4875
  199MPD1    C1 3077   3.009   2.339   9.897  0.5799  0.0518  0.5396
  199MPD1    C2 3078   2.877   2.384   9.871  0.0570  0.4294 -0.7412
  199MPD1    C3 3079   2.769   2.307   9.912 -0.2358  0.1327  0.4011
  199MPD1    C4 3080   2.796   2.184   9.965  0.5395  0.0266 -0.1589
  199MPD1    C5 3081   2.930   2.134   9.977 -0.3118  0.0073  0.0777
  199MPD1     H 3082   2.869   2.485   9.835 -0.2691  0.2742 -1.0982
  199MPD1    H1 3083   2.715   2.113   9.980  0.0839  1.0295  2.2312
  199MPD1    H2 3084   3.129   2.172   9.968  0.3417  1.3886  1.8126
  199MPD1    H3 3085   2.938   2.028   9.999  0.6909  0.0816  0.0767
  199MPD1     N 3086   2.635   2.342   9.898  0.5568 -0.0462 -0.4939
  199MPD1    H5 3087   2.577   2.269   9.938 -0.4782  1.3964  0.5993
  199MPD1    N1 3088   3.121   2.425   9.872 -0.2595 -0.8151  0.2463
  199MPD1    H6 3089   3.203   2.411   9.930  1.0294 -1.1830 -1.6687
  199MPD1    H7 3090   3.097   2.522   9.850 -1.3793 -0.9864  0.6866
  200MPD1     C 3091   1.576   2.392  14.149  0.0696 -0.0748 -0.0613
  200MPD1    C1 3092   1.624   2.397  14.018  0.0644 -0.5522 -0.3656
  200MPD1    C2 3093   1.756   2.422  13.991 -0.2204  0.0082  0.5164
  200MPD1    C3 3094   1.838   2.455  14.099 -0.2618  0.0667 -0.2609
  200MPD1    C4 3095   1.790   2.447  14.233  0.0175  0.0664  0.7784
  200MPD1    C5 3096   1.665   2.407  14.256 -0.4827  0.0362  0.0203
  200MPD1     H 3097   1.788   2.430  13.888 -2.6024 -0.2490 -0.2368
  200MPD1    H1 3098   1.850   2.462  14.322  1.3137 -0.8749  0.0496
  200MPD1    H2 3099   1.471   2.374  14.169  0.1069 -1.3189 -0.9851
  200MPD1    H3 3100   1.630   2.415  14.358 -0.0393  2.3674 -0.0142
  200MPD1     N 3101   1.978   2.495  14.077  0.0627 -0.0432 -0.1779
  200MPD1    H5 3102   1.999   2.517  13.980 -2.2254 -4.4012 -1.6907
  200MPD1    N1 3103   1.541   2.355  13.912 -0.0467 -0.3433 -0.4252
  200MPD1    H6 3104   1.573   2.392  13.823  3.9141 -2.4055  0.1494
  200MPD1    H7 3105   1.445   2.383  13.933 -0.0845 -0.7719 -0.0124
  201MPD1     C 3106   3.647   1.986  13.497 -0.2664  0.4026  0.1164
  201MPD1    C1 3107   3.606   1.903  13.392 -1.0314  0.0979 -0.2088
  201MPD1    C2 3108   3.677   1.787  13.376 -0.6145  0.0673 -0.0368
  201MPD1    C3 3109   3.802   1.773  13.435  0.5100 -0.2647  0.2508
  201MPD1    C4 3110   3.853   1.862  13.521  0.4014  0.6122 -0.5634
  201MPD1    C5 3111   3.770   1.962  13.560 -0.1337 -0.9279 -0.4054
  201MPD1     H 3112   3.636   1.710  13.312  0.5454  1.0881 -2.0011
  201MPD1    H1 3113   3.944   1.852  13.580  1.4842  1.3990 -2.1205
  201MPD1    H2 3114   3.591   2.074  13.526 -0.2613  0.9922 -1.6708
  201MPD1    H3 3115   3.800   2.029  13.640  1.0486 -1.7610 -0.1523
  201MPD1     N 3116   3.882   1.659  13.402 -0.0688  0.5192 -0.0019
  201MPD1    H5 3117   3.842   1.596  13.333  3.0628 -1.2658 -0.1638
  201MPD1    N1 3118   3.472   1.913  13.346 -0.0959  0.8776 -0.0522
  201MPD1    H6 3119   3.459   1.862  13.259  0.9239 -1.5239  1.1945
  201MPD1    H7 3120   3.451   2.008  13.315  1.5729  1.0441 -0.6865
  202MPD1     C 3121   4.201   1.237   9.311  0.2570  0.5675 -0.0405
  202MPD1    C1 3122   4.062   1.224   9.285 -0.0952  1.1184 -0.2428
  202MPD1    C2 3123   3.980   1.168   9.385 -0.3752 -0.6022 -0.3185
  202MPD1    C3 3124   4.034   1.144   9.513  0.4465  0.1795  0.0188
  202MPD1    C4 3125   4.167   1.172   9.535  0.4273  0.4346  0.2135
  202MPD1    C5 3126   4.250   1.210   9.441  0.5824 -0.7444 -0.2572
  202MPD1     H 3127   3.881   1.138   9.355 -0.0930 -0.8727 -0.9938
  202MPD1    H1 3128   4.195   1.162   9.640 -3.3257  0.7951  1.2474
  202MPD1    H2 3129   4.274   1.257   9.234  0.1423  1.0099 -0.0352
  202MPD1    H3 3130   4.356   1.221   9.463  0.6779 -0.1984 -0.9881
  202MPD1     N 3131   3.955   1.120   9.632  0.0928 -0.1423  0.3419
  202MPD1    H5 3132   4.001   1.092   9.719  1.2660 -1.0620 -0.5808
  202MPD1    N1 3133   4.015   1.229   9.156 -0.0743 -0.7171 -0.1229
  202MPD1    H6 3134   4.049   1.313   9.110  0.8775 -0.1181  1.6719
  202MPD1    H7 3135   3.913   1.235   9.158  0.0150  0.9869 -1.1880
  203MPD1     C 3136   2.355   2.149  12.716  0.0408  0.7885 -0.0906
  203MPD1    C1 3137   2.330   2.039  12.640  0.1878 -0.2006 -0.2610
  203MPD1    C2 3138   2.438   1.955  12.623  0.0123 -0.3495 -0.2374
  203MPD1    C3 3139   2.554   1.968  12.701 -0.1063  0.2041  0.3894
  203MPD1    C4 3140   2.573   2.078  12.772  0.2302  0.0352  0.4090
  203MPD1    C5 3141   2.471   2.163  12.779  0.0859 -0.6547  0.2145
  203MPD1     H 3142   2.438   1.867  12.561 -1.5931 -1.2735  1.0782
  203MPD1    H1 3143   2.663   2.103  12.827  0.1926 -0.4965  0.7125
  203MPD1    H2 3144   2.279   2.222  12.739  1.3332  2.1961 -0.2748
  203MPD1    H3 3145   2.487   2.241  12.853  0.4340 -1.6005  1.1286
  203MPD1     N 3146   2.651   1.865  12.704  0.3824  0.7201  0.0266
  203MPD1    H5 3147   2.613   1.782  12.660 -1.8668  0.6458  2.1017
  203MPD1    N1 3148   2.214   2.029  12.562  0.2803  0.0060  0.0985
  203MPD1    H6 3149   2.138   2.072  12.615  0.3461 -1.0314  1.0363
  203MPD1    H7 3150   2.183   1.934  12.545  1.6532 -0.3941 -0.2142
  204MPD1     C 3151   2.684   3.597   0.154  0.1011 -0.2247  0.7924
  204MPD1    C1 3152   2.591   3.496   0.132  0.0529  0.7302 -0.3268
  204MPD1    C2 3153   2.588   3.448  17.758  0.6572 -0.1702  0.6099
  204MPD1    C3 3154   2.670   3.489  17.660 -0.2031 -0.5845  0.6686
  204MPD1    C4 3155   2.755   3.594  17.686 -0.0189 -0.6922 -0.0534
  204MPD1    C5 3156   2.752   3.645   0.054  0.1342  0.7554 -0.6974
  204MPD1     H 3157   2.525   3.361  17.746  1.8439 -0.8194 -0.8777
  204MPD1    H1 3158   2.824   3.629  17.610 -0.8644 -0.0857 -0.5372
  204MPD1    H2 3159   2.704   3.637   0.252  0.6063  1.8768 -0.1662
  204MPD1    H3 3160   2.827   3.719   0.077  1.9097 -0.1011 -3.7164
  204MPD1     N 3161   2.651   3.430  17.533 -0.2713 -0.4931 -0.2560
  204MPD1    H5 3162   2.572   3.367  17.525 -1.0876  0.3963  0.7114
  204MPD1    N1 3163   2.509   3.434   0.233 -0.0000  0.0933 -0.3768
  204MPD1    H6 3164   2.409   3.447   0.219  0.3453 -0.8469 -3.6190
  204MPD1    H7 3165   2.536   3.475   0.323  0.1751  0.1452 -0.4534
  205MPD1     C 3166   2.954   1.903   0.236 -0.0625  0.5762  0.1213
  205MPD1    C1 3167   2.982   2.035   0.206  0.1167  0.2571  0.0059
  205MPD1    C2 3168   2.897   2.084   0.106 -0.1273 -0.5551 -0.4615
  205MPD1    C3 3169   2.799   2.012   0.039  0.5172 -0.1091 -0.0502
  205MPD1    C4 3170   2.780   1.883   0.083  0.6464 -0.3878  0.0071
  205MPD1    C5 3171   2.856   1.828   0.181  0.4397 -0.3406  0.1232
  205MPD1     H 3172   2.929   2.180   0.067 -0.5444 -0.4053 -0.4251
  205MPD1    H1 3173   2.712   1.824   0.023 -1.0286  1.6521 -0.0892
  205MPD1    H2 3174   3.011   1.852   0.313  0.3032  0.5918 -0.1429
  205MPD1    H3 3175   2.847   1.724   0.209  1.5102 -0.3006  0.6396
  205MPD1     N 3176   2.733   2.058  17.682 -0.0556 -0.3970 -0.6340
  205MPD1    H5 3177   2.662   1.992  17.656  0.0726 -1.0304  0.6119
  205MPD1    N1 3178   3.098   2.097   0.249 -0.7620  0.1873  0.5078
  205MPD1    H6 3179   3.102   2.198   0.233 -0.7952 -0.0434 -0.9141
  205MPD1    H7 3180   3.107   2.078   0.349  0.6377  0.0664  0.3546
  206MPD1     C 3181   2.592   4.546  16.603 -0.1819  0.1511  1.0914
  206MPD1    C1 3182   2.720   4.525  16.552 -0.4266 -0.3761 -0.0248
  206MPD1    C2 3183   2.729   4.545  16.417 -0.3689 -0.4047 -0.1739
  206MPD1    C3 3184   2.627   4.595  16.331  0.0433  0.0700 -0.5618
  206MPD1    C4 3185   2.497   4.616  16.391  0.3287 -0.7423  0.1117
  206MPD1    C5 3186   2.499   4.598  16.524 -0.1281  0.0150  0.3825
  206MPD1     H 3187   2.828   4.534  16.375 -0.1532 -0.8800  0.4546
  206MPD1    H1 3188   2.408   4.651  16.342  0.3960  0.6024  0.9323
  206MPD1    H2 3189   2.560   4.549  16.706  1.9771 -0.5440  1.7707
  206MPD1    H3 3190   2.409   4.633  16.573 -0.1850  0.7809 -0.2814
  206MPD1     N 3191   2.631   4.608  16.186  0.0268 -1.0344 -0.7069
  206MPD1    H5 3192   2.563   4.673  16.148  0.8777 -0.1059 -0.6542
  206MPD1    N1 3193   2.819   4.469  16.632  0.3130 -0.1553  0.3920
  206MPD1    H6 3194   2.908   4.476  16.584 -1.2626  0.0864 -2.4544
  206MPD1    H7 3195   2.800   4.369  16.636 -0.6386  0.0656  1.7443
  207MPD1     C 3196   4.691   2.747   9.297  0.5768  0.5265  0.2982
  207MPD1    C1 3197   4.608   2.665   9.370 -0.1245 -0.4341 -0.0825
  207MPD1    C2 3198   4.653   2.631   9.497  0.0082 -0.3599 -0.6996
  207MPD1    C3 3199   0.029   2.682   9.548 -0.0649  0.1240  0.0300
  207MPD1    C4 3200   0.114   2.759   9.470  0.2839 -0.2614  0.4185
  207MPD1    C5 3201   0.068   2.797   9.342 -0.0628  0.2312 -0.1353
  207MPD1     H 3202   4.590   2.568   9.560 -0.4727  1.1574  0.3300
  207MPD1    H1 3203   0.207   2.800   9.506 -0.9899  2.1345  1.0032
  207MPD1    H2 3204   4.658   2.795   9.205  0.1315 -1.8430 -0.7711
  207MPD1    H3 3205   0.124   2.875   9.291 -1.1419  0.8225 -0.4240
  207MPD1     N 3206   0.070   2.657   9.680 -0.5149  0.4036  0.1493
  207MPD1    H5 3207   0.161   2.698   9.702 -0.2503  0.9881 -2.0842
  207MPD1    N1 3208   4.477   2.641   9.329 -0.0866  0.8559 -0.1840
  207MPD1    H6 3209   4.474   2.635   9.228 -0.2204  0.4281 -0.1534
  207MPD1    H7 3210   4.448   2.549   9.361 -0.0090  1.3409  1.3033
  208MPD1     C 3211   2.839   0.497   0.158  0.8568  0.0356  0.6750
  208MPD1    C1 3212   2.761   0.555   0.252  0.1752 -0.3066  0.1785
  208MPD1    C2 3213   2.679   0.668   0.220 -0.6127 -0.2063  0.9635
  208MPD1    C3 3214   2.694   0.734   0.096  0.2578  1.0426 -0.8338
  208MPD1    C4 3215   2.790   0.680   0.015 -0.5180 -0.2575 -0.8577
  208MPD1    C5 3216   2.854   0.562   0.039  0.6990  0.1986 -0.7931
  208MPD1     H 3217   2.600   0.705   0.285 -2.0904  1.2189 -1.6581
  208MPD1    H1 3218   2.796   0.712  17.671 -1.1835  0.8000 -0.5622
  208MPD1    H2 3219   2.888   0.400   0.160 -2.7278 -1.7770  1.2072
  208MPD1    H3 3220   2.900   0.516  17.712 -1.1311  0.2772 -1.8154
  208MPD1     N 3221   2.616   0.851   0.078  0.5449 -0.8775 -0.0828
  208MPD1    H5 3222   2.563   0.888   0.156  2.1013  0.9498  0.1119
  208MPD1    N1 3223   2.745   0.495   0.382  0.3707 -0.4676  0.1904
  208MPD1    H6 3224   2.761   0.560   0.458  0.7756 -2.6720  1.9762
  208MPD1    H7 3225   2.823   0.430   0.387  2.3238  1.5351 -3.7197
  209MPD1     C 3226   4.517   1.482  11.326  0.1268 -0.1672  0.0470
  209MPD1    C1 3227   4.604   1.561  11.393  0.2251 -0.0924 -0.1964
  209MPD1    C2 3228   4.635   1.680  11.338  0.5815 -0.0396  0.5236
  209MPD1    C3 3229   4.596   1.722  11.213  0.2817 -0.2058 -1.1579
  209MPD1    C4 3230   4.516   1.638  11.146  0.0280  0.2321  0.1367
  209MPD1    C5 3231   4.478   1.520  11.202 -0.6646 -0.1033  0.7536
  209MPD1     H 3232   4.692   1.746  11.401 -0.1861  0.8611  0.2765
  209MPD1    H1 3233   4.483   1.657  11.045 -1.2723 -0.6351  0.3960
  209MPD1    H2 3234   4.488   1.384  11.362 -1.2205  1.2106  2.6949
  209MPD1    H3 3235   4.422   1.449  11.142  0.2159 -2.0762  2.2883
  209MPD1     N 3236   4.635   1.849  11.174 -0.2371  0.1240  0.3260
  209MPD1    H5 3237   4.699   1.891  11.241  0.0862  0.9754 -0.5040
  209MPD1    N1 3238   4.641   1.532  11.523 -1.0091 -0.2483  0.4008
  209MPD1    H6 3239   4.729   1.578  11.544  0.3689 -2.7208  0.0068
  209MPD1    H7 3240   4.652   1.432  11.539 -1.2531 -0.8705 -3.2240
  210MPD1     C 3241   0.677   2.422  11.247 -0.8455 -0.6344  0.8271
  210MPD1    C1 3242   0.546   2.459  11.283 -0.1061 -0.8003  0.0151
  210MPD1    C2 3243   0.449   2.377  11.236 -0.3410 -0.0715  0.6029
  210MPD1    C3 3244   0.473   2.273  11.145 -1.0691  0.5569  0.2804
  210MPD1    C4 3245   0.601   2.246  11.111  0.0733  0.3259  0.4061
  210MPD1    C5 3246   0.705   2.320  11.160  0.4671 -0.9696  0.1404
  210MPD1     H 3247   0.345   2.403  11.254 -0.5908  1.1318 -2.4845
  210MPD1    H1 3248   0.633   2.169  11.041 -1.7464 -0.6627  0.6597
  210MPD1    H2 3249   0.762   2.475  11.289 -0.0128  0.1519 -1.8761
  210MPD1    H3 3250   0.805   2.284  11.142 -0.2303 -2.0443 -1.6571
  210MPD1     N 3251   0.365   2.211  11.075  0.8035 -0.1334  0.2101
  210MPD1    H5 3252   0.389   2.166  10.988 -1.1388  0.2216 -0.5114
  210MPD1    N1 3253   0.520   2.569  11.371 -0.1560  0.3909 -0.3874
  210MPD1    H6 3254   0.560   2.659  11.345  0.8149  0.1995  0.4579
  210MPD1    H7 3255   0.419   2.579  11.383  0.0754 -0.4997  2.2085
  211MPD1     C 3256   2.688   2.157  17.044  0.6814  0.2179  0.4664
  211MPD1    C1 3257   2.698   2.279  16.976 -0.9672  0.1191 -0.3824
  211MPD1    C2 3258   2.670   2.280  16.843 -0.4296 -0.6926  0.3731
  211MPD1    C3 3259   2.646   2.158  16.781 -0.3284 -0.0504  0.1298
  211MPD1    C4 3260   2.628   2.037  16.849  0.6491 -0.2449 -0.6608
  211MPD1    C5 3261   2.653   2.039  16.987 -0.5128 -0.4270 -0.3683
  211MPD1     H 3262   2.688   2.372  16.789  0.8116 -0.3656  1.3567
  211MPD1    H1 3263   2.603   1.940  16.808  2.6209 -0.9009 -0.2967
  211MPD1    H2 3264   2.711   2.157  17.150  0.8412 -0.8287  0.4317
  211MPD1    H3 3265   2.635   1.945  17.038 -1.1938 -1.3728 -2.3707
  211MPD1     N 3266   2.625   2.177  16.645  0.6309 -0.3572 -0.8916
  211MPD1    H5 3267   2.640   2.272  16.614  2.1665 -0.0982  0.6646
  211MPD1    N1 3268   2.769   2.385  17.030  0.1242 -0.6264 -0.3491
  211MPD1    H6 3269   2.760   2.476  16.986 -0.0168 -1.1825 -1.4520
  211MPD1    H7 3270   2.736   2.399  17.126 -2.6642  1.6509 -1.6420
  212MPD1     C 3271   2.381   0.254  16.713 -0.3136  0.0658 -0.0734
  212MPD1    C1 3272   2.440   0.130  16.745  0.0465 -0.5721 -0.3626
  212MPD1    C2 3273   2.362   0.027  16.788  0.2286  0.8013 -0.0048
  212MPD1    C3 3274   2.218   0.031  16.780  0.2242  0.2996  0.3764
  212MPD1    C4 3275   2.159   0.153  16.750 -0.1596  0.2263  0.4400
  212MPD1    C5 3276   2.243   0.258  16.712 -0.2094 -0.4294  0.3084
  212MPD1     H 3277   2.407   4.677  16.830 -2.5177 -0.9336 -0.8125
  212MPD1    H1 3278   2.052   0.157  16.732 -0.1307 -1.4543 -0.1118
  212MPD1    H2 3279   2.436   0.342  16.682  1.0468 -1.0425 -0.7930
  212MPD1    H3 3280   2.194   0.347  16.675 -1.1335 -0.8001  0.6346
  212MPD1     N 3281   2.143   4.660  16.832 -0.0886  0.1310  0.3193
  212MPD1    H5 3282   2.205   4.589  16.870 -0.1013 -0.5083 -0.8473
  212MPD1    N1 3283   2.579   0.130  16.768  0.0514  0.6668 -0.0584
  212MPD1    H6 3284   2.629   0.041  16.758  0.0690  0.5986  0.7078
  212MPD1    H7 3285   2.635   0.195  16.712  0.8242 -0.2516 -0.3482
  213MPD1     C 3286   0.318   0.770  15.727  1.1574  0.6578 -0.5454
  213MPD1    C1 3287   0.338   0.657  15.640  0.1638 -0.2621  0.4505
  213MPD1    C2 3288   0.254   0.664  15.524  0.3513 -0.6877 -0.6640
  213MPD1    C3 3289   0.187   0.784  15.486 -0.3579  0.2860  0.3059
  213MPD1    C4 3290   0.199   0.896  15.564 -0.6730  0.3240 -0.3170
  213MPD1    C5 3291   0.260   0.890  15.684 -0.2415 -0.3909  0.5260
  213MPD1     H 3292   0.232   0.576  15.465 -3.3700  0.1303 -0.4803
  213MPD1    H1 3293   0.137   0.983  15.545 -1.6802  0.0945  1.8875
  213MPD1    H2 3294   0.368   0.774  15.823 -0.0506 -2.2128  0.2075
  213MPD1    H3 3295   0.269   0.980  15.743  3.5419  1.7086 -3.2613
  213MPD1     N 3296   0.118   0.786  15.362  0.8459 -0.5089 -0.2419
  213MPD1    H5 3297   0.108   0.698  15.313 -0.1977 -0.2940 -0.4133
  213MPD1    N1 3298   0.362   0.531  15.709 -0.4341 -0.0352 -0.1413
  213MPD1    H6 3299   0.386   0.457  15.643  0.0977 -0.0024  0.0146
  213MPD1    H7 3300   0.446   0.531  15.766 -1.2823 -2.4309  1.0673
  214MPD1     C 3301   4.161   0.299  15.137 -0.6020 -0.9846 -0.3786
  214MPD1    C1 3302   4.176   0.372  15.023  0.3846  0.6199  0.7475
  214MPD1    C2 3303   4.289   0.443  15.011 -0.0745  0.1930 -0.2348
  214MPD1    C3 3304   4.374   0.472  15.122  0.0906 -0.4297  0.3701
  214MPD1    C4 3305   4.347   0.402  15.237  0.2834  0.0153 -0.0427
  214MPD1    C5 3306   4.246   0.317  15.242  0.2581  0.5742  0.0603
  214MPD1     H 3307   4.307   0.496  14.918 -1.5946 -0.4319 -0.8745
  214MPD1    H1 3308   4.399   0.418  15.330 -1.5806 -0.2875  1.0480
  214MPD1    H2 3309   4.075   0.236  15.156 -2.0679  0.4548 -2.2844
  214MPD1    H3 3310   4.232   0.264  15.335 -1.1991 -0.1166 -0.5540
  214MPD1     N 3311   4.483   0.561  15.121 -0.3719 -0.8782 -0.6639
  214MPD1    H5 3312   4.522   0.578  15.213 -2.8739  0.9731  0.0436
  214MPD1    N1 3313   4.094   0.356  14.911 -0.6231 -0.1228  0.4027
  214MPD1    H6 3314   4.111   0.424  14.837 -1.1031 -1.0108 -0.5181
  214MPD1    H7 3315   3.994   0.352  14.933 -0.9823 -1.0346 -1.4179
  215MPD1     C 3316   3.964   1.401  11.081  0.2475 -0.2154  0.3359
  215MPD1    C1 3317   4.032   1.417  11.198 -0.6029  0.3963  0.1422
  215MPD1    C2 3318   4.116   1.531  11.202 -0.3813  0.2583 -0.0801
  215MPD1    C3 3319   4.101   1.640  11.116 -0.9156 -0.2583 -0.0841
  215MPD1    C4 3320   4.015   1.624  11.014  0.2342  0.5746  0.1429
  215MPD1    C5 3321   3.955   1.507  10.995  0.3860 -0.1570 -0.5689
  215MPD1     H 3322   4.188   1.535  11.284 -0.3046  0.3256 -0.1505
  215MPD1    H1 3323   4.004   1.711  10.950  0.0064  0.4011 -0.0544
  215MPD1    H2 3324   3.908   1.309  11.063 -0.5393  0.1829  0.7327
  215MPD1    H3 3325   3.894   1.499  10.905 -0.0984  1.9432 -0.4431
  215MPD1     N 3326   4.177   1.750  11.144  0.5159  0.4904  0.0868
  215MPD1    H5 3327   4.244   1.743  11.219  0.1394 -1.7116  0.2151
  215MPD1    N1 3328   4.051   1.310  11.284  0.0290  0.9248 -0.4990
  215MPD1    H6 3329   4.062   1.339  11.381 -0.7652  1.5633 -0.5912
  215MPD1    H7 3330   3.970   1.249  11.296  0.5392  0.6271  1.4845
  216MPD1     C 3331   1.109   4.421   0.553 -0.4803  0.2270  0.4270
  216MPD1    C1 3332   1.235   4.440   0.611  0.2004 -0.1109  0.4661
  216MPD1    C2 3333   1.338   4.434   0.522 -0.0145  0.9257 -0.9265
  216MPD1    C3 3334   1.327   4.366   0.397 -0.6860  0.4119  0.4660
  216MPD1    C4 3335   1.200   4.323   0.352  0.3065 -0.3224 -0.3465
  216MPD1    C5 3336   1.095   4.362   0.427  0.1510 -0.3511  0.8444
  216MPD1     H 3337   1.435   4.472   0.551  0.1552  0.0726 -0.3954
  216MPD1    H1 3338   1.186   4.272   0.257 -4.0839 -1.5693  1.0012
  216MPD1    H2 3339   1.020   4.454   0.606  0.6249  0.5185  2.0667
  216MPD1    H3 3340   0.996   4.348   0.384  0.8430 -0.1913 -0.8164
  216MPD1     N 3341   1.447   4.352   0.322 -0.1581  0.2595  0.0605
  216MPD1    H5 3342   1.520   4.415   0.353  0.2354  0.1806 -0.7292
  216MPD1    N1 3343   1.241   4.489   0.741 -0.0229  0.8564 -0.3051
  216MPD1    H6 3344   1.170   4.444   0.798  0.9308 -1.9924 -1.3771
  216MPD1    H7 3345   1.335   4.481   0.778 -0.0004  2.3825 -0.0325
  217MPD1     C 3346   3.693   1.128   8.525 -0.3644  0.0634  0.3929
  217MPD1    C1 3347   3.559   1.098   8.528 -0.2244 -0.0682  0.2681
  217MPD1    C2 3348   3.490   1.114   8.646 -0.1418 -0.6249 -0.5368
  217MPD1    C3 3349   3.547   1.169   8.756 -0.8956 -0.1830  0.1846
  217MPD1    C4 3350   3.683   1.191   8.754 -0.0231  0.8571 -0.0924
  217MPD1    C5 3351   3.754   1.169   8.642 -0.2118  0.6032 -0.3645
  217MPD1     H 3352   3.384   1.092   8.658  0.1529 -2.1353 -0.6264
  217MPD1    H1 3353   3.748   1.231   8.832 -2.3364 -1.0173  2.7812
  217MPD1    H2 3354   3.752   1.120   8.434 -1.3456  0.6248 -0.2805
  217MPD1    H3 3355   3.859   1.195   8.637 -0.5329  1.3314 -3.1052
  217MPD1     N 3356   3.474   1.198   8.873  0.1782  0.2666 -0.2797
  217MPD1    H5 3357   3.529   1.232   8.951 -0.2819 -1.8335  0.9485
  217MPD1    N1 3358   3.514   1.025   8.420  0.3899  0.2607 -0.5718
  217MPD1    H6 3359   3.413   1.026   8.409  0.8922  4.2798 -4.8553
  217MPD1    H7 3360   3.555   1.056   8.332 -0.9686 -1.6375 -1.8555
  218MPD1     C 3361   0.238   2.667  11.638  0.3093 -0.6107  0.3467
  218MPD1    C1 3362   0.230   2.580  11.530 -0.5838  0.7373  0.1518
  218MPD1    C2 3363   0.242   2.444  11.550  0.4487 -0.3200  0.2441
  218MPD1    C3 3364   0.253   2.402  11.677 -0.2060  0.3230  0.1142
  218MPD1    C4 3365   0.248   2.491  11.786  0.0162  0.8284  0.5126
  218MPD1    C5 3366   0.254   2.623  11.765  0.0031  0.1379  0.0318
  218MPD1     H 3367   0.239   2.378  11.465 -1.1627 -0.3057  0.2938
  218MPD1    H1 3368   0.250   2.447  11.885  2.5824  0.3484  0.2619
  218MPD1    H2 3369   0.236   2.775  11.622  1.2767 -0.6565 -0.0985
  218MPD1    H3 3370   0.269   2.692  11.848  0.5797 -0.2560  0.2565
  218MPD1     N 3371   0.267   2.264  11.692 -0.1250 -0.2406 -0.2981
  218MPD1    H5 3372   0.275   2.207  11.609  1.8555 -2.2658  1.3116
  218MPD1    N1 3373   0.232   2.627  11.396  0.3061 -0.3885  1.0274
  218MPD1    H6 3374   0.175   2.571  11.333  0.8312  1.9953 -1.6092
  218MPD1    H7 3375   0.200   2.723  11.388 -0.8340 -0.9400 -1.1881
  219MPD1     C 3376   0.325   1.809  11.022  0.0319  0.1955 -0.0986
  219MPD1    C1 3377   0.228   1.748  11.098 -0.3749  0.6139 -0.0436
  219MPD1    C2 3378   0.253   1.748  11.238  0.1473 -0.9397 -0.3000
  219MPD1    C3 3379   0.350   1.836  11.297 -0.1102 -0.0333  0.0763
  219MPD1    C4 3380   0.439   1.897  11.215  0.7762 -0.8504  0.0766
  219MPD1    C5 3381   0.425   1.875  11.081  0.0292  0.0845 -0.0324
  219MPD1     H 3382   0.174   1.699  11.294  0.3837  0.9390  1.6479
  219MPD1    H1 3383   0.515   1.959  11.263 -1.4905  1.8293  0.1700
  219MPD1    H2 3384   0.322   1.799  10.914 -2.4029  0.3788 -0.0560
  219MPD1    H3 3385   0.497   1.920  11.014 -1.6084  1.5495 -0.8024
  219MPD1     N 3386   0.347   1.859  11.433  0.3059  0.0202 -0.1652
  219MPD1    H5 3387   0.404   1.940  11.456  0.2680 -0.3031  1.0799
  219MPD1    N1 3388   0.138   1.654  11.036  0.2504 -0.4224  0.2262
  219MPD1    H6 3389   0.060   1.629  11.097  0.3273 -0.4649  0.3064
  219MPD1    H7 3390   0.109   1.677  10.941 -0.0874 -1.2911  0.1175
  220MPD1     C 3391   4.142   3.180   9.870 -0.2309 -0.2660  0.0589
  220MPD1    C1 3392   4.170   3.177  10.000  0.7213  0.4033  0.0361
  220MPD1    C2 3393   4.156   3.053  10.063  0.0681 -0.2585 -0.3978
  220MPD1    C3 3394   4.109   2.941   9.998  0.6723  0.6251 -0.3882
  220MPD1    C4 3395   4.074   2.951   9.866 -0.0952  0.3646 -0.1000
  220MPD1    C5 3396   4.100   3.072   9.804 -0.3586 -0.9294 -0.3345
  220MPD1     H 3397   4.185   3.043  10.167 -0.6688 -1.5965 -0.3237
  220MPD1    H1 3398   4.037   2.862   9.817 -0.2796  0.9597 -1.0584
  220MPD1    H2 3399   4.161   3.267   9.808  0.9917  0.4366  1.4263
  220MPD1    H3 3400   4.080   3.070   9.697 -0.8531 -0.8869 -0.2422
  220MPD1     N 3401   4.104   2.824  10.071  0.2090  0.1248 -0.0016
  220MPD1    H5 3402   4.150   2.816  10.162  1.2286  2.3168 -0.3190
  220MPD1    N1 3403   4.226   3.295  10.067  0.3509 -0.0990  0.5508
  220MPD1    H6 3404   4.176   3.308  10.155 -1.6738 -3.3603 -0.0896
  220MPD1    H7 3405   4.214   3.388  10.030 -0.9098  0.3970  2.1952
  221MPD1     C 3406   3.647   0.338  16.368 -0.1870  0.5013 -0.5008
  221MPD1    C1 3407   3.701   0.465  16.368  0.4082  0.6091 -0.0795
  221MPD1    C2 3408   3.650   0.561  16.279 -1.4150 -0.7583 -0.1423
  221MPD1    C3 3409   3.565   0.529  16.172  0.5539  0.5424 -0.6275
  221MPD1    C4 3410   3.521   0.402  16.167  0.6256 -0.0307 -0.2494
  221MPD1    C5 3411   3.556   0.317  16.268  0.6689 -0.3974 -0.9446
  221MPD1     H 3412   3.666   0.668  16.288  0.7217 -1.0005 -1.1547
  221MPD1    H1 3413   3.453   0.362  16.093 -0.4300 -1.9791  1.7842
  221MPD1    H2 3414   3.665   0.269  16.450  1.9062  0.1648 -1.2398
  221MPD1    H3 3415   3.515   0.216  16.273 -1.4147  0.5754  1.6664
  221MPD1     N 3416   3.508   0.615  16.078 -0.3434  1.0270  0.4989
  221MPD1    H5 3417   3.446   0.570  16.012 -1.7946 -0.1118  2.6268
  221MPD1    N1 3418   3.773   0.506  16.482  0.1159 -0.3117  0.1258
  221MPD1    H6 3419   3.821   0.425  16.522  0.3590 -0.3033 -0.1433
  221MPD1    H7 3420   3.835   0.585  16.467 -0.5710  0.1117 -0.4346
  222MPD1     C 3421   2.308   0.255  17.163 -0.7063  0.1800  0.4771
  222MPD1    C1 3422   2.179   0.301  17.154 -0.6027  0.1320 -0.5498
  222MPD1    C2 3423   2.123   0.348  17.275 -0.0757 -0.0005 -0.2012
  222MPD1    C3 3424   2.182   0.331  17.401  0.3889 -0.4150  0.5424
  222MPD1    C4 3425   2.314   0.290  17.401  0.9952 -0.1981 -0.9663
  222MPD1    C5 3426   2.375   0.256  17.281  0.5755  0.6912 -0.0673
  222MPD1     H 3427   2.033   0.408  17.275  0.8414  1.3627  1.6918
  222MPD1    H1 3428   2.367   0.291  17.495 -1.0580 -2.8038  0.2199
  222MPD1    H2 3429   2.359   0.215  17.075  0.3952  1.3568  0.5813
  222MPD1    H3 3430   2.476   0.218  17.275  1.3405  3.3344 -4.1167
  222MPD1     N 3431   2.126   0.361  17.526  0.1160 -0.3484  0.1660
  222MPD1    H5 3432   2.190   0.375  17.604  0.4825  0.0769 -0.2063
  222MPD1    N1 3433   2.136   0.339  17.028  0.2995  0.1646 -0.4607
  222MPD1    H6 3434   2.156   0.273  16.953  0.3695 -0.8014  0.4061
  222MPD1    H7 3435   2.036   0.356  17.021  0.7470  2.3669 -1.2732
  223MPD1     C 3436   1.350   4.574   0.115 -0.0583  0.4389  0.0474
  223MPD1    C1 3437   1.433   4.561   0.006  0.4437 -0.0672  0.2729
  223MPD1    C2 3438   1.512   4.671  17.749  0.0029 -0.4077 -0.2993
  223MPD1    C3 3439   1.533   0.037   0.074 -0.4834 -0.5442  0.1476
  223MPD1    C4 3440   1.463   0.031   0.192 -0.6518  0.0239 -0.9686
  223MPD1    C5 3441   1.360   4.677   0.209 -0.4910 -1.0414 -0.2069
  223MPD1     H 3442   1.571   4.679  17.658 -0.5281  0.7224 -0.5450
  223MPD1    H1 3443   1.479   0.100   0.274  2.0327 -1.1399 -0.5239
  223MPD1    H2 3444   1.280   4.493   0.134  0.2927 -0.3429 -2.0101
  223MPD1    H3 3445   1.313   4.682   0.307 -1.2294 -0.3728 -0.6021
  223MPD1     N 3446   1.632   0.131   0.042  0.4664  0.1721 -0.3293
  223MPD1    H5 3447   1.686   0.115  17.717  2.7698  1.5172  0.9188
  223MPD1    N1 3448   1.413   4.464  17.664 -0.0870  0.3010  0.0558
  223MPD1    H6 3449   1.502   4.442  17.619 -1.6377 -0.2685 -2.6997
  223MPD1    H7 3450   1.362   4.381  17.692  0.5792 -0.8902 -2.2374
  224MPD1     C 3451   2.951   1.598   8.954  0.0087 -0.2274 -0.0461
  224MPD1    C1 3452   3.073   1.532   8.992  0.3358 -0.3538 -0.5391
  224MPD1    C2 3453   3.082   1.467   9.121 -0.0098 -0.2890  1.2816
  224MPD1    C3 3454   2.972   1.463   9.197 -0.9429 -1.0638 -0.3957
  224MPD1    C4 3455   2.862   1.532   9.158  0.3306  0.4846 -0.3854
  224MPD1    C5 3456   2.841   1.596   9.039 -0.0568  0.2219  0.5834
  224MPD1     H 3457   3.173   1.416   9.151  2.0390  1.9854 -1.0529
  224MPD1    H1 3458   2.775   1.531   9.223  0.0973 -0.9174 -0.7312
  224MPD1    H2 3459   2.953   1.657   8.864 -1.1329 -1.8183 -1.1195
  224MPD1    H3 3460   2.750   1.648   9.011 -0.7456 -0.9076  0.7170
  224MPD1     N 3461   2.965   1.392   9.319 -0.5135  0.2589 -0.3870
  224MPD1    H5 3462   2.877   1.386   9.370 -0.4216  2.1145 -0.0265
  224MPD1    N1 3463   3.174   1.513   8.896  0.1844 -0.4338  0.2525
  224MPD1    H6 3464   3.173   1.580   8.820 -1.6685 -0.2958  0.4067
  224MPD1    H7 3465   3.262   1.490   8.942  1.3947  1.3966 -1.1807
  225MPD1     C 3466   4.704   2.644  12.336  0.1231 -0.0715  0.3185
  225MPD1    C1 3467   4.623   2.586  12.239  0.0578 -0.9495 -0.5888
  225MPD1    C2 3468   4.488   2.606  12.250 -0.9223 -0.5477  0.4115
  225MPD1    C3 3469   4.426   2.658  12.357  0.1576 -0.5373  0.1076
  225MPD1    C4 3470   4.504   2.699  12.461 -0.4909  0.4475  0.2963
  225MPD1    C5 3471   4.641   2.700  12.442 -0.4884 -0.3349  0.1706
  225MPD1     H 3472   4.429   2.575  12.165 -1.1054  0.3272  0.2194
  225MPD1    H1 3473   4.464   2.745  12.550 -1.3378  1.0230 -0.3832
  225MPD1    H2 3474   0.071   2.662  12.333  0.5138 -2.4868 -0.6353
  225MPD1    H3 3475   4.690   2.751  12.524  1.6475  0.3182 -1.5380
  225MPD1     N 3476   4.284   2.664  12.371 -0.0189  0.5952 -0.8383
  225MPD1    H5 3477   4.252   2.682  12.466  1.7662  2.2698 -0.5738
  225MPD1    N1 3478   4.679   2.524  12.121 -0.3446  1.1094  0.2244
  225MPD1    H6 3479   0.027   2.477  12.138 -0.8172  0.4347  0.8013
  225MPD1    H7 3480   4.616   2.456  12.079  2.2980 -0.6096 -0.9435
  226MPD1     C 3481   1.140   1.789   9.420 -0.1876  0.4076  0.5020
  226MPD1    C1 3482   1.241   1.698   9.404 -0.0386 -0.0466  1.1406
  226MPD1    C2 3483   1.366   1.750   9.383 -0.1661  0.3338  0.2172
  226MPD1    C3 3484   1.397   1.883   9.381 -0.0305 -0.5221 -0.4704
  226MPD1    C4 3485   1.294   1.973   9.405 -0.2511 -0.1417  0.0583
  226MPD1    C5 3486   1.169   1.925   9.424  0.6254  1.2231  0.4308
  226MPD1     H 3487   1.458   1.695   9.365 -0.0001  0.5793  0.3077
  226MPD1    H1 3488   1.310   2.080   9.398  0.8981 -0.2900  0.5896
  226MPD1    H2 3489   1.037   1.768   9.444 -0.5051 -0.6987 -1.8468
  226MPD1    H3 3490   1.090   1.999   9.436  0.3550  1.1843 -1.0815
  226MPD1     N 3491   1.532   1.912   9.370 -0.1303  0.1052 -0.4173
  226MPD1    H5 3492   1.597   1.835   9.356  1.6842  1.5424  0.1681
  226MPD1    N1 3493   1.217   1.562   9.429  0.2445  0.0534  0.1526
  226MPD1    H6 3494   1.290   1.504   9.388 -0.8129 -1.1048 -0.0747
  226MPD1    H7 3495   1.126   1.533   9.394  1.0294 -1.6209 -0.4575
  227MPD1     C 3496   2.401   2.568   9.478 -0.3206  0.2595  0.1000
  227MPD1    C1 3497   2.441   2.439   9.465 -0.0594  0.7242 -0.8493
  227MPD1    C2 3498   2.346   2.348   9.435 -0.7203  0.4825 -0.3172
  227MPD1    C3 3499   2.214   2.375   9.438 -1.0593 -0.1494  0.7848
  227MPD1    C4 3500   2.176   2.502   9.470 -0.2056  0.0261 -0.7310
  227MPD1    C5 3501   2.273   2.594   9.500  0.3164 -0.3343 -0.4971
  227MPD1     H 3502   2.373   2.243   9.422 -3.0431  0.0767 -1.7341
  227MPD1    H1 3503   2.073   2.534   9.467 -0.5952 -1.0275  1.4401
  227MPD1    H2 3504   2.473   2.646   9.499  1.4174 -1.8186  1.8467
  227MPD1    H3 3505   2.246   2.698   9.518  0.9164 -0.4966  1.3122
  227MPD1     N 3506   2.126   2.274   9.405 -0.2705  0.1168 -0.1704
  227MPD1    H5 3507   2.169   2.191   9.367  2.3544  0.3729  2.3143
  227MPD1    N1 3508   2.581   2.410   9.450 -0.0655  0.1601  0.4056
  227MPD1    H6 3509   2.635   2.479   9.501 -2.2555  1.6693  0.6403
  227MPD1    H7 3510   2.612   2.314   9.469 -0.9208 -0.1489  0.2521
  228MPD1     C 3511   1.562   0.678  12.560  0.3038 -1.0850  0.2662
  228MPD1    C1 3512   1.456   0.769  12.556 -0.0309  0.2125  0.0892
  228MPD1    C2 3513   1.339   0.736  12.615  0.8476  0.6800  0.0963
  228MPD1    C3 3514   1.323   0.626  12.697 -0.2520 -0.4767 -0.2872
  228MPD1    C4 3515   1.434   0.543  12.710  0.6420  0.0552 -0.5925
  228MPD1    C5 3516   1.554   0.571  12.649  0.2979  0.0149  0.0842
  228MPD1     H 3517   1.254   0.791  12.575 -0.0776 -0.8885 -0.0887
  228MPD1    H1 3518   1.439   0.455  12.774  0.7238 -1.1847 -2.2996
  228MPD1    H2 3519   1.655   0.696  12.507 -0.3762 -0.0904 -0.6105
  228MPD1    H3 3520   1.636   0.505  12.672  1.0070  0.0016 -2.4874
  228MPD1     N 3521   1.198   0.597  12.761  0.0632  0.5278  0.0469
  228MPD1    H5 3522   1.122   0.662  12.741  1.1887  1.4153 -1.3133
  228MPD1    N1 3523   1.456   0.880  12.469  0.4093  0.3245  0.9526
  228MPD1    H6 3524   1.551   0.915  12.467  0.3505  0.4291 -0.4112
  228MPD1    H7 3525   1.401   0.960  12.502  1.8498  2.3934 -1.6437
  229MPD1     C 3526   0.738   3.989  14.464  0.1282 -0.9773 -0.1241
  229MPD1    C1 3527   0.736   4.004  14.601 -0.2273  0.7515  0.4621
  229MPD1    C2 3528   0.828   3.938  14.678 -0.0929  0.6893 -0.2243
  229MPD1    C3 3529   0.930   3.862  14.618  0.1568  0.1531 -0.8427
  229MPD1    C4 3530   0.937   3.849  14.481 -0.2347  0.0507 -0.2685
  229MPD1    C5 3531   0.843   3.916  14.408 -0.5509 -0.4543 -0.1846
  229MPD1     H 3532   0.818   3.948  14.785  1.1586  1.4340 -0.1852
  229MPD1    H1 3533   1.016   3.798  14.426  2.2357 -0.9402  4.2485
  229MPD1    H2 3534   0.668   4.029  14.392  0.3895  1.9619  1.2901
  229MPD1    H3 3535   0.851   3.922  14.300  2.7750 -2.3619 -0.0389
  229MPD1     N 3536   1.023   3.787  14.702 -0.3428  0.0228  0.2203
  229MPD1    H5 3537   1.107   3.753  14.654  0.0636  2.0807 -0.5216
  229MPD1    N1 3538   0.626   4.067  14.651 -0.1585  0.8641 -0.2754
  229MPD1    H6 3539   0.594   4.140  14.588  0.6295  0.8380 -0.7047
  229MPD1    H7 3540   0.633   4.088  14.751 -0.0794  0.0270 -0.1074
  230MPD1     C 3541   1.193   3.786  15.678  0.0141  0.5225  0.5532
  230MPD1    C1 3542   1.140   3.877  15.596  0.5671  0.4165 -0.7604
  230MPD1    C2 3543   1.151   3.850  15.462 -0.3855  0.1203 -0.1381
  230MPD1    C3 3544   1.226   3.752  15.404 -0.4746  0.2608 -0.4240
  230MPD1    C4 3545   1.295   3.672  15.491 -0.3701 -0.1144  0.1535
  230MPD1    C5 3546   1.279   3.692  15.625 -0.0285  0.2661  0.2478
  230MPD1     H 3547   1.096   3.907  15.388  0.8910  0.3166 -0.9410
  230MPD1    H1 3548   1.359   3.590  15.459 -1.3853 -0.8861  0.0678
  230MPD1    H2 3549   1.177   3.795  15.785  1.5608 -0.4646  0.8629
  230MPD1    H3 3550   1.321   3.621  15.694  0.4741 -0.3049 -0.6401
  230MPD1     N 3551   1.221   3.730  15.265 -0.2337 -0.5317  0.3585
  230MPD1    H5 3552   1.158   3.782  15.205  1.1947 -0.4571 -1.1020
  230MPD1    N1 3553   1.076   3.991  15.640 -0.2849  0.0447  0.0850
  230MPD1    H6 3554   1.083   4.004  15.741 -2.4752  1.3719  0.0699
  230MPD1    H7 3555   1.101   4.078  15.593 -0.4907  1.5599  2.7693
  231MPD1     C 3556   4.326   0.790  15.372  0.3183 -0.4277  0.8470
  231MPD1    C1 3557   4.255   0.761  15.262 -0.7705 -0.1013 -0.1931
  231MPD1    C2 3558   4.270   0.853  15.157 -0.5480  0.2218  0.2832
  231MPD1    C3 3559   4.367   0.946  15.160 -0.1185 -0.5838 -0.1397
  231MPD1    C4 3560   4.441   0.967  15.272  0.5936 -0.4668  0.4392
  231MPD1    C5 3561   4.425   0.879  15.374 -0.3819 -0.0272  0.3576
  231MPD1     H 3562   4.213   0.836  15.066 -0.8562  0.6116  0.4072
  231MPD1    H1 3563   4.520   1.041  15.275  0.1131  0.0998 -1.2595
  231MPD1    H2 3564   4.306   0.741  15.467  0.8437  0.4548  1.4104
  231MPD1    H3 3565   4.480   0.888  15.467  0.1415  2.1108 -0.1561
  231MPD1     N 3566   4.381   1.031  15.046 -0.3884  0.4325 -0.0962
  231MPD1    H5 3567   4.316   1.005  14.973  2.3023 -0.8214 -2.0460
  231MPD1    N1 3568   4.151   0.665  15.265 -0.4314 -0.0376  0.4529
  231MPD1    H6 3569   4.123   0.649  15.168 -3.4690  0.7483  1.1999
  231MPD1    H7 3570   4.172   0.576  15.310 -0.3445 -0.9627 -1.3840
  232MPD1     C 3571   1.173   3.619  17.740  0.0880  0.2961 -0.3757
  232MPD1    C1 3572   1.045   3.645  17.719  0.6721 -0.2189 -0.0697
  232MPD1    C2 3573   0.961   3.547  17.668  0.7706 -0.3006  0.2687
  232MPD1    C3 3574   1.013   3.424  17.642 -0.2963  0.3210 -0.8207
  232MPD1    C4 3575   1.148   3.396  17.661  0.2400 -0.4881  0.4740
  232MPD1    C5 3576   1.226   3.497  17.714  0.4803  0.2020 -0.7360
  232MPD1     H 3577   0.856   3.566  17.651  1.0920 -0.2333 -1.6423
  232MPD1    H1 3578   1.197   3.299  17.658 -1.6287 -1.3836 -0.9618
  232MPD1    H2 3579   1.243   3.695   0.012 -0.6492  1.1071 -0.7060
  232MPD1    H3 3580   1.332   3.489  17.736  0.3691  3.4007  1.0964
  232MPD1     N 3581   0.927   3.326  17.578 -0.0921  0.3301  0.7509
  232MPD1    H5 3582   0.829   3.346  17.596 -0.4848 -0.7228 -0.2362
  232MPD1    N1 3583   0.990   3.771   0.001  0.0160 -0.5156 -0.3097
  232MPD1    H6 3584   1.065   3.835   0.026 -1.1987  1.1646 -0.9376
  232MPD1    H7 3585   0.930   3.810  17.687  1.9037  0.8480 -1.1298
  233MPD1     C 3586   1.682   1.998  16.807  0.2740 -0.7097  0.8932
  233MPD1    C1 3587   1.775   2.094  16.848 -0.5360 -0.2353  0.2953
  233MPD1    C2 3588   1.848   2.051  16.956  0.1977 -0.2313  0.3773
  233MPD1    C3 3589   1.817   1.944  17.035  0.5573  1.0464 -0.2246
  233MPD1    C4 3590   1.706   1.864  16.997 -0.4497 -0.4397 -0.1751
  233MPD1    C5 3591   1.634   1.896  16.886 -0.2186 -0.1531  0.3829
  233MPD1     H 3592   1.935   2.109  16.983  0.3852  0.1292 -1.0020
  233MPD1    H1 3593   1.675   1.779  17.057  0.1799  0.9317  2.1000
  233MPD1    H2 3594   1.619   2.014  16.720  2.4382  1.2992 -0.2873
  233MPD1    H3 3595   1.548   1.836  16.859 -0.2528 -1.2154  2.8526
  233MPD1     N 3596   1.876   1.902  17.157 -0.1915  0.2708  0.0062
  233MPD1    H5 3597   1.848   1.816  17.203 -0.5465 -0.3662 -1.3999
  233MPD1    N1 3598   1.830   2.197  16.763 -0.1038  0.3947 -0.4742
  233MPD1    H6 3599   1.767   2.242  16.697 -0.8691 -1.0225 -0.7226
  233MPD1    H7 3600   1.891   2.265  16.809  0.1728 -1.3804  1.8027
  234MPD1     C 3601   3.625   4.439   9.647  0.6726 -0.2063  0.3864
  234MPD1    C1 3602   3.679   4.520   9.546 -0.3197 -0.7521  0.8734
  234MPD1    C2 3603   3.695   4.659   9.586  0.0264  0.0799  0.7895
  234MPD1    C3 3604   3.692   4.696   9.718 -0.2134 -0.1358  0.0649
  234MPD1    C4 3605   3.642   4.604   9.811  0.2830 -0.9781  0.2411
  234MPD1    C5 3606   3.613   4.479   9.773  0.1662 -0.4683  0.3452
  234MPD1     H 3607   3.743   4.729   9.519  1.8539 -0.3466  1.6637
  234MPD1    H1 3608   3.615   4.631   9.912  1.4428  1.6709 -0.1655
  234MPD1    H2 3609   3.588   4.339   9.630  1.8833 -0.1524 -2.5991
  234MPD1    H3 3610   3.569   4.412   9.846 -0.1502 -0.4079  0.2099
  234MPD1     N 3611   3.717   0.089   9.753 -0.2324 -0.5047 -0.3471
  234MPD1    H5 3612   3.719   0.158   9.679 -0.9299  0.7848  0.8206
  234MPD1    N1 3613   3.702   4.478   9.414 -0.3020  0.3774  0.2809
  234MPD1    H6 3614   3.771   4.535   9.365 -0.9400 -1.4301 -2.7204
  234MPD1    H7 3615   3.729   4.381   9.421 -0.9394  0.2009  0.2970
  235MPD1     C 3616   4.420   2.673   9.940 -0.0936  0.0706 -0.3977
  235MPD1    C1 3617   4.402   2.798   9.882 -0.2067 -0.5818 -0.0840
  235MPD1    C2 3618   4.472   2.901   9.937  0.7632 -0.0933  0.4369
  235MPD1    C3 3619   4.541   2.887  10.054 -0.4431 -0.4126 -0.1573
  235MPD1    C4 3620   4.546   2.766  10.122  0.8673 -0.3652  0.3761
  235MPD1    C5 3621   4.487   2.658  10.060 -0.3929  0.0581  0.0491
  235MPD1     H 3622   4.470   3.000   9.893  2.8517  1.0171  2.8581
  235MPD1    H1 3623   4.594   2.750  10.218  0.4969  0.0417  0.6243
  235MPD1    H2 3624   4.382   2.585   9.889 -0.7833  0.6443 -0.8744
  235MPD1    H3 3625   4.466   2.572  10.123 -2.0604  1.0477  0.8441
  235MPD1     N 3626   4.611   3.000  10.112 -0.2631 -0.4946  0.1187
  235MPD1    H5 3627   4.606   3.086  10.059 -0.1568 -0.8385 -0.4474
  235MPD1    N1 3628   4.338   2.812   9.750 -0.5969  0.7531 -0.1267
  235MPD1    H6 3629   4.270   2.740   9.726  1.2376 -1.0463  0.1100
  235MPD1    H7 3630   4.296   2.904   9.740 -1.2611  0.7217  2.3234
  236MPD1     C 3631   3.839   4.106   9.796  0.0004  0.5918  0.3321
  236MPD1    C1 3632   3.891   4.008   9.883  0.0727  0.5373 -0.6058
  236MPD1    C2 3633   4.002   4.049   9.961 -0.2161  0.3395 -1.3111
  236MPD1    C3 3634   4.045   4.181   9.965 -0.2088  0.2008  0.1534
  236MPD1    C4 3635   3.978   4.278   9.894  0.0277 -0.0287  0.0652
  236MPD1    C5 3636   3.880   4.240   9.811  0.1858  0.0181  0.5546
  236MPD1     H 3637   4.053   3.975  10.023 -3.0948 -1.0715 -0.6232
  236MPD1    H1 3638   3.992   4.385   9.899  2.1517 -0.2725 -0.3915
  236MPD1    H2 3639   3.769   4.077   9.717  1.8216  0.4075 -1.2216
  236MPD1    H3 3640   3.849   4.316   9.740 -1.6654  0.9952  2.4223
  236MPD1     N 3641   4.159   4.216  10.034  0.1327 -0.4080  0.3333
  236MPD1    H5 3642   4.189   4.313  10.031 -1.0333 -0.0931 -1.2354
  236MPD1    N1 3643   3.848   3.871   9.871  0.3485  0.4353  0.3153
  236MPD1    H6 3644   3.749   3.870   9.850  0.5424  0.9901 -0.6059
  236MPD1    H7 3645   3.880   3.815   9.950  0.2395  0.5916  0.4719
  237MPD1     C 3646   0.247   2.518  14.921  0.0032  0.3368 -0.9166
  237MPD1    C1 3647   0.233   2.388  14.952 -0.1616 -0.1250 -0.4526
  237MPD1    C2 3648   0.100   2.338  14.969 -0.0178 -0.0305  0.6621
  237MPD1    C3 3649   4.730   2.425  14.970  0.5459 -0.0841 -0.4711
  237MPD1    C4 3650   0.016   2.563  14.946 -0.1136  0.6492  0.1543
  237MPD1    C5 3651   0.141   2.606  14.922  0.1072 -0.5259 -0.3745
  237MPD1     H 3652   0.099   2.232  14.990 -2.2470  0.0692  1.0751
  237MPD1    H1 3653   4.683   2.642  14.935 -2.0385 -1.2295 -0.3351
  237MPD1    H2 3654   0.348   2.554  14.908  0.9292 -1.1949  1.8040
  237MPD1    H3 3655   0.155   2.713  14.914  1.3382 -0.8190 -2.1449
  237MPD1     N 3656   4.594   2.381  14.982 -0.1635 -0.1510  0.4724
  237MPD1    H5 3657   4.522   2.444  14.949  1.5855  1.9407  0.6108
  237MPD1    N1 3658   0.348   2.306  14.952 -0.6979 -0.2689 -0.5323
  237MPD1    H6 3659   0.425   2.325  15.015 -2.4278 -0.1940  1.5620
  237MPD1    H7 3660   0.326   2.207  14.962  0.2982 -0.4166  0.1853
  238MPD1     C 3661   1.364   1.223  15.185  0.6793 -0.5306  0.0333
  238MPD1    C1 3662   1.280   1.283  15.095 -0.0513  0.2851 -0.1511
  238MPD1    C2 3663   1.229   1.215  14.986 -0.2421 -0.9781  0.3904
  238MPD1    C3 3664   1.230   1.078  14.984  0.0206 -0.6912 -0.8697
  238MPD1    C4 3665   1.289   1.011  15.096  0.7538  0.1538  0.7961
  238MPD1    C5 3666   1.355   1.084  15.194  0.1818 -0.2501  0.4458
  238MPD1     H 3667   1.170   1.275  14.919  0.6564 -0.2153  0.2707
  238MPD1    H1 3668   1.294   0.903  15.099 -1.3592  0.0239 -0.0409
  238MPD1    H2 3669   1.431   1.280  15.248 -1.6510  1.5238  0.6579
  238MPD1    H3 3670   1.416   1.037  15.271 -0.0878  0.9816  1.4181
  238MPD1     N 3671   1.167   1.002  14.891 -0.8057 -0.8714  0.4398
  238MPD1    H5 3672   1.165   0.903  14.913 -2.2599 -0.9190  0.1087
  238MPD1    N1 3673   1.277   1.427  15.097 -0.4720  0.3038 -0.3085
  238MPD1    H6 3674   1.308   1.466  15.186 -1.2798 -1.7443  0.8757
  238MPD1    H7 3675   1.188   1.468  15.066 -0.9296 -0.0629  0.5193
  239MPD1     C 3676   2.078   1.864  14.816  0.4559 -0.2749  0.0239
  239MPD1    C1 3677   1.966   1.937  14.852 -0.6924  0.3786 -0.3193
  239MPD1    C2 3678   1.870   1.960  14.758 -0.2367  0.2537  0.3469
  239MPD1    C3 3679   1.872   1.884  14.637  0.4332  0.6750 -0.3641
  239MPD1    C4 3680   1.976   1.791  14.619  0.1985  0.7543  0.1215
  239MPD1    C5 3681   2.082   1.787  14.700 -0.2440  0.0143  0.2570
  239MPD1     H 3682   1.788   2.022  14.793 -0.7596  0.9091 -2.0524
  239MPD1    H1 3683   1.978   1.732  14.528 -1.9210  1.0153 -0.0887
  239MPD1    H2 3684   2.160   1.850  14.885  1.1503  2.2127 -0.2954
  239MPD1    H3 3685   2.150   1.703  14.694  0.3230  0.4048  1.0840
  239MPD1     N 3686   1.769   1.886  14.540 -0.5704 -0.2170 -0.1152
  239MPD1    H5 3687   1.772   1.823  14.460  0.7624  2.1517 -1.9215
  239MPD1    N1 3688   1.967   2.010  14.974 -0.9235 -0.1075  0.1846
  239MPD1    H6 3689   1.871   2.002  15.008 -1.5251  1.5138 -1.1197
  239MPD1    H7 3690   2.024   1.954  15.038 -0.2102 -0.2592 -0.5857
  240MPD1     C 3691   0.929   1.585  13.699  0.2529  0.2490 -0.7315
  240MPD1    C1 3692   0.813   1.520  13.684  0.8673 -0.4577  0.7272
  240MPD1    C2 3693   0.780   1.437  13.786  0.5649 -0.7568 -0.1101
  240MPD1    C3 3694   0.856   1.432  13.902 -0.1585 -0.4586  0.5196
  240MPD1    C4 3695   0.972   1.510  13.916 -0.2737 -0.2602 -0.4474
  240MPD1    C5 3696   1.009   1.583  13.811  0.6456  0.3249 -0.2961
  240MPD1     H 3697   0.695   1.372  13.767 -1.0098  0.5936  2.4049
  240MPD1    H1 3698   1.032   1.507  14.006 -1.5817  0.1029  0.4353
  240MPD1    H2 3699   0.943   1.667  13.629 -0.5063 -0.0581 -1.2466
  240MPD1    H3 3700   1.085   1.658  13.829  0.2176 -0.1025  3.3287
  240MPD1     N 3701   0.792   1.357  14.008 -0.4553 -0.7713 -0.6457
  240MPD1    H5 3702   0.693   1.332  14.001 -0.5005 -0.9620  0.7783
  240MPD1    N1 3703   0.732   1.550  13.567  0.1296  0.7646  0.4559
  240MPD1    H6 3704   0.781   1.609  13.501  0.7544 -0.1720  0.0773
  240MPD1    H7 3705   0.708   1.457  13.533  1.3100 -0.7803  3.7235
  241MPD1     C 3706   0.904   1.356  15.041 -0.1453 -0.3014  0.1815
  241MPD1    C1 3707   0.890   1.221  15.015 -0.5564 -0.1558  0.5409
  241MPD1    C2 3708   0.851   1.197  14.881  0.6792 -0.4349 -0.1820
  241MPD1    C3 3709   0.838   1.301  14.784  0.4734 -0.0581 -0.1730
  241MPD1    C4 3710   0.875   1.426  14.815  0.3153  0.7997  0.1074
  241MPD1    C5 3711   0.904   1.456  14.950 -0.6574 -0.2189 -0.2075
  241MPD1     H 3712   0.822   1.095  14.861  1.3976 -0.6275 -0.2276
  241MPD1    H1 3713   0.873   1.509  14.745  0.7557  0.5978 -0.1449
  241MPD1    H2 3714   0.928   1.389  15.141 -1.4158 -1.4772  0.8770
  241MPD1    H3 3715   0.937   1.552  14.987  1.2271  0.5358 -3.7800
  241MPD1     N 3716   0.794   1.289  14.649  0.3749 -0.7445 -0.6171
  241MPD1    H5 3717   0.781   1.372  14.592  0.4940 -1.4915 -1.7235
  241MPD1    N1 3718   0.878   1.118  15.114  0.5346  0.3004 -0.7407
  241MPD1    H6 3719   0.886   1.023  15.079  2.0190 -0.6825  2.2851
  241MPD1    H7 3720   0.946   1.124  15.190 -0.3531  4.2872 -0.2725
  242MPD1     C 3721   0.801   0.454  15.592 -0.5871 -0.3299 -0.3906
  242MPD1    C1 3722   0.821   0.346  15.667 -0.1255 -0.6483 -0.0029
  242MPD1    C2 3723   0.801   0.220  15.605  1.0112 -0.2226  0.1221
  242MPD1    C3 3724   0.746   0.214  15.471 -0.6792  0.2241 -0.0822
  242MPD1    C4 3725   0.734   0.329  15.394  0.2262  0.4253 -0.3603
  242MPD1    C5 3726   0.766   0.452  15.457 -0.0102  0.1620 -0.7343
  242MPD1     H 3727   0.832   0.126  15.649  2.6768 -0.9453 -2.6268
  242MPD1    H1 3728   0.713   0.327  15.288 -1.1437 -0.1882 -0.0770
  242MPD1    H2 3729   0.823   0.553  15.630 -1.5724 -0.4257  0.4093
  242MPD1    H3 3730   0.753   0.540  15.393 -0.5339 -1.2196 -2.5280
  242MPD1     N 3731   0.733   0.086  15.417 -0.1363 -0.1711  0.3268
  242MPD1    H5 3732   0.746   0.005  15.478 -0.2222 -1.1633 -0.9674
  242MPD1    N1 3733   0.872   0.360  15.797 -0.0542 -1.1456  0.2130
  242MPD1    H6 3734   0.866   0.280  15.860  2.3672 -0.9120  0.7546
  242MPD1    H7 3735   0.827   0.437  15.846  0.6208  0.3395 -1.4990
  243MPD1     C 3736   1.683   4.185   0.572  0.6430  0.0444 -0.1659
  243MPD1    C1 3737   1.589   4.121   0.496 -0.3980  0.7984 -0.3479
  243MPD1    C2 3738   1.635   4.048   0.384 -0.5325 -0.5335  0.5981
  243MPD1    C3 3739   1.772   4.036   0.355 -1.4025  0.0342  0.7608
  243MPD1    C4 3740   1.861   4.106   0.434  0.3970  0.3164  0.1234
  243MPD1    C5 3741   1.812   4.179   0.537  0.1409 -0.3249  0.3089
  243MPD1     H 3742   1.570   3.983   0.326 -0.8159 -0.2683  0.6204
  243MPD1    H1 3743   1.969   4.096   0.431  0.1561 -1.7656 -1.7704
  243MPD1    H2 3744   1.659   4.235   0.665  1.0842  1.0010 -0.5699
  243MPD1    H3 3745   1.886   4.226   0.601  1.5303 -4.6597  1.8814
  243MPD1     N 3746   1.814   3.950   0.255  0.2235  0.0220 -0.2360
  243MPD1    H5 3747   1.748   3.885   0.214 -2.6317  2.3553  0.5812
  243MPD1    N1 3748   1.454   4.121   0.532  0.5567  0.7899  0.0254
  243MPD1    H6 3749   1.383   4.095   0.464  0.5860  0.9050 -0.0506
  243MPD1    H7 3750   1.428   4.206   0.582 -0.6593  1.4882 -1.8230
  244MPD1     C 3751   1.391   3.238   0.129 -0.1333  0.5839 -1.3009
  244MPD1    C1 3752   1.382   3.352   0.217  0.7980  0.3274  0.6781
  244MPD1    C2 3753   1.480   3.448   0.204 -0.8412  0.4830 -0.4629
  244MPD1    C3 3754   1.587   3.432   0.104 -0.0700  0.6419 -0.8420
  244MPD1    C4 3755   1.586   3.316   0.029  0.2464  0.4577  0.3870
  244MPD1    C5 3756   1.494   3.219   0.039 -0.0334 -0.7229 -0.1376
  244MPD1     H 3757   1.489   3.539   0.262 -1.0572 -0.0009  0.3280
  244MPD1    H1 3758   1.669   3.297  17.720  0.1574  1.4642  0.0029
  244MPD1    H2 3759   1.322   3.155   0.144  1.8653 -1.2116 -2.0547
  244MPD1    H3 3760   1.502   3.124  17.746  0.2891 -0.8267  0.1014
  244MPD1     N 3761   1.683   3.524   0.086 -0.1308  0.0181 -0.3323
  244MPD1    H5 3762   1.681   3.597   0.156 -2.0865  0.3657 -0.7579
  244MPD1    N1 3763   1.293   3.342   0.322 -0.4686  0.7994  0.2108
  244MPD1    H6 3764   1.220   3.271   0.313 -0.4533  0.5374  2.1035
  244MPD1    H7 3765   1.267   3.433   0.360 -3.0785 -0.1695  0.7403
  245MPD1     C 3766   3.775   3.609  13.129 -0.0016 -0.3863 -0.3914
  245MPD1    C1 3767   3.868   3.532  13.194  0.1555 -0.2907 -0.7445
  245MPD1    C2 3768   3.999   3.569  13.208  0.1154  0.9212  1.2713
  245MPD1    C3 3769   4.033   3.695  13.154  0.3156  0.3903  0.4878
  245MPD1    C4 3770   3.937   3.769  13.090 -0.0224 -0.6148 -0.0576
  245MPD1    C5 3771   3.815   3.722  13.061 -0.0367 -0.2239  0.6342
  245MPD1     H 3772   4.070   3.504  13.257 -0.3580 -0.2987  0.3311
  245MPD1    H1 3773   3.965   3.865  13.047  0.4995 -0.7684 -0.0606
  245MPD1    H2 3774   3.672   3.580  13.115 -0.4406  0.8147  0.3515
  245MPD1    H3 3775   3.742   3.781  13.007  0.1367  0.2328  0.8988
  245MPD1     N 3776   4.168   3.736  13.177  0.2027  0.0494 -0.1330
  245MPD1    H5 3777   4.242   3.671  13.202  2.4826  2.8710  0.5414
  245MPD1    N1 3778   3.822   3.415  13.247 -0.3226  0.2221 -0.1017
  245MPD1    H6 3779   3.882   3.373  13.318 -2.8352  0.2912  2.0831
  245MPD1    H7 3780   3.723   3.410  13.272  0.0474  0.2909  1.3985
  246MPD1     C 3781   0.409   0.814  10.348  0.1270 -0.4027 -0.0369
  246MPD1    C1 3782   0.342   0.771  10.241 -0.1859  0.3926 -0.0302
  246MPD1    C2 3783   0.368   0.640  10.199  0.1114  0.6077 -0.2790
  246MPD1    C3 3784   0.443   0.550  10.275 -0.0844  0.1691 -0.1687
  246MPD1    C4 3785   0.504   0.595  10.390 -0.2283 -0.2761  0.7107
  246MPD1    C5 3786   0.475   0.728  10.428 -0.3289 -0.0160  0.2254
  246MPD1     H 3787   0.313   0.602  10.115  0.9195  0.2981 -0.6659
  246MPD1    H1 3788   0.553   0.527  10.460  0.2018  0.4724  1.1437
  246MPD1    H2 3789   0.403   0.919  10.375 -0.7257 -0.8410  1.4241
  246MPD1    H3 3790   0.530   0.758  10.517  0.4237 -1.2929  0.1912
  246MPD1     N 3791   0.452   0.415  10.226  0.1674 -0.1400 -0.0320
  246MPD1    H5 3792   0.434   0.403  10.127 -1.1857  0.2204  0.1734
  246MPD1    N1 3793   0.280   0.864  10.148  0.1354 -0.2615  0.0074
  246MPD1    H6 3794   0.250   0.948  10.197 -0.2504 -0.6511  0.4375
  246MPD1    H7 3795   0.199   0.829  10.097  1.0440 -0.3132 -1.3786
  247MPD1     C 3796   3.117   4.188  16.859 -0.1414  0.0148  0.5122
  247MPD1    C1 3797   3.133   4.140  16.728  0.1922 -0.3209 -0.1258
  247MPD1    C2 3798   3.259   4.124  16.678 -0.1977 -0.3576 -0.5739
  247MPD1    C3 3799   3.369   4.161  16.748 -0.3901  0.1135  0.5632
  247MPD1    C4 3800   3.352   4.216  16.875 -1.0657 -0.0900  0.4719
  247MPD1    C5 3801   3.228   4.225  16.929  0.3894 -0.5700 -0.3928
  247MPD1     H 3802   3.269   4.081  16.579  0.7764  2.3872 -1.6477
  247MPD1    H1 3803   3.434   4.240  16.941 -0.5108 -0.8552  0.0581
  247MPD1    H2 3804   3.022   4.200  16.909 -0.9761 -2.0478 -0.6102
  247MPD1    H3 3805   3.221   4.264  17.030  0.6120 -3.2222  0.6490
  247MPD1     N 3806   3.501   4.136  16.705 -0.5367 -0.2643 -0.4701
  247MPD1    H5 3807   3.577   4.134  16.773 -2.2885  1.3379  1.5700
  247MPD1    N1 3808   3.021   4.109  16.645  0.4623  0.3461 -0.2788
  247MPD1    H6 3809   2.936   4.097  16.699  0.0841 -0.7125 -1.1223
  247MPD1    H7 3810   3.036   4.018  16.601 -1.0267 -0.8623  1.7215
  248MPD1     C 3811   4.338   3.081   0.231 -0.1471 -0.1718 -0.2909
  248MPD1    C1 3812   4.291   3.177   0.144 -0.4925 -0.0186 -0.1220
  248MPD1    C2 3813   4.220   3.280   0.199 -0.3099  0.1893 -0.5239
  248MPD1    C3 3814   4.200   3.281   0.332  0.4574 -0.5792 -0.0366
  248MPD1    C4 3815   4.239   3.182   0.412  0.1354 -0.5124  0.3760
  248MPD1    C5 3816   4.320   3.075   0.365 -0.2764 -0.2727 -0.1948
  248MPD1     H 3817   4.203   3.364   0.133  1.6281  1.4410  0.6016
  248MPD1    H1 3818   4.228   3.189   0.520 -0.6342  0.3245  0.2450
  248MPD1    H2 3819   4.401   3.005   0.185  1.3236  0.8590  0.0081
  248MPD1    H3 3820   4.369   3.004   0.432  0.5284  0.6359  0.1836
  248MPD1     N 3821   4.131   3.399   0.381  0.2166 -0.2842  0.4893
  248MPD1    H5 3822   4.118   3.468   0.309  0.3422 -0.1047  0.6382
  248MPD1    N1 3823   4.352   3.194   0.018 -0.5239  0.1755 -0.0080
  248MPD1    H6 3824   4.300   3.250  17.711  0.5533  0.5737 -0.5284
  248MPD1    H7 3825   4.374   3.104  17.735  0.5941  0.0511  0.8407
  249MPD1     C 3826   4.014   2.161   9.909  0.1475  0.3199 -0.0447
  249MPD1    C1 3827   4.126   2.187   9.846 -0.5996  0.1831  0.2260
  249MPD1    C2 3828   4.238   2.115   9.876  0.2227 -0.6332  0.0735
  249MPD1    C3 3829   4.242   2.031   9.990 -0.0299  0.4953 -0.8731
  249MPD1    C4 3830   4.119   2.015  10.065  0.0677  0.1915  0.4626
  249MPD1    C5 3831   4.002   2.071  10.012 -1.0077  0.2469 -0.8555
  249MPD1     H 3832   4.330   2.125   9.820 -0.2191  3.8969  0.1762
  249MPD1    H1 3833   4.110   1.977  10.166 -1.9117  1.9825  0.9412
  249MPD1    H2 3834   3.919   2.200   9.874 -1.5007 -3.5035  0.1600
  249MPD1    H3 3835   3.919   2.053  10.078 -0.7875 -4.0551 -1.7370
  249MPD1     N 3836   4.376   1.993  10.026  0.8912  0.3163  0.3567
  249MPD1    H5 3837   4.450   2.002   9.956  0.9209 -0.8314  0.2329
  249MPD1    N1 3838   4.120   2.265   9.726 -0.2275 -0.0857 -0.1949
  249MPD1    H6 3839   4.051   2.339   9.732  0.8033  0.7641  1.1546
  249MPD1    H7 3840   4.205   2.316   9.701 -0.2905  0.0400 -0.1500
  250MPD2     C 3841   2.236   2.239  13.123 -0.3643 -0.3972 -0.8736
  250MPD2    C1 3842   2.182   2.285  13.005 -0.2688  0.2933  0.2763
  250MPD2    C2 3843   2.090   2.208  12.934  0.0315 -0.1268  0.4175
  250MPD2    C3 3844   2.049   2.087  12.991 -1.0891 -0.2709  0.6056
  250MPD2    C4 3845   2.101   2.055  13.111 -0.6114 -0.5540 -0.3484
  250MPD2    C5 3846   2.198   2.122  13.175  0.4633 -0.6044  0.1105
  250MPD2     H 3847   2.056   2.230  12.834  1.1596  1.4577  0.3831
  250MPD2    H1 3848   2.070   1.960  13.153  2.2480 -1.5020 -0.3984
  250MPD2    H2 3849   2.300   2.311  13.174 -2.2414 -0.2165  1.2604
  250MPD2    H3 3850   2.260   2.071  13.249  1.1411 -0.4676 -0.3670
  250MPD2     N 3851   1.957   1.996  12.935 -0.3456 -0.2864 -0.4253
  250MPD2    H5 3852   1.940   1.915  12.995 -0.2737  0.9976  1.3402
  250MPD2    N1 3853   2.234   2.403  12.947 -0.0425  0.2542 -0.3613
  250MPD2    H7 3854   2.324   2.440  12.975  0.3627 -1.8528  1.1048
  251TMC3    C1 3855   2.268   2.567  12.789 -0.0755 -0.3236 -0.0155
  251TMC3    C2 3856   2.218   2.694  12.775 -0.1840  0.4988 -0.4834
  251TMC3    C3 3857   2.303   2.802  12.776  0.6777 -0.1545 -0.0810
  251TMC3    C4 3858   2.402   2.538  12.799  0.2803  0.0882  0.1075
  251TMC3    C5 3859   2.481   2.653  12.786 -0.7574 -0.7373  0.0498
  251TMC3    C6 3860   2.434   2.782  12.763 -0.5061 -0.0603  0.0622
  251TMC3     C 3861   2.179   2.467  12.844 -0.5262 -0.7833 -0.7362
  251TMC3     O 3862   2.063   2.462  12.810  0.2135 -0.2815 -0.6097
  251TMC3     H 3863   2.114   2.700  12.803 -0.4535 -0.5200 -1.2430
  251TMC3    H1 3864   2.428   2.434  12.783 -0.1706 -0.2434  1.5557
  251TMC3    H2 3865   2.498   2.869  12.758  1.0385 -1.3952 -3.1120
  251TMC3    C7 3866   2.628   2.632  12.786 -0.1925 -0.3892  0.0743
  251TMC3    C8 3867   2.247   2.938  12.783  0.4927 -0.5233  0.2302
  251TMC3    O1 3868   2.656   2.520  12.825  0.0174 -0.1286 -0.1949
  251TMC3    O2 3869   2.132   2.963  12.742  0.5780  0.5374 -0.4857
  252TMC3    C1 3870   2.265   3.370   9.130 -0.2856 -0.3481  0.8610
  252TMC3    C2 3871   2.382   3.396   9.193 -0.4608 -0.3012 -0.1462
  252TMC3    C3 3872   2.391   3.339   9.324 -1.1757  0.1915 -0.4325
  252TMC3    C4 3873   2.165   3.292   9.176 -0.5460 -0.4333 -1.0087
  252TMC3    C5 3874   2.185   3.226   9.292 -0.1372  0.5970  0.0553
  252TMC3    C6 3875   2.298   3.246   9.369 -0.1879  0.0395 -0.3217
  252TMC3     C 3876   2.246   3.441   9.000  0.0550 -0.7210  0.2488
  252TMC3     O 3877   2.339   3.516   8.981  0.2699 -0.1407 -0.5200
  252TMC3     H 3878   2.466   3.449   9.150  1.2961 -1.7845  1.4938
  252TMC3    H1 3879   2.066   3.302   9.133 -1.0860  1.8675  0.7609
  252TMC3    H2 3880   2.310   3.190   9.461  1.8591  1.3819  0.2240
  252TMC3    C7 3881   2.085   3.128   9.338 -0.0285  0.5415  0.0499
  252TMC3    C8 3882   2.535   3.314   9.368  0.7073  0.8528  0.4774
  252TMC3    O1 3883   1.986   3.118   9.263  0.1912 -0.0866 -0.4404
  252TMC3    O2 3884   2.623   3.320   9.282 -0.1974 -0.3733 -0.5192
  253MPD2     C 3885   3.650   2.199  15.131 -0.6969  0.3857  0.2221
  253MPD2    C1 3886   3.523   2.170  15.097 -0.6586 -0.2286  0.3926
  253MPD2    C2 3887   3.436   2.159  15.204 -0.8453 -0.4467 -0.1041
  253MPD2    C3 3888   3.470   2.185  15.339  0.0195 -0.0280 -0.7509
  253MPD2    C4 3889   3.592   2.237  15.367 -0.6430 -0.3967  0.3277
  253MPD2    C5 3890   3.682   2.241  15.262  0.0019 -0.2882 -0.3863
  253MPD2     H 3891   3.332   2.138  15.179 -0.6059 -1.0618 -0.5800
  253MPD2    H1 3892   3.619   2.261  15.469 -1.3246 -0.0956  0.4322
  253MPD2    H2 3893   3.729   2.218  15.060 -0.7283  1.4034  0.4584
  253MPD2    H3 3894   3.784   2.266  15.289 -0.1113 -1.7498  1.4721
  253MPD2     N 3895   3.381   2.171  15.447 -0.3921  0.0868  0.6184
  253MPD2    H5 3896   3.421   2.206  15.533  1.9960 -1.7914  0.2875
  253MPD2    N1 3897   3.476   2.140  14.966 -0.0143 -0.1805  0.2302
  253MPD2    H7 3898   3.376   2.124  14.953 -0.0406  1.4212 -1.6100
  254TMC3    C1 3899   3.193   2.129  15.556 -0.5525  0.3069 -0.6792
  254TMC3    C2 3900   3.187   2.252  15.616  0.6185  0.5581 -0.6507
  254TMC3    C3 3901   3.124   2.251  15.739 -0.0884  0.4771 -0.4393
  254TMC3    C4 3902   3.152   2.011  15.612 -0.0708 -0.4870 -0.0970
  254TMC3    C5 3903   3.096   2.016  15.738 -0.6703  0.7275 -0.5241
  254TMC3    C6 3904   3.081   2.137  15.799  0.3115  0.2953 -0.3963
  254TMC3     C 3905   3.261   2.122  15.428  0.2939  0.7917 -0.0740
  254TMC3     O 3906   3.215   2.044  15.346  0.5106  0.2050  0.4370
  254TMC3     H 3907   3.230   2.334  15.560  1.3010  0.6388 -0.0025
  254TMC3    H1 3908   3.177   1.920  15.559 -1.0541  0.5773 -2.3615
  254TMC3    H2 3909   3.030   2.144  15.894  1.1015 -0.7842  0.1107
  254TMC3    C7 3910   3.128   1.898  15.816 -0.3865  0.2683 -0.2990
  254TMC3    C8 3911   3.105   2.372  15.808  0.4632  0.7348  0.4925
  254TMC3    O1 3912   3.135   1.792  15.751 -0.4852  0.4877 -0.5908
  254TMC3    O2 3913   3.119   2.375  15.929  0.2323  0.2965 -0.5892
  255MPD2     C 3914   1.809   4.458  10.433  0.7857 -0.6087  1.2120
  255MPD2    C1 3915   1.944   4.462  10.415 -0.3722 -0.3364  1.0512
  255MPD2    C2 3916   2.002   4.366  10.327 -0.3027 -0.6649 -0.1979
  255MPD2    C3 3917   1.921   4.271  10.272 -0.2862 -0.5451 -0.7212
  255MPD2    C4 3918   1.785   4.257  10.297 -0.7203  0.3668  0.0510
  255MPD2    C5 3919   1.732   4.356  10.380 -0.0081  0.3502 -0.5981
  255MPD2     H 3920   2.109   4.359  10.307  0.7379  3.2706  4.0125
  255MPD2    H1 3921   1.724   4.170  10.276  2.9475 -2.0155 -0.8790
  255MPD2    H2 3922   1.766   4.531  10.501 -0.3636 -0.1683 -0.0047
  255MPD2    H3 3923   1.630   4.352  10.415  0.0637 -0.3977 -0.4837
  255MPD2     N 3924   1.993   4.193  10.175  0.4944  0.3209  0.0655
  255MPD2    H5 3925   2.091   4.218  10.162  0.2930  0.9405 -0.2767
  255MPD2    N1 3926   2.014   4.573  10.470  0.2654  0.0981 -0.3283
  255MPD2    H7 3927   1.953   4.645  10.506 -1.3670 -1.2064 -0.4618
  256TMC3    C1 3928   2.181   4.725  10.465 -0.1947  0.6235  0.3173
  256TMC3    C2 3929   2.267   0.006  10.355  0.2531 -0.1481  0.3529
  256TMC3    C3 3930   2.264   0.130  10.297 -0.4923  1.2198  0.3787
  256TMC3    C4 3931   2.100   0.072  10.517  0.3139  0.8484 -0.1937
  256TMC3    C5 3932   2.095   0.195  10.451 -0.5310 -0.3686 -0.1779
  256TMC3    C6 3933   2.175   0.226  10.345 -0.4122 -0.1330  0.0648
  256TMC3     C 3934   2.146   4.587  10.463 -0.0360  0.2534  0.3756
  256TMC3     O 3935   2.238   4.511  10.446  0.1525  0.8458 -0.0958
  256TMC3     H 3936   2.332   4.669  10.315 -0.5098 -0.3597 -0.4878
  256TMC3    H1 3937   2.047   0.047  10.608  0.5231  0.0543 -0.2964
  256TMC3    H2 3938   2.154   0.307  10.276 -0.0587  0.2449  0.4033
  256TMC3    C7 3939   1.967   0.249  10.447  0.3270 -0.2222 -0.3949
  256TMC3    C8 3940   2.271   0.121  10.152  0.3105 -0.3043 -0.6954
  256TMC3    O1 3941   1.874   0.167  10.436 -0.1401  0.4935 -0.2889
  256TMC3    O2 3942   2.211   0.034  10.094 -0.5023  0.4467 -0.3952
  257MPD2     C 3943   0.930   2.336  13.209  0.3138 -0.6829 -0.2585
  257MPD2    C1 3944   1.039   2.298  13.136 -0.4827 -0.3761 -0.4571
  257MPD2    C2 3945   1.132   2.216  13.192  0.3461  0.4944  0.8641
  257MPD2    C3 3946   1.142   2.191  13.327  0.6776  0.2951 -0.0513
  257MPD2    C4 3947   1.037   2.238  13.404  0.7697 -0.1774  0.3504
  257MPD2    C5 3948   0.935   2.309  13.340 -0.2066  0.1122 -0.1507
  257MPD2     H 3949   1.215   2.183  13.131 -0.8191 -1.9041  0.5777
  257MPD2    H1 3950   1.027   2.228  13.511 -0.9177  1.1323  0.3106
  257MPD2    H2 3951   0.860   2.412  13.175  0.4178  0.4130  1.9664
  257MPD2    H3 3952   0.867   2.361  13.407 -1.4157 -1.3511 -0.2421
  257MPD2     N 3953   1.251   2.116  13.382  0.2893  0.3028  0.2221
  257MPD2    H5 3954   1.310   2.071  13.313 -1.5201 -1.1849 -0.3609
  257MPD2    N1 3955   1.046   2.338  12.998  1.2111  0.1074  0.1500
  257MPD2    H7 3956   0.961   2.382  12.963  1.1238  0.0220  0.2567
  258TMC3    C1 3957   1.385   2.000  13.545 -0.3497  0.5899  0.5070
  258TMC3    C2 3958   1.447   1.922  13.448 -0.0115 -0.2420  0.6873
  258TMC3    C3 3959   1.513   1.816  13.499  1.5264 -0.6619 -0.5067
  258TMC3    C4 3960   1.386   1.968  13.684  0.8162 -0.0320  0.5266
  258TMC3    C5 3961   1.459   1.858  13.726 -1.0217 -0.2215 -0.0613
  258TMC3    C6 3962   1.535   1.787  13.631 -0.2381  0.8719  0.0210
  258TMC3     C 3963   1.277   2.093  13.511  0.2065 -0.5921  0.1548
  258TMC3     O 3964   1.229   2.158  13.605  0.0128  1.0170 -0.2463
  258TMC3     H 3965   1.453   1.960  13.346  0.8625 -0.9536  0.4766
  258TMC3    H1 3966   1.308   2.009  13.748  0.1898  0.4292 -0.5332
  258TMC3    H2 3967   1.603   1.707  13.657 -1.3505 -0.1092 -0.0820
  258TMC3    C7 3968   1.423   1.780  13.838 -0.2042  0.1041  0.3688
  258TMC3    C8 3969   1.584   1.726  13.409 -0.2566 -0.2194 -0.3786
  258TMC3    O1 3970   1.310   1.797  13.881 -0.1610  0.7022  0.2216
  258TMC3    O2 3971   1.684   1.675  13.446 -0.4008  0.3552 -0.3458
  259MPD2     C 3972   4.709   4.090   0.629 -0.6254  0.2507  0.9531
  259MPD2    C1 3973   0.040   3.977   0.668  0.6655  0.3892  0.3895
  259MPD2    C2 3974   0.135   3.921   0.581  0.3605  0.3517  0.3131
  259MPD2    C3 3975   0.146   3.976   0.448  0.9109 -0.4029 -0.4812
  259MPD2    C4 3976   0.071   4.093   0.420  0.0858 -0.0963  0.1402
  259MPD2    C5 3977   4.724   4.152   0.507 -0.2086  0.0227 -0.2515
  259MPD2     H 3978   0.191   3.832   0.607 -0.6734 -0.4942 -0.3420
  259MPD2    H1 3979   0.085   4.145   0.326  0.7611  2.0621  1.4309
  259MPD2    H2 3980   4.636   4.129   0.699 -1.9612 -0.5440  0.0209
  259MPD2    H3 3981   4.673   4.244   0.481  1.4217  0.8578 -0.5314
  259MPD2     N 3982   0.237   3.924   0.354  0.3381 -0.8408  0.0405
  259MPD2    H5 3983   0.291   3.847   0.393 -0.2301 -2.4714 -2.3926
  259MPD2    N1 3984   0.015   3.926   0.802  0.4237  0.3557 -0.2923
  259MPD2    H7 3985   4.700   3.988   0.860  0.5950 -1.6318  2.0058
  260TMC3    C1 3986   0.344   3.868   0.149  0.1174 -0.4179  1.5950
  260TMC3    C2 3987   0.385   3.913   0.029 -0.5015 -0.5660  0.0882
  260TMC3    C3 3988   0.465   3.825  17.719 -0.3275 -0.4808  0.4955
  260TMC3    C4 3989   0.358   3.743   0.192  0.5909  0.3262 -0.0269
  260TMC3    C5 3990   0.453   3.665   0.130 -0.3217 -0.6818  1.4730
  260TMC3    C6 3991   0.511   3.709   0.012  0.1662  0.8989  0.0057
  260TMC3     C 3992   0.260   3.962   0.224  0.4405  0.9365 -0.4893
  260TMC3     O 3993   0.210   4.048   0.159  0.0864 -0.3835 -0.5872
  260TMC3     H 3994   0.360   4.012  17.754 -2.3322 -0.0349  2.9512
  260TMC3    H1 3995   0.297   3.692   0.266  0.3590  1.3093  0.4655
  260TMC3    H2 3996   0.585   3.647  17.722  0.0524  0.3010  0.5858
  260TMC3    C7 3997   0.511   3.549   0.194 -0.1552 -0.2601 -0.1005
  260TMC3    C8 3998   0.462   3.821  17.571  0.0876 -0.6845 -0.6813
  260TMC3    O1 3999   0.602   3.485   0.138 -0.0478 -0.0269  0.7384
  260TMC3    O2 4000   0.459   3.922  17.503  0.4175  0.6229  0.2573
  261MPD2     C 4001   1.420   1.861  12.287 -0.1949  0.1915  0.2127
  261MPD2    C1 4002   1.536   1.922  12.330  0.6844 -0.0337  1.1066
  261MPD2    C2 4003   1.586   2.024  12.246  0.2480  0.1066 -0.0940
  261MPD2    C3 4004   1.525   2.060  12.133  0.6681 -0.5637  0.5726
  261MPD2    C4 4005   1.411   1.997  12.094  0.1241  0.3997  0.1311
  261MPD2    C5 4006   1.352   1.904  12.175 -0.1067  0.3228  0.8591
  261MPD2     H 4007   1.680   2.070  12.274 -0.2090  0.3356  1.0687
  261MPD2    H1 4008   1.354   2.020  12.005  1.3864  2.6398 -0.1273
  261MPD2    H2 4009   1.371   1.783  12.343 -0.9197 -0.0610 -0.7821
  261MPD2    H3 4010   1.259   1.865  12.136  0.4988 -1.9158  1.6866
  261MPD2     N 4011   1.582   2.170  12.060  0.1559 -0.5045  0.1502
  261MPD2    H5 4012   1.672   2.207  12.089 -0.1091  0.3618 -0.1330
  261MPD2    N1 4013   1.588   1.908  12.462 -0.0891 -0.3570  0.2779
  261MPD2    H7 4014   1.676   1.958  12.471 -1.2456  1.0197  3.5264
  262TMC3    C1 4015   1.641   2.320  11.890  0.4058 -0.2152 -0.4827
  262TMC3    C2 4016   1.687   2.419  11.981  0.2709 -0.3420 -0.9898
  262TMC3    C3 4017   1.748   2.524  11.926  0.1099 -0.0865  0.1118
  262TMC3    C4 4018   1.642   2.330  11.756  0.4493  0.7841 -0.2629
  262TMC3    C5 4019   1.697   2.448  11.706 -0.5956  0.7101 -0.1029
  262TMC3    C6 4020   1.759   2.545  11.789  0.1195 -0.6164  0.4219
  262TMC3     C 4021   1.558   2.204  11.937 -0.9063  0.1608  0.6560
  262TMC3     O 4022   1.477   2.156  11.856  0.4600  0.1993 -0.1194
  262TMC3     H 4023   1.653   2.411  12.083  0.8720  0.2694 -0.7477
  262TMC3    H1 4024   1.602   2.261  11.683  0.8523 -0.0515  0.3030
  262TMC3    H2 4025   1.781   2.642  11.746 -2.3614 -1.1320 -2.0268
  262TMC3    C7 4026   1.624   2.503  11.592  0.7584  0.3210  0.1651
  262TMC3    C8 4027   1.709   2.650  11.984 -0.8313  0.0918 -0.0145
  262TMC3    O1 4028   1.507   2.464  11.578  1.1181 -0.2448 -0.3212
  262TMC3    O2 4029   1.797   2.733  11.981  0.4959 -0.6655  0.2052
  263MPD2     C 4030   2.292   1.173  11.414 -0.1856  0.4369  0.5499
  263MPD2    C1 4031   2.395   1.262  11.405  0.1718  0.1864 -0.5820
  263MPD2    C2 4032   2.404   1.342  11.290  0.0253  0.4940 -0.6636
  263MPD2    C3 4033   2.302   1.344  11.195 -0.1744  0.2448  0.5628
  263MPD2    C4 4034   2.199   1.256  11.207  0.6582 -0.2287 -0.1859
  263MPD2    C5 4035   2.192   1.174  11.317 -0.6097  0.4986 -0.0731
  263MPD2     H 4036   2.481   1.417  11.275  0.5028 -0.1097 -1.2474
  263MPD2    H1 4037   2.123   1.255  11.130 -0.6116 -2.1661  1.0762
  263MPD2    H2 4038   2.294   1.100  11.494 -2.8980  0.4058  0.5882
  263MPD2    H3 4039   2.100   1.120  11.335 -0.9680  0.7569 -1.1495
  263MPD2     N 4040   2.297   1.444  11.095 -0.7048 -0.2692 -0.1480
  263MPD2    H5 4041   2.379   1.503  11.086 -2.3562  2.3411  1.7833
  263MPD2    N1 4042   2.495   1.250  11.505 -0.4175 -0.2256 -0.3346
  263MPD2    H7 4043   2.479   1.183  11.579 -0.6320  0.4911  0.2780
  264TMC3    C1 4044   2.213   1.588  10.923  0.1034  1.7501  0.3324
  264TMC3    C2 4045   2.116   1.676  10.890  0.4801  0.1642 -1.3286
  264TMC3    C3 4046   2.128   1.762  10.779 -0.0379  0.3177 -0.7537
  264TMC3    C4 4047   2.326   1.579  10.851  0.2525  0.0043  0.0775
  264TMC3    C5 4048   2.326   1.646  10.725 -1.1752  0.0889  0.1165
  264TMC3    C6 4049   2.229   1.733  10.693 -0.3927  0.3139 -0.7067
  264TMC3     C 4050   2.184   1.477  11.015  0.0331 -0.3461 -0.4468
  264TMC3     O 4051   2.063   1.457  11.022 -0.3860 -0.2296 -0.7453
  264TMC3     H 4052   2.018   1.673  10.935  0.5947 -1.0352 -1.1722
  264TMC3    H1 4053   2.396   1.504  10.886 -1.1021 -1.8696 -1.2638
  264TMC3    H2 4054   2.246   1.798  10.608  1.7480 -1.1775 -1.4246
  264TMC3    C7 4055   2.462   1.666  10.665 -0.3082  0.1851  0.4446
  264TMC3    C8 4056   2.129   1.907  10.810 -0.3165 -0.1655  0.0978
  264TMC3    O1 4057   2.464   1.706  10.549  0.1235 -0.5304 -0.4377
  264TMC3    O2 4058   2.203   1.974  10.738 -0.2090 -0.1295 -0.0635
  265MPD2     C 4059   0.089   1.889  15.440 -0.7466 -0.3059 -0.3621
  265MPD2    C1 4060   0.089   1.997  15.356  0.0295 -0.0737 -0.2665
  265MPD2    C2 4061   0.162   1.985  15.238 -0.3931  0.1327 -0.6770
  265MPD2    C3 4062   0.232   1.862  15.212 -0.6281 -0.0827 -0.0344
  265MPD2    C4 4063   0.222   1.753  15.301  0.0772  0.7451 -0.2143
  265MPD2    C5 4064   0.163   1.775  15.425  0.0476 -0.4351 -0.3225
  265MPD2     H 4065   0.169   2.072  15.174  0.4179 -0.4574 -1.3874
  265MPD2    H1 4066   0.272   1.658  15.287 -1.0461 -0.1384  1.8126
  265MPD2    H2 4067   0.039   1.905  15.535  1.0954  1.9843  0.2274
  265MPD2    H3 4068   0.163   1.708  15.511  2.3024 -0.3364 -0.2573
  265MPD2     N 4069   0.319   1.826  15.102  0.3388  0.5585 -0.1706
  265MPD2    H5 4070   0.365   1.736  15.103 -0.4860  0.1528  0.8581
  265MPD2    N1 4071   0.008   2.113  15.383 -0.0236 -0.1394 -0.4259
  265MPD2    H7 4072   4.720   2.174  15.307 -0.2630  1.7098  1.1383
  266TMC3    C1 4073   4.636   2.277  15.503 -0.2621 -0.0639 -0.3301
  266TMC3    C2 4074   4.615   2.336  15.630  0.0563  0.4885 -1.0736
  266TMC3    C3 4075   4.490   2.393  15.662  0.2603 -0.3260 -0.4961
  266TMC3    C4 4076   4.534   2.284  15.407  0.0987 -0.0237 -0.6666
  266TMC3    C5 4077   4.411   2.327  15.446  0.1758  0.4191  0.7511
  266TMC3    C6 4078   4.393   2.381  15.566  0.0410  0.5449  0.4737
  266TMC3     C 4079   4.699   2.150  15.505 -0.1785 -0.2422 -0.2363
  266TMC3     O 4080   4.714   2.101  15.611 -0.0525 -0.2650 -0.4901
  266TMC3     H 4081   4.695   2.331  15.704  0.1199  1.0981 -1.0982
  266TMC3    H1 4082   4.540   2.244  15.307 -1.0334 -0.7865 -0.4271
  266TMC3    H2 4083   4.300   2.432  15.592 -1.0153 -1.5129  0.7604
  266TMC3    C7 4084   4.349   2.406  15.347 -0.0351  0.3143  0.5111
  266TMC3    C8 4085   4.473   2.472  15.786  0.3853  0.4222  0.0597
  266TMC3    O1 4086   4.425   2.449  15.263  0.5056  0.5555  0.3532
  266TMC3    O2 4087   4.356   2.494  15.825  0.1732  0.2262  0.2159
  267MPD2     C 4088   2.184   4.548   0.667  0.2150 -1.0420  0.8666
  267MPD2    C1 4089   2.226   4.494   0.551  0.1141  0.3244  0.0311
  267MPD2    C2 4090   2.134   4.462   0.450 -0.0492  0.3080 -0.0482
  267MPD2    C3 4091   2.000   4.482   0.455 -0.0109 -0.3719  0.2906
  267MPD2    C4 4092   1.957   4.537   0.574 -0.3914 -0.0388  0.4566
  267MPD2    C5 4093   2.047   4.576   0.664  0.4225 -0.0525 -0.4787
  267MPD2     H 4094   2.173   4.412   0.362  0.0655 -0.2271  0.3099
  267MPD2    H1 4095   1.854   4.558   0.601 -0.1637  0.0112  1.2694
  267MPD2    H2 4096   2.250   4.581   0.746 -0.7762 -0.4028  1.4339
  267MPD2    H3 4097   2.003   4.611   0.756 -3.0592 -2.1512 -1.3528
  267MPD2     N 4098   1.911   4.438   0.357  0.2014  0.1954  0.2028
  267MPD2    H5 4099   1.814   4.429   0.386 -0.0086  1.1221 -0.1891
  267MPD2    N1 4100   2.359   4.460   0.542  0.8823 -0.7072  0.0780
  267MPD2    H7 4101   2.416   4.469   0.626  1.4385 -1.6602 -0.1963
  268TMC3    C1 4102   2.551   4.395   0.413 -0.1945  0.9583 -0.0523
  268TMC3    C2 4103   2.640   4.418   0.304 -0.3628  0.0022  0.2813
  268TMC3    C3 4104   2.767   4.364   0.316  0.1184  1.0050 -0.0193
  268TMC3    C4 4105   2.596   4.342   0.531 -0.0516 -0.0072 -0.6821
  268TMC3    C5 4106   2.723   4.301   0.543 -0.1642  0.4423  0.4222
  268TMC3    C6 4107   2.811   4.309   0.438  0.5244  0.6140  0.8306
  268TMC3     C 4108   2.422   4.456   0.416 -0.0012 -0.2435  0.2238
  268TMC3     O 4109   2.380   4.493   0.305 -0.7677 -0.1062 -0.0810
  268TMC3     H 4110   2.606   4.464   0.212 -0.4329  0.1423  0.3780
  268TMC3    H1 4111   2.523   4.304   0.602  0.6065 -0.3834 -0.2051
  268TMC3    H2 4112   2.915   4.282   0.453  0.7135  0.6832 -0.4029
  268TMC3    C7 4113   2.764   4.214   0.654 -0.3948 -0.5914  0.1223
  268TMC3    C8 4114   2.867   4.370   0.204  0.9770 -0.6360  0.1197
  268TMC3    O1 4115   2.843   4.137   0.610  0.2817 -0.0423  0.0255
  268TMC3    O2 4116   2.987   4.353   0.230  0.0706 -0.4361  0.1320
  269MPD2     C 4117   2.800   2.646  15.261  0.0051  0.4542  0.3662
  269MPD2    C1 4118   2.739   2.684  15.376  0.5415  1.3629  0.2764
  269MPD2    C2 4119   2.726   2.816  15.399 -0.5001  0.9569  0.1147
  269MPD2    C3 4120   2.759   2.915  15.304  0.5947 -0.8513  0.3283
  269MPD2    C4 4121   2.802   2.869  15.181 -0.1303 -0.5508  0.8960
  269MPD2    C5 4122   2.838   2.735  15.162 -0.5628 -0.1537 -0.3476
  269MPD2     H 4123   2.697   2.836  15.501 -1.3401  2.0172 -0.3349
  269MPD2    H1 4124   2.831   2.935  15.100  2.2313 -0.3769  1.8861
  269MPD2    H2 4125   2.812   2.540  15.243 -2.2536  0.1850  0.3559
  269MPD2    H3 4126   2.891   2.688  15.080  1.0632  1.5257 -0.2634
  269MPD2     N 4127   2.743   3.048  15.349 -0.8315 -0.2397 -0.4562
  269MPD2    H5 4128   2.681   3.068  15.427  1.4879  0.3425  1.2413
  269MPD2    N1 4129   2.689   2.587  15.469  0.5054 -1.1022 -0.6782
  269MPD2    H7 4130   2.710   2.490  15.449 -0.4401 -0.7208 -3.3773
  270TMC3    C1 4131   2.571   2.480  15.636 -0.3994  0.9694 -0.0716
  270TMC3    C2 4132   2.438   2.453  15.647 -0.3210 -1.0023  0.0962
  270TMC3    C3 4133   2.400   2.320  15.668  0.4236 -0.1507 -0.4111
  270TMC3    C4 4134   2.669   2.387  15.640 -0.4339 -0.8286 -0.5176
  270TMC3    C5 4135   2.627   2.266  15.681 -0.6014  0.2746  0.3447
  270TMC3    C6 4136   2.499   2.231  15.698  0.0740 -0.6609 -0.1076
  270TMC3     C 4137   2.599   2.606  15.574  0.5785  0.3535 -0.0320
  270TMC3     O 4138   2.534   2.703  15.605 -0.0392 -0.2133  0.0938
  270TMC3     H 4139   2.358   2.526  15.643  1.2147  0.6021 -0.9072
  270TMC3    H1 4140   2.775   2.408  15.635 -0.2004 -1.6538  0.6882
  270TMC3    H2 4141   2.469   2.136  15.740  0.8585 -1.0335 -0.3863
  270TMC3    C7 4142   2.715   2.160  15.637 -0.0284  0.4238 -0.3954
  270TMC3    C8 4143   2.303   2.253  15.578  0.0383  0.0035  0.2458
  270TMC3    O1 4144   2.832   2.188  15.611 -0.3308  0.7932  0.6977
  270TMC3    O2 4145   2.339   2.142  15.541 -0.0864  0.1376 -0.0444
  271MPD2     C 4146   2.133   2.090  13.646  0.7255 -0.3698 -0.8312
  271MPD2    C1 4147   2.058   2.150  13.747 -0.2477 -0.6718 -0.8927
  271MPD2    C2 4148   2.013   2.279  13.729  0.2921 -0.5165 -0.4058
  271MPD2    C3 4149   2.029   2.345  13.606  0.1315  0.2671  0.5204
  271MPD2    C4 4150   2.096   2.286  13.506 -0.4262 -0.3815 -0.0091
  271MPD2    C5 4151   2.152   2.159  13.531  0.0534  0.2172 -0.7153
  271MPD2     H 4152   1.964   2.332  13.809  2.0151  2.1407 -1.1337
  271MPD2    H1 4153   2.093   2.318  13.403 -2.6092 -0.9140 -0.1135
  271MPD2    H2 4154   2.164   1.987  13.653 -1.2106 -0.7192  2.4998
  271MPD2    H3 4155   2.210   2.116  13.450  0.2490 -1.2500  0.2186
  271MPD2     N 4156   1.984   2.482  13.590 -0.1266 -0.2397  0.0224
  271MPD2    H5 4157   2.003   2.521  13.499  1.0203 -1.6051 -0.3277
  271MPD2    N1 4158   2.048   2.100  13.881 -0.2675 -0.4177  0.3985
  271MPD2    H7 4159   1.996   2.157  13.946  0.4971  0.8610 -0.1274
  272TMC3    C1 4160   2.120   1.975  14.076 -0.5308  0.5366 -0.4146
  272TMC3    C2 4161   2.184   1.870  14.136  0.5981 -0.1054 -0.0904
  272TMC3    C3 4162   2.203   1.862  14.270  0.2863  0.3639  0.5551
  272TMC3    C4 4163   2.054   2.066  14.155 -0.5762  0.0297 -0.3991
  272TMC3    C5 4164   2.070   2.054  14.288 -0.4329 -0.3515 -0.4709
  272TMC3    C6 4165   2.147   1.956  14.349 -0.0457 -0.5386  0.8266
  272TMC3     C 4166   2.127   1.994  13.925  0.7599 -0.4054 -0.6702
  272TMC3     O 4167   2.182   1.901  13.870 -0.1194  0.6142  0.1478
  272TMC3     H 4168   2.223   1.793  14.070  2.1484  1.6554 -1.2239
  272TMC3    H1 4169   1.991   2.146  14.117  0.1169  1.1164  0.7381
  272TMC3    H2 4170   2.152   1.957  14.457 -2.5376  0.0104  0.9560
  272TMC3    C7 4171   1.998   2.149  14.373 -0.2952  0.1210  0.5538
  272TMC3    C8 4172   2.339   1.854  14.285  0.2628  0.0318  0.5617
  272TMC3    O1 4173   1.905   2.201  14.321 -0.7858 -0.3503  0.4950
  272TMC3    O2 4174   2.397   1.861  14.176  0.0219  0.2769  0.1413
  273MPD2     C 4175   3.445   0.300  12.174 -0.4422 -0.1754 -0.2706
  273MPD2    C1 4176   3.503   0.423  12.145  0.4063  0.5609  0.5058
  273MPD2    C2 4177   3.510   0.465  12.018 -0.5578  0.4342  0.0029
  273MPD2    C3 4178   3.467   0.387  11.913 -0.0454 -0.1263 -1.0320
  273MPD2    C4 4179   3.428   0.258  11.940 -0.2426 -0.1190  0.3484
  273MPD2    C5 4180   3.412   0.216  12.068 -0.9177  0.1083 -0.5074
  273MPD2     H 4181   3.546   0.565  11.998  2.7138 -0.7618 -0.0592
  273MPD2    H1 4182   3.405   0.187  11.862  1.9534  1.0334 -1.3497
  273MPD2    H2 4183   3.431   0.274  12.279 -0.7741 -0.5115 -0.3997
  273MPD2    H3 4184   3.379   0.113  12.078 -3.0027  0.6085 -2.3881
  273MPD2     N 4185   3.466   0.447  11.782 -0.1734 -0.2198  0.3722
  273MPD2    H5 4186   3.511   0.538  11.771  1.9170 -1.4380 -1.2095
  273MPD2    N1 4187   3.527   0.504  12.256  0.2113  0.2179  0.0991
  273MPD2    H7 4188   3.499   0.472  12.348  2.6379 -1.8510  0.1290
  274TMC3    C1 4189   3.440   0.465  11.548 -0.3522 -0.0336  0.1392
  274TMC3    C2 4190   3.392   0.425  11.428  0.1086 -0.1168 -0.4188
  274TMC3    C3 4191   3.380   0.507  11.316  0.1699 -0.4803  0.2885
  274TMC3    C4 4192   3.487   0.591  11.557 -0.4234  0.5764 -0.1026
  274TMC3    C5 4193   3.471   0.673  11.447 -0.3758 -0.0879 -0.3604
  274TMC3    C6 4194   3.429   0.634  11.324  0.2209  0.1170  0.1772
  274TMC3     C 4195   3.421   0.391  11.664 -0.0610  0.3321 -0.7912
  274TMC3     O 4196   3.386   0.273  11.647 -0.3411  0.2421 -0.4023
  274TMC3     H 4197   3.382   0.318  11.413  2.7668 -0.2863 -0.9590
  274TMC3    H1 4198   3.527   0.637  11.646  0.0056 -2.5954  1.3238
  274TMC3    H2 4199   3.399   0.704  11.247  0.4662 -0.8933 -0.8456
  274TMC3    C7 4200   3.427   0.807  11.473  0.3526  0.0189 -0.4103
  274TMC3    C8 4201   3.286   0.472  11.211  1.0862 -0.5234  0.1476
  274TMC3    O1 4202   3.327   0.844  11.412  0.1487  0.0254 -0.3614
  274TMC3    O2 4203   3.264   0.545  11.113  0.0864  0.0558  0.2375
  275MPD2     C 4204   3.415   3.385  14.519  0.4293  0.5517 -0.4449
  275MPD2    C1 4205   3.416   3.270  14.595 -0.1215  0.4672 -0.0765
  275MPD2    C2 4206   3.314   3.176  14.590  0.0796 -0.5498 -0.5807
  275MPD2    C3 4207   3.208   3.199  14.499 -0.2040 -0.2252  0.3416
  275MPD2    C4 4208   3.210   3.316  14.419  0.8404  1.1646 -0.3352
  275MPD2    C5 4209   3.312   3.404  14.434  0.4300  0.6828  0.0479
  275MPD2     H 4210   3.310   3.096  14.663 -0.0717 -0.9309 -1.0082
  275MPD2    H1 4211   3.124   3.336  14.356 -1.0215 -2.4830  1.0134
  275MPD2    H2 4212   3.498   3.454  14.523  0.9977  0.0984 -4.1631
  275MPD2    H3 4213   3.316   3.498  14.380  0.6310  0.5892 -0.1014
  275MPD2     N 4214   3.093   3.120  14.489 -0.1320  0.4592  0.7722
  275MPD2    H5 4215   3.025   3.146  14.419  0.4909 -3.4865 -1.3396
  275MPD2    N1 4216   3.527   3.241  14.681 -0.6693 -0.2461 -0.3536
  275MPD2    H7 4217   3.518   3.159  14.740 -0.9307  0.4901  0.6079
  276TMC3    C1 4218   3.704   3.274  14.834 -0.4178  0.2291  0.3886
  276TMC3    C2 4219   3.662   3.160  14.903 -0.2484  0.9226 -0.5574
  276TMC3    C3 4220   3.724   3.135  15.021  0.4481 -0.4887 -0.4949
  276TMC3    C4 4221   3.799   3.358  14.888  0.8698 -0.5723  0.4235
  276TMC3    C5 4222   3.852   3.327  15.015 -0.0994 -0.1662  0.2622
  276TMC3    C6 4223   3.810   3.215  15.087  0.3997 -0.6125  0.0218
  276TMC3     C 4224   3.636   3.323  14.716 -0.5448  0.9635 -0.5414
  276TMC3     O 4225   3.686   3.424  14.665 -0.1676  0.4456 -0.2116
  276TMC3     H 4226   3.571   3.107  14.879 -1.1995  1.4278  1.9059
  276TMC3    H1 4227   3.820   3.452  14.838 -1.9341  0.7773  1.7999
  276TMC3    H2 4228   3.836   3.207  15.192 -1.6243 -1.3039  0.4638
  276TMC3    C7 4229   3.934   3.417  15.076  0.3247 -0.5241  0.1150
  276TMC3    C8 4230   3.677   3.016  15.102 -0.5078 -0.0143 -0.2937
  276TMC3    O1 4231   3.955   3.405  15.199  0.1870 -0.4983 -0.1349
  276TMC3    O2 4232   3.693   3.034  15.220 -1.0406 -0.2749 -0.0679
  277MPD2     C 4233   0.400   2.609  13.066 -0.7577 -0.0944  0.0481
  277MPD2    C1 4234   0.293   2.634  13.146 -0.5540 -0.4904 -0.5281
  277MPD2    C2 4235   0.273   2.533  13.244  0.6952  0.1272  0.0147
  277MPD2    C3 4236   0.367   2.438  13.280  0.0340  0.2343 -0.1820
  277MPD2    C4 4237   0.486   2.434  13.211 -0.1448 -0.0963  0.2999
  277MPD2    C5 4238   0.495   2.514  13.098 -0.5437 -0.1481  0.0390
  277MPD2     H 4239   0.178   2.530  13.297  0.6572 -0.2746 -0.0798
  277MPD2    H1 4240   0.571   2.370  13.232  0.6011  0.6521 -0.3776
  277MPD2    H2 4241   0.430   2.676  12.986 -1.5584 -0.5776 -0.6611
  277MPD2    H3 4242   0.581   2.501  13.034 -1.4344 -0.4494 -1.0853
  277MPD2     N 4243   0.336   2.350  13.387 -0.6280 -0.3181 -0.3128
  277MPD2    H5 4244   0.245   2.365  13.429  0.1493  1.0822  0.8684
  277MPD2    N1 4245   0.194   2.739  13.126 -0.1897  0.6254  0.2886
  277MPD2    H7 4246   0.214   2.801  13.048  0.4177 -0.3489 -0.3180
  278TMC3    C1 4247   0.344   2.176  13.531 -0.0482 -0.4043  0.3698
  278TMC3    C2 4248   0.351   2.041  13.522  0.1847 -0.3342  0.4324
  278TMC3    C3 4249   0.249   1.971  13.573 -0.1220 -0.7351 -0.0698
  278TMC3    C4 4250   0.246   2.244  13.602 -0.7690 -0.0620  0.1715
  278TMC3    C5 4251   0.152   2.164  13.658  0.4541  0.1901  0.5340
  278TMC3    C6 4252   0.146   2.026  13.639  0.4722  0.4698 -0.4800
  278TMC3     C 4253   0.416   2.249  13.426  0.1697 -0.0973 -0.4804
  278TMC3     O 4254   0.527   2.225  13.388  0.0708  0.6486 -0.0556
  278TMC3     H 4255   0.424   1.999  13.453 -0.5737  2.5738 -2.1651
  278TMC3    H1 4256   0.245   2.352  13.611 -2.1373  0.0691 -1.5299
  278TMC3    H2 4257   0.073   1.967  13.692  0.3721  1.8916  0.9640
  278TMC3    C7 4258   0.088   2.222  13.773 -0.3625 -0.8515 -0.5233
  278TMC3    C8 4259   0.233   1.832  13.544  0.6240  0.0920  0.2153
  278TMC3    O1 4260   0.139   2.326  13.805 -0.2311 -0.2259 -0.1790
  278TMC3    O2 4261   0.337   1.770  13.513 -0.0163 -0.3905 -0.2263
  279MPD2     C 4262   4.015   2.100  17.417  0.4702  0.0529  0.1999
  279MPD2    C1 4263   4.119   2.177  17.465 -0.2136  0.4563 -0.0335
  279MPD2    C2 4264   4.235   2.202  17.387  0.0595  0.5043  0.1771
  279MPD2    C3 4265   4.242   2.153  17.253  0.4841  0.0477 -0.6301
  279MPD2    C4 4266   4.139   2.073  17.207 -0.3318  0.8541 -0.6509
  279MPD2    C5 4267   4.031   2.041  17.296  0.0191  0.4444 -0.1010
  279MPD2     H 4268   4.307   2.279  17.412  1.0818 -0.5448  0.4463
  279MPD2    H1 4269   4.135   2.031  17.107  4.8585  0.4937 -0.6633
  279MPD2    H2 4270   3.928   2.073  17.476  2.1422 -0.9939  2.1756
  279MPD2    H3 4271   3.952   1.975  17.264  0.5483 -0.6324  0.8051
  279MPD2     N 4272   4.341   2.194  17.162  0.0133  0.4487  0.2051
  279MPD2    H5 4273   4.331   2.181  17.062  0.2484  2.9615 -0.1266
  279MPD2    N1 4274   4.105   2.227  17.594  0.4280  0.1372  0.1511
  279MPD2    H7 4275   4.020   2.201  17.643  1.1160 -1.9813  0.2001
  280TMC3    C1 4276   4.107   2.378   0.016  0.7842 -0.1640  0.1323
  280TMC3    C2 4277   4.027   2.296   0.086 -0.3550 -0.0075  0.0601
  280TMC3    C3 4278   3.938   2.363   0.169  0.1661 -0.8361 -0.5196
  280TMC3    C4 4279   4.126   2.512   0.040 -0.2462 -0.2362  0.2446
  280TMC3    C5 4280   4.043   2.571   0.136 -0.0893 -0.3699 -0.4442
  280TMC3    C6 4281   3.934   2.502   0.196  0.2245 -0.6923  0.2005
  280TMC3     C 4282   4.170   2.326  17.655 -0.8329  0.1128  0.2181
  280TMC3     O 4283   4.277   2.385  17.622  0.3709  0.4941 -0.4582
  280TMC3     H 4284   4.048   2.189   0.089  1.8638  0.4192 -0.9182
  280TMC3    H1 4285   4.178   2.577  17.729  0.7650 -0.4088  0.8320
  280TMC3    H2 4286   3.858   2.543   0.262  0.7590  1.5788 -0.5925
  280TMC3    C7 4287   4.030   2.717   0.140 -0.1528  0.3425 -0.3960
  280TMC3    C8 4288   3.829   2.292   0.241 -0.4867  0.0892  0.1292
  280TMC3    O1 4289   4.110   2.779   0.210 -0.3495  0.0600 -0.1174
  280TMC3    O2 4290   3.768   2.350   0.330 -0.3967 -0.2781 -0.5639
  281TMC3    C1 4291   3.109   2.398  13.291 -0.1610  0.2126 -0.5126
  281TMC3    C2 4292   3.143   2.447  13.170  0.1547  0.8962  0.0251
  281TMC3    C3 4293   3.118   2.359  13.060  0.8560  0.0787 -0.8081
  281TMC3    C4 4294   3.071   2.270  13.318 -0.3699 -0.3106 -0.5658
  281TMC3    C5 4295   3.065   2.184  13.212  0.2297  0.2848  0.4400
  281TMC3    C6 4296   3.086   2.229  13.079 -0.2635 -0.2051 -0.0980
  281TMC3     C 4297   3.079   2.487  13.395 -0.2273  0.8713  0.1140
  281TMC3     O 4298   3.076   2.455  13.517 -0.0141  0.6579 -1.2198
  281TMC3     H 4299   3.189   2.543  13.150 -2.3675  2.2127  0.5459
  281TMC3    H1 4300   3.049   2.245  13.421  3.8266  0.3349  0.4660
  281TMC3    H2 4301   3.056   2.166  12.995 -3.1993  0.5595  0.3752
  281TMC3    C7 4302   2.996   2.054  13.222  0.4338 -0.2865  0.1288
  281TMC3    C8 4303   3.083   2.416  12.939  0.0388  0.3248 -0.0762
  281TMC3    O1 4304   2.972   1.991  13.123 -0.3056  0.2983  0.0538
  281TMC3    O2 4305   2.992   2.361  12.876 -0.6323 -0.2369 -0.2636
  282MPD2     C 4306   0.171   3.721  14.762 -0.2065  0.0672 -0.0625
  282MPD2    C1 4307   0.054   3.787  14.806 -0.1909  0.1573 -0.0755
  282MPD2    C2 4308   4.685   3.783  14.718 -0.3050  0.6352  0.1000
  282MPD2    C3 4309   4.685   3.719  14.595 -0.0704  0.0013  0.4039
  282MPD2    C4 4310   0.061   3.652  14.560  0.3507 -0.5198  0.3471
  282MPD2    C5 4311   0.163   3.646  14.649  0.0333  0.5377 -0.3098
  282MPD2     H 4312   4.608   3.854  14.749 -0.3530 -0.0459  1.5582
  282MPD2    H1 4313   0.076   3.593  14.470 -0.3577  1.1472 -0.8603
  282MPD2    H2 4314   0.263   3.712  14.818 -0.5736 -0.2963  0.4925
  282MPD2    H3 4315   0.251   3.588  14.623  0.9996  2.2412 -0.8969
  282MPD2     N 4316   4.581   3.754  14.507 -0.7801  0.8362  0.1782
  282MPD2    H5 4317   4.505   3.807  14.550 -0.3873  0.7344  0.9982
  282MPD2    N1 4318   0.043   3.844  14.929 -0.7835 -0.3106  0.2325
  282MPD2    H7 4319   4.692   3.872  14.962 -0.3974  0.2480  0.8354
  283TMC3    C1 4320   0.110   3.922  15.137  0.5167 -0.2186 -0.2869
  283TMC3    C2 4321   0.187   4.015  15.196 -0.4527 -0.4673  0.1373
  283TMC3    C3 4322   0.169   4.036  15.331 -0.7214 -0.2367 -0.5484
  283TMC3    C4 4323   0.017   3.854  15.206  0.9630  0.5982  0.0682
  283TMC3    C5 4324   0.011   3.879  15.344  0.0923  0.5601  0.3557
  283TMC3    C6 4325   0.085   3.967  15.409 -0.0252 -0.3062 -0.1753
  283TMC3     C 4326   0.146   3.886  15.005 -0.0416  0.5174  0.1381
  283TMC3     O 4327   0.263   3.902  14.969  0.0108 -0.1668 -0.3217
  283TMC3     H 4328   0.279   4.052  15.153 -0.5440 -0.0806  0.2695
  283TMC3    H1 4329   4.700   3.774  15.160 -0.7554  2.4509 -0.9731
  283TMC3    H2 4330   0.078   3.987  15.515 -0.9712  0.5478 -0.4014
  283TMC3    C7 4331   4.669   3.796  15.425  0.5710 -0.0492  0.0437
  283TMC3    C8 4332   0.236   4.138  15.403 -0.0502  0.4686 -0.6668
  283TMC3    O1 4333   4.663   3.820  15.547 -0.0260 -0.4843 -0.1513
  283TMC3    O2 4334   0.277   4.103  15.512 -0.1704  0.0101 -0.0313
  284MPD2     C 4335   3.270   3.074  12.129  0.2371  0.4230  0.5145
  284MPD2    C1 4336   3.202   2.959  12.102 -0.1294  0.4918 -0.5409
  284MPD2    C2 4337   3.267   2.843  12.113 -0.0525  0.2524 -0.2094
  284MPD2    C3 4338   3.403   2.839  12.128 -0.6514 -0.0448  0.4374
  284MPD2    C4 4339   3.470   2.952  12.153  0.3437 -0.8630  0.1080
  284MPD2    C5 4340   3.404   3.069  12.155 -0.0560 -0.1934  0.7222
  284MPD2     H 4341   3.203   2.758  12.094  1.1961 -0.8440  0.5737
  284MPD2    H1 4342   3.576   2.957  12.176  0.7126 -0.6026 -1.6357
  284MPD2    H2 4343   3.223   3.172  12.122 -1.6941 -0.5058  0.3867
  284MPD2    H3 4344   3.458   3.159  12.179 -0.7115  0.9889 -2.2260
  284MPD2     N 4345   3.478   2.727  12.139  0.6408  0.2161  0.0450
  284MPD2    H5 4346   3.574   2.739  12.167  1.0523  0.4000 -1.4227
  284MPD2    N1 4347   3.065   2.951  12.069  0.3764 -0.7024  0.3582
  284MPD2    H7 4348   3.024   2.858  12.059 -1.0205  0.0120 -0.5393
  285TMC3    C1 4349   2.871   3.015  11.979  0.1904 -0.7026  0.1554
  285TMC3    C2 4350   2.875   2.937  11.865 -0.4530  0.1764 -0.2939
  285TMC3    C3 4351   2.756   2.908  11.803  0.4114  0.1009  0.1206
  285TMC3    C4 4352   2.761   3.077  12.021 -0.7629  0.5957 -0.0431
  285TMC3    C5 4353   2.643   3.049  11.952  0.7669 -0.0107  0.0088
  285TMC3    C6 4354   2.636   2.966  11.848 -0.4625 -0.8390 -1.0122
  285TMC3     C 4355   2.992   3.059  12.036 -0.9838  0.3807 -0.1110
  285TMC3     O 4356   3.018   3.181  12.010  0.1824  0.2010 -0.6734
  285TMC3     H 4357   2.968   2.901  11.822  0.4098  2.2686 -0.2022
  285TMC3    H1 4358   2.773   3.158  12.092 -0.8967 -0.3275  1.0425
  285TMC3    H2 4359   2.554   2.945  11.780 -0.6868  0.1350 -1.0352
  285TMC3    C7 4360   2.555   3.169  11.943 -0.0736  0.0447 -0.0973
  285TMC3    C8 4361   2.765   2.858  11.665 -0.2896  0.6470  0.2688
  285TMC3    O1 4362   2.595   3.276  11.988 -0.0274  0.0668 -0.4445
  285TMC3    O2 4363   2.693   2.766  11.635 -0.2965  0.8212 -0.3337
  286MPD2     C 4364   3.270   2.499   1.054 -0.1296 -0.2882  0.1185
  286MPD2    C1 4365   3.201   2.441   0.953  0.2921 -0.6851  0.2048
  286MPD2    C2 4366   3.215   2.302   0.937 -0.0708 -0.2281  0.1120
  286MPD2    C3 4367   3.314   2.230   1.002 -0.0052 -0.3445  0.2603
  286MPD2    C4 4368   3.385   2.297   1.102  0.1236  0.2545 -0.6397
  286MPD2    C5 4369   3.357   2.429   1.131 -0.5616 -0.2577  0.4128
  286MPD2     H 4370   3.155   2.244   0.868 -0.1040  0.0016 -0.0514
  286MPD2    H1 4371   3.456   2.241   1.162 -1.6883 -1.6229 -0.2688
  286MPD2    H2 4372   3.244   2.599   1.086 -0.5590 -1.1928  2.6247
  286MPD2    H3 4373   3.411   2.475   1.213  0.7116 -1.3991  0.2192
  286MPD2     N 4374   3.354   2.098   0.972 -0.3918 -0.0073  0.1100
  286MPD2    H5 4375   3.423   2.055   1.032 -0.1349 -0.6717 -0.6477
  286MPD2    N1 4376   3.113   2.507   0.860  0.1003  0.3923  0.6130
  286MPD2    H7 4377   3.052   2.444   0.807  2.8749 -0.9955 -0.9354
  287TMC3    C1 4378   3.369   1.884   0.889 -1.2684 -0.4254 -0.0467
  287TMC3    C2 4379   3.387   1.817   0.774 -0.4643 -0.7190 -0.1954
  287TMC3    C3 4380   3.490   1.730   0.765  0.1440 -0.3732  0.7528
  287TMC3    C4 4381   3.455   1.866   0.991 -0.0353  0.5234  0.7549
  287TMC3    C5 4382   3.555   1.775   0.982 -0.1063 -0.5539  0.5909
  287TMC3    C6 4383   3.572   1.698   0.873 -0.2131  0.1134 -0.7040
  287TMC3     C 4384   3.295   2.007   0.890  0.5598 -0.1278 -0.7017
  287TMC3     O 4385   3.209   2.025   0.801  0.1996  0.1983 -0.9157
  287TMC3     H 4386   3.333   1.841   0.683  0.9967  1.1012 -0.5894
  287TMC3    H1 4387   3.427   1.897   1.091 -0.8144  0.4024  0.5725
  287TMC3    H2 4388   3.655   1.629   0.867  0.2867  0.5689  0.9000
  287TMC3    C7 4389   3.668   1.814   1.068  0.0070 -0.1683 -0.2202
  287TMC3    C8 4390   3.503   1.650   0.647 -0.0165 -0.3184 -0.7487
  287TMC3    O1 4391   3.659   1.930   1.111  0.2414 -0.4578 -0.5960
  287TMC3    O2 4392   3.402   1.610   0.596 -0.0341  0.2855 -0.2763
  288TMC3    C1 4393   0.770   1.680  14.304  0.0302  0.3992  0.3039
  288TMC3    C2 4394   0.638   1.690  14.354 -0.2008  0.0951 -0.6081
  288TMC3    C3 4395   0.546   1.764  14.288  0.4500 -0.4270  0.3413
  288TMC3    C4 4396   0.811   1.738  14.185  0.3142 -0.6902 -0.3911
  288TMC3    C5 4397   0.713   1.813  14.128 -0.5894 -0.2495  0.1045
  288TMC3    C6 4398   0.585   1.838  14.177 -0.4718 -0.0254  0.1182
  288TMC3     C 4399   0.869   1.632  14.407  0.3554  0.0705 -0.0934
  288TMC3     O 4400   0.835   1.559  14.496 -0.7781  0.0273 -0.4816
  288TMC3     H 4401   0.621   1.653  14.455  1.2489  2.1510  0.3904
  288TMC3    H1 4402   0.910   1.720  14.143  0.7593  0.6282  0.0981
  288TMC3    H2 4403   0.526   1.912  14.124  2.6962  3.3668  1.3480
  288TMC3    C7 4404   0.769   1.887  14.009  0.4143  1.0198 -0.6051
  288TMC3    C8 4405   0.431   1.807  14.360 -0.2039 -0.0868 -0.1646
  288TMC3    O1 4406   0.887   1.917  14.029  0.3618 -0.2476 -0.0989
  288TMC3    O2 4407   0.386   1.917  14.348  0.7596 -0.2356 -0.2653
  289MPD2     C 4408   0.268   0.807  14.376 -0.1096 -0.2198 -0.3578
  289MPD2    C1 4409   0.313   0.873  14.271  0.2368 -0.7137 -0.5179
  289MPD2    C2 4410   0.249   0.854  14.147 -0.0785 -0.1994 -0.5719
  289MPD2    C3 4411   0.147   0.757  14.133 -0.1220  0.0971  0.0767
  289MPD2    C4 4412   0.112   0.682  14.246 -0.3144 -0.2105  0.6871
  289MPD2    C5 4413   0.176   0.701  14.367 -0.7991 -0.5221 -0.4176
  289MPD2     H 4414   0.293   0.900  14.059  1.0263 -0.0683  0.0482
  289MPD2    H1 4415   0.025   0.617  14.245 -1.0187  0.7143  2.1056
  289MPD2    H2 4416   0.303   0.823  14.477 -0.1345 -0.0312 -0.3790
  289MPD2    H3 4417   0.161   0.643  14.458 -0.4860 -1.2252 -0.8186
  289MPD2     N 4418   0.083   0.731  14.006 -0.2945  0.3542  0.0317
  289MPD2    H5 4419   0.011   0.659  14.007  0.2584 -0.1832  2.5980
  289MPD2    N1 4420   0.421   0.957  14.299 -0.4520 -0.2846  0.9518
  289MPD2    H7 4421   0.452   0.959  14.395 -0.8229 -2.7344  1.1043
  290TMC3    C1 4422   4.731   0.784  13.795  0.1301  0.2038  0.4198
  290TMC3    C2 4423   4.694   0.897  13.721 -0.7246 -0.0814  0.1684
  290TMC3    C3 4424   4.573   0.894  13.668  0.2651  0.5171 -0.4490
  290TMC3    C4 4425   4.663   0.667  13.795 -0.3169 -0.3988  0.6780
  290TMC3    C5 4426   4.540   0.668  13.725  0.7128 -0.0373 -0.3072
  290TMC3    C6 4427   4.495   0.783  13.668 -0.9329  0.0364  0.1800
  290TMC3     C 4428   0.094   0.814  13.896  0.1744 -0.8587 -0.5134
  290TMC3     O 4429   0.163   0.913  13.892 -0.1452 -0.2207 -0.3785
  290TMC3     H 4430   0.010   0.989  13.716  0.0355 -0.5483  0.0754
  290TMC3    H1 4431   4.703   0.582  13.849 -0.3301  0.3471  1.8661
  290TMC3    H2 4432   4.394   0.775  13.629 -0.7764  1.2523 -0.4756
  290TMC3    C7 4433   4.457   0.551  13.720  0.1168  0.1614  0.0498
  290TMC3    C8 4434   4.502   1.021  13.633  0.2569 -0.0367  0.6918
  290TMC3    O1 4435   4.343   0.560  13.671  0.0076  0.1866 -0.4245
  290TMC3    O2 4436   4.397   0.997  13.580  0.4558 -0.0746  0.3580
  291MPD2     C 4437   0.393   0.478   0.101  0.4649  1.1440 -0.4387
  291MPD2    C1 4438   0.285   0.411   0.038  0.0484 -1.2148  0.8004
  291MPD2    C2 4439   0.257   0.433  17.666  0.1266 -0.3395  0.5346
  291MPD2    C3 4440   0.310   0.541  17.603 -1.0902  0.5650  0.5449
  291MPD2    C4 4441   0.427   0.600  17.656  0.3361  0.8872 -0.0546
  291MPD2    C5 4442   0.463   0.561   0.024  0.1977  0.5906 -0.0582
  291MPD2     H 4443   0.179   0.373  17.621 -0.4971  1.4502 -0.8122
  291MPD2    H1 4444   0.478   0.685  17.613 -1.2434  0.5336 -2.6462
  291MPD2    H2 4445   0.417   0.459   0.205 -4.8486 -1.3905  0.3270
  291MPD2    H3 4446   0.543   0.624   0.061 -0.2638  2.9508 -3.0749
  291MPD2     N 4447   0.235   0.606  17.502  0.5376 -0.2700 -0.4366
  291MPD2    H5 4448   0.272   0.698  17.482  1.1052 -0.7221 -1.4817
  291MPD2    N1 4449   0.200   0.321   0.100 -0.2000 -0.7759  0.2691
  291MPD2    H7 4450   0.120   0.278   0.053 -0.7993  1.0670 -0.4128
  292TMC3    C1 4451   0.076   0.247   0.283 -0.0554 -0.7761  0.5578
  292TMC3    C2 4452   0.021   0.290   0.402  0.6094 -0.3928  0.9132
  292TMC3    C3 4453   4.648   0.233   0.447  0.0238 -0.2897 -1.2315
  292TMC3    C4 4454   0.016   0.150   0.202  0.6595 -0.9776  0.6950
  292TMC3    C5 4455   4.644   0.095   0.255  0.1718  0.2481  0.5506
  292TMC3    C6 4456   4.581   0.140   0.368  0.1975  0.1250 -0.1401
  292TMC3     C 4457   0.190   0.317   0.235  0.0836  0.2384  0.7312
  292TMC3     O 4458   0.243   0.385   0.322  0.2678 -0.0403  0.1053
  292TMC3     H 4459   0.074   0.359   0.467  1.1849  2.6285 -2.7976
  292TMC3    H1 4460   0.075   0.107   0.121 -0.1276 -1.2867  0.2897
  292TMC3    H2 4461   4.495   0.087   0.407 -1.0696  1.0925 -1.6009
  292TMC3    C7 4462   4.575   0.012   0.163 -0.5951 -0.5184 -0.0927
  292TMC3    C8 4463   4.595   0.272   0.576  0.2190  0.0933  0.7250
  292TMC3    O1 4464   4.646   4.685   0.089 -0.7020 -0.2157  0.6107
  292TMC3    O2 4465   4.680   0.327   0.648  0.6878  0.7884  0.0932
  293MPD2     C 4466   1.645   2.357  12.390 -0.1378  0.3253 -0.4286
  293MPD2    C1 4467   1.561   2.291  12.471  0.4623 -0.3420 -0.5870
  293MPD2    C2 4468   1.593   2.271  12.608  0.3967 -0.0711  0.5428
  293MPD2    C3 4469   1.722   2.317  12.652 -0.1042  0.0546 -0.1444
  293MPD2    C4 4470   1.808   2.372  12.558  0.0977 -0.3082  0.4145
  293MPD2    C5 4471   1.767   2.388  12.431  0.2699  0.3119  0.2347
  293MPD2     H 4472   1.518   2.237  12.679  0.7835 -3.0291 -0.4816
  293MPD2    H1 4473   1.914   2.380  12.581  0.4036 -0.1734 -1.0631
  293MPD2    H2 4474   1.622   2.368  12.285  1.4458  1.7126 -0.6353
  293MPD2    H3 4475   1.832   2.418  12.351 -0.9793  2.0418 -0.1332
  293MPD2     N 4476   1.769   2.310  12.792  0.5671 -0.5542  0.6699
  293MPD2    H5 4477   1.860   2.350  12.812  0.3623 -0.0354  0.5544
  293MPD2    N1 4478   1.435   2.262  12.410  0.2985  0.7098 -0.1946
  293MPD2    H7 4479   1.430   2.278  12.310  1.6283  3.3703  0.1758
  294TMC3    C1 4480   1.228   2.172  12.388  0.5655  0.1960  0.2332
  294TMC3    C2 4481   1.153   2.057  12.418  0.2640  0.4789  0.2195
  294TMC3    C3 4482   1.061   2.016  12.328  0.6597  0.6101  0.5513
  294TMC3    C4 4483   1.203   2.254  12.285 -0.3081 -0.4465  0.2443
  294TMC3    C5 4484   1.118   2.199  12.193 -0.2191 -0.2302  0.2753
  294TMC3    C6 4485   1.039   2.084  12.212 -0.6233  0.9627  0.6527
  294TMC3     C 4486   1.335   2.195  12.478  0.5550 -0.4879  0.4520
  294TMC3     O 4487   1.333   2.148  12.591 -0.3364  0.6482  0.3444
  294TMC3     H 4488   1.174   2.004  12.510  1.3098 -1.2451 -1.0111
  294TMC3    H1 4489   1.235   2.358  12.279 -1.2117 -0.2018 -0.2319
  294TMC3    H2 4490   0.967   2.064  12.133 -0.6691  0.0870  0.9071
  294TMC3    C7 4491   1.079   2.284  12.074  0.0048  0.7829  0.4100
  294TMC3    C8 4492   0.973   1.903  12.363  0.5219  0.0807  0.1898
  294TMC3    O1 4493   1.095   2.406  12.084  0.3349  0.3533  0.3972
  294TMC3    O2 4494   0.961   1.872  12.478 -1.0709  0.0644  0.1357
  295MPD2     C 4495   1.155   1.005  17.713 -0.3627  0.4476  0.0642
  295MPD2    C1 4496   1.255   1.060   0.027  0.5224  0.6532  0.2450
  295MPD2    C2 4497   1.254   1.048   0.167 -0.1536 -0.9565  0.1952
  295MPD2    C3 4498   1.148   0.982   0.227  0.3268 -0.0026 -0.0883
  295MPD2    C4 4499   1.054   0.909   0.153 -0.0756  0.1229 -0.1589
  295MPD2    C5 4500   1.064   0.923   0.015  0.0320  0.6283  0.5647
  295MPD2     H 4501   1.319   1.110   0.228 -2.6594  0.7970  1.0631
  295MPD2    H1 4502   0.974   0.852   0.198 -1.2221  2.7169  1.0552
  295MPD2    H2 4503   1.152   1.017  17.605  0.1643  1.8147  0.2153
  295MPD2    H3 4504   0.983   0.881  17.714  0.1531  1.0402  0.1148
  295MPD2     N 4505   1.120   0.995   0.358  0.2202 -0.4000  0.2306
  295MPD2    H5 4506   1.039   0.946   0.393 -1.5509  1.6186 -1.1048
  295MPD2    N1 4507   1.358   1.142  17.729  0.0623 -0.6748 -0.6664
  295MPD2    H7 4508   1.408   1.200   0.037 -0.0247 -0.1036 -1.0961
  296TMC3    C1 4509   1.136   1.034   0.580 -0.0994  0.3296  0.4009
  296TMC3    C2 4510   1.105   1.135   0.676  0.5276  0.5500  0.3489
  296TMC3    C3 4511   1.143   1.112   0.805 -0.1938 -0.6433 -0.1563
  296TMC3    C4 4512   1.192   0.917   0.613 -0.5742  0.4118 -0.2736
  296TMC3    C5 4513   1.218   0.897   0.747  0.1787 -0.0471 -0.0143
  296TMC3    C6 4514   1.182   0.992   0.849 -0.0673 -0.3244  0.3247
  296TMC3     C 4515   1.175   1.079   0.448 -0.0025  0.0493  0.3133
  296TMC3     O 4516   1.262   1.163   0.443 -0.2361 -0.0053  0.0798
  296TMC3     H 4517   1.065   1.233   0.651 -0.3624  0.2021  0.4188
  296TMC3    H1 4518   1.207   0.834   0.545 -1.3887 -1.0303  1.2995
  296TMC3    H2 4519   1.216   0.981   0.951 -3.0865 -1.9924  1.1321
  296TMC3    C7 4520   1.316   0.793   0.789  0.0125  0.5912  0.8487
  296TMC3    C8 4521   1.103   1.202   0.917 -0.1361 -0.0095  0.3231
  296TMC3    O1 4522   1.390   0.759   0.701 -0.6523 -0.0795  0.4083
  296TMC3    O2 4523   1.113   1.167   1.036  0.1772  0.2848  0.6684
  297MPD2     C 4524   3.928   2.628  16.066  0.8792 -0.0873 -1.2708
  297MPD2    C1 4525   3.890   2.726  15.978  0.2645 -0.3195 -0.3823
  297MPD2    C2 4526   3.981   2.831  15.951 -0.1942  0.3022 -0.0294
  297MPD2    C3 4527   4.106   2.829  16.013 -0.8264 -0.3037 -0.2207
  297MPD2    C4 4528   4.140   2.728  16.092  0.2860 -0.2425  0.0350
  297MPD2    C5 4529   4.055   2.628  16.116  0.6659 -0.0937 -0.3898
  297MPD2     H 4530   3.948   2.909  15.884 -0.5390  0.1040 -0.0894
  297MPD2    H1 4531   4.237   2.720  16.139  0.5271  0.4889 -0.3401
  297MPD2    H2 4532   3.855   2.551  16.090  0.5349  0.4507 -0.6029
  297MPD2    H3 4533   4.090   2.558  16.191  0.8026  1.3168  0.8850
  297MPD2     N 4534   4.204   2.931  15.980  0.4142  0.0982  0.1800
  297MPD2    H5 4535   4.190   2.988  15.898 -1.8333 -2.6118 -1.3489
  297MPD2    N1 4536   3.763   2.731  15.921 -0.2192 -0.0595 -0.1050
  297MPD2    H7 4537   3.747   2.805  15.854  0.7177 -0.2782 -0.5562
  298TMC3    C1 4538   3.551   2.718  15.855 -0.7211 -0.0378 -0.3108
  298TMC3    C2 4539   3.491   2.655  15.751  1.0296  0.1114  0.4603
  298TMC3    C3 4540   3.401   2.712  15.674 -0.2828  0.0627  0.0522
  298TMC3    C4 4541   3.527   2.854  15.875  0.0952 -0.6073  0.0832
  298TMC3    C5 4542   3.426   2.917  15.797  0.0024  0.6379  0.0410
  298TMC3    C6 4543   3.356   2.842  15.702  0.2567 -0.2989 -1.0170
  298TMC3     C 4544   3.658   2.648  15.919 -0.0527 -0.5160 -0.2213
  298TMC3     O 4545   3.652   2.529  15.944  0.1418  0.2611 -0.1126
  298TMC3     H 4546   3.518   2.553  15.727 -0.8640 -0.0597 -0.9513
  298TMC3    H1 4547   3.581   2.912  15.949  1.3080 -0.0797 -1.2028
  298TMC3    H2 4548   3.263   2.876  15.659 -0.3812  1.1189  1.4776
  298TMC3    C7 4549   3.367   3.037  15.863  0.0461  0.9364 -0.2900
  298TMC3    C8 4550   3.342   2.635  15.568 -0.5185 -0.2553  0.4944
  298TMC3    O1 4551   3.413   3.083  15.969  0.4502  0.4541 -0.1723
  298TMC3    O2 4552   3.350   2.511  15.581 -0.2822  0.5257 -0.0146
  299MPD2     C 4553   3.879   3.039  10.670  0.2289  1.1052  0.1957
  299MPD2    C1 4554   3.911   2.905  10.702  0.1964  0.3704 -0.0328
  299MPD2    C2 4555   3.813   2.808  10.683 -0.1446 -0.6105 -0.1541
  299MPD2    C3 4556   3.700   2.841  10.614 -0.4564 -0.4451  0.4331
  299MPD2    C4 4557   3.676   2.973  10.572  0.7219  0.3023 -0.3372
  299MPD2    C5 4558   3.769   3.070  10.597  0.3213  0.0096 -0.1924
  299MPD2     H 4559   3.837   2.704  10.702  0.3653 -0.2077  1.4186
  299MPD2    H1 4560   3.582   2.991  10.521  0.2332  0.1681  0.5146
  299MPD2    H2 4561   3.929   3.121  10.721 -1.5324  2.6538 -0.5240
  299MPD2    H3 4562   3.739   3.172  10.575 -2.4327 -0.7960 -0.2321
  299MPD2     N 4563   3.617   2.747  10.562  0.2190 -0.4894 -0.0532
  299MPD2    H5 4564   3.556   2.790  10.493 -0.1329 -0.1226  0.4916
  299MPD2    N1 4565   4.039   2.878  10.757 -0.2175 -0.9854 -0.6110
  299MPD2    H7 4566   4.096   2.962  10.765 -0.7434 -0.5430 -1.4167
  300TMC3    C1 4567   3.597   2.546  10.455  0.1099  0.1150 -0.6157
  300TMC3    C2 4568   3.682   2.586  10.355  0.9658 -0.0183  0.2741
  300TMC3    C3 4569   3.633   2.596  10.226  0.3461  0.4579  0.1806
  300TMC3    C4 4570   3.464   2.532  10.429  1.0515  0.8328  0.0281
  300TMC3    C5 4571   3.425   2.518  10.303 -0.1674 -0.0193 -0.3383
  300TMC3    C6 4572   3.508   2.547  10.197  0.1503  0.8728 -0.0692
  300TMC3     C 4573   3.633   2.611  10.576 -0.4350  0.3413  0.3218
  300TMC3     O 4574   3.716   2.544  10.636 -0.2495 -0.2360 -0.1430
  300TMC3     H 4575   3.781   2.623  10.379  0.8828 -0.0418  0.6546
  300TMC3    H1 4576   3.397   2.522  10.514  0.4716 -0.7203 -0.5968
  300TMC3    H2 4577   3.480   2.536  10.093  0.6923 -1.8032  0.0753
  300TMC3    C7 4578   3.286   2.471  10.271 -0.1205  1.2468  0.1600
  300TMC3    C8 4579   3.696   2.697  10.148  0.0004 -0.0416  0.1755
  300TMC3    O1 4580   3.266   2.442  10.155  0.2447 -0.1666  0.0397
  300TMC3    O2 4581   3.786   2.761  10.201 -0.5449  0.1624 -0.2960
  301MPD2     C 4582   1.992   4.221   1.249 -0.4025 -0.1769  0.0927
  301MPD2    C1 4583   1.872   4.192   1.198  0.0005 -0.1987 -0.3569
  301MPD2    C2 4584   1.856   4.118   1.083  1.1888  0.2177 -0.5301
  301MPD2    C3 4585   1.972   4.069   1.019 -0.2603 -0.2698 -0.7144
  301MPD2    C4 4586   2.092   4.104   1.066 -0.7865 -0.3287 -0.2468
  301MPD2    C5 4587   2.106   4.180   1.179  0.1147  0.6129  0.1397
  301MPD2     H 4588   1.759   4.123   1.035  1.0304  1.1214 -0.1059
  301MPD2    H1 4589   2.186   4.074   1.021 -1.4397 -0.3242 -1.6171
  301MPD2    H2 4590   1.996   4.273   1.344 -1.7983 -2.5377  1.4505
  301MPD2    H3 4591   2.203   4.206   1.219  1.2159 -2.3131 -0.6229
  301MPD2     N 4592   1.963   3.981   0.906 -0.1467  0.7489  0.3037
  301MPD2    H5 4593   2.049   3.964   0.854 -0.6143  2.7961 -1.1364
  301MPD2    N1 4594   1.759   4.245   1.253 -0.2715 -0.2002 -0.1515
  301MPD2    H7 4595   1.670   4.212   1.217  0.1494  0.6521 -1.9338
  302TMC3    C1 4596   1.861   3.875   0.721 -0.1990  0.0577  0.6476
  302TMC3    C2 4597   1.973   3.793   0.693 -0.4713 -0.1747  0.8915
  302TMC3    C3 4598   1.959   3.697   0.589 -0.4661  0.2476  1.1915
  302TMC3    C4 4599   1.744   3.858   0.649 -0.1943 -0.6927  0.0972
  302TMC3    C5 4600   1.741   3.752   0.561 -0.7518 -0.2385 -0.7957
  302TMC3    C6 4601   1.843   3.673   0.529 -0.2465  1.2883  0.1390
  302TMC3     C 4602   1.849   3.931   0.852  0.8659 -0.4649  0.5280
  302TMC3     O 4603   1.734   3.956   0.888 -0.1416  0.0800  0.1813
  302TMC3     H 4604   2.061   3.786   0.757 -0.2440 -2.1468  0.3466
  302TMC3    H1 4605   1.659   3.922   0.672  0.1596 -0.4261  0.6474
  302TMC3    H2 4606   1.838   3.589   0.461 -1.8882 -0.1395  2.0121
  302TMC3    C7 4607   1.616   3.726   0.495 -0.5007  0.1988  0.0274
  302TMC3    C8 4608   2.054   3.588   0.597 -0.4453 -0.7607 -0.5518
  302TMC3    O1 4609   1.631   3.694   0.378  0.3021  0.2765  0.6025
  302TMC3    O2 4610   2.018   3.476   0.565 -0.3696  0.3667  0.1870
  303MPD2     C 4611   1.510   2.511  10.442 -0.4871 -0.0442  0.4509
  303MPD2    C1 4612   1.384   2.458  10.448  0.4281 -0.6393  0.7377
  303MPD2    C2 4613   1.326   2.409  10.333 -0.5080 -0.5397  0.0805
  303MPD2    C3 4614   1.398   2.401  10.212  0.6623 -0.1372  0.0515
  303MPD2    C4 4615   1.532   2.433  10.216  0.3480 -1.0943 -1.1469
  303MPD2    C5 4616   1.579   2.501  10.324 -0.0017  0.2047  0.6086
  303MPD2     H 4617   1.222   2.378  10.331  0.1493 -2.8168  1.1783
  303MPD2    H1 4618   1.594   2.421  10.128  0.6092  1.9281 -1.3740
  303MPD2    H2 4619   1.559   2.558  10.526  2.9893 -0.1720 -1.5113
  303MPD2    H3 4620   1.675   2.550  10.311 -0.2347  0.4371 -0.2555
  303MPD2     N 4621   1.352   2.340  10.097 -0.4043  0.5044 -0.3378
  303MPD2    H5 4622   1.398   2.356  10.008  1.4800 -1.5595  0.2428
  303MPD2    N1 4623   1.309   2.473  10.569  0.6180  0.4471  0.6854
  303MPD2    H7 4624   1.345   2.530  10.644  1.3387  1.1198 -0.1859
  304TMC3    C1 4625   1.136   2.447  10.724 -0.4012  0.1219 -0.7466
  304TMC3    C2 4626   1.009   2.503  10.724 -0.0974 -1.2946 -0.2670
  304TMC3    C3 4627   0.921   2.456  10.813 -0.3588  0.6600 -0.2437
  304TMC3    C4 4628   1.189   2.360  10.820  0.6138 -0.7154  0.8150
  304TMC3    C5 4629   1.096   2.314  10.906 -0.0623 -0.6899  0.0934
  304TMC3    C6 4630   0.968   2.363  10.901  0.2228 -0.1930 -0.1754
  304TMC3     C 4631   1.184   2.418  10.588  0.4128  0.5112 -0.2346
  304TMC3     O 4632   1.108   2.358  10.515  0.4652 -0.0317 -0.3438
  304TMC3     H 4633   0.987   2.565  10.638 -0.4701 -0.5189  0.3938
  304TMC3    H1 4634   1.278   2.306  10.790 -0.7382 -0.9691 -2.7490
  304TMC3    H2 4635   0.912   2.355  10.993 -0.0754  0.7151 -0.2816
  304TMC3    C7 4636   1.076   2.171  10.913  0.1772  0.1463 -0.2222
  304TMC3    C8 4637   0.802   2.410  10.754  0.2823 -0.0428 -0.3073
  304TMC3    O1 4638   0.955   2.138  10.914 -0.2814  0.2200  0.0081
  304TMC3    O2 4639   0.751   2.478  10.663  0.0140  0.0190  0.0968
  305MPD2     C 4640   0.270   4.112  13.902 -0.0991 -0.4830  0.0380
  305MPD2    C1 4641   0.277   3.974  13.908  0.1524  0.3584  0.0431
  305MPD2    C2 4642   0.269   3.893  13.796  0.2522  0.4857  0.4488
  305MPD2    C3 4643   0.271   3.960  13.671 -0.4342 -0.0068  0.4029
  305MPD2    C4 4644   0.271   4.096  13.666  0.1115  0.7654  0.2819
  305MPD2    C5 4645   0.270   4.169  13.776 -0.4126  0.1478 -0.5560
  305MPD2     H 4646   0.249   3.787  13.805 -1.1443  0.7788  0.7841
  305MPD2    H1 4647   0.262   4.152  13.573 -1.1319 -1.6323 -1.0420
  305MPD2    H2 4648   0.276   4.168  13.995 -1.0448 -1.0940  0.4697
  305MPD2    H3 4649   0.266   4.278  13.777  1.4054  0.1499  2.7242
  305MPD2     N 4650   0.260   3.889  13.547 -0.4439 -0.3312 -0.1733
  305MPD2    H5 4651   0.260   3.943  13.461  1.8153 -0.9932 -0.5721
  305MPD2    N1 4652   0.284   3.926  14.040 -0.2494 -0.2920  0.0868
  305MPD2    H7 4653   0.274   3.995  14.114  0.7620  2.0104 -1.9010
  306TMC3    C1 4654   0.355   3.816  14.223 -0.2177  0.3658  0.3643
  306TMC3    C2 4655   0.455   3.745  14.263  0.5589 -0.5437 -0.6553
  306TMC3    C3 4656   0.497   3.760  14.390  0.9235  0.6012  0.6768
  306TMC3    C4 4657   0.282   3.897  14.312  0.0803 -0.4749  0.2571
  306TMC3    C5 4658   0.320   3.903  14.442 -0.2563  0.6346 -0.0287
  306TMC3    C6 4659   0.433   3.832  14.486 -0.7049  0.3007  0.5250
  306TMC3     C 4660   0.320   3.798  14.081  0.5708 -0.0108  0.0422
  306TMC3     O 4661   0.348   3.699  14.011 -0.5420 -0.4513  0.3273
  306TMC3     H 4662   0.505   3.682  14.191 -1.1491 -1.6838 -0.8374
  306TMC3    H1 4663   0.193   3.951  14.284  0.3940 -0.7096 -1.1915
  306TMC3    H2 4664   0.458   3.845  14.590  1.1756  1.5409 -0.0838
  306TMC3    C7 4665   0.255   4.002  14.531 -0.6923  0.9061 -0.2575
  306TMC3    C8 4666   0.590   3.661  14.434  0.5178  0.1983 -0.1494
  306TMC3    O1 4667   0.140   4.034  14.498 -0.5066  0.1748 -0.2537
  306TMC3    O2 4668   0.629   3.579  14.352  0.0531 -0.9671  0.3045
  307MPD2     C 4669   3.122   3.260  17.188  0.7479 -0.3779 -0.2516
  307MPD2    C1 4670   3.169   3.372  17.258  0.1165  0.3827  0.4845
  307MPD2    C2 4671   3.137   3.378  17.399  0.3039 -0.0382  0.1983
  307MPD2    C3 4672   3.060   3.280  17.463 -0.0799  0.2486  0.6992
  307MPD2    C4 4673   3.014   3.174  17.387 -0.1445 -0.0941  0.0421
  307MPD2    C5 4674   3.049   3.163  17.256 -0.4233  0.4132  0.7904
  307MPD2     H 4675   3.177   3.467  17.447  0.3283 -0.8743  1.7406
  307MPD2    H1 4676   2.962   3.089  17.429 -2.8827  2.8775  2.7264
  307MPD2    H2 4677   3.148   3.244  17.084 -1.7394  0.2599 -0.9780
  307MPD2    H3 4678   3.010   3.080  17.199 -0.6859  0.6388  0.6421
  307MPD2     N 4679   3.022   3.302  17.596 -0.0539  0.1010  0.5714
  307MPD2    H5 4680   3.062   3.387  17.635  0.4129 -0.5923  1.6072
  307MPD2    N1 4681   3.252   3.471  17.204 -0.5057  0.5909  0.3915
  307MPD2    H7 4682   3.261   3.555  17.261  1.8863  0.5787  0.0422
  308TMC3    C1 4683   2.801   3.200   0.250 -0.0078 -0.0148  0.0015
  308TMC3    C2 4684   2.908   3.230   0.320 -0.8390 -0.2923 -0.1737
  308TMC3    C3 4685   3.009   3.301   0.259  0.7663  0.2382  0.8794
  308TMC3    C4 4686   2.796   3.209   0.112 -0.2187 -0.7697  0.7553
  308TMC3    C5 4687   2.907   3.262   0.048  0.6039 -0.2232  0.2114
  308TMC3    C6 4688   3.018   3.311   0.118  0.4258 -0.1523  0.5971
  308TMC3     C 4689   2.699   3.127   0.328 -0.4649 -0.2817 -0.3242
  308TMC3     O 4690   2.740   3.079   0.430 -0.0353 -1.1507 -0.1047
  308TMC3     H 4691   2.901   3.218   0.428  1.4250  3.5896  0.3969
  308TMC3    H1 4692   2.711   3.168   0.058  0.3260 -0.0799 -0.6154
  308TMC3    H2 4693   3.103   3.347   0.063  0.0928  0.1940  0.3174
  308TMC3    C7 4694   2.911   3.244  17.659  0.0326 -0.1760 -0.3561
  308TMC3    C8 4695   3.053   3.407   0.342  0.4124  0.0879 -0.4762
  308TMC3    O1 4696   2.820   3.181  17.612  0.4410 -0.2589 -0.1731
  308TMC3    O2 4697   3.058   3.394   0.465  0.4305 -0.6774 -0.0950
  309MPD2     C 4698   1.938   2.903  17.223  0.3699 -0.5539  0.3205
  309MPD2    C1 4699   1.856   2.926  17.116 -0.3674  0.6358  0.2599
  309MPD2    C2 4700   1.724   2.938  17.147 -0.9769  0.1033  0.1628
  309MPD2    C3 4701   1.666   2.940  17.275 -0.0837 -0.5337 -0.6193
  309MPD2    C4 4702   1.751   2.931  17.380 -0.9815  0.8290 -0.4968
  309MPD2    C5 4703   1.883   2.921  17.346  0.0162  0.0814 -0.6781
  309MPD2     H 4704   1.660   2.953  17.061 -1.4410 -0.4283  0.4138
  309MPD2    H1 4705   1.716   2.930  17.483 -0.6476  0.4066 -0.3875
  309MPD2    H2 4706   2.045   2.888  17.213  0.2316 -0.7169 -0.9258
  309MPD2    H3 4707   1.947   2.918  17.433 -0.0333  1.0155 -0.6081
  309MPD2     N 4708   1.527   2.934  17.298 -0.4071  0.5718 -0.0712
  309MPD2    H5 4709   1.503   2.912  17.394 -2.8390 -0.2085 -0.8725
  309MPD2    N1 4710   1.886   2.925  16.979 -0.0054  0.0370 -0.3031
  309MPD2    H7 4711   1.813   2.932  16.909 -0.2298 -1.3101 -0.2116
  310TMC3    C1 4712   2.017   2.888  16.784 -0.0690  0.5049 -0.5699
  310TMC3    C2 4713   1.921   2.950  16.701 -0.2503 -0.3077  0.4670
  310TMC3    C3 4714   1.954   2.958  16.569  0.1359 -0.0377 -0.0290
  310TMC3    C4 4715   2.140   2.854  16.732  1.2846  0.0274 -0.0398
  310TMC3    C5 4716   2.160   2.864  16.599  0.0747  0.1169  1.1817
  310TMC3    C6 4717   2.070   2.909  16.515 -0.1127  0.5777 -0.1480
  310TMC3     C 4718   2.011   2.899  16.930 -0.4329 -0.2557  0.3583
  310TMC3     O 4719   2.115   2.867  16.991  0.1566 -0.1148  0.4304
  310TMC3     H 4720   1.825   2.981  16.742 -1.0735 -0.2315 -1.5471
  310TMC3    H1 4721   2.226   2.816  16.786  0.0559 -1.1687  1.0874
  310TMC3    H2 4722   2.070   2.905  16.407  1.4901  0.5857 -0.1383
  310TMC3    C7 4723   2.290   2.821  16.554 -0.6899  0.6748  0.5166
  310TMC3    C8 4724   1.850   3.006  16.479 -0.3771 -0.0937  0.2075
  310TMC3    O1 4725   2.348   2.736  16.620  0.2370  0.2257 -0.2852
  310TMC3    O2 4726   1.894   3.049  16.376  0.4193 -0.2345 -0.2309
  311MPD2     C 4727   3.909   3.559  12.792 -0.2312 -0.5645 -0.9859
  311MPD2    C1 4728   3.886   3.689  12.748 -0.5210 -0.3009  0.2807
  311MPD2    C2 4729   3.756   3.727  12.723 -0.3564 -0.0863  0.1899
  311MPD2    C3 4730   3.657   3.631  12.734 -0.2051 -0.7712 -0.1949
  311MPD2    C4 4731   3.684   3.503  12.774 -0.5077  0.2078  0.4756
  311MPD2    C5 4732   3.811   3.472  12.799  0.3387  0.7256 -0.2994
  311MPD2     H 4733   3.743   3.831  12.696 -1.7722  0.1288  1.6725
  311MPD2    H1 4734   3.611   3.425  12.789 -0.4162 -0.4134 -2.3455
  311MPD2    H2 4735   4.002   3.518  12.829 -1.1103 -2.5783 -0.9922
  311MPD2    H3 4736   3.838   3.372  12.830 -0.4832  0.8938  0.9374
  311MPD2     N 4737   3.526   3.679  12.718 -0.0067 -0.0107 -0.4206
  311MPD2    H5 4738   3.522   3.780  12.707 -3.9207 -0.0396  0.6350
  311MPD2    N1 4739   3.986   3.782  12.742 -0.3987  0.3831 -0.3245
  311MPD2    H7 4740   3.956   3.876  12.718  1.0621  0.9507  0.0929
  312TMC3    C1 4741   3.296   3.682  12.724 -0.1313 -0.4382 -0.2070
  312TMC3    C2 4742   3.175   3.615  12.713 -0.6786 -0.3634 -0.3644
  312TMC3    C3 4743   3.065   3.681  12.755  0.0363 -0.7339  0.4055
  312TMC3    C4 4744   3.303   3.805  12.780 -0.2691 -0.1573  0.2143
  312TMC3    C5 4745   3.189   3.861  12.822  1.3303 -0.0165  0.6298
  312TMC3    C6 4746   3.066   3.806  12.802 -0.1407 -0.1238 -0.6656
  312TMC3     C 4747   3.412   3.603  12.710  0.2974  0.4778  0.2006
  312TMC3     O 4748   3.400   3.487  12.688 -0.1075  0.3721 -0.6000
  312TMC3     H 4749   3.160   3.517  12.669  0.4082 -0.8779  0.3835
  312TMC3    H1 4750   3.394   3.856  12.808 -0.5733  1.3636 -1.5909
  312TMC3    H2 4751   2.971   3.850  12.830  1.4437  1.6787  1.8492
  312TMC3    C7 4752   3.191   3.998  12.868 -0.5590 -0.6438  0.8933
  312TMC3    C8 4753   2.942   3.638  12.683  0.1040  0.0207 -0.1495
  312TMC3    O1 4754   3.088   4.063  12.851  0.4984  0.0380  0.2383
  312TMC3    O2 4755   2.918   3.518  12.682 -0.4942 -0.5108  0.4226
  313MPD2     C 4756   2.419   2.954  11.511  0.1749  0.0902 -0.2491
  313MPD2    C1 4757   2.436   2.993  11.379  0.6214 -0.7740 -0.3518
  313MPD2    C2 4758   2.402   2.904  11.276 -0.0326 -0.6474  0.7375
  313MPD2    C3 4759   2.340   2.784  11.304  0.2377 -0.0399  0.4289
  313MPD2    C4 4760   2.328   2.748  11.437  0.2636 -0.2675  0.2385
  313MPD2    C5 4761   2.364   2.831  11.540 -0.2778  0.4802 -0.4888
  313MPD2     H 4762   2.408   2.931  11.172  0.1934  1.2845  1.2521
  313MPD2    H1 4763   2.289   2.653  11.472 -1.1083  0.1440 -0.1649
  313MPD2    H2 4764   2.443   3.018  11.595 -0.1999 -1.7066  1.2297
  313MPD2    H3 4765   2.371   2.796  11.643 -1.7837  0.2409 -0.4721
  313MPD2     N 4766   2.300   2.715  11.195 -0.5561 -0.0547  0.6772
  313MPD2    H5 4767   2.330   2.754  11.106  0.6341  3.3916  2.5935
  313MPD2    N1 4768   2.495   3.114  11.340  0.2147 -0.1255  0.0193
  313MPD2    H7 4769   2.495   3.140  11.242  2.2460 -0.4378 -0.0648
  314TMC3    C1 4770   2.584   3.327  11.351 -0.1943  0.6088 -0.5226
  314TMC3    C2 4771   2.703   3.385  11.379 -0.2915  0.2077  0.1492
  314TMC3    C3 4772   2.722   3.496  11.294  0.5323 -0.3701  0.5688
  314TMC3    C4 4773   2.498   3.359  11.245  0.0386  0.8044 -0.1400
  314TMC3    C5 4774   2.539   3.457  11.163 -0.2550 -0.0707 -0.0253
  314TMC3    C6 4775   2.650   3.522  11.181 -0.6613  1.3036 -0.0749
  314TMC3     C 4776   2.554   3.205  11.423 -0.5445  0.1276  0.5576
  314TMC3     O 4777   2.597   3.201  11.537 -0.4056 -0.0926  0.4912
  314TMC3     H 4778   2.757   3.357  11.469  0.2109  0.3598 -0.1069
  314TMC3    H1 4779   2.402   3.313  11.225 -0.2657  2.3371 -2.2067
  314TMC3    H2 4780   2.679   3.612  11.128  1.3399  0.3350 -0.6380
  314TMC3    C7 4781   2.466   3.482  11.040  0.2246 -0.5227 -0.2074
  314TMC3    C8 4782   2.830   3.589  11.327 -0.2679 -0.1954 -0.2985
  314TMC3    O1 4783   2.344   3.476  11.048 -0.0755 -0.4124 -0.0163
  314TMC3    O2 4784   2.833   3.697  11.272  0.3945  0.0941  0.2442
  315MPD2     C 4785   3.102   2.588  17.418 -0.1546  0.4363  0.1542
  315MPD2    C1 4786   3.169   2.661  17.512  1.0422 -0.3235  0.1045
  315MPD2    C2 4787   3.224   2.776  17.476  0.4362  0.3631  0.0063
  315MPD2    C3 4788   3.223   2.824  17.347  1.4496 -0.0593  0.2545
  315MPD2    C4 4789   3.161   2.751  17.248 -0.1700 -0.1792 -0.4699
  315MPD2    C5 4790   3.099   2.634  17.292 -0.1842  0.5220  1.7197
  315MPD2     H 4791   3.265   2.839  17.554  2.6599 -1.0378 -0.0036
  315MPD2    H1 4792   3.162   2.783  17.144 -1.3995  2.2421  0.2643
  315MPD2    H2 4793   3.066   2.487  17.432  0.5350  0.7008  3.6312
  315MPD2    H3 4794   3.037   2.575  17.225  2.2067  1.0503 -0.9542
  315MPD2     N 4795   3.303   2.936  17.319 -0.4066  1.0762 -0.0881
  315MPD2    H5 4796   3.344   2.993  17.392  0.0627 -1.7990  1.8822
  315MPD2    N1 4797   3.192   2.622  17.644 -0.2337  0.2961 -0.2258
  315MPD2    H7 4798   3.257   2.679  17.697 -0.8108  2.2041 -1.5990
  316TMC3    C1 4799   3.434   3.079  17.193  0.5429  0.2581 -0.5841
  316TMC3    C2 4800   3.529   3.070  17.295 -0.1394 -0.7246 -0.2224
  316TMC3    C3 4801   3.653   3.130  17.274 -0.6088 -0.5392  0.1816
  316TMC3    C4 4802   3.457   3.150  17.079  0.0113  0.1252  0.3488
  316TMC3    C5 4803   3.579   3.206  17.063  0.4291  0.5538 -0.2131
  316TMC3    C6 4804   3.675   3.205  17.161  0.0989 -0.1345  0.2648
  316TMC3     C 4805   3.325   2.989  17.191 -0.2679  0.0552  0.4298
  316TMC3     O 4806   3.259   2.986  17.086  0.3212 -0.5333  0.0346
  316TMC3     H 4807   3.507   3.027  17.392  0.1761  0.5060  0.3956
  316TMC3    H1 4808   3.385   3.153  16.997 -0.3269  1.2725  0.6883
  316TMC3    H2 4809   3.775   3.241  17.138 -0.0049  0.5761  0.9121
  316TMC3    C7 4810   3.625   3.238  16.925 -0.2317  0.0057  0.0979
  316TMC3    C8 4811   3.758   3.125  17.374 -0.2801 -0.0357  0.5316
  316TMC3    O1 4812   3.741   3.225  16.903 -0.4944 -0.5740 -0.2277
  316TMC3    O2 4813   3.865   3.182  17.349 -0.7582 -0.1762 -0.0631
  317MPD2     C 4814   4.706   0.972  12.728 -0.9318 -0.4722 -0.8150
  317MPD2    C1 4815   0.038   0.858  12.700  0.0740  0.3816  0.0338
  317MPD2    C2 4816   0.141   0.821  12.784  0.6735  0.4853 -0.3725
  317MPD2    C3 4817   0.160   0.890  12.905 -0.5485  0.1075 -0.0446
  317MPD2    C4 4818   0.072   0.990  12.945  0.4057  0.5888  0.6259
  317MPD2    C5 4819   4.718   1.035  12.849 -0.0537 -0.2765  0.1346
  317MPD2     H 4820   0.201   0.734  12.758 -1.2948 -1.3924  1.4412
  317MPD2    H1 4821   0.074   1.026  13.047  0.0475 -0.9496  1.1793
  317MPD2    H2 4822   4.644   1.012  12.649 -1.1195  1.3978  0.2941
  317MPD2    H3 4823   4.657   1.123  12.867 -1.2435 -0.7803 -1.5410
  317MPD2     N 4824   0.251   0.827  12.992 -0.4233  0.4603  0.7288
  317MPD2    H5 4825   0.301   0.746  12.956 -0.3973  0.7520  0.1113
  317MPD2    N1 4826   0.025   0.776  12.585  0.0425 -0.3408 -0.4340
  317MPD2    H7 4827   0.102   0.712  12.566 -1.1869 -1.5215 -1.4336
  318TMC3    C1 4828   0.375   0.759  13.161  0.2527 -1.0233  0.1413
  318TMC3    C2 4829   0.307   0.642  13.173 -0.0958 -0.4232 -0.4048
  318TMC3    C3 4830   0.383   0.541  13.221  0.8090  0.6801  0.6116
  318TMC3    C4 4831   0.503   0.793  13.193 -0.4638 -0.8737 -0.1421
  318TMC3    C5 4832   0.572   0.689  13.243 -0.4213 -0.0603 -0.5027
  318TMC3    C6 4833   0.518   0.564  13.249  0.3754  0.5354  0.1786
  318TMC3     C 4834   0.290   0.862  13.114  0.1048 -0.4032 -0.3540
  318TMC3     O 4835   0.298   0.978  13.160  0.8759 -0.0254  0.1288
  318TMC3     H 4836   0.200   0.636  13.154 -0.3495 -1.0441  1.1985
  318TMC3    H1 4837   0.545   0.893  13.188 -2.0361 -0.1844  0.4609
  318TMC3    H2 4838   0.578   0.479  13.282 -2.2891 -1.1146  0.7760
  318TMC3    C7 4839   0.708   0.703  13.211 -0.1446 -0.9091  0.4655
  318TMC3    C8 4840   0.334   0.405  13.229  0.1761  0.5470 -0.5284
  318TMC3    O1 4841   0.744   0.802  13.144 -0.3106  0.2803  0.4617
  318TMC3    O2 4842   0.377   0.340  13.329  0.0831 -0.6150  0.0847
  319MPD2     C 4843   1.550   2.287  16.019 -0.6760  0.0825 -0.2982
  319MPD2    C1 4844   1.423   2.281  16.080 -0.7519 -1.0701 -0.0696
  319MPD2    C2 4845   1.315   2.215  16.010 -0.7611 -0.6020  0.1164
  319MPD2    C3 4846   1.328   2.170  15.882 -0.3117  0.4188  0.3545
  319MPD2    C4 4847   1.452   2.187  15.820  0.0984  0.2928  0.5017
  319MPD2    C5 4848   1.565   2.243  15.887  0.0007  0.2850  0.4883
  319MPD2     H 4849   1.212   2.219  16.043  0.1440 -1.7358  3.1377
  319MPD2    H1 4850   1.467   2.160  15.717  0.5660  1.2724  0.3184
  319MPD2    H2 4851   1.633   2.331  16.073 -0.2372 -0.4782 -0.5215
  319MPD2    H3 4852   1.656   2.267  15.833  1.1233 -1.9139  1.3981
  319MPD2     N 4853   1.225   2.111  15.819  0.5068  0.0718 -0.1525
  319MPD2    H5 4854   1.147   2.077  15.874  0.5897  0.6191  0.3070
  319MPD2    N1 4855   1.389   2.345  16.197 -0.8218 -0.2126  0.4277
  319MPD2    H7 4856   1.290   2.353  16.217 -1.2920 -4.4147 -0.1929
  320TMC3    C1 4857   1.096   2.023  15.654 -0.5734 -0.2536 -0.0073
  320TMC3    C2 4858   1.025   2.058  15.543  0.5988 -0.5994 -0.9645
  320TMC3    C3 4859   0.922   1.978  15.506  0.1477 -0.0560 -0.8515
  320TMC3    C4 4860   1.067   1.902  15.719  0.0387  0.4332 -0.8742
  320TMC3    C5 4861   0.962   1.824  15.674 -0.0583 -0.2663  1.1695
  320TMC3    C6 4862   0.895   1.853  15.561 -0.3540  0.4852 -0.1159
  320TMC3     C 4863   1.214   2.094  15.684  0.3891 -0.0850 -0.0943
  320TMC3     O 4864   1.264   2.165  15.597 -0.7128 -0.3170 -0.3096
  320TMC3     H 4865   1.041   2.156  15.499 -1.7352  0.2113 -0.0194
  320TMC3    H1 4866   1.143   1.860  15.784 -1.7678  0.8123  1.5069
  320TMC3    H2 4867   0.836   1.778  15.509 -0.6323  0.2869  0.4923
  320TMC3    C7 4868   0.943   1.696  15.740 -0.2552  0.9979  0.0751
  320TMC3    C8 4869   0.810   2.054  15.459 -0.3342  0.2339  0.2841
  320TMC3    O1 4870   0.869   1.616  15.687  0.6761 -0.0809 -0.4134
  320TMC3    O2 4871   0.827   2.160  15.405  0.4285 -0.4810 -0.3138
  321TMC3    C1 4872   1.401   2.482  16.392 -0.0323  0.2684 -0.4359
  321TMC3    C2 4873   1.298   2.421  16.457  1.0533  0.2629 -0.1884
  321TMC3    C3 4874   1.253   2.491  16.568 -0.5558  0.1163 -0.4676
  321TMC3    C4 4875   1.471   2.590  16.437  0.4473 -0.7698 -0.3408
  321TMC3    C5 4876   1.425   2.650  16.553  0.3453 -0.4996  0.2618
  321TMC3    C6 4877   1.304   2.611  16.608  0.1412  0.3414  0.7787
  321TMC3     C 4878   1.469   2.417  16.280 -0.6692 -0.7598 -0.2419
  321TMC3     O 4879   1.593   2.427  16.274  0.3663  0.0744 -0.5855
  321TMC3     H 4880   1.262   2.328  16.414 -0.6855  0.6002  0.5291
  321TMC3    H1 4881   1.543   2.624  16.363  1.2225 -2.1758 -0.2338
  321TMC3    H2 4882   1.255   2.670  16.685  0.4575  0.0581  1.1914
  321TMC3    C7 4883   1.521   2.680  16.651 -0.6498 -0.4034  0.3605
  321TMC3    C8 4884   1.220   2.414  16.686 -1.0020 -0.9042 -0.3464
  321TMC3    O1 4885   1.477   2.729  16.752  0.2486 -0.0677  0.1793
  321TMC3    O2 4886   1.220   2.471  16.793  0.0531  0.8195 -0.3720
  322MPD2     C 4887   0.161   3.214  13.349  0.1015  0.3446 -0.5675
  322MPD2    C1 4888   0.179   3.138  13.456 -0.1720  0.4954 -0.7483
  322MPD2    C2 4889   0.257   3.021  13.447  0.0255 -0.1383 -0.3940
  322MPD2    C3 4890   0.318   2.996  13.321  0.2260 -0.1544  0.4203
  322MPD2    C4 4891   0.286   3.069  13.209  0.5096 -0.4644 -0.1964
  322MPD2    C5 4892   0.212   3.185  13.221 -0.0270 -0.5651  0.3401
  322MPD2     H 4893   0.277   2.955  13.531 -1.1774 -1.0263 -0.7964
  322MPD2    H1 4894   0.326   3.052  13.109  0.3768 -1.0682 -0.1446
  322MPD2    H2 4895   0.103   3.304  13.368  1.5730  1.2391 -0.3250
  322MPD2    H3 4896   0.203   3.249  13.134  1.2332  0.1690  0.7572
  322MPD2     N 4897   0.429   2.903  13.329  0.4850 -0.2023 -0.6195
  322MPD2    H5 4898   0.441   2.855  13.418  2.3412 -0.3698 -0.9555
  322MPD2    N1 4899   0.138   3.194  13.578  0.3228 -0.1135  0.6160
  322MPD2    H7 4900   0.093   3.285  13.578  0.0708 -0.2291 -0.3286
  323TMC3    C1 4901   0.173   3.255  13.806 -0.5533 -0.3487 -0.0547
  323TMC3    C2 4902   0.247   3.363  13.776  0.3540 -0.2071  0.5364
  323TMC3    C3 4903   0.319   3.433  13.877  0.0504  0.5276 -0.5458
  323TMC3    C4 4904   0.156   3.216  13.934 -0.2810 -0.0171  0.5850
  323TMC3    C5 4905   0.230   3.285  14.029  1.1119  0.1170 -0.2057
  323TMC3    C6 4906   0.311   3.393  14.008 -0.0246 -0.2278 -0.6570
  323TMC3     C 4907   0.177   3.151  13.695 -0.1085 -0.2980  0.5639
  323TMC3     O 4908   0.250   3.063  13.736 -0.1483 -0.1421 -0.1207
  323TMC3     H 4909   0.275   3.387  13.674 -0.7175 -0.4832  0.1722
  323TMC3    H1 4910   0.095   3.131  13.959 -0.2418 -0.6646 -1.4737
  323TMC3    H2 4911   0.360   3.458  14.080  0.8837 -1.8195  0.1572
  323TMC3    C7 4912   0.271   3.202  14.140  0.2093  0.1102  0.3346
  323TMC3    C8 4913   0.447   3.466  13.834  0.8232 -0.2188  0.4292
  323TMC3    O1 4914   0.229   3.087  14.157 -0.3159  0.0028 -0.5674
  323TMC3    O2 4915   0.541   3.442  13.909  0.5543  0.6008 -0.3280
  324MPD2     C 4916   1.716   0.152  14.139 -0.3667  0.1108  0.0104
  324MPD2    C1 4917   1.709   0.019  14.083  0.2821  0.1550  0.1996
  324MPD2    C2 4918   1.589   4.720  14.037  0.0189  0.0993 -0.1165
  324MPD2    C3 4919   1.473   0.055  14.046 -0.3906  0.0419  0.3797
  324MPD2    C4 4920   1.477   0.174  14.119 -0.0118  0.2800  0.3594
  324MPD2    C5 4921   1.595   0.221  14.158  0.0496  0.2723  0.7611
  324MPD2     H 4922   1.594   4.628  13.981  1.0794  0.4052 -0.5251
  324MPD2    H1 4923   1.387   0.233  14.132 -0.7274  0.1507 -3.9112
  324MPD2    H2 4924   1.813   0.197  14.158  0.1155 -0.3951 -1.2381
  324MPD2    H3 4925   1.608   0.315  14.210 -0.6171  1.4733 -1.2611
  324MPD2     N 4926   1.351   0.015  13.983 -0.2710 -0.0764  0.7146
  324MPD2    H5 4927   1.279   0.085  13.998  1.3509  2.0437 -1.3899
  324MPD2    N1 4928   1.826   4.682  14.050 -0.5050 -0.2356  0.4666
  324MPD2    H7 4929   1.810   4.612  13.979  2.2092 -0.7972  0.3880
  325TMC3    C1 4930   1.184   4.651  13.870 -0.2364  0.2554 -0.6422
  325TMC3    C2 4931   1.124   4.539  13.823  0.3179  0.4981  1.0169
  325TMC3    C3 4932   0.997   4.553  13.771  0.9285  0.4182 -0.4503
  325TMC3    C4 4933   1.130   0.034  13.849  0.0461  0.4087 -0.0410
  325TMC3    C5 4934   1.006   0.038  13.786  0.4395  0.4408 -0.2640
  325TMC3    C6 4935   0.934   4.670  13.750  0.5261  0.3308 -0.1750
  325TMC3     C 4936   1.322   4.643  13.920  0.0337  0.8520  0.1048
  325TMC3     O 4937   1.388   4.542  13.910  0.2233  0.1847  0.2734
  325TMC3     H 4938   1.165   4.440  13.840 -3.3131 -1.0503  0.9093
  325TMC3    H1 4939   1.180   0.127  13.870  0.9628 -0.0411 -0.2548
  325TMC3    H2 4940   0.837   4.684  13.704  1.1712 -1.6906 -2.1773
  325TMC3    C7 4941   0.932   0.159  13.781 -0.0768  0.6296 -0.3473
  325TMC3    C8 4942   0.941   4.432  13.718  0.3399  1.0305  0.4109
  325TMC3    O1 4943   0.837   0.184  13.707 -0.7840  0.0758  0.0003
  325TMC3    O2 4944   1.010   4.326  13.729  0.0966 -0.2886  0.2552
  326MPD2     C 4945   2.893   0.957  10.445 -0.3550 -0.4944  0.6873
  326MPD2    C1 4946   2.969   0.905  10.553  0.0376  0.0020 -0.0051
  326MPD2    C2 4947   3.104   0.935  10.566 -0.3662 -0.4675 -0.2101
  326MPD2    C3 4948   3.150   1.037  10.479 -0.9314  0.0289  0.1610
  326MPD2    C4 4949   3.080   1.096  10.374 -0.1149 -0.0547  0.2272
  326MPD2    C5 4950   2.951   1.047  10.358  0.3309 -0.1836  0.4449
  326MPD2     H 4951   3.158   0.895  10.652 -0.9139 -0.6526  0.0489
  326MPD2    H1 4952   3.125   1.178  10.320 -0.6005  0.0843  0.0383
  326MPD2    H2 4953   2.789   0.938  10.421 -0.1332 -0.2189 -0.4875
  326MPD2    H3 4954   2.896   1.086  10.273  0.3700 -1.8557 -0.3524
  326MPD2     N 4955   3.283   1.089  10.492 -0.2640  0.0219 -1.1141
  326MPD2    H5 4956   3.310   1.150  10.415 -1.5166  0.4706 -1.1927
  326MPD2    N1 4957   2.904   0.824  10.647  0.4443 -0.1359 -0.0185
  326MPD2    H7 4958   2.959   0.784  10.722 -0.5550 -2.1857 -0.3688
  327TMC3    C1 4959   2.731   0.721  10.777  0.1034 -0.8707  0.1322
  327TMC3    C2 4960   2.591   0.722  10.793  0.2339 -0.3269 -0.1395
  327TMC3    C3 4961   2.512   0.614  10.786 -0.7914  0.0599  0.1543
  327TMC3    C4 4962   2.794   0.598  10.770  0.3310 -0.1674  0.2178
  327TMC3    C5 4963   2.717   0.486  10.775 -0.0821 -0.8188 -0.3358
  327TMC3    C6 4964   2.578   0.493  10.776  0.2083  0.1622  0.8163
  327TMC3     C 4965   2.765   0.813  10.670 -0.2131  0.1712  0.7802
  327TMC3     O 4966   2.677   0.873  10.611  0.1624 -0.4855  0.7030
  327TMC3     H 4967   2.544   0.820  10.796 -1.6673 -1.2255 -0.9911
  327TMC3    H1 4968   2.901   0.588  10.755  0.1731 -1.2014 -0.1837
  327TMC3    H2 4969   2.526   0.398  10.775  2.1492 -0.8939  0.5231
  327TMC3    C7 4970   2.764   0.362  10.828 -0.1068 -0.1881  0.7155
  327TMC3    C8 4971   2.399   0.638  10.698 -0.3751 -0.5513 -0.5698
  327TMC3    O1 4972   2.692   0.264  10.841 -0.2139  0.1197 -0.8528
  327TMC3    O2 4973   2.419   0.618  10.579 -0.0055  0.1999 -0.0590
  328MPD2     C 4974   1.022   0.467  16.765  0.0952  0.5019 -0.2787
  328MPD2    C1 4975   0.905   0.474  16.694  0.2758  0.6240 -0.0754
  328MPD2    C2 4976   0.836   0.592  16.692 -0.4217  0.5406  0.2641
  328MPD2    C3 4977   0.889   0.699  16.761  0.3348  0.2803 -0.5332
  328MPD2    C4 4978   1.002   0.685  16.841 -0.5257 -0.2921 -0.2032
  328MPD2    C5 4979   1.069   0.569  16.840 -0.6786 -0.3266 -0.2367
  328MPD2     H 4980   0.734   0.592  16.654  0.0411  0.1974 -0.9812
  328MPD2    H1 4981   1.032   0.756  16.917 -1.3472 -0.3732  0.1947
  328MPD2    H2 4982   1.075   0.373  16.771 -0.4442  0.0940 -2.0592
  328MPD2    H3 4983   1.164   0.570  16.892 -1.1569  2.1642  0.6018
  328MPD2     N 4984   0.807   0.812  16.779 -0.1898 -0.3329 -0.9012
  328MPD2    H5 4985   0.847   0.879  16.844 -1.9315  2.4075 -2.6314
  328MPD2    N1 4986   0.860   0.351  16.638 -0.2839  0.1519 -0.1254
  328MPD2    H7 4987   0.911   0.275  16.682  1.8377  1.6971  0.1000
  329TMC3    C1 4988   0.667   0.227  16.547  0.2964  0.0674 -0.4173
  329TMC3    C2 4989   0.545   0.246  16.482  0.1708  0.3024  0.0098
  329TMC3    C3 4990   0.446   0.154  16.518 -0.8467  0.9572  0.0414
  329TMC3    C4 4991   0.693   0.130  16.634 -0.2372 -0.2606 -0.1268
  329TMC3    C5 4992   0.590   0.048  16.671  0.0706  0.5539  0.3675
  329TMC3    C6 4993   0.466   0.062  16.614 -0.2112 -0.0399  0.8538
  329TMC3     C 4994   0.756   0.346  16.546 -0.2085 -0.8213 -0.3160
  329TMC3     O 4995   0.725   0.431  16.462  0.7317  0.5262  0.4645
  329TMC3     H 4996   0.517   0.328  16.418 -0.7319  0.5705  0.7536
  329TMC3    H1 4997   0.796   0.120  16.665 -0.0927  0.6944 -0.3161
  329TMC3    H2 4998   0.379   4.740  16.629  0.4296 -1.1197  0.0338
  329TMC3    C7 4999   0.645   4.659  16.695 -0.2838  0.2263  0.7854
  329TMC3    C8 5000   0.309   0.206  16.511 -0.5717  0.2475  0.3018
  329TMC3    O1 5001   0.601   4.599  16.788 -0.4277 -0.0859 -0.4766
  329TMC3    O2 5002   0.260   0.233  16.402  0.4404  0.4917  0.5453
  330TMC3    C1 5003   3.370   0.158   9.647 -0.1516 -0.1432 -0.3363
  330TMC3    C2 5004   3.342   0.049   9.571 -0.5469 -0.1312 -0.3987
  330TMC3    C3 5005   3.315   4.670   9.626  0.1284 -0.1546 -0.0271
  330TMC3    C4 5006   3.359   0.150   9.785  0.0734  0.4929 -0.2781
  330TMC3    C5 5007   3.333   0.021   9.833 -0.3337 -0.3205 -0.7957
  330TMC3    C6 5008   3.309   4.651   9.759 -0.2467 -0.6837 -0.0679
  330TMC3     C 5009   3.428   0.278   9.578 -0.2728  0.2856  0.2013
  330TMC3     O 5010   3.483   0.362   9.648 -0.1796  0.3518 -0.2956
  330TMC3     H 5011   3.341   0.054   9.463 -1.7604  1.7281 -0.2884
  330TMC3    H1 5012   3.391   0.232   9.849  2.5302 -0.7592  0.0816
  330TMC3    H2 5013   3.305   4.547   9.789 -1.8922 -0.5086  0.2825
  330TMC3    C7 5014   3.364   0.005   9.980  0.0715  0.1447  0.3714
  330TMC3    C8 5015   3.289   4.558   9.531  0.1556 -0.0314 -0.0528
  330TMC3    O1 5016   3.390   0.100  10.049  0.3612 -0.4999  0.1763
  330TMC3    O2 5017   3.337   4.576   9.420  0.5018  0.2643 -0.7125
  331MPD2     C 5018   1.482   4.075  12.993  0.4275  0.3841 -0.4051
  331MPD2    C1 5019   1.534   4.062  12.861  0.3145  0.6176 -0.2848
  331MPD2    C2 5020   1.494   3.962  12.780 -0.1562  0.0032 -0.0592
  331MPD2    C3 5021   1.403   3.871  12.826 -0.2105 -0.0716  0.8324
  331MPD2    C4 5022   1.347   3.881  12.949  0.1584  0.5895 -0.4807
  331MPD2    C5 5023   1.387   3.982  13.032  0.0788  0.3740  0.4090
  331MPD2     H 5024   1.529   3.967  12.677 -1.4509 -0.4950 -0.5186
  331MPD2    H1 5025   1.262   3.816  12.966  0.9994 -0.0631  1.2556
  331MPD2    H2 5026   1.517   4.160  13.050 -0.5938  1.6976 -1.7294
  331MPD2    H3 5027   1.333   3.993  13.125  0.0837 -1.3168  0.6207
  331MPD2     N 5028   1.364   3.763  12.741  0.0312 -0.4144  0.2564
  331MPD2    H5 5029   1.382   3.769  12.641  0.7131 -0.4282  0.3739
  331MPD2    N1 5030   1.610   4.169  12.803 -0.1155  0.4171  0.0549
  331MPD2    H7 5031   1.615   4.263  12.840  0.8028  0.1050  0.7510
  332TMC3    C1 5032   1.257   3.566  12.671 -0.6610  0.4776  0.1110
  332TMC3    C2 5033   1.272   3.607  12.538 -0.4564 -0.0790  0.2675
  332TMC3    C3 5034   1.265   3.507  12.449  0.7982  0.4295 -0.8042
  332TMC3    C4 5035   1.221   3.441  12.711  0.4718 -0.2727 -0.2759
  332TMC3    C5 5036   1.214   3.342  12.617  0.2595 -0.2157  0.0228
  332TMC3    C6 5037   1.245   3.378  12.490  0.0019 -0.2416 -0.5978
  332TMC3     C 5038   1.289   3.657  12.779  0.0176 -0.3439  0.1513
  332TMC3     O 5039   1.261   3.619  12.892  0.3613 -0.0573 -0.5757
  332TMC3     H 5040   1.287   3.711  12.512 -1.0931 -0.5081 -1.7934
  332TMC3    H1 5041   1.212   3.413  12.815  1.4457  1.3014  0.2392
  332TMC3    H2 5042   1.252   3.295  12.421  0.2430 -1.2942  0.6821
  332TMC3    C7 5043   1.291   3.221  12.652  0.1940 -0.5077 -0.1132
  332TMC3    C8 5044   1.315   3.527  12.313  0.1820  0.3019 -0.5276
  332TMC3    O1 5045   1.240   3.132  12.723  0.1634  0.0934 -0.1068
  332TMC3    O2 5046   1.394   3.616  12.288 -0.1091 -0.7206  0.2252
  333MPD2     C 5047   1.292   3.979  11.190  0.6589  0.2405 -0.8186
  333MPD2    C1 5048   1.351   3.905  11.093  0.2686 -0.4939  0.5830
  333MPD2    C2 5049   1.319   3.770  11.088  0.5496  0.3468 -0.1996
  333MPD2    C3 5050   1.226   3.709  11.165  0.0221 -0.4421 -0.2643
  333MPD2    C4 5051   1.172   3.789  11.261  0.1667 -0.2427  0.5442
  333MPD2    C5 5052   1.201   3.920  11.276 -1.0745 -0.3365 -0.1551
  333MPD2     H 5053   1.352   3.708  11.006  0.1797 -1.8243  1.2720
  333MPD2    H1 5054   1.094   3.748  11.325  0.2904 -2.2724 -0.5818
  333MPD2    H2 5055   1.318   4.082  11.210 -0.0858  0.3010 -0.1671
  333MPD2    H3 5056   1.159   3.982  11.353  1.6530  0.6336  0.5616
  333MPD2     N 5057   1.189   3.573  11.146  0.3292  0.1429  0.0034
  333MPD2    H5 5058   1.257   3.514  11.098  1.1891  1.8714 -0.9100
  333MPD2    N1 5059   1.433   3.965  11.001 -0.0667 -0.0393  0.1148
  333MPD2    H7 5060   1.441   4.065  11.010 -0.6230 -0.0274  0.4632
  334TMC3    C1 5061   1.580   3.991  10.824 -0.2406  0.0285 -0.1579
  334TMC3    C2 5062   1.665   3.935  10.733 -0.0324 -0.6074 -0.3991
  334TMC3    C3 5063   1.733   4.026  10.652 -0.0593 -0.0346  0.3926
  334TMC3    C4 5064   1.579   4.121  10.853  0.1928  0.2692  0.1880
  334TMC3    C5 5065   1.656   4.201  10.774 -0.1013 -0.3023 -0.9767
  334TMC3    C6 5066   1.731   4.156  10.668 -0.3933 -0.1633 -0.0983
  334TMC3     C 5067   1.495   3.909  10.892  0.3234 -0.2184  0.3059
  334TMC3     O 5068   1.484   3.796  10.850  0.8743  0.0568 -0.2284
  334TMC3     H 5069   1.663   3.829  10.711 -0.3157 -0.7070  0.1043
  334TMC3    H1 5070   1.529   4.188  10.922 -2.0123 -0.5623 -0.6069
  334TMC3    H2 5071   1.786   4.224  10.603  0.7156 -1.0287 -0.0769
  334TMC3    C7 5072   1.599   4.330  10.751 -0.5660  0.1426 -0.1850
  334TMC3    C8 5073   1.818   3.975  10.552  0.8372  0.0565 -0.0511
  334TMC3    O1 5074   1.652   4.431  10.797 -0.1567  0.1002  0.6386
  334TMC3    O2 5075   1.786   3.870  10.493  0.3845  0.2619  1.0512
  335TMC3    C1 5076   1.687   0.683  17.508  0.7629 -0.5311  0.3924
  335TMC3    C2 5077   1.606   0.672  17.397  0.1171  0.1256 -0.2384
  335TMC3    C3 5078   1.649   0.712  17.276  0.0670  0.2999 -0.1402
  335TMC3    C4 5079   1.816   0.720  17.497  0.0963  0.1442  0.6163
  335TMC3    C5 5080   1.860   0.757  17.367  0.1818 -0.3646  0.1752
  335TMC3    C6 5081   1.784   0.739  17.262 -0.1586 -0.1973 -0.7688
  335TMC3     C 5082   1.626   0.645  17.638 -0.1335  0.2945  0.3553
  335TMC3     O 5083   1.551   0.550  17.637 -0.1426  0.1542  0.5413
  335TMC3     H 5084   1.500   0.658  17.415  0.2557  0.5593  0.9786
  335TMC3    H1 5085   1.870   0.740  17.588 -1.4635 -2.1779  2.0618
  335TMC3    H2 5086   1.824   0.758  17.164  0.7319  0.8085 -0.2126
  335TMC3    C7 5087   2.006   0.732  17.341  0.4148  0.2088 -0.3268
  335TMC3    C8 5088   1.591   0.653  17.157  0.1126 -0.6473  0.2794
  335TMC3    O1 5089   2.052   0.757  17.234 -0.2760 -0.1311  0.1019
  335TMC3    O2 5090   1.642   0.686  17.052  0.0650 -0.3255  0.7702
  336MPD2     C 5091   0.971   3.059  16.255  0.0574  0.4067  0.6126
  336MPD2    C1 5092   1.023   3.046  16.128  0.6252  0.2953 -0.2415
  336MPD2    C2 5093   1.103   2.933  16.101  0.4824 -0.1885 -0.4969
  336MPD2    C3 5094   1.115   2.826  16.192  0.5445  0.6903 -0.4945
  336MPD2    C4 5095   1.053   2.841  16.311 -0.3498  0.9001  0.6079
  336MPD2    C5 5096   0.988   2.958  16.342 -0.1728  0.2679  0.1694
  336MPD2     H 5097   1.137   2.920  15.999  0.5747  0.6396 -0.5704
  336MPD2    H1 5098   1.063   2.769  16.392  0.6262  0.3721  0.0148
  336MPD2    H2 5099   0.905   3.142  16.277 -0.9465 -0.6295  1.4892
  336MPD2    H3 5100   0.932   2.965  16.435 -1.1691 -0.2522 -0.3847
  336MPD2     N 5101   1.171   2.703  16.152 -0.4590  0.1323  0.1073
  336MPD2    H5 5102   1.122   2.619  16.182 -1.6315  0.5415 -0.6685
  336MPD2    N1 5103   1.005   3.144  16.022 -0.5031  0.0346 -0.2262
  336MPD2    H7 5104   1.064   3.130  15.941  1.4382 -2.3471  1.5872
  337TMC3    C1 5105   0.956   3.353  15.918 -0.7087 -0.3903  0.3434
  337TMC3    C2 5106   0.975   3.299  15.795  0.6179  0.4820  0.1134
  337TMC3    C3 5107   0.964   3.377  15.683  0.3393 -0.0117  0.8774
  337TMC3    C4 5108   0.937   3.488  15.934  0.7620  0.4674 -0.3196
  337TMC3    C5 5109   0.937   3.560  15.817  0.1676  0.0726  1.1735
  337TMC3    C6 5110   0.936   3.508  15.693  0.0993  0.1452  0.1456
  337TMC3     C 5111   0.945   3.270  16.035 -0.1934  0.1008  0.2572
  337TMC3     O 5112   0.883   3.309  16.134 -0.2260 -0.6100  0.0388
  337TMC3     H 5113   0.974   3.191  15.784  0.9334  0.4974 -0.0646
  337TMC3    H1 5114   0.920   3.520  16.036  1.3390 -1.8109  0.4870
  337TMC3    H2 5115   0.941   3.574  15.607 -1.5272 -1.0715 -0.8759
  337TMC3    C7 5116   0.890   3.695  15.822  0.0082  1.0699  0.1497
  337TMC3    C8 5117   0.961   3.319  15.553 -0.0962 -0.3976 -0.3430
  337TMC3    O1 5118   0.808   3.729  15.738  0.0176  0.1488 -0.0379
  337TMC3    O2 5119   1.021   3.212  15.540 -0.1164 -0.3215 -0.3520
  338MPD2     C 5120   1.455   3.383   0.822  0.3298 -0.7381  0.4824
  338MPD2    C1 5121   1.409   3.347   0.695 -0.5050  0.3587 -0.2968
  338MPD2    C2 5122   1.273   3.325   0.673 -0.0288 -0.0034  0.6296
  338MPD2    C3 5123   1.189   3.309   0.784 -0.0809 -0.2987  0.3125
  338MPD2    C4 5124   1.236   3.340   0.912  0.6670  0.1343 -0.3357
  338MPD2    C5 5125   1.366   3.392   0.922  0.0646 -0.1212 -0.2195
  338MPD2     H 5126   1.240   3.291   0.576 -0.7384 -0.6682  1.0960
  338MPD2    H1 5127   1.178   3.333   1.004  0.5212  0.0092 -0.4394
  338MPD2    H2 5128   1.561   3.401   0.841 -0.1205 -0.8187  3.0771
  338MPD2    H3 5129   1.399   3.427   1.019 -1.4815 -0.3038  0.3737
  338MPD2     N 5130   1.061   3.258   0.756  0.4320 -0.6306 -0.5616
  338MPD2    H5 5131   1.035   3.238   0.660 -1.8266  2.9360 -0.6888
  338MPD2    N1 5132   1.495   3.313   0.586  0.6140 -0.5855 -0.0233
  338MPD2    H7 5133   1.439   3.283   0.507 -1.5304 -0.7195  1.5315
  339TMC3    C1 5134   0.865   3.146   0.779 -0.1730 -0.0338 -0.0074
  339TMC3    C2 5135   0.760   3.111   0.855  0.1723 -0.1639 -0.5486
  339TMC3    C3 5136   0.674   3.015   0.816  0.1990 -0.0565  0.2623
  339TMC3    C4 5137   0.897   3.068   0.673 -0.8285 -0.5346 -0.9904
  339TMC3    C5 5138   0.806   2.972   0.628 -0.6600 -0.1358  0.0905
  339TMC3    C6 5139   0.689   2.944   0.696 -0.1362  0.0479 -0.2706
  339TMC3     C 5140   0.961   3.233   0.846  0.2798  0.6190 -0.5845
  339TMC3     O 5141   0.957   3.256   0.967 -0.2159 -0.1795  0.1879
  339TMC3     H 5142   0.736   3.176   0.938 -3.5920 -1.6479 -0.4841
  339TMC3    H1 5143   0.980   3.088   0.606  2.1938 -5.0659  1.3812
  339TMC3    H2 5144   0.612   2.876   0.663  0.1021  1.1823 -3.1724
  339TMC3    C7 5145   0.805   2.951   0.485 -0.6316 -0.5603 -0.5557
  339TMC3    C8 5146   0.535   3.019   0.870 -0.6552  0.5446 -0.0261
  339TMC3    O1 5147   0.875   3.025   0.413  0.1513 -0.0329 -0.2495
  339TMC3    O2 5148   0.445   2.998   0.784 -0.5718 -0.5131 -0.5366
  340MPD2     C 5149   1.653   0.655  10.384  0.0359 -0.9340 -0.3323
  340MPD2    C1 5150   1.626   0.521  10.386  0.5346 -0.3169  1.1792
  340MPD2    C2 5151   1.727   0.426  10.398 -0.0995  0.3774 -0.1177
  340MPD2    C3 5152   1.858   0.467  10.399 -0.1773  0.4405 -0.7498
  340MPD2    C4 5153   1.891   0.602  10.395 -0.2253  0.6331  0.0102
  340MPD2    C5 5154   1.786   0.696  10.387 -0.2992  0.3572  0.1500
  340MPD2     H 5155   1.703   0.321  10.404 -0.9703  0.3848 -3.3811
  340MPD2    H1 5156   1.993   0.635  10.379 -0.7698  2.1763 -0.2951
  340MPD2    H2 5157   1.578   0.733  10.374 -0.2418 -1.3883 -1.8317
  340MPD2    H3 5158   1.800   0.803  10.376 -1.3949  0.5668  0.9108
  340MPD2     N 5159   1.971   0.385  10.424  0.0793 -0.0014  0.0872
  340MPD2    H5 5160   2.059   0.435  10.425 -0.4239  0.9198 -1.2957
  340MPD2    N1 5161   1.497   0.485  10.355  0.7798 -0.4544 -0.5201
  340MPD2    H7 5162   1.435   0.556  10.316 -0.3882 -0.9767  0.3876
  341TMC3    C1 5163   1.324   0.364  10.264  1.3573  0.4812 -0.4046
  341TMC3    C2 5164   1.246   0.251  10.282 -0.3798 -0.1158 -0.1014
  341TMC3    C3 5165   1.170   0.213  10.177 -0.2117 -0.3183 -0.7335
  341TMC3    C4 5166   1.326   0.445  10.153  0.2050 -0.1761  0.1959
  341TMC3    C5 5167   1.251   0.394  10.044  0.1863  0.7795  0.1416
  341TMC3    C6 5168   1.172   0.283  10.062  0.4744  0.5777  0.4641
  341TMC3     C 5169   1.446   0.356  10.336  0.1364  0.5897  0.1135
  341TMC3     O 5170   1.497   0.248  10.377  0.2953  0.2631  0.4054
  341TMC3     H 5171   1.267   0.186  10.366  0.3163  1.5619  1.0186
  341TMC3    H1 5172   1.383   0.536  10.142 -1.0176  0.4559 -0.8827
  341TMC3    H2 5173   1.120   0.254   9.972 -0.2129 -0.4041  1.1854
  341TMC3    C7 5174   1.295   0.420   9.907  0.3357 -0.6027 -0.7895
  341TMC3    C8 5175   1.121   0.078  10.167  0.1941  0.0033 -0.9612
  341TMC3    O1 5176   1.266   0.341   9.816 -0.3430 -0.1301  0.3406
  341TMC3    O2 5177   1.001   0.072  10.138 -0.8600 -0.1599 -0.7524
  342MPD2     C 5178   4.426   3.633  17.586 -0.3227  0.6554  0.0422
  342MPD2    C1 5179   4.471   3.660  17.456 -0.2662 -0.3682 -0.1218
  342MPD2    C2 5180   4.468   3.785  17.408  1.0061 -0.2164 -0.4635
  342MPD2    C3 5181   4.399   3.888  17.470  0.6682 -0.1903  0.2417
  342MPD2    C4 5182   4.362   3.867  17.605 -0.8050 -0.6248  0.2834
  342MPD2    C5 5183   4.372   3.736  17.655  0.6501  0.0935 -1.0181
  342MPD2     H 5184   4.496   3.782  17.303 -0.4572 -0.6294 -0.8334
  342MPD2    H1 5185   4.315   3.941  17.668  0.3218  1.2004 -1.0028
  342MPD2    H2 5186   4.421   3.533  17.628  1.4459  1.5254  2.2758
  342MPD2    H3 5187   4.324   3.725  17.752  0.5747 -1.5017 -1.2425
  342MPD2     N 5188   4.391   4.019  17.419  0.0049  0.2572  0.2579
  342MPD2    H5 5189   4.351   4.082  17.489  1.8513  0.7760  0.8386
  342MPD2    N1 5190   4.516   3.564  17.366  0.3735 -0.2003  0.9034
  342MPD2    H7 5191   4.537   3.600  17.273 -3.2852 -1.8031 -0.5428
  343TMC3    C1 5192   4.503   3.356  17.251 -0.2881  0.1117  0.3239
  343TMC3    C2 5193   4.562   3.405  17.137  0.1256 -0.5661  0.5492
  343TMC3    C3 5194   4.559   3.330  17.024  0.2580  0.4129  0.0739
  343TMC3    C4 5195   4.438   3.235  17.253  0.0020 -0.0975 -0.3738
  343TMC3    C5 5196   4.431   3.173  17.130 -0.2149  0.2955  0.4710
  343TMC3    C6 5197   4.494   3.214  17.018 -0.4085 -0.0835  0.4162
  343TMC3     C 5198   4.506   3.425  17.381  0.1852  0.8835  0.0473
  343TMC3     O 5199   4.473   3.364  17.482  0.0261  0.6340 -0.4233
  343TMC3     H 5200   4.646   3.472  17.151 -0.0111 -0.2885  0.0383
  343TMC3    H1 5201   4.358   3.217  17.324 -0.2128  2.4928  0.0202
  343TMC3    H2 5202   4.488   3.159  16.924 -1.1390  0.9489 -0.1469
  343TMC3    C7 5203   4.392   3.039  17.130  0.5364 -0.0857 -0.3570
  343TMC3    C8 5204   4.663   3.359  16.922 -0.3419 -0.6876 -0.2658
  343TMC3    O1 5205   4.340   2.994  17.027 -0.2346  0.3086  0.2326
  343TMC3    O2 5206   4.698   3.481  16.917  0.0597  0.6080  0.2686
  344MPD2     C 5207   4.540   3.240  11.302  0.1803  0.0747  0.2354
  344MPD2    C1 5208   4.512   3.208  11.170  0.5482 -0.6043  0.0844
  344MPD2    C2 5209   4.526   3.306  11.072 -0.2028 -0.3256  0.0799
  344MPD2    C3 5210   4.568   3.436  11.107  0.9099  0.5981  0.2494
  344MPD2    C4 5211   4.604   3.462  11.243  0.3719 -0.3710 -0.3165
  344MPD2    C5 5212   4.589   3.361  11.335  0.5490  0.0456  0.2594
  344MPD2     H 5213   4.523   3.283  10.966  1.7112  2.0898 -0.5154
  344MPD2    H1 5214   4.627   3.562  11.278 -0.3101  0.2497 -1.6669
  344MPD2    H2 5215   4.517   3.166  11.377  4.1949 -0.8611  0.5522
  344MPD2    H3 5216   4.619   3.372  11.439 -0.1885  0.5190  0.4282
  344MPD2     N 5217   4.606   3.536  11.017 -1.0431 -0.1587 -0.0229
  344MPD2    H5 5218   4.657   3.616  11.054 -0.9261 -0.1062 -0.2998
  344MPD2    N1 5219   4.451   3.081  11.148 -0.5129  0.0381 -0.3780
  344MPD2    H7 5220   4.430   3.020  11.226 -0.2894  0.6437  0.1491
  345TMC3    C1 5221   4.673   3.632  10.812 -0.0141 -0.0597 -0.6299
  345TMC3    C2 5222   4.710   3.743  10.876  0.5756  0.3258  0.1746
  345TMC3    C3 5223   0.063   3.818  10.815  0.2541 -0.1703  0.4152
  345TMC3    C4 5224   4.726   3.591  10.690  0.1985  0.1271  0.4787
  345TMC3    C5 5225   0.099   3.655  10.647  0.7794  0.6272  0.1412
  345TMC3    C6 5226   0.139   3.768  10.710 -0.4744  0.3001  0.1907
  345TMC3     C 5227   4.598   3.531  10.880  0.8897 -0.2139  0.9145
  345TMC3     O 5228   4.556   3.437  10.815  0.1747  0.2083  0.1753
  345TMC3     H 5229   4.651   3.780  10.960 -0.3063 -2.0309  0.6015
  345TMC3    H1 5230   4.701   3.499  10.638  2.2965 -0.1995  0.0542
  345TMC3    H2 5231   0.229   3.821  10.678 -0.4819  0.2068  0.0130
  345TMC3    C7 5232   0.132   3.651  10.502  0.6263 -0.3351  0.2606
  345TMC3    C8 5233   0.087   3.949  10.863  0.4394  0.0168 -0.0040
  345TMC3    O1 5234   0.226   3.723  10.476 -0.3353  0.1440 -0.4086
  345TMC3    O2 5235   0.035   3.973  10.973  0.5091  0.0871  0.0480
  346MPD2     C 5236   0.095   0.219  14.231 -0.0107 -0.4645 -0.3316
  346MPD2    C1 5237   0.218   0.224  14.166 -0.4026 -0.3570  0.1815
  346MPD2    C2 5238   0.321   0.280  14.242  0.5079 -0.1131 -0.6262
  346MPD2    C3 5239   0.316   0.322  14.369 -0.1595 -0.4420 -0.1153
  346MPD2    C4 5240   0.195   0.299  14.431  0.4944 -0.3977 -0.1042
  346MPD2    C5 5241   0.084   0.261  14.363 -0.0714  0.2683  0.9245
  346MPD2     H 5242   0.413   0.299  14.187 -0.1548 -1.5724 -2.2242
  346MPD2    H1 5243   0.177   0.301  14.537  2.2735 -1.5170  0.2329
  346MPD2    H2 5244   0.010   0.182  14.176 -1.6904  0.2342  1.7887
  346MPD2    H3 5245   4.725   0.262  14.405 -0.3239  1.2876  0.3058
  346MPD2     N 5246   0.434   0.363  14.439  0.2077  0.0182 -0.0478
  346MPD2    H5 5247   0.520   0.366  14.384 -0.7423  2.4722 -1.4071
  346MPD2    N1 5248   0.244   0.180  14.029 -0.0846 -0.2797  0.8269
  346MPD2    H7 5249   0.338   0.184  13.993 -0.4336  0.6891  0.0247
  347TMC3    C1 5250   0.577   0.440  14.599 -0.0792  0.6008  0.2373
  347TMC3    C2 5251   0.660   0.464  14.495 -0.4924  0.1785 -0.1358
  347TMC3    C3 5252   0.786   0.407  14.492 -0.9611 -0.0201 -0.1157
  347TMC3    C4 5253   0.616   0.351  14.693 -0.1049  0.4371  0.0847
  347TMC3    C5 5254   0.741   0.301  14.697  0.1842 -0.0637  0.0382
  347TMC3    C6 5255   0.829   0.330  14.597  0.0950  0.7991 -0.2721
  347TMC3     C 5256   0.436   0.417  14.565 -0.0407 -0.0357 -0.5420
  347TMC3     O 5257   0.345   0.433  14.643 -0.2464 -0.1275  1.2101
  347TMC3     H 5258   0.628   0.528  14.414  2.8789  1.3710 -0.5581
  347TMC3    H1 5259   0.540   0.322  14.764  0.0673  0.5708  0.3246
  347TMC3    H2 5260   0.926   0.281  14.596 -0.5667 -0.4879 -2.3346
  347TMC3    C7 5261   0.739   0.167  14.751 -0.2422  0.2440 -0.5340
  347TMC3    C8 5262   0.862   0.407  14.370  0.2987 -0.8020 -0.1817
  347TMC3    O1 5263   0.677   0.152  14.860 -0.5337  0.3859  0.2662
  347TMC3    O2 5264   0.951   0.326  14.372  0.3626  0.3851  0.2660
  348MPD2     C 5265   3.706   4.484  12.261  0.4051 -0.2886 -0.4128
  348MPD2    C1 5266   3.633   4.434  12.158 -1.0387  0.2137  0.7520
  348MPD2    C2 5267   3.631   4.505  12.042  0.3106 -0.7969  0.1308
  348MPD2    C3 5268   3.691   4.630  12.034  0.3596 -0.3571  0.4225
  348MPD2    C4 5269   3.771   4.673  12.136  0.1131 -0.3292 -0.0528
  348MPD2    C5 5270   3.782   4.596  12.252 -0.3063  0.7710 -0.2533
  348MPD2     H 5271   3.584   4.470  11.951 -1.4024 -1.2014  1.1947
  348MPD2    H1 5272   3.829   0.022  12.115  2.2860 -1.8699 -0.5797
  348MPD2    H2 5273   3.717   4.426  12.352 -0.9287 -1.6955 -1.1411
  348MPD2    H3 5274   3.859   4.628  12.321 -0.9295 -0.5433  1.0509
  348MPD2     N 5275   3.678   4.699  11.913 -0.0980 -0.3001 -0.2928
  348MPD2    H5 5276   3.628   4.660  11.833  0.7966  0.1469 -1.0587
  348MPD2    N1 5277   3.576   4.304  12.168 -0.1464 -0.3908  0.3749
  348MPD2    H7 5278   3.541   4.263  12.081  0.2877 -1.0118  0.4897
  349TMC3    C1 5279   3.503   4.099  12.251  0.1023  0.2489 -0.2106
  349TMC3    C2 5280   3.560   3.982  12.294  0.2260 -0.0081 -0.5216
  349TMC3    C3 5281   3.503   3.863  12.254 -0.0250 -0.6573  0.6808
  349TMC3    C4 5282   3.394   4.097  12.168  0.1229 -0.0057  0.1565
  349TMC3    C5 5283   3.347   3.979  12.124 -0.5264 -0.3534  0.7725
  349TMC3    C6 5284   3.400   3.859  12.164  0.2747 -0.2475  0.2598
  349TMC3     C 5285   3.575   4.221  12.273 -1.0748 -0.7064 -0.3007
  349TMC3     O 5286   3.633   4.230  12.377  0.4818 -0.2994  0.2584
  349TMC3     H 5287   3.643   3.993  12.363 -0.8491  0.1489  0.7612
  349TMC3    H1 5288   3.329   4.181  12.147 -0.4393  0.2587  3.0565
  349TMC3    H2 5289   3.363   3.767  12.119  1.8437 -0.0235 -1.4506
  349TMC3    C7 5290   3.252   3.970  12.013  0.1449 -0.2875 -0.4085
  349TMC3    C8 5291   3.580   3.754  12.283  0.7822  0.1037  0.0746
  349TMC3    O1 5292   3.176   3.875  12.003  0.1131 -0.0047 -0.5688
  349TMC3    O2 5293   3.703   3.777  12.275 -0.1960  0.0391  0.4347
  350MPD2     C 5294   2.431   2.408  10.228  0.5545 -0.1045 -0.2186
  350MPD2    C1 5295   2.330   2.330  10.277 -0.2357  0.5154 -0.7393
  350MPD2    C2 5296   2.279   2.347  10.403 -0.0311  0.0096  0.3083
  350MPD2    C3 5297   2.326   2.453  10.487 -0.2334 -0.5217 -0.8232
  350MPD2    C4 5298   2.439   2.528  10.440  0.1766  0.0133 -0.1116
  350MPD2    C5 5299   2.489   2.496  10.315 -0.4932 -0.4971  0.5043
  350MPD2     H 5300   2.195   2.294  10.447 -0.1546  0.3024  0.4244
  350MPD2    H1 5301   2.496   2.605  10.491 -1.3620 -0.3261  2.1291
  350MPD2    H2 5302   2.467   2.405  10.125 -0.4044 -0.8375 -0.5337
  350MPD2    H3 5303   2.573   2.544  10.265 -1.3349  0.6603  0.1980
  350MPD2     N 5304   2.281   2.459  10.619 -0.7294 -0.2278  0.3096
  350MPD2    H5 5305   2.218   2.384  10.648  2.1903 -2.5798  0.5578
  350MPD2    N1 5306   2.288   2.217  10.207 -0.1204 -0.4139 -0.2458
  350MPD2    H7 5307   2.213   2.166  10.253  0.2866  0.3912  1.3091
  351TMC3    C1 5308   2.303   2.024  10.075 -0.7955 -0.1265  0.4755
  351TMC3    C2 5309   2.391   1.937  10.009  0.0895 -0.0333 -0.1594
  351TMC3    C3 5310   2.342   1.820   9.959 -1.0627 -0.6340 -0.1907
  351TMC3    C4 5311   2.168   1.994  10.092 -0.1672 -0.2497  0.0522
  351TMC3    C5 5312   2.125   1.870  10.043  0.2860 -0.3729  0.0821
  351TMC3    C6 5313   2.206   1.785   9.971  0.5300 -0.3574  0.2831
  351TMC3     C 5314   2.349   2.162  10.096 -0.6843  0.2433 -0.2417
  351TMC3     O 5315   2.448   2.192  10.033  0.3122  0.1497 -0.2002
  351TMC3     H 5316   2.497   1.961  10.005  0.2610 -0.2821  2.7851
  351TMC3    H1 5317   2.098   2.065  10.136 -1.2823 -1.2515 -0.1082
  351TMC3    H2 5318   2.162   1.692   9.938 -0.7714  0.4995 -0.4196
  351TMC3    C7 5319   1.982   1.845  10.047 -0.7323  0.7834  0.4788
  351TMC3    C8 5320   2.443   1.714   9.934  0.0992  0.2724 -0.9229
  351TMC3    O1 5321   1.905   1.938  10.040 -0.8253  0.3658 -0.5291
  351TMC3    O2 5322   2.549   1.747   9.883 -0.1440 -0.5678 -0.2100
  352MPD2     C 5323   1.348   0.220   0.861 -0.5699 -0.2084 -0.0329
  352MPD2    C1 5324   1.265   0.212   0.968  0.1140 -0.2506  0.5088
  352MPD2    C2 5325   1.304   0.158   1.086 -0.0241  0.1193 -0.3576
  352MPD2    C3 5326   1.431   0.096   1.101  0.3432  0.2725 -0.2327
  352MPD2    C4 5327   1.513   0.113   0.996 -0.1885 -0.2474  0.1955
  352MPD2    C5 5328   1.481   0.175   0.878  0.1367  0.3091  0.1193
  352MPD2     H 5329   1.232   0.144   1.166 -0.5551  1.6419 -0.5701
  352MPD2    H1 5330   1.611   0.068   0.997  0.6778  1.5906 -1.9231
  352MPD2    H2 5331   1.340   0.275   0.768 -0.4832  1.7197  1.1081
  352MPD2    H3 5332   1.553   0.185   0.797  0.9054  1.4752  0.9505
  352MPD2     N 5333   1.478   0.010   1.209 -0.1307  0.1423  0.3740
  352MPD2    H5 5334   1.570   4.712   1.197  0.6714  1.7880  1.1633
  352MPD2    N1 5335   1.135   0.271   0.951 -0.6829 -0.1455 -0.0814
  352MPD2    H7 5336   1.116   0.294   0.854  0.8979 -1.9014 -0.8168
  353TMC3    C1 5337   1.452   4.575   1.341  0.5573  0.4565 -0.0832
  353TMC3    C2 5338   1.583   4.538   1.328 -0.7483  0.5074  0.0062
  353TMC3    C3 5339   1.613   4.407   1.339 -0.9837 -0.9840  0.1125
  353TMC3    C4 5340   1.358   4.483   1.379  0.8639 -0.3547 -0.1047
  353TMC3    C5 5341   1.393   4.349   1.392  0.6482  0.5316 -0.6309
  353TMC3    C6 5342   1.520   4.314   1.373  0.7922 -0.4362 -0.0378
  353TMC3     C 5343   1.399   4.707   1.308 -0.0764  0.1657 -0.6983
  353TMC3     O 5344   1.282   4.738   1.331  0.4323 -0.8801  0.4448
  353TMC3     H 5345   1.662   4.609   1.310 -0.3441 -0.6203 -2.6673
  353TMC3    H1 5346   1.254   4.512   1.392  1.1640  0.7937 -0.2346
  353TMC3    H2 5347   1.550   4.211   1.383  0.8327 -0.4572 -0.3969
  353TMC3    C7 5348   1.294   4.246   1.377 -0.3069 -1.3561  0.3792
  353TMC3    C8 5349   1.753   4.363   1.330  0.4173  0.3807  0.4617
  353TMC3    O1 5350   1.192   4.276   1.317  0.5035  0.1686  0.5432
  353TMC3    O2 5351   1.840   4.451   1.334 -0.6854  0.5848 -0.1229
  354TMC3    C1 5352   2.518   1.041  13.598  0.2418  0.3397  0.3522
  354TMC3    C2 5353   2.640   1.111  13.586  0.7111 -0.2314  0.2500
  354TMC3    C3 5354   2.651   1.179  13.463  0.0651 -0.0627 -0.4264
  354TMC3    C4 5355   2.424   1.022  13.491 -0.0374 -0.7254 -0.0777
  354TMC3    C5 5356   2.454   1.076  13.367  0.9938 -0.5971  0.5535
  354TMC3    C6 5357   2.562   1.162  13.356  0.3983 -0.8191 -0.8255
  354TMC3     C 5358   2.510   0.942  13.708  0.9678 -0.2725  0.4625
  354TMC3     O 5359   2.411   0.870  13.715  0.2418  0.3210 -0.1458
  354TMC3     H 5360   2.700   1.141  13.670 -2.5435 -0.2370  2.5891
  354TMC3    H1 5361   2.357   0.939  13.503  3.1056 -3.2914 -0.1308
  354TMC3    H2 5362   2.588   1.216  13.266 -2.1222 -0.1231 -1.1414
  354TMC3    C7 5363   2.445   0.975  13.261 -0.5734  0.2133  0.5021
  354TMC3    C8 5364   2.783   1.239  13.425  0.6240 -0.8385  0.2081
  354TMC3    O1 5365   2.342   0.908  13.251 -0.0385 -0.1845 -0.3006
  354TMC3    O2 5366   2.768   1.354  13.389 -0.5371  0.2269 -0.2320
  355MPD2     C 5367   2.830   1.691  11.451 -0.3820 -0.0443  0.7207
  355MPD2    C1 5368   2.949   1.760  11.422  0.0368 -0.7019 -0.7838
  355MPD2    C2 5369   3.052   1.745  11.509  0.6475 -0.4633 -0.3266
  355MPD2    C3 5370   3.041   1.672  11.624  0.0493 -1.3414 -0.0303
  355MPD2    C4 5371   2.925   1.611  11.659  0.4020  1.1627  0.8691
  355MPD2    C5 5372   2.820   1.621  11.569 -0.0818  0.4542  0.0495
  355MPD2     H 5373   3.145   1.798  11.491 -1.6350  3.2221 -1.3235
  355MPD2    H1 5374   2.906   1.549  11.746 -0.6937 -2.3472 -1.8495
  355MPD2    H2 5375   2.746   1.692  11.381 -0.3539 -1.4069  0.6684
  355MPD2    H3 5376   2.728   1.573  11.599  0.1835 -0.6804 -0.9233
  355MPD2     N 5377   3.160   1.672  11.700  0.0501 -0.0210 -0.5048
  355MPD2    H5 5378   3.236   1.733  11.673 -0.1163 -0.0242 -0.9747
  355MPD2    N1 5379   2.960   1.824  11.301 -0.9196 -0.7469 -0.0460
  355MPD2    H7 5380   2.879   1.837  11.242 -0.2887 -0.1661 -0.7963
  356TMC3    C1 5381   3.301   1.640  11.884 -0.3419  0.3240 -0.4131
  356TMC3    C2 5382   3.410   1.658  11.797 -0.0426  0.2510  0.0652
  356TMC3    C3 5383   3.497   1.755  11.829  0.2953 -0.2522 -0.3221
  356TMC3    C4 5384   3.291   1.696  12.003 -0.0989 -0.1142  0.3051
  356TMC3    C5 5385   3.394   1.789  12.033  0.0656  0.2139  0.2186
  356TMC3    C6 5386   3.490   1.823  11.948  0.4414 -0.3419  0.0251
  356TMC3     C 5387   3.178   1.600  11.816  0.4086  0.1746  0.1913
  356TMC3     O 5388   3.096   1.528  11.873 -0.1960 -0.0002 -0.1787
  356TMC3     H 5389   3.418   1.606  11.702  0.8503  1.1875 -0.3839
  356TMC3    H1 5390   3.216   1.664  12.074  0.0810  2.5688  1.7113
  356TMC3    H2 5391   3.564   1.901  11.967 -0.4953  0.3704  0.7472
  356TMC3    C7 5392   3.376   1.854  12.166  0.0589 -0.8598  0.5745
  356TMC3    C8 5393   3.505   1.845  11.716  0.1900 -0.3368  0.2565
  356TMC3    O1 5394   3.295   1.799  12.238 -0.0132 -0.0112  0.0441
  356TMC3    O2 5395   3.415   1.831  11.631 -0.4213  0.3857  0.5691
  357MPD2     C 5396   2.498   2.333   0.054  0.2410 -0.2195 -0.0042
  357MPD2    C1 5397   2.457   2.214   0.121  0.4894  0.3812  0.1486
  357MPD2    C2 5398   2.372   2.131   0.052 -0.8611 -0.1069 -0.6594
  357MPD2    C3 5399   2.318   2.167  17.690 -0.2557  0.0411  0.1018
  357MPD2    C4 5400   2.351   2.286  17.632  0.1916 -0.1788  0.2115
  357MPD2    C5 5401   2.444   2.367  17.697 -0.1381  0.7875 -1.0368
  357MPD2     H 5402   2.342   2.043   0.108  3.4020 -0.3271  1.2683
  357MPD2    H1 5403   2.306   2.312  17.537  0.2141 -0.7121  0.0529
  357MPD2    H2 5404   2.572   2.397   0.102 -0.9826  1.4608 -0.3502
  357MPD2    H3 5405   2.470   2.468  17.665  0.6973  0.5951 -0.9554
  357MPD2     N 5406   2.223   2.091  17.613  0.7820  0.4121  0.7426
  357MPD2    H5 5407   2.187   2.129  17.526  0.7883  0.4923  0.7748
  357MPD2    N1 5408   2.515   2.173   0.248 -0.7004  0.1891 -0.1812
  357MPD2    H7 5409   2.471   2.091   0.288  1.1134 -0.3552  0.6773
  358TMC3    C1 5410   2.672   2.159   0.424  0.0879  0.0123  0.3835
  358TMC3    C2 5411   2.643   2.027   0.421 -0.5078  0.4387  0.5434
  358TMC3    C3 5412   2.689   1.950   0.525 -0.4728 -0.5042  0.1444
  358TMC3    C4 5413   2.756   2.220   0.515 -0.1892  0.0837 -0.0407
  358TMC3    C5 5414   2.783   2.135   0.619  0.2110 -0.6422 -0.2079
  358TMC3    C6 5415   2.753   2.001   0.635 -0.1187 -0.2443 -0.3959
  358TMC3     C 5416   2.625   2.232   0.314  0.2899 -0.6041 -0.4364
  358TMC3     O 5417   2.696   2.331   0.281  0.0885  0.3330 -0.8318
  358TMC3     H 5418   2.610   1.982   0.328 -2.2544 -0.2985  1.5207
  358TMC3    H1 5419   2.792   2.322   0.513  1.3986 -0.4998 -0.6693
  358TMC3    H2 5420   2.799   1.945   0.714 -1.2665  0.5479  0.8362
  358TMC3    C7 5421   2.842   2.193   0.745 -0.0243  0.1410  0.0817
  358TMC3    C8 5422   2.683   1.810   0.488 -0.2612 -0.3048  0.1997
  358TMC3    O1 5423   2.929   2.277   0.733  0.2794  0.4771 -0.0349
  358TMC3    O2 5424   2.588   1.781   0.419 -0.2886 -0.0576  0.3268
  359MPD2     C 5425   2.907   0.770  12.346 -0.2240 -0.4103  0.4849
  359MPD2    C1 5426   3.001   0.683  12.375  0.2417 -0.4843  0.4255
  359MPD2    C2 5427   2.970   0.551  12.402  0.0867 -0.3200  0.1843
  359MPD2    C3 5428   2.839   0.504  12.383  0.3260  0.0254 -0.3244
  359MPD2    C4 5429   2.746   0.595  12.342 -0.2877  0.2805  0.6896
  359MPD2    C5 5430   2.777   0.725  12.330 -0.4023 -0.1170 -0.1717
  359MPD2     H 5431   3.051   0.485  12.430  0.2493  0.0988  0.7045
  359MPD2    H1 5432   2.648   0.555  12.320  0.8971 -1.3010 -1.7731
  359MPD2    H2 5433   2.921   0.876  12.335 -2.8208 -0.2582 -1.4920
  359MPD2    H3 5434   2.698   0.790  12.296 -1.9064 -0.9581  1.7153
  359MPD2     N 5435   2.801   0.371  12.385  0.5085  0.2486 -0.0673
  359MPD2    H5 5436   2.713   0.344  12.344 -0.5858  1.2184  1.6195
  359MPD2    N1 5437   3.140   0.718  12.397  0.1914 -0.4444 -0.7418
  359MPD2    H7 5438   3.206   0.643  12.418 -1.5964 -1.8797 -0.2580
  360TMC3    C1 5439   3.338   0.830  12.378  0.1124 -0.0836 -0.3460
  360TMC3    C2 5440   3.408   0.946  12.368 -0.1408  0.6001  0.0684
  360TMC3    C3 5441   3.544   0.937  12.347  0.5399 -0.5348 -0.2266
  360TMC3    C4 5442   3.401   0.708  12.366  0.6133 -0.4612  0.2218
  360TMC3    C5 5443   3.533   0.704  12.356 -0.0467  0.3266  0.3668
  360TMC3    C6 5444   3.605   0.819  12.355 -0.1444  1.0406 -0.3613
  360TMC3     C 5445   3.193   0.841  12.380 -0.2150  0.2243  0.1474
  360TMC3     O 5446   3.145   0.949  12.353 -0.6153 -0.2457 -0.2172
  360TMC3     H 5447   3.363   1.043  12.354  1.6718  1.4546  0.0550
  360TMC3    H1 5448   3.344   0.616  12.362 -3.4929  2.0729 -0.2966
  360TMC3    H2 5449   3.713   0.811  12.344 -0.4281 -1.7128 -1.3103
  360TMC3    C7 5450   3.586   0.625  12.247 -0.1562  0.2366 -0.1895
  360TMC3    C8 5451   3.598   1.029  12.241 -0.0027 -0.0456  0.1202
  360TMC3    O1 5452   3.652   0.682  12.159  0.5042  0.4990  0.5378
  360TMC3    O2 5453   3.558   1.144  12.239 -0.5535  0.3757 -0.7122
  361MPD2     C 5454   0.492   4.333  16.395 -0.0143 -0.1017 -0.0335
  361MPD2    C1 5455   0.462   4.331  16.528  0.0862  0.1844 -0.2793
  361MPD2    C2 5456   0.533   4.249  16.615  0.8434  0.1156 -0.8119
  361MPD2    C3 5457   0.626   4.160  16.569 -0.2266 -0.0376 -0.1802
  361MPD2    C4 5458   0.653   4.156  16.435  0.2352  0.0054  0.1864
  361MPD2    C5 5459   0.594   4.248  16.357  0.4378 -0.1786 -0.7715
  361MPD2     H 5460   0.519   4.257  16.722  0.4189  0.1659 -0.8690
  361MPD2    H1 5461   0.722   4.091  16.384 -0.5682  0.5289 -1.5610
  361MPD2    H2 5462   0.468   4.406  16.318  1.4379  1.0782  0.6285
  361MPD2    H3 5463   0.616   4.238  16.251  0.5109  1.4294 -0.9203
  361MPD2     N 5464   0.698   4.068  16.650 -0.0270 -0.0833  0.0014
  361MPD2    H5 5465   0.755   3.997  16.604  0.1292  0.1479 -0.1629
  361MPD2    N1 5466   0.359   4.416  16.582 -0.1309 -0.0579  0.1236
  361MPD2    H7 5467   0.349   4.404  16.683  0.2607 -1.8024 -0.0489
  362TMC3    C1 5468   0.169   4.564  16.587 -0.5217 -0.6487 -0.5191
  362TMC3    C2 5469   0.172   4.559  16.725  0.7857 -0.0110  0.1039
  362TMC3    C3 5470   0.074   4.619  16.793 -0.1306  0.0564 -0.4956
  362TMC3    C4 5471   0.084   4.653  16.520 -0.5351 -0.4519 -0.5592
  362TMC3    C5 5472   4.729   4.718  16.593  0.5620  0.0279  0.2889
  362TMC3    C6 5473   4.724   4.709  16.732  0.5082 -0.2215 -0.0198
  362TMC3     C 5474   0.269   4.496  16.510 -0.3211 -0.8839 -0.2184
  362TMC3     O 5475   0.278   4.528  16.392 -0.1031 -0.4032 -0.1056
  362TMC3     H 5476   0.238   4.491  16.778  1.6053  1.2280  0.6621
  362TMC3    H1 5477   0.101   4.671  16.415 -2.3146 -1.3128 -0.9975
  362TMC3    H2 5478   4.670   0.032  16.801  0.1160  1.0726 -1.5110
  362TMC3    C7 5479   4.655   0.075  16.515 -0.4760  0.1520  0.2079
  362TMC3    C8 5480   0.068   4.594  16.939  0.6154  0.7971  0.0989
  362TMC3    O1 5481   4.688   0.112  16.408  0.2971 -0.2463  0.5996
  362TMC3    O2 5482   0.155   4.519  16.984 -0.2185  0.0596  0.5859
  363TMC3    C1 5483   3.044   1.728   9.440 -1.3319 -0.2072  0.5383
  363TMC3    C2 5484   3.082   1.672   9.559 -0.1756 -0.0709  0.1569
  363TMC3    C3 5485   2.984   1.669   9.657  0.3829  0.1370 -0.6858
  363TMC3    C4 5486   2.915   1.768   9.417 -0.1317  0.1182 -0.7223
  363TMC3    C5 5487   2.819   1.749   9.512 -0.0494  0.5449  0.1016
  363TMC3    C6 5488   2.852   1.705   9.633  0.0208 -0.7364  0.3289
  363TMC3     C 5489   3.141   1.762   9.343  0.3335  0.3750  0.1239
  363TMC3     O 5490   3.120   1.858   9.277  0.0099  0.1739  0.2459
  363TMC3     H 5491   3.184   1.641   9.580 -0.6374 -1.9333 -0.3238
  363TMC3    H1 5492   2.887   1.806   9.319  2.5463  1.7871 -0.8150
  363TMC3    H2 5493   2.779   1.722   9.712  1.4585  0.9832  1.2949
  363TMC3    C7 5494   2.678   1.734   9.472  0.4451 -0.4463  0.4125
  363TMC3    C8 5495   3.011   1.601   9.788 -0.1221 -0.0019 -0.0962
  363TMC3    O1 5496   2.648   1.773   9.358 -0.0128 -0.0688  1.0380
  363TMC3    O2 5497   2.927   1.613   9.875  0.4378  0.8941 -0.1068
  364MPD2     C 5498   2.003   0.942  10.593  0.2806 -0.8134  0.3676
  364MPD2    C1 5499   2.112   0.917  10.520 -0.5654 -0.5344 -0.1776
  364MPD2    C2 5500   2.211   0.838  10.570  0.1279  0.0289  0.6394
  364MPD2    C3 5501   2.197   0.775  10.695 -0.6251  0.0446 -0.2762
  364MPD2    C4 5502   2.085   0.794  10.772  0.4797  0.3314  0.8067
  364MPD2    C5 5503   1.991   0.883  10.715  0.5329 -0.1446  0.9686
  364MPD2     H 5504   2.297   0.818  10.507 -1.2012  1.0258 -1.5320
  364MPD2    H1 5505   2.067   0.745  10.867 -0.6873  0.8618  0.8681
  364MPD2    H2 5506   1.923   1.006  10.557 -0.3866 -1.6343  0.3668
  364MPD2    H3 5507   1.904   0.901  10.777 -0.0373  0.5896 -0.0346
  364MPD2     N 5508   2.293   0.698  10.760 -0.0994  0.2852 -0.3741
  364MPD2    H5 5509   2.289   0.709  10.861  0.9536  1.5010 -0.4708
  364MPD2    N1 5510   2.113   0.976  10.394 -0.4547 -0.3207  0.4677
  364MPD2    H7 5511   2.027   1.026  10.375  0.7436  0.8507 -1.9036
  365TMC3    C1 5512   2.188   1.069  10.202 -0.3436 -0.0962  0.0921
  365TMC3    C2 5513   2.256   1.047  10.088 -0.0440  0.1610  0.2785
  365TMC3    C3 5514   2.265   1.152  10.000 -0.5251  0.2134 -0.1927
  365TMC3    C4 5515   2.148   1.195  10.249  0.2456  0.6874  0.5315
  365TMC3    C5 5516   2.178   1.294  10.161 -0.4549 -0.5368  1.0411
  365TMC3    C6 5517   2.235   1.276  10.036  0.0030 -0.3616 -0.1789
  365TMC3     C 5518   2.215   0.966  10.303  0.2976  0.6153  0.5188
  365TMC3     O 5519   2.334   0.931  10.310  0.3421 -0.6224  0.1216
  365TMC3     H 5520   2.295   0.948  10.071  2.9945  1.3672  0.2327
  365TMC3    H1 5521   2.098   1.203  10.345  0.8786  1.8893  0.7530
  365TMC3    H2 5522   2.262   1.361   9.974 -0.8312  0.4249  0.5404
  365TMC3    C7 5523   2.150   1.434  10.195 -0.2367 -0.0642 -0.4095
  365TMC3    C8 5524   2.328   1.136   9.874  0.5418  0.6802 -0.3491
  365TMC3    O1 5525   2.170   1.526  10.114 -0.4756  0.5929 -0.4621
  365TMC3    O2 5526   2.304   1.222   9.791  0.5032 -0.1152 -0.0574
  366MPD2     C 5527   0.732   2.020  15.128 -0.0079  0.2622  0.1173
  366MPD2    C1 5528   0.820   2.109  15.066 -0.0059 -1.0409  0.1320
  366MPD2    C2 5529   0.943   2.065  15.010  0.6158  0.0454  0.0650
  366MPD2    C3 5530   0.979   1.931  15.014  0.0460 -0.4075  0.5909
  366MPD2    C4 5531   0.896   1.853  15.089  0.1181 -0.3262  0.2249
  366MPD2    C5 5532   0.776   1.892  15.143  0.5708 -1.1561 -0.4644
  366MPD2     H 5533   1.014   2.135  14.968  0.0087  1.2740  1.0989
  366MPD2    H1 5534   0.921   1.748  15.102 -1.4400 -0.5129  1.6620
  366MPD2    H2 5535   0.640   2.061  15.169  0.4580 -0.6813  2.1084
  366MPD2    H3 5536   0.714   1.826  15.203  0.3507 -0.5931 -0.0795
  366MPD2     N 5537   1.108   1.900  14.958 -0.5769  0.0861  0.9157
  366MPD2    H5 5538   1.140   1.975  14.899  1.5251 -0.7783  0.9829
  366MPD2    N1 5539   0.802   2.252  15.054  0.3328 -0.2322  0.1566
  366MPD2    H7 5540   0.883   2.305  15.023  1.9572 -1.6217  1.9895
  367TMC3    C1 5541   0.737   2.463  15.079 -0.5968  0.1750 -0.1772
  367TMC3    C2 5542   0.853   2.501  15.145 -0.0569  0.4898 -0.5664
  367TMC3    C3 5543   0.908   2.616  15.103 -0.3784  0.3116  0.1448
  367TMC3    C4 5544   0.678   2.548  14.985  0.4760  0.2834  0.6314
  367TMC3    C5 5545   0.734   2.661  14.945  0.7117  0.2190  0.0377
  367TMC3    C6 5546   0.848   2.696  15.012 -0.0647 -1.0342 -0.0761
  367TMC3     C 5547   0.692   2.328  15.088  0.5341 -0.4006 -0.2297
  367TMC3     O 5548   0.575   2.295  15.095  0.0417  0.1471 -0.6887
  367TMC3     H 5549   0.908   2.426  15.200  0.1821  0.2708 -1.1046
  367TMC3    H1 5550   0.586   2.512  14.940  1.4736  0.3652 -1.4506
  367TMC3    H2 5551   0.885   2.796  14.997 -0.5902 -1.1282 -1.9804
  367TMC3    C7 5552   0.648   2.762  14.888  0.0699  0.7606  0.3419
  367TMC3    C8 5553   0.975   2.688  15.211 -0.3377 -0.3876  0.7365
  367TMC3    O1 5554   0.679   2.878  14.912 -0.2273 -0.0354 -0.5813
  367TMC3    O2 5555   1.071   2.761  15.185  0.4045  0.3700 -0.7586
  368MPD2     C 5556   1.618   4.218  13.332  0.1631 -0.0228 -0.0573
  368MPD2    C1 5557   1.650   4.317  13.249  0.5313 -0.1415  0.6973
  368MPD2    C2 5558   1.757   4.304  13.156 -0.9016  0.0314 -0.3920
  368MPD2    C3 5559   1.804   4.178  13.132 -0.1114 -0.6060  0.2532
  368MPD2    C4 5560   1.770   4.071  13.218  0.3372 -0.3583  0.0768
  368MPD2    C5 5561   1.670   4.092  13.314 -0.3713  0.4215 -0.4575
  368MPD2     H 5562   1.782   4.387  13.091 -1.2512  1.4302  1.2558
  368MPD2    H1 5563   1.810   3.971  13.212 -1.6740 -1.1081 -0.9055
  368MPD2    H2 5564   1.555   4.227  13.420  2.2996 -0.6011  1.5141
  368MPD2    H3 5565   1.641   4.006  13.373 -0.7597 -0.9207 -2.5916
  368MPD2     N 5566   1.922   4.171  13.051  0.9468 -0.3641 -0.2842
  368MPD2    H5 5567   1.977   4.086  13.058 -0.4596 -1.2668 -0.3686
  368MPD2    N1 5568   1.573   4.431  13.271  0.6999  0.1277  0.9410
  368MPD2    H7 5569   1.482   4.417  13.314 -1.1181 -0.7713 -3.1859
  369TMC3    C1 5570   1.482   4.619  13.154  0.0780  0.5442 -0.2055
  369TMC3    C2 5571   1.527   4.716  13.058  0.3471 -0.1023 -0.5320
  369TMC3    C3 5572   1.464   4.722  12.938 -0.0627 -0.5716  0.0372
  369TMC3    C4 5573   1.383   4.530  13.113  0.4148  0.6037  0.0230
  369TMC3    C5 5574   1.335   4.540  12.989  0.1504  0.5694 -0.6839
  369TMC3    C6 5575   1.374   4.631  12.897  0.8725 -0.6963 -0.1319
  369TMC3     C 5576   1.600   4.556  13.206 -0.2000 -0.2014 -0.6820
  369TMC3     O 5577   1.707   4.594  13.157 -0.3512  0.2291 -1.2288
  369TMC3     H 5578   1.596   0.049  13.098  0.1469  1.1734 -2.5312
  369TMC3    H1 5579   1.331   4.455  13.170  3.7290 -1.0727  0.8529
  369TMC3    H2 5580   1.325   4.646  12.801  1.0881  2.3520  0.2299
  369TMC3    C7 5581   1.220   4.461  12.957  0.8636  0.5193  0.2631
  369TMC3    C8 5582   1.536   0.045  12.834  0.9218  0.2826 -0.1128
  369TMC3    O1 5583   1.132   4.459  13.045 -0.1157  0.0446  0.4227
  369TMC3    O2 5584   1.575   0.155  12.867  0.5343  0.2065 -0.1867
  370TMC3    C1 5585   1.851   0.106  16.226  0.6701 -0.4067 -0.0696
  370TMC3    C2 5586   1.758   0.070  16.318 -0.0486  0.0913 -0.4118
  370TMC3    C3 5587   1.695   4.692  16.295 -0.2844  0.6377 -0.2207
  370TMC3    C4 5588   1.875   0.031  16.114 -0.4436 -0.5191  0.8982
  370TMC3    C5 5589   1.802   4.655  16.092 -0.4467  0.4979  0.2175
  370TMC3    C6 5590   1.723   4.603  16.195  0.7078 -0.3994  0.1985
  370TMC3     C 5591   1.968   0.175  16.289 -0.3025 -1.0210  0.2443
  370TMC3     O 5592   1.969   0.177  16.412 -0.0134  0.7340 -0.0358
  370TMC3     H 5593   1.732   0.147  16.389 -1.6806 -1.5273  0.7480
  370TMC3    H1 5594   1.956   0.054  16.046 -0.0810 -0.8981  1.2028
  370TMC3    H2 5595   1.669   4.510  16.182 -0.0748  0.1546 -0.5492
  370TMC3    C7 5596   1.856   4.571  15.986 -0.1991 -0.1062 -0.3370
  370TMC3    C8 5597   1.651   4.623  16.415  0.3191  0.0253 -0.0314
  370TMC3    O1 5598   1.915   4.632  15.898  0.0424  0.4273 -0.5951
  370TMC3    O2 5599   1.630   4.502  16.405  0.0809 -0.2171  0.3724
  371TMC3    C1 5600   2.739   3.289  15.332 -0.4728 -0.4141  0.0591
  371TMC3    C2 5601   2.679   3.309  15.454 -0.2334  0.6857 -0.3698
  371TMC3    C3 5602   2.663   3.443  15.485  0.5077  0.5454  0.2310
  371TMC3    C4 5603   2.778   3.391  15.243 -0.2354  0.2602  0.2946
  371TMC3    C5 5604   2.750   3.518  15.281  0.1807 -0.1076  0.2499
  371TMC3    C6 5605   2.687   3.549  15.397  0.0813 -0.0873 -0.1637
  371TMC3     C 5606   2.790   3.159  15.288 -0.4919  0.2923  0.1080
  371TMC3     O 5607   2.871   3.165  15.194 -0.0920  0.1729 -0.4054
  371TMC3     H 5608   2.644   3.230  15.519 -1.4962  0.8055 -0.9163
  371TMC3    H1 5609   2.836   3.375  15.153  0.1208 -0.0170  0.5712
  371TMC3    H2 5610   2.666   3.651  15.428  0.8839 -0.4733  1.6684
  371TMC3    C7 5611   2.802   3.626  15.204  0.3426 -0.4016 -0.1349
  371TMC3    C8 5612   2.625   3.481  15.625  0.2094 -0.6032  0.0398
  371TMC3    O1 5613   2.725   3.720  15.188  0.5158  0.0284  0.0275
  371TMC3    O2 5614   2.590   3.598  15.643  0.4631 -0.2464  0.2218
  372MPD2     C 5615   2.246   4.567  13.113  0.7874 -0.2630 -0.0276
  372MPD2    C1 5616   2.352   4.480  13.149  0.4767 -0.3145 -0.2612
  372MPD2    C2 5617   2.321   4.376  13.235  0.8384  0.3970  0.3065
  372MPD2    C3 5618   2.192   4.362  13.285 -0.7693 -0.5433  0.6306
  372MPD2    C4 5619   2.090   4.451  13.252 -0.6003  0.3023 -0.4402
  372MPD2    C5 5620   2.119   4.558  13.165 -0.4295  0.0261  0.6079
  372MPD2     H 5621   2.403   4.317  13.272  0.5825 -0.0004  0.2434
  372MPD2    H1 5622   1.986   4.439  13.283 -0.6156  2.0993  0.1775
  372MPD2    H2 5623   2.256   4.650  13.043 -2.2556  1.0223  1.0704
  372MPD2    H3 5624   2.029   4.607  13.129  0.8094  1.3988 -0.6138
  372MPD2     N 5625   2.171   4.254  13.369  0.3498  0.6357 -0.0003
  372MPD2    H5 5626   2.251   4.193  13.382 -1.4007 -1.4233  1.0044
  372MPD2    N1 5627   2.490   4.499  13.115  0.9131  0.0320  0.9104
  372MPD2    H7 5628   2.560   4.438  13.156  2.0038  0.6624 -0.0168
  373TMC3    C1 5629   2.056   4.093  13.496 -0.6264  0.2933 -0.1747
  373TMC3    C2 5630   1.947   4.071  13.572  0.4366  1.1656  0.7082
  373TMC3    C3 5631   1.935   3.944  13.616 -0.0448 -0.3794 -0.0077
  373TMC3    C4 5632   2.140   3.996  13.451  0.4096  0.2161 -0.5638
  373TMC3    C5 5633   2.109   3.867  13.478  0.0683 -0.5170 -0.7494
  373TMC3    C6 5634   1.998   3.837  13.553  0.5660  1.1968  0.4512
  373TMC3     C 5635   2.055   4.224  13.436  0.1593  0.6229 -0.5256
  373TMC3     O 5636   1.957   4.296  13.456  0.3666  0.0167  0.7576
  373TMC3     H 5637   1.897   4.152  13.624  0.3387  0.3187  1.9321
  373TMC3    H1 5638   2.239   4.019  13.412  0.1866  1.5256 -0.3397
  373TMC3    H2 5639   1.973   3.734  13.572  0.1044  0.8030 -2.2160
  373TMC3    C7 5640   2.199   3.766  13.429  0.3350  0.1985  0.0125
  373TMC3    C8 5641   1.822   3.912  13.700  0.1228 -0.2927 -0.1763
  373TMC3    O1 5642   2.313   3.794  13.388 -0.2243 -0.2790 -0.3361
  373TMC3    O2 5643   1.735   3.835  13.651  0.2400 -0.3577 -0.1305
  374TMC3    C1 5644   2.786   3.960  10.168 -0.5383 -0.0545 -0.0789
  374TMC3    C2 5645   2.848   4.083  10.135  0.3872 -0.0205  0.4682
  374TMC3    C3 5646   2.794   4.151  10.026 -0.7191 -0.2323  0.0206
  374TMC3    C4 5647   2.681   3.904  10.100 -0.0993 -0.0147  0.1054
  374TMC3    C5 5648   2.621   3.989  10.009  0.0413  0.3060 -0.0044
  374TMC3    C6 5649   2.682   4.110   9.974 -0.2784 -0.5380 -0.2621
  374TMC3     C 5650   2.829   3.913  10.298  0.2482 -0.0736  0.3913
  374TMC3     O 5651   2.951   3.896  10.316 -0.1367  0.3235 -0.1362
  374TMC3     H 5652   2.936   4.119  10.186  1.0095 -2.0303  0.8111
  374TMC3    H1 5653   2.635   3.809  10.125  0.4073 -0.6946 -1.5076
  374TMC3    H2 5654   2.622   4.165   9.902  0.2850 -0.0640 -0.3678
  374TMC3    C7 5655   2.499   3.947   9.946 -0.6335 -0.2821 -0.3211
  374TMC3    C8 5656   2.839   4.289   9.990 -0.1268 -0.9754 -0.2064
  374TMC3    O1 5657   2.446   3.856  10.010 -0.2246  0.3832  0.5074
  374TMC3    O2 5658   2.777   4.341   9.894 -0.2646 -0.0812 -0.0420
  375MPD2     C 5659   3.089   4.730  16.973 -0.7676 -0.1891  0.1203
  375MPD2    C1 5660   3.049   0.079  16.874 -0.8349 -0.1090  0.1026
  375MPD2    C2 5661   3.048   0.046  16.743 -0.1521 -0.0186  0.6091
  375MPD2    C3 5662   3.100   4.665  16.710 -0.0447 -0.8605 -0.7344
  375MPD2    C4 5663   3.131   4.569  16.804  0.2145  0.1297 -0.2058
  375MPD2    C5 5664   3.125   4.606  16.935  0.0581  0.0728 -0.3854
  375MPD2     H 5665   3.021   0.128  16.678  0.7184  0.9574  1.4871
  375MPD2    H1 5666   3.163   4.472  16.768 -1.4164 -0.0847 -1.0728
  375MPD2    H2 5667   3.099   0.017  17.077 -0.1937 -0.4454  0.1341
  375MPD2    H3 5668   3.164   4.538  17.010 -0.9579  0.9442  0.9474
  375MPD2     N 5669   3.106   4.627  16.577  0.0284  0.2758  0.0938
  375MPD2    H5 5670   3.129   4.529  16.559 -2.5483 -0.1276 -1.0271
  375MPD2    N1 5671   2.985   0.200  16.902 -0.6761 -0.2974 -0.4594
  375MPD2    H7 5672   2.949   0.238  16.815 -0.0107  1.5579  0.0798
  376TMC3    C1 5673   3.127   4.634  16.350  0.0082  0.5700 -0.2032
  376TMC3    C2 5674   3.255   4.585  16.349  0.3472  0.0291 -0.2953
  376TMC3    C3 5675   3.311   4.576  16.226  0.6064  0.1536 -0.3214
  376TMC3    C4 5676   3.057   4.655  16.234 -0.6082  0.3444  0.8261
  376TMC3    C5 5677   3.116   4.629  16.114 -1.2350  0.3882 -0.2017
  376TMC3    C6 5678   3.243   4.597  16.111  0.2992  0.1258  0.3087
  376TMC3     C 5679   3.074   4.699  16.462 -0.6013  0.0086  0.0536
  376TMC3     O 5680   3.002   0.060  16.453 -0.4883  0.4230 -0.0947
  376TMC3     H 5681   3.321   4.583  16.436  1.5122 -1.3664 -1.1968
  376TMC3    H1 5682   2.957   4.696  16.224  0.0176  1.7022  0.1529
  376TMC3    H2 5683   3.291   4.578  16.015 -1.0909 -0.8027 -0.1895
  376TMC3    C7 5684   3.057   4.692  15.993 -0.2403  0.0430 -0.7428
  376TMC3    C8 5685   3.448   4.624  16.217  0.0616 -0.0878 -0.4150
  376TMC3    O1 5686   2.970   0.039  16.006  0.4469  0.1662 -1.3674
  376TMC3    O2 5687   3.478   4.688  16.118  0.2145  0.4632 -0.1241
  377MPD2     C 5688   0.914   0.255  12.438  0.5656  0.1197 -0.8165
  377MPD2    C1 5689   1.013   0.214  12.530  0.2746 -0.1446 -0.2741
  377MPD2    C2 5690   0.962   0.145  12.643  0.2989  0.2687  0.5372
  377MPD2    C3 5691   0.824   0.126  12.664  0.2815 -0.3576 -0.2477
  377MPD2    C4 5692   0.739   0.167  12.574 -0.3437  0.2258 -0.4513
  377MPD2    C5 5693   0.782   0.238  12.466  0.8803 -0.2727  0.6455
  377MPD2     H 5694   1.024   0.122  12.728 -0.3197  1.2605  1.2686
  377MPD2    H1 5695   0.634   0.140  12.572 -0.0754 -0.7651 -0.9229
  377MPD2    H2 5696   0.943   0.314  12.352  1.8560 -0.4480 -0.7732
  377MPD2    H3 5697   0.719   0.264  12.382  0.1162  0.0407  1.3188
  377MPD2     N 5698   0.769   0.053  12.775  0.3369 -0.1801 -0.4307
  377MPD2    H5 5699   0.668   0.058  12.788  0.2595 -0.5100 -0.8978
  377MPD2    N1 5700   1.145   0.260  12.517 -0.3208  0.1485  0.0289
  377MPD2    H7 5701   1.160   0.331  12.446 -0.0659 -1.9889 -2.0578
  378TMC3    C1 5702   1.395   0.385  12.325  0.3655  0.9121  0.1942
  378TMC3    C2 5703   1.342   0.385  12.456  0.2350 -0.5806  0.2660
  378TMC3    C3 5704   1.373   0.271  12.532 -0.2746  0.1999 -0.1713
  378TMC3    C4 5705   1.485   0.296  12.277 -0.2648  0.0505  0.1183
  378TMC3    C5 5706   1.509   0.184  12.355  0.2990  0.5877 -0.6172
  378TMC3    C6 5707   1.457   0.173  12.487 -0.3099  0.5424  0.4198
  378TMC3     C 5708   1.299   0.437  12.230  0.6113  0.1557 -0.5819
  378TMC3     O 5709   1.197   0.482  12.279 -0.4291  0.3072  0.1176
  378TMC3     H 5710   1.289   0.471  12.495 -0.8694 -0.5012 -1.3923
  378TMC3    H1 5711   1.522   0.300  12.175  1.8797 -0.9075  0.8666
  378TMC3    H2 5712   1.473   0.080  12.540 -1.3317  0.1694  0.0851
  378TMC3    C7 5713   1.588   0.070  12.307  0.4738  0.2485  0.7037
  378TMC3    C8 5714   1.255   0.218  12.594  0.1631 -0.2657  0.1939
  378TMC3    O1 5715   1.583   4.706  12.369 -0.1682  0.1820 -0.3827
  378TMC3    O2 5716   1.262   0.128  12.681 -0.6205 -0.0644 -0.7240
  379MPD2     C 5717   1.373   3.045  16.303  0.3133 -0.1292  0.1435
  379MPD2    C1 5718   1.498   3.031  16.244 -0.0712  0.1045 -0.5183
  379MPD2    C2 5719   1.618   3.014  16.318 -0.3727 -0.3530 -0.0934
  379MPD2    C3 5720   1.607   3.006  16.453 -0.0931  0.2439 -0.1988
  379MPD2    C4 5721   1.483   3.014  16.515  1.2346 -0.1759  0.1767
  379MPD2    C5 5722   1.377   3.038  16.439  0.0229 -0.0972 -0.7460
  379MPD2     H 5723   1.708   2.980  16.268 -0.8667 -1.4180 -0.2524
  379MPD2    H1 5724   1.488   3.010  16.623  1.7928  0.8362  0.1894
  379MPD2    H2 5725   1.280   3.070  16.254 -0.1225 -2.5462 -0.2885
  379MPD2    H3 5726   1.285   3.064  16.489  0.1685 -2.6751  0.8598
  379MPD2     N 5727   1.719   2.991  16.530  0.8369  0.3332  0.2578
  379MPD2    H5 5728   1.710   2.967  16.628 -2.3795 -0.5257 -0.2537
  379MPD2    N1 5729   1.489   3.039  16.104 -0.2855  0.1678  0.0820
  379MPD2    H7 5730   1.396   3.034  16.065 -0.9812  2.7229  1.4391
  380TMC3    C1 5731   1.554   3.025  15.890  0.2885 -0.1144  0.3132
  380TMC3    C2 5732   1.646   2.985  15.790 -0.8416 -1.0750  0.6896
  380TMC3    C3 5733   1.594   2.954  15.665 -0.2280  0.2918  1.3117
  380TMC3    C4 5734   1.413   3.048  15.861 -0.2395 -0.7401 -0.1199
  380TMC3    C5 5735   1.381   3.037  15.728 -0.1958 -0.1139  0.0898
  380TMC3    C6 5736   1.468   2.984  15.628  0.2816  0.3687 -0.2006
  380TMC3     C 5737   1.600   3.034  16.027 -0.8969 -0.8460  0.5397
  380TMC3     O 5738   1.723   3.024  16.057  0.0484  0.6061 -0.1171
  380TMC3     H 5739   1.748   2.966  15.820 -0.9158 -1.1245  0.9066
  380TMC3    H1 5740   1.341   3.098  15.925  1.9914 -0.7036  2.3495
  380TMC3    H2 5741   1.441   2.961  15.526 -1.0757  0.8155  0.0601
  380TMC3    C7 5742   1.238   3.001  15.711  0.9772  0.1826 -0.0999
  380TMC3    C8 5743   1.696   2.914  15.565 -0.8057 -0.1805 -0.3901
  380TMC3    O1 5744   1.160   3.050  15.793  0.1802 -0.0055 -0.0566
  380TMC3    O2 5745   1.670   2.922  15.443 -0.4463  0.5421 -0.2147
  381TMC3    C1 5746   1.654   3.903  16.275  0.7523  0.6683 -0.0256
  381TMC3    C2 5747   1.759   3.994  16.272  0.6590 -0.1151  0.4483
  381TMC3    C3 5748   1.763   4.086  16.374 -0.5784 -0.1372 -0.7673
  381TMC3    C4 5749   1.558   3.908  16.368  0.3875 -0.5394 -0.6470
  381TMC3    C5 5750   1.562   4.015  16.450  0.8880  0.5417 -0.0061
  381TMC3    C6 5751   1.654   4.109  16.455  0.4700 -0.0924 -0.0752
  381TMC3     C 5752   1.657   3.791  16.184 -0.0256  0.3153 -0.8602
  381TMC3     O 5753   1.589   3.692  16.217  0.2103 -0.4022 -0.5375
  381TMC3     H 5754   1.849   3.976  16.215  0.8160  0.0377  0.6483
  381TMC3    H1 5755   1.502   3.817  16.385  1.0385 -1.0137 -1.0223
  381TMC3    H2 5756   1.636   4.195  16.519 -1.1470 -0.3886 -0.1157
  381TMC3    C7 5757   1.506   3.978  16.579 -0.3290 -0.2184 -0.0496
  381TMC3    C8 5758   1.895   4.150  16.392 -0.6434 -0.5015 -0.7885
  381TMC3    O1 5759   1.529   3.866  16.618 -0.3070  0.4578 -0.4507
  381TMC3    O2 5760   1.994   4.113  16.331  0.4103  0.4546 -0.4137
  382MPD2     C 5761   0.832   1.401   0.027  0.2098 -0.4955 -0.1867
  382MPD2    C1 5762   0.713   1.424  17.728 -0.1146 -0.2971  0.1232
  382MPD2    C2 5763   0.673   1.358  17.608  0.0360 -0.0770 -0.3138
  382MPD2    C3 5764   0.764   1.256  17.561  0.3303  0.6351 -0.9959
  382MPD2    C4 5765   0.882   1.234  17.631 -0.4538 -0.6309 -0.7650
  382MPD2    C5 5766   0.913   1.300  17.745  0.4677 -0.5424  0.0989
  382MPD2     H 5767   0.585   1.394  17.555  0.4332  0.1551 -0.8197
  382MPD2    H1 5768   0.951   1.154  17.605  1.0643  0.9440 -1.6241
  382MPD2    H2 5769   0.870   1.463   0.108 -0.9631 -0.5877  0.4320
  382MPD2    H3 5770   0.998   1.276   0.049 -0.2273 -2.0303  0.4789
  382MPD2     N 5771   0.738   1.178  17.450 -0.3811 -0.2797  0.5433
  382MPD2    H5 5772   0.795   1.094  17.444  0.1565  0.1975 -0.9740
  382MPD2    N1 5773   0.616   1.512   0.021  0.2012  0.0225 -0.6634
  382MPD2    H7 5774   0.539   1.538  17.719 -0.1927 -1.2016 -0.6814
  383TMC3    C1 5775   0.598   1.068  17.310 -0.0796 -0.1367  0.2835
  383TMC3    C2 5776   0.520   1.078  17.196  0.2057 -0.1424  0.3287
  383TMC3    C3 5777   0.475   0.956  17.148  0.0780 -0.9736 -0.0655
  383TMC3    C4 5778   0.629   0.950  17.369  0.1476 -0.4223 -0.0834
  383TMC3    C5 5779   0.584   0.836  17.320 -0.0452  0.1688  0.3310
  383TMC3    C6 5780   0.512   0.834  17.203 -0.4945  0.3983 -0.7577
  383TMC3     C 5781   0.627   1.189  17.375 -0.3955  0.3426  0.7515
  383TMC3     O 5782   0.556   1.287  17.354 -0.2992  0.1117  0.5125
  383TMC3     H 5783   0.477   1.170  17.157 -0.2346 -1.0408 -1.3101
  383TMC3    H1 5784   0.709   0.948  17.443 -0.9238  1.6350  1.1063
  383TMC3    H2 5785   0.468   0.738  17.176  0.5151 -0.8235  1.8993
  383TMC3    C7 5786   0.673   0.728  17.349  0.8547 -0.8600  0.1967
  383TMC3    C8 5787   0.388   0.962  17.032 -0.7247 -0.4988  0.4196
  383TMC3    O1 5788   0.687   0.648  17.254  0.1741  0.2910  0.2016
  383TMC3    O2 5789   0.345   1.072  16.996 -0.2431  0.0102 -0.2693
  384MPD2     C 5790   1.960   2.933  11.644 -0.8178  0.5893  0.3713
  384MPD2    C1 5791   2.015   2.880  11.751  0.3163  0.1639  0.2213
  384MPD2    C2 5792   2.055   2.747  11.754  0.3700  0.5068  0.5528
  384MPD2    C3 5793   2.054   2.673  11.636 -0.4625 -0.0290 -0.8678
  384MPD2    C4 5794   2.008   2.734  11.518  0.2723  0.2543  0.2573
  384MPD2    C5 5795   1.952   2.860  11.526 -0.1738  0.6309  0.0263
  384MPD2     H 5796   2.083   2.696  11.846 -1.1081 -1.5589 -0.1278
  384MPD2    H1 5797   2.014   2.693  11.418 -1.3357 -0.0278  0.2803
  384MPD2    H2 5798   1.928   3.037  11.648  1.7332  1.3842  0.2948
  384MPD2    H3 5799   1.909   2.913  11.442 -1.3779  1.2917  1.0619
  384MPD2     N 5800   2.080   2.534  11.649 -1.3170  0.1604  0.1026
  384MPD2    H5 5801   2.136   2.499  11.726 -0.1432  0.5359 -0.5835
  384MPD2    N1 5802   2.010   2.943  11.877 -0.3627  0.3045 -0.4161
  384MPD2    H7 5803   2.045   2.889  11.956  1.0337  0.6811 -0.7684
  385TMC3    C1 5804   2.109   2.313  11.583 -0.4211  0.4265  0.4433
  385TMC3    C2 5805   2.005   2.224  11.585  0.0529 -0.5058 -0.4906
  385TMC3    C3 5806   1.993   2.149  11.696  0.5484 -0.3693  0.7878
  385TMC3    C4 5807   2.206   2.319  11.682 -0.2956 -0.7990  0.6233
  385TMC3    C5 5808   2.182   2.245  11.798  0.1462  0.5042 -0.0690
  385TMC3    C6 5809   2.078   2.160  11.806 -0.9332  0.6235  0.2177
  385TMC3     C 5810   2.058   2.443  11.547 -0.1822  0.2819 -0.0778
  385TMC3     O 5811   1.968   2.452  11.459  0.5830  0.3452 -0.2822
  385TMC3     H 5812   1.937   2.211  11.501  0.1364 -0.4737 -0.5629
  385TMC3    H1 5813   2.284   2.393  11.667 -0.5525 -0.9845 -1.7679
  385TMC3    H2 5814   2.059   2.090  11.886  1.6591 -0.7868 -0.3831
  385TMC3    C7 5815   2.185   2.332  11.910 -0.6441  0.3416  0.5055
  385TMC3    C8 5816   1.890   2.058  11.707  0.6352  0.1591 -0.1895
  385TMC3    O1 5817   2.212   2.450  11.884  0.1524 -0.0181 -0.2893
  385TMC3    O2 5818   1.832   2.036  11.812 -0.2314 -0.4462 -0.0277
  386TMC3    C1 5819   2.359   0.081  11.288 -0.4527  0.2876  0.2327
  386TMC3    C2 5820   2.284   0.070  11.169 -0.2202 -0.2473  0.1987
  386TMC3    C3 5821   2.150   0.073  11.187 -0.0255 -0.7452  0.2610
  386TMC3    C4 5822   2.299   0.094  11.418 -0.7497  0.6194 -0.4689
  386TMC3    C5 5823   2.169   0.121  11.417 -0.0703 -0.0992  0.4471
  386TMC3    C6 5824   2.091   0.109  11.308  0.5717 -1.1493 -0.1391
  386TMC3     C 5825   2.505   0.056  11.292 -0.1230 -0.0822  0.4900
  386TMC3     O 5826   2.564   0.053  11.184  0.2697  0.1876 -0.6344
  386TMC3     H 5827   2.338   0.039  11.080  0.1285  2.0609 -0.3694
  386TMC3    H1 5828   2.361   0.128  11.500  0.0908 -3.3511  0.5402
  386TMC3    H2 5829   1.987   0.137  11.321  0.9856  1.2007 -1.7826
  386TMC3    C7 5830   2.127   0.216  11.516  0.3310  0.5302 -0.5943
  386TMC3    C8 5831   2.057   0.107  11.077  0.3678  0.2192  0.0220
  386TMC3    O1 5832   2.177   0.203  11.627  0.1751  0.1058  0.5145
  386TMC3    O2 5833   1.938   0.106  11.108 -0.3097  0.7310  0.1884
  387MPD2     C 5834   4.478   0.143   9.988  0.0587  0.0126 -0.5686
  387MPD2    C1 5835   4.558   0.097  10.088 -0.1048  0.0820  0.4545
  387MPD2    C2 5836   4.637   4.724  10.078 -1.2423  0.0453  0.0107
  387MPD2    C3 5837   4.625   4.645   9.963  0.1999 -0.2709  0.1701
  387MPD2    C4 5838   4.532   4.688   9.863 -0.9424 -0.2560 -0.1152
  387MPD2    C5 5839   4.463   0.069   9.868 -0.0443  0.4289 -0.1745
  387MPD2     H 5840   4.696   4.688  10.162  0.6522 -1.0842 -1.8052
  387MPD2    H1 5841   4.516   4.622   9.779  0.3087  0.9243 -1.2848
  387MPD2    H2 5842   4.432   0.241  10.001  0.0311 -0.5133  3.4999
  387MPD2    H3 5843   4.392   0.092   9.790 -1.0822  1.5327  1.1002
  387MPD2     N 5844   4.695   4.525   9.955  0.1594 -0.2260  0.5001
  387MPD2    H5 5845   0.016   4.507  10.033 -0.2423  0.8334  1.0650
  387MPD2    N1 5846   4.586   0.171  10.206  0.1484  0.0721 -0.5551
  387MPD2    H7 5847   4.642   0.120  10.274 -0.7872  0.3951  0.4609
  388TMC3    C1 5848   4.605   0.345  10.361  0.0381 -0.2112 -0.5368
  388TMC3    C2 5849   4.627   0.480  10.346 -0.0178 -0.0925 -0.4514
  388TMC3    C3 5850   0.000   0.535  10.387 -0.3878 -0.9287  0.0030
  388TMC3    C4 5851   4.700   0.269  10.413 -0.3641  0.2974  0.1538
  388TMC3    C5 5852   0.076   0.327  10.453  0.5430  0.0937  0.4930
  388TMC3    C6 5853   0.099   0.457  10.448 -0.4966 -0.4575 -0.0463
  388TMC3     C 5854   4.535   0.293  10.248 -0.0014  0.1078 -1.0171
  388TMC3     O 5855   4.458   0.372  10.192 -0.2367 -0.7303  0.6075
  388TMC3     H 5856   4.546   0.534  10.299 -1.1819 -0.4108  1.2013
  388TMC3    H1 5857   4.681   0.166  10.441 -0.6255  0.6323  1.2049
  388TMC3    H2 5858   0.198   0.486  10.482 -0.2771 -2.0333  0.6382
  388TMC3    C7 5859   0.186   0.240  10.462 -0.3513  0.2827  0.5631
  388TMC3    C8 5860   0.003   0.673  10.379  0.4653 -0.3380 -0.1399
  388TMC3    O1 5861   0.283   0.271  10.530 -0.9296  0.2411 -0.2403
  388TMC3    O2 5862   4.650   0.726  10.325  0.1563 -0.5517 -0.2878
  389MPD2     C 5863   3.296   3.304  10.366 -0.2159 -0.4772 -0.3856
  389MPD2    C1 5864   3.428   3.323  10.405 -0.6901 -0.6504  0.1985
  389MPD2    C2 5865   3.453   3.274  10.535 -0.4518 -0.0549 -0.1815
  389MPD2    C3 5866   3.349   3.239  10.623  0.4896 -0.3864 -0.6577
  389MPD2    C4 5867   3.227   3.217  10.577 -0.3665 -0.8367  0.0038
  389MPD2    C5 5868   3.198   3.243  10.445 -0.3721 -0.4105  0.3899
  389MPD2     H 5869   3.550   3.271  10.582 -0.1327 -1.0034 -0.9106
  389MPD2    H1 5870   3.160   3.159  10.639  1.8248 -0.4271  2.7886
  389MPD2    H2 5871   3.273   3.334  10.265 -0.5802 -0.6040 -0.3410
  389MPD2    H3 5872   3.100   3.225  10.403 -1.3105  1.5648  1.7150
  389MPD2     N 5873   3.372   3.193  10.750 -0.6019 -0.0640 -0.2455
  389MPD2    H5 5874   3.300   3.142  10.800  0.4587 -0.9717  0.3580
  389MPD2    N1 5875   3.528   3.367  10.319 -0.0696 -0.1805 -0.3519
  389MPD2    H7 5876   3.509   3.399  10.224  1.6599  1.0101 -0.2910
  390TMC3    C1 5877   3.502   3.106  10.932  0.5481  0.1192  0.5130
  390TMC3    C2 5878   3.480   2.976  10.908  0.3778 -0.2120  0.5563
  390TMC3    C3 5879   3.484   2.888  11.009  0.2573 -0.0041 -0.0564
  390TMC3    C4 5880   3.562   3.147  11.045  0.0091 -0.1717  0.2726
  390TMC3    C5 5881   3.571   3.057  11.140  0.3418 -0.1542 -0.0904
  390TMC3    C6 5882   3.520   2.929  11.131  0.1071  0.8472  0.2620
  390TMC3     C 5883   3.486   3.204  10.826 -0.4777 -0.1001 -0.2291
  390TMC3     O 5884   3.577   3.279  10.816  0.1239  0.1605 -0.0557
  390TMC3     H 5885   3.421   2.950  10.821  0.6672 -2.2799  0.9971
  390TMC3    H1 5886   3.602   3.248  11.046 -1.4026  0.4111 -0.8643
  390TMC3    H2 5887   3.524   2.859  11.214  2.9517  1.7627  0.8875
  390TMC3    C7 5888   3.647   3.092  11.253 -0.6713 -0.4089  0.0242
  390TMC3    C8 5889   3.387   2.784  10.993 -0.3744 -0.0902 -0.1373
  390TMC3    O1 5890   3.702   3.203  11.261  0.8703  0.3599  0.4240
  390TMC3    O2 5891   3.386   2.722  10.888  0.3477  0.1675  0.1537
  391MPD2     C 5892   3.282   4.539  11.423 -0.2224  0.0877  0.4021
  391MPD2    C1 5893   3.373   4.632  11.375  0.2939  0.2415 -0.4365
  391MPD2    C2 5894   3.385   4.645  11.238 -0.5169  0.5815 -0.1274
  391MPD2    C3 5895   3.297   4.587  11.156 -0.2759 -0.3391  0.2678
  391MPD2    C4 5896   3.196   4.506  11.209  0.7999  0.2868  0.2849
  391MPD2    C5 5897   3.192   4.475  11.342  0.2883  0.2289 -0.4069
  391MPD2     H 5898   3.468   4.696  11.191 -1.7734  3.3535  0.6830
  391MPD2    H1 5899   3.110   4.470  11.154  0.4072 -0.2463  1.2503
  391MPD2    H2 5900   3.268   4.516  11.528  0.5044 -1.7103  0.1082
  391MPD2    H3 5901   3.110   4.419  11.385 -0.6446  0.8819 -1.3505
  391MPD2     N 5902   3.306   4.619  11.020 -0.1379  0.6363  0.0970
  391MPD2    H5 5903   3.377   4.689  11.002 -0.8511  1.7011  1.4049
  391MPD2    N1 5904   3.456   4.690  11.465 -0.8436 -0.2970  0.3751
  391MPD2    H7 5905   3.446   4.653  11.559  3.6649 -0.7295  0.6885
  392TMC3    C1 5906   3.266   4.623  10.782  0.4305 -0.9905 -0.3815
  392TMC3    C2 5907   3.174   4.628  10.686 -0.0509 -0.4818 -0.5143
  392TMC3    C3 5908   3.208   4.673  10.563 -0.5797  0.6693 -0.0584
  392TMC3    C4 5909   3.399   4.643  10.749  0.2914 -0.5062 -0.1273
  392TMC3    C5 5910   3.430   4.685  10.628 -0.5178  0.5694  0.3680
  392TMC3    C6 5911   3.332   4.692  10.526  0.3139 -0.1311 -0.5218
  392TMC3     C 5912   3.224   4.575  10.917  0.0745 -0.2452  0.2886
  392TMC3     O 5913   3.115   4.529  10.921  0.0298  1.4162  0.0776
  392TMC3     H 5914   3.076   4.585  10.705  0.4475 -1.2219  0.4156
  392TMC3    H1 5915   3.476   4.617  10.821 -0.2837  0.8385  1.0023
  392TMC3    H2 5916   3.354   4.703  10.421 -0.3349 -1.0920 -0.7605
  392TMC3    C7 5917   3.520   0.054  10.628  0.2887  0.3240 -0.3543
  392TMC3    C8 5918   3.110   4.628  10.459 -0.6663 -0.4559  0.0230
  392TMC3    O1 5919   3.566   0.085  10.734  0.2834  0.1342  0.3794
  392TMC3    O2 5920   3.012   4.557  10.491 -0.2076 -0.6704 -0.1607
  393TMC3    C1 5921   1.440   2.828  10.370  0.2340 -0.3670 -0.3779
  393TMC3    C2 5922   1.320   2.806  10.314 -0.1992 -0.2373 -0.4741
  393TMC3    C3 5923   1.213   2.795  10.391  0.0491  0.6498 -0.3098
  393TMC3    C4 5924   1.455   2.835  10.508 -0.5415  0.3403  0.1994
  393TMC3    C5 5925   1.336   2.823  10.584 -0.2732  0.0176  0.4669
  393TMC3    C6 5926   1.215   2.806  10.528 -0.4188  0.2467  0.0783
  393TMC3     C 5927   1.531   2.876  10.271  0.0014  0.1762  0.3435
  393TMC3     O 5928   1.485   2.917  10.166 -0.2962  0.3244 -0.2304
  393TMC3     H 5929   1.313   2.789  10.207  2.0063 -1.9772 -0.3474
  393TMC3    H1 5930   1.547   2.866  10.555  0.5585 -1.9005 -0.4671
  393TMC3    H2 5931   1.130   2.783  10.592 -0.1800 -1.7180 -0.3005
  393TMC3    C7 5932   1.348   2.796  10.729 -0.2508 -0.2347 -0.8300
  393TMC3    C8 5933   1.099   2.716  10.335  0.3066  0.8634  0.4816
  393TMC3    O1 5934   1.249   2.807  10.799 -0.3220  0.0293  0.4481
  393TMC3    O2 5935   1.015   2.686  10.418 -0.0815  0.2026 -0.8045
  394TMC3    C1 5936   3.745   3.425  10.239  0.1462  0.0637 -0.5188
  394TMC3    C2 5937   3.709   3.372  10.116 -0.0028  0.3027 -0.4484
  394TMC3    C3 5938   3.787   3.389  10.006 -0.2657 -0.1882 -0.2515
  394TMC3    C4 5939   3.866   3.483  10.259 -0.2201 -0.1151  0.7160
  394TMC3    C5 5940   3.947   3.485  10.153  0.0131  0.2503  0.1640
  394TMC3    C6 5941   3.910   3.442  10.028 -0.2641  0.4243 -0.1224
  394TMC3     C 5942   3.657   3.394  10.356 -0.1759 -0.2394 -0.0399
  394TMC3     O 5943   3.699   3.410  10.474  0.0271  0.5339 -0.4988
  394TMC3     H 5944   3.616   3.318  10.104 -0.8247  1.6229 -0.1259
  394TMC3    H1 5945   3.886   3.506  10.363  0.7888  0.1526  0.4596
  394TMC3    H2 5946   3.983   3.439   9.948  0.6140  1.0995  0.6435
  394TMC3    C7 5947   4.073   3.562  10.159 -0.3937  0.4927  0.2334
  394TMC3    C8 5948   3.783   3.287   9.901 -0.1131 -0.9736  0.3620
  394TMC3    O1 5949   4.121   3.619  10.062 -0.3355 -0.6403  0.1676
  394TMC3    O2 5950   3.822   3.310   9.785 -0.5001 -0.4753 -0.0358
  395TMC3    C1 5951   3.660   0.544  14.329 -0.6147 -0.1476  0.2285
  395TMC3    C2 5952   3.551   0.540  14.411 -0.1391  0.1427  0.2314
  395TMC3    C3 5953   3.554   0.609  14.525  0.3730  0.0651  0.0553
  395TMC3    C4 5954   3.761   0.638  14.352  0.2261 -0.1539 -0.1821
  395TMC3    C5 5955   3.757   0.728  14.454  0.3043  0.2349  0.6623
  395TMC3    C6 5956   3.657   0.701  14.546 -0.3359 -0.2259  0.2187
  395TMC3     C 5957   3.721   0.418  14.298  0.2674 -0.1419  0.2151
  395TMC3     O 5958   3.839   0.407  14.334 -0.1803 -0.6217  0.1869
  395TMC3     H 5959   3.467   0.476  14.385  0.1967 -0.0298 -0.4412
  395TMC3    H1 5960   3.844   0.632  14.283  0.9304  0.1344  0.6452
  395TMC3    H2 5961   3.666   0.752  14.641 -1.2103  0.2221  0.0543
  395TMC3    C7 5962   3.872   0.808  14.481  0.1905  1.0987  0.3944
  395TMC3    C8 5963   3.500   0.552  14.644  0.1230 -0.4561 -0.1645
  395TMC3    O1 5964   3.889   0.841  14.598  0.0227  0.5323  0.3473
  395TMC3    O2 5965   3.513   0.617  14.748  0.0676  0.4737 -0.0011
  396MPD2     C 5966   3.479   1.670  17.178 -0.0839  0.0181 -0.2395
  396MPD2    C1 5967   3.604   1.660  17.124 -0.1815  0.5083  0.5012
  396MPD2    C2 5968   3.638   1.731  17.006 -0.6828  0.1925  0.2624
  396MPD2    C3 5969   3.534   1.804  16.947  0.4805 -0.0217  0.3583
  396MPD2    C4 5970   3.408   1.816  17.000  0.5449 -0.4407 -0.1569
  396MPD2    C5 5971   3.385   1.743  17.120 -0.0416 -0.6643  0.1601
  396MPD2     H 5972   3.739   1.738  16.966  0.1401  0.4292  2.3929
  396MPD2    H1 5973   3.335   1.875  16.945  0.4283  0.5026  1.0251
  396MPD2    H2 5974   3.460   1.607  17.264  0.8035  0.6346  0.4048
  396MPD2    H3 5975   3.287   1.746  17.165 -0.3161 -1.1824 -0.4049
  396MPD2     N 5976   3.580   1.881  16.834  0.2639 -0.4700  0.0452
  396MPD2    H5 5977   3.681   1.875  16.822  0.4043 -0.6660  1.3048
  396MPD2    N1 5978   3.693   1.570  17.188  0.2712 -0.5250  0.2619
  396MPD2    H7 5979   3.665   1.525  17.275 -0.3957  0.8154  0.7393
  397TMC3    C1 5980   3.879   1.433  17.226  0.2034 -0.2260  0.3726
  397TMC3    C2 5981   4.007   1.425  17.174 -0.6166  0.0057 -0.3947
  397TMC3    C3 5982   4.046   1.318  17.091  0.5335  0.0409 -0.5938
  397TMC3    C4 5983   3.808   1.314  17.219  0.2294 -0.0836  0.2944
  397TMC3    C5 5984   3.843   1.209  17.135  0.2814  0.2447 -1.0990
  397TMC3    C6 5985   3.962   1.207  17.073 -0.2348  0.6434 -0.6333
  397TMC3     C 5986   3.816   1.532  17.145 -0.6011 -0.5680  0.4178
  397TMC3     O 5987   3.868   1.573  17.043 -0.2365 -0.3897 -0.2985
  397TMC3     H 5988   4.054   1.520  17.150  1.5380 -1.1500 -0.8280
  397TMC3    H1 5989   3.712   1.320  17.269 -1.0527 -2.8602 -1.8153
  397TMC3    H2 5990   3.984   1.128  17.002  0.9190 -0.8358  1.3686
  397TMC3    C7 5991   3.781   1.079  17.157 -0.1354  0.0536 -0.1239
  397TMC3    C8 5992   4.115   1.347  16.972  0.4720  0.3997  0.2354
  397TMC3    O1 5993   3.773   1.008  17.054  0.1336 -0.7065  0.4790
  397TMC3    O2 5994   4.070   1.292  16.874  0.5028  0.3560  0.2997
  398MPD2     C 5995   2.176   3.583   0.246  0.8619  0.3296  0.1601
  398MPD2    C1 5996   2.237   3.554   0.126 -0.2979  0.5522 -0.3464
  398MPD2    C2 5997   2.314   3.649   0.064  0.6758  0.4566  0.2509
  398MPD2    C3 5998   2.350   3.767   0.127 -0.1386 -0.1143 -0.2626
  398MPD2    C4 5999   2.297   3.792   0.250 -0.1631  0.5427 -0.7009
  398MPD2    C5 6000   2.204   3.704   0.302 -0.1434 -0.4142  0.3751
  398MPD2     H 6001   2.350   3.619  17.725 -0.6015 -2.8734  0.7697
  398MPD2    H1 6002   2.319   3.883   0.305  0.0512  1.3627 -2.1556
  398MPD2    H2 6003   2.112   3.515   0.300  0.4716  0.4926 -0.0921
  398MPD2    H3 6004   2.153   3.737   0.392  0.3239  2.3073 -0.3589
  398MPD2     N 6005   2.444   3.859   0.067  0.1628  0.3043 -0.0165
  398MPD2    H5 6006   2.473   3.845  17.730 -0.7199  0.2603 -0.2789
  398MPD2    N1 6007   2.214   3.433   0.055  0.3755 -0.2785  0.1521
  398MPD2    H7 6008   2.286   3.413  17.745 -2.0168  1.4266 -2.8397
  399TMC3    C1 6009   2.161   3.200   0.025  0.0569  0.1434  0.0237
  399TMC3    C2 6010   2.292   3.171  17.758  0.1403  0.4171  0.1158
  399TMC3    C3 6011   2.336   3.040   0.006 -0.6153 -0.5391  1.0227
  399TMC3    C4 6012   2.070   3.099   0.053 -0.9219  0.4909  0.8053
  399TMC3    C5 6013   2.125   2.975   0.069  0.3752  0.1143 -0.4182
  399TMC3    C6 6014   2.253   2.939   0.050 -0.6636  0.1900  0.0716
  399TMC3     C 6015   2.128   3.331   0.086 -0.1404 -0.4195  0.1327
  399TMC3     O 6016   2.043   3.319   0.174  0.2589  0.4209  0.6894
  399TMC3     H 6017   2.375   3.241  17.748  1.1779 -0.8804 -0.2884
  399TMC3    H1 6018   1.965   3.123   0.065 -0.9008 -0.1685  2.2451
  399TMC3    H2 6019   2.278   2.835   0.033 -2.1379  0.2054 -2.1507
  399TMC3    C7 6020   2.037   2.862   0.108 -0.3480  0.0736  0.2000
  399TMC3    C8 6021   2.473   3.013  17.733 -0.4576  0.3260 -0.5785
  399TMC3    O1 6022   1.935   2.859   0.042 -0.3177  0.0832  0.1979
  399TMC3    O2 6023   2.517   3.095  17.658  0.3563 -0.4376  0.1753
  400TMC3    C1 6024   0.618   0.946  16.735  0.4461  0.7287  0.1753
  400TMC3    C2 6025   0.513   0.968  16.651  0.4450  0.4405  0.5249
  400TMC3    C3 6026   0.449   1.085  16.659  0.3617 -0.0246 -0.3133
  400TMC3    C4 6027   0.665   1.043  16.826 -0.3347 -0.3497  0.9940
  400TMC3    C5 6028   0.598   1.162  16.834  0.7764  0.3271  0.2228
  400TMC3    C6 6029   0.492   1.175  16.748 -0.0386  0.0745  0.1026
  400TMC3     C 6030   0.687   0.829  16.709  0.3694 -0.3714  0.8659
  400TMC3     O 6031   0.653   0.780  16.603  0.5061  0.5684 -0.0448
  400TMC3     H 6032   0.465   0.892  16.590  0.0052  0.0962  1.2961
  400TMC3    H1 6033   0.742   1.021  16.900  0.7702  1.3308  0.3513
  400TMC3    H2 6034   0.409   1.243  16.765 -0.7116 -0.7137 -0.0689
  400TMC3    C7 6035   0.632   1.274  16.921 -0.6214  0.5285  0.1179
  400TMC3    C8 6036   0.390   1.138  16.538 -0.2298 -0.1872 -0.3816
  400TMC3    O1 6037   0.704   1.252  17.020 -0.4535 -0.4124 -0.3522
  400TMC3    O2 6038   0.423   1.256  16.510  0.3582 -0.3913 -0.6303
  401MPD2     C 6039   3.549   0.225   0.266  0.4335 -0.3348 -0.4779
  401MPD2    C1 6040   3.560   0.116   0.346  0.3355  0.6939  0.5024
  401MPD2    C2 6041   3.535   4.738   0.288  0.5970  0.6328  0.2224
  401MPD2    C3 6042   3.488   4.723   0.162  0.5856 -0.3420 -0.8115
  401MPD2    C4 6043   3.492   0.088   0.074  0.0272 -0.3537 -0.7385
  401MPD2    C5 6044   3.529   0.207   0.128 -0.6717 -0.3494  0.5174
  401MPD2     H 6045   3.536   4.653   0.357 -2.2446 -0.7787 -1.4585
  401MPD2    H1 6046   3.464   0.073  17.730  0.3641 -1.7819 -0.6182
  401MPD2    H2 6047   3.555   0.327   0.302 -3.5331 -0.6488  1.0010
  401MPD2    H3 6048   3.521   0.295   0.066  0.0503 -1.7219 -1.5064
  401MPD2     N 6049   3.449   4.589   0.127 -0.6524  0.5543 -0.5015
  401MPD2    H5 6050   3.447   4.528   0.208  0.9317 -0.4443 -1.2227
  401MPD2    N1 6051   3.608   0.122   0.474 -0.2207  0.3748 -0.1605
  401MPD2    H7 6052   3.602   0.035   0.527  0.0821  1.1123  1.0819
  402TMC3    C1 6053   3.351   4.412   0.011  0.0563  0.2864  0.1215
  402TMC3    C2 6054   3.303   4.356   0.129 -0.0846 -0.5172 -0.4495
  402TMC3    C3 6055   3.268   4.224   0.142 -0.2486  0.0807  0.4599
  402TMC3    C4 6056   3.396   4.327  17.672 -0.1354 -0.0634  0.0028
  402TMC3    C5 6057   3.368   4.195  17.694  0.1934 -0.1454  0.4996
  402TMC3    C6 6058   3.297   4.141   0.035  0.0026  0.1306  0.1818
  402TMC3     C 6059   3.402   4.548   0.005  0.6351  0.3196 -0.7558
  402TMC3     O 6060   3.400   4.605  17.656 -0.2597  0.0431  0.1016
  402TMC3     H 6061   3.275   4.421   0.211 -0.9433 -0.6989 -0.5970
  402TMC3    H1 6062   3.455   4.358  17.586 -0.0907  0.3495  0.1815
  402TMC3    H2 6063   3.275   4.035   0.042  2.1522 -0.4692 -2.3140
  402TMC3    C7 6064   3.456   4.095  17.639  0.4223 -0.6323 -0.2227
  402TMC3    C8 6065   3.284   4.160   0.274  0.0334 -0.2937  0.1230
  402TMC3    O1 6066   3.496   4.115  17.526  0.1098  0.1074  0.2926
  402TMC3    O2 6067   3.347   4.055   0.277 -0.2582  0.3919  0.2282
  403MPD2     C 6068   2.039   2.841  13.043  0.4534  0.3219  0.0099
  403MPD2    C1 6069   2.067   2.731  13.118 -0.4509  0.2003  0.0613
  403MPD2    C2 6070   2.166   2.733  13.208  0.0758  0.9954 -0.5711
  403MPD2    C3 6071   2.245   2.849  13.221 -0.1227  0.2646 -0.3590
  403MPD2    C4 6072   2.209   2.952  13.142  0.1427  0.0723 -0.6111
  403MPD2    C5 6073   2.104   2.956  13.060  0.3563  0.3162  0.2611
  403MPD2     H 6074   2.188   2.653  13.278 -0.0119  0.9108 -0.6408
  403MPD2    H1 6075   2.260   3.048  13.140  1.0410 -0.4259 -1.6128
  403MPD2    H2 6076   1.952   2.855  12.980  1.4452  2.1565 -0.9466
  403MPD2    H3 6077   2.072   3.044  13.004 -0.3511 -0.5524 -0.6970
  403MPD2     N 6078   2.354   2.851  13.314  0.0494  0.0484 -0.2875
  403MPD2    H5 6079   2.370   2.772  13.375 -0.8828 -0.7988 -1.1311
  403MPD2    N1 6080   1.977   2.621  13.103  0.4392 -0.5096  0.1934
  403MPD2    H7 6081   1.920   2.630  13.019  0.5439 -0.4917  0.1232
  404TMC3    C1 6082   1.855   2.421  13.165  0.4091 -0.2045 -0.7212
  404TMC3    C2 6083   1.819   2.339  13.270  0.3606  0.1481  0.0358
  404TMC3    C3 6084   1.741   2.228  13.254  0.9102  1.3070 -0.1014
  404TMC3    C4 6085   1.835   2.379  13.036  0.3580  0.0356  0.1983
  404TMC3    C5 6086   1.761   2.266  13.019  0.0267 -0.2498  0.3523
  404TMC3    C6 6087   1.712   2.183  13.127  0.0786  0.0422 -0.3739
  404TMC3     C 6088   1.962   2.521  13.194 -0.2881  0.0394 -0.5409
  404TMC3     O 6089   2.021   2.517  13.303 -0.2928  0.2429 -0.1655
  404TMC3     H 6090   1.866   2.356  13.366  0.3449  0.7081 -0.0553
  404TMC3    H1 6091   1.867   2.442  12.954  1.6149 -0.7992  0.0490
  404TMC3    H2 6092   1.647   2.099  13.105 -0.4498  0.5842 -0.9028
  404TMC3    C7 6093   1.703   2.235  12.892 -0.3331 -0.1079  0.5656
  404TMC3    C8 6094   1.771   2.119  13.349 -0.0832 -0.7482 -0.7278
  404TMC3    O1 6095   1.613   2.155  12.878  0.0453  0.1234 -0.3632
  404TMC3    O2 6096   1.780   2.007  13.308 -0.0486 -0.7162 -0.1344
  405MPD2     C 6097   2.275   3.025  14.515  0.1203  0.0959 -0.2896
  405MPD2    C1 6098   2.287   3.013  14.379  1.1413  0.4420  0.1950
  405MPD2    C2 6099   2.239   3.119  14.302  0.7770 -0.4113 -0.5019
  405MPD2    C3 6100   2.203   3.241  14.356 -0.4763  1.0480  0.7476
  405MPD2    C4 6101   2.213   3.259  14.490  0.1939  0.2104 -0.1098
  405MPD2    C5 6102   2.237   3.145  14.573  0.1732 -0.1610 -0.2776
  405MPD2     H 6103   2.218   3.109  14.196  0.2000  0.6521 -0.4906
  405MPD2    H1 6104   2.186   3.354  14.537  0.3335 -0.8891  2.2022
  405MPD2    H2 6105   2.290   2.940  14.581  0.2203  0.3217 -0.0234
  405MPD2    H3 6106   2.218   3.156  14.679 -0.0389  0.3476 -0.3698
  405MPD2     N 6107   2.151   3.335  14.267 -0.5272  0.3609 -0.2335
  405MPD2    H5 6108   2.123   3.302  14.175  1.1812  0.0214 -0.6307
  405MPD2    N1 6109   2.325   2.892  14.323  0.2335 -0.4482  0.0484
  405MPD2    H7 6110   2.329   2.811  14.385  1.0439  0.5775  1.3312
  406TMC3    C1 6111   1.896   3.660  14.080 -0.2074  1.0120 -0.0383
  406TMC3    C2 6112   1.926   3.605  13.953 -0.0190 -0.2397 -0.1240
  406TMC3    C3 6113   2.023   3.517  13.943 -0.7906 -0.1005  0.6129
  406TMC3    C4 6114   1.956   3.616  14.192 -0.5652  0.3384  0.4733
  406TMC3    C5 6115   2.064   3.525  14.178  0.0832 -0.0284  0.0032
  406TMC3    C6 6116   2.097   3.477  14.056 -0.3513  0.7862  0.0831
  406TMC3     C 6117   1.761   3.701  14.104 -0.1286 -0.6862  0.2705
  406TMC3     O 6118   1.725   3.811  14.063  0.5044  0.2039  0.3724
  406TMC3     H 6119   1.852   3.603  13.873 -0.9859 -1.7402  0.8035
  406TMC3    H1 6120   1.923   3.650  14.289 -2.0580 -1.4035  0.5854
  406TMC3    H2 6121   2.193   3.427  14.051 -0.2134  1.1453 -0.7563
  406TMC3    C7 6122   2.111   3.467  14.303  0.2256  0.2075  0.4280
  406TMC3    C8 6123   2.028   3.429  13.826  0.2039  0.0166  0.5362
  406TMC3    O1 6124   2.138   3.530  14.402 -0.1345  0.6182 -0.1556
  406TMC3    O2 6125   1.983   3.460  13.719 -0.4039  0.4814  0.1723
  407MPD2     C 6126   4.144   4.485   9.569 -0.1043  0.1104  0.4144
  407MPD2    C1 6127   4.242   4.453   9.662 -0.4653  0.5903 -0.5556
  407MPD2    C2 6128   4.240   4.519   9.782  0.0351 -0.4428 -0.4177
  407MPD2    C3 6129   4.152   4.629   9.807  0.0472  0.1515 -0.2899
  407MPD2    C4 6130   4.069   4.676   9.703 -0.1298 -0.1279 -0.2144
  407MPD2    C5 6131   4.063   4.596   9.593  0.4989 -0.5461  0.5689
  407MPD2     H 6132   4.314   4.488   9.854  0.1440  0.6468 -0.0630
  407MPD2    H1 6133   3.992   0.008   9.727  0.9912  1.0780 -0.2985
  407MPD2    H2 6134   4.132   4.422   9.482 -0.5271 -1.8675  1.8944
  407MPD2    H3 6135   3.982   4.621   9.525 -0.8010  1.6082  2.8867
  407MPD2     N 6136   4.146   4.697   9.930 -0.2637 -0.0409 -0.4752
  407MPD2    H5 6137   4.130   0.056   9.925 -0.8742 -0.0454  1.4316
  407MPD2    N1 6138   4.353   4.368   9.640  0.6139  0.4032  0.5312
  407MPD2    H7 6139   4.418   4.368   9.718  2.4186 -1.0531 -0.9664
  408TMC3    C1 6140   4.525   4.301   9.512  0.1854  0.0662  0.3543
  408TMC3    C2 6141   4.604   4.193   9.478  0.1913  0.1162  0.4819
  408TMC3    C3 6142   4.727   4.206   9.432  0.0602 -0.5711  0.0697
  408TMC3    C4 6143   4.575   4.426   9.508 -0.2673  0.6425  0.6774
  408TMC3    C5 6144   4.696   4.438   9.450  0.0075 -0.5622  0.5982
  408TMC3    C6 6145   0.037   4.333   9.423  0.0305  0.4281 -0.4381
  408TMC3     C 6146   4.381   4.291   9.538 -0.0307 -0.1465  0.4094
  408TMC3     O 6147   4.307   4.231   9.455 -0.2954  0.0182  0.2200
  408TMC3     H 6148   4.568   4.091   9.487 -2.6167  1.1064  0.6623
  408TMC3    H1 6149   4.516   4.510   9.544 -1.7509  0.3971 -1.1930
  408TMC3    H2 6150   0.134   4.344   9.376  0.4141  2.3191  0.7987
  408TMC3    C7 6151   0.038   4.538   9.516 -0.3040  0.6909 -0.0316
  408TMC3    C8 6152   0.082   4.113   9.485 -0.4935  0.6590 -0.1321
  408TMC3    O1 6153   0.158   4.509   9.527 -0.6257 -0.2759 -0.0002
  408TMC3    O2 6154   0.063   3.994   9.463  0.0326  0.1166 -0.3313
  409MPD2     C 6155   3.895   0.613  17.051  0.6764 -0.4011 -0.0468
  409MPD2    C1 6156   3.995   0.659  17.124  0.4400 -0.4570 -0.2363
  409MPD2    C2 6157   4.060   0.775  17.082 -0.0883  0.4657  0.5302
  409MPD2    C3 6158   4.030   0.835  16.956  0.3275  0.1939  0.1342
  409MPD2    C4 6159   3.929   0.786  16.882  0.7013 -0.3433  0.6267
  409MPD2    C5 6160   3.861   0.673  16.929  0.3282 -0.1629  0.6914
  409MPD2     H 6161   4.151   0.811  17.127 -0.3648  0.6820  0.9158
  409MPD2    H1 6162   3.882   0.827  16.794  1.1101 -1.3394 -0.0511
  409MPD2    H2 6163   3.839   0.527  17.087  0.2030  0.3543  1.0292
  409MPD2    H3 6164   3.767   0.640  16.885  1.6265  0.9135 -2.8395
  409MPD2     N 6165   4.114   0.946  16.903 -0.0361  0.1700  0.4705
  409MPD2    H5 6166   4.099   0.985  16.810  0.5548  1.6012  0.9744
  409MPD2    N1 6167   4.058   0.590  17.233 -0.1465  0.0759 -0.2466
  409MPD2    H7 6168   4.137   0.638  17.276 -1.2640  0.6607  1.1745
  410TMC3    C1 6169   4.312   1.053  16.856  0.5521 -0.7256 -0.2191
  410TMC3    C2 6170   4.445   1.043  16.877  0.3401 -0.0140  0.4429
  410TMC3    C3 6171   4.525   1.050  16.764  0.0491  0.2089  0.1825
  410TMC3    C4 6172   4.259   1.084  16.734 -0.2572 -0.5573  0.0880
  410TMC3    C5 6173   4.345   1.098  16.630  0.2600 -0.2810  0.1736
  410TMC3    C6 6174   4.476   1.087  16.643 -0.0004  0.1294  0.0962
  410TMC3     C 6175   4.230   0.995  16.959 -0.5126  0.3675 -0.8887
  410TMC3     O 6176   4.279   0.967  17.067 -0.2138 -0.1503 -0.3760
  410TMC3     H 6177   4.483   0.977  16.954  0.0846  2.7552  2.9237
  410TMC3    H1 6178   4.152   1.098  16.722 -0.5363 -2.1404  0.6875
  410TMC3    H2 6179   4.546   1.117  16.566  0.4941  0.8802  0.8447
  410TMC3    C7 6180   4.283   1.114  16.503  0.0203  0.1607  1.0112
  410TMC3    C8 6181   4.665   1.032  16.797  0.0836  0.0838 -0.6384
  410TMC3    O1 6182   4.182   1.044  16.487  0.0401 -0.2452 -0.0024
  410TMC3    O2 6183   4.697   1.068  16.910  0.4878 -0.2679 -0.6437
  411MPD2     C 6184   4.674   1.582  14.354 -0.5722 -0.2744  0.2166
  411MPD2    C1 6185   4.564   1.589  14.430  0.1741 -0.4598  0.6247
  411MPD2    C2 6186   4.451   1.519  14.400  0.4355  0.1504  0.4943
  411MPD2    C3 6187   4.458   1.433  14.290  0.2673  0.2520  0.3876
  411MPD2    C4 6188   4.577   1.418  14.229 -0.1890 -0.0289 -0.5415
  411MPD2    C5 6189   4.684   1.496  14.255 -0.8259 -0.9127 -0.3676
  411MPD2     H 6190   4.361   1.556  14.448 -1.1898 -0.4618 -2.1037
  411MPD2    H1 6191   4.575   1.362  14.136 -0.7650  0.1539 -0.6347
  411MPD2    H2 6192   0.019   1.647  14.371  0.6236 -1.4922 -1.1367
  411MPD2    H3 6193   0.031   1.486  14.192 -1.6489  0.7143 -1.7597
  411MPD2     N 6194   4.340   1.373  14.232  0.4812 -0.0062 -0.2157
  411MPD2    H5 6195   4.348   1.329  14.141 -0.8057  0.9058 -0.7725
  411MPD2    N1 6196   4.553   1.701  14.515  0.0935  0.2013  0.2662
  411MPD2    H7 6197   4.616   1.777  14.491  0.9530 -0.8799 -0.9003
  412TMC3    C1 6198   4.121   1.321  14.197  0.3407 -0.3073 -0.3123
  412TMC3    C2 6199   4.129   1.346  14.067  0.6262 -0.3343  0.0615
  412TMC3    C3 6200   4.014   1.349  13.990 -0.3535  0.0567  0.4642
  412TMC3    C4 6201   3.997   1.294  14.258  0.2420 -0.4268 -0.3543
  412TMC3    C5 6202   3.891   1.283  14.178 -0.3741  0.7285  0.0343
  412TMC3    C6 6203   3.895   1.313  14.043 -0.8563 -0.4203 -1.1817
  412TMC3     C 6204   4.220   1.369  14.290  0.0989  0.1698 -0.0834
  412TMC3     O 6205   4.191   1.401  14.401 -0.0374 -0.3068  0.9478
  412TMC3     H 6206   4.221   1.371  14.017  0.4617  1.1065  0.4594
  412TMC3    H1 6207   3.986   1.274  14.364  0.7580  0.1679 -0.1896
  412TMC3    H2 6208   3.806   1.309  13.982  0.0953  0.1120 -2.6251
  412TMC3    C7 6209   3.824   1.158  14.200 -0.1281 -0.2747  0.1675
  412TMC3    C8 6210   4.048   1.295  13.855 -0.0270 -0.3551  0.0620
  412TMC3    O1 6211   3.789   1.129  14.310 -0.5141  0.2369 -0.1636
  412TMC3    O2 6212   4.108   1.188  13.863  0.7521  0.0090 -0.2118
  413MPD2     C 6213   1.109   4.377  15.547 -0.1188 -0.5399 -0.3419
  413MPD2    C1 6214   1.075   4.365  15.417 -0.4771 -0.1790 -0.1220
  413MPD2    C2 6215   1.172   4.296  15.341  0.0723  0.3720  0.3932
  413MPD2    C3 6216   1.277   4.240  15.394 -0.0060 -0.0824 -0.0103
  413MPD2    C4 6217   1.306   4.255  15.527 -0.3946  0.3950  0.0964
  413MPD2    C5 6218   1.217   4.321  15.607 -0.6554 -0.4518 -0.5657
  413MPD2     H 6219   1.151   4.283  15.236  0.0916  0.8730  0.3256
  413MPD2    H1 6220   1.383   4.196  15.576  1.1664  2.3386 -0.0410
  413MPD2    H2 6221   1.041   4.436  15.608 -0.2873 -0.1273 -0.9164
  413MPD2    H3 6222   1.231   4.322  15.715  0.3405 -0.9019 -0.6985
  413MPD2     N 6223   1.348   4.165  15.297  0.6550 -0.4894  0.2499
  413MPD2    H5 6224   1.301   4.159  15.207 -0.6035 -0.5420  0.9063
  413MPD2    N1 6225   0.948   4.414  15.374  0.1135 -0.0817 -0.0070
  413MPD2    H7 6226   0.898   4.481  15.431 -0.4457  0.0182 -0.6068
  414TMC3    C1 6227   1.486   3.998  15.202  0.7263 -0.1778 -0.7254
  414TMC3    C2 6228   1.567   3.898  15.236  0.0285 -0.2145  0.1374
  414TMC3    C3 6229   1.573   3.791  15.143  0.3309 -0.1632 -0.2500
  414TMC3    C4 6230   1.426   4.011  15.080  0.7745  0.3390  0.2648
  414TMC3    C5 6231   1.452   3.918  14.986  0.4432  0.4588  0.3099
  414TMC3    C6 6232   1.526   3.799  15.014 -0.5017 -0.2567 -0.2144
  414TMC3     C 6233   1.455   4.084  15.318  0.0013  0.2826 -0.2181
  414TMC3     O 6234   1.528   4.076  15.413 -0.1624  0.4461 -0.2288
  414TMC3     H 6235   1.598   3.874  15.337  0.1910 -2.1129 -0.3631
  414TMC3    H1 6236   1.374   4.105  15.064 -1.3451 -0.6442  1.2965
  414TMC3    H2 6237   1.555   3.725  14.940  2.0871 -0.0387  0.5651
  414TMC3    C7 6238   1.371   3.928  14.864  0.0325  0.1118  0.5222
  414TMC3    C8 6239   1.684   3.700  15.172  0.1575 -0.2829 -0.1966
  414TMC3    O1 6240   1.265   3.985  14.880  0.0264  0.0524  0.1179
  414TMC3    O2 6241   1.679   3.580  15.145 -0.2047 -0.5373 -0.3035
  415TMC3    C1 6242   1.257   2.178   9.966 -0.2156  0.0784  1.0490
  415TMC3    C2 6243   1.366   2.169   9.889  0.5889 -0.7383  0.1228
  415TMC3    C3 6244   1.357   2.068   9.793 -0.0168  0.3488 -0.0939
  415TMC3    C4 6245   1.143   2.113   9.946 -0.6005  0.1348  0.5044
  415TMC3    C5 6246   1.140   2.020   9.851  0.8887  1.0705 -0.2264
  415TMC3    C6 6247   1.239   2.000   9.763  0.2202 -0.3859  0.0276
  415TMC3     C 6248   1.253   2.248  10.094 -0.7205 -0.3012 -0.3431
  415TMC3     O 6249   1.179   2.206  10.185  0.8458  0.3505  0.6881
  415TMC3     H 6250   1.462   2.213   9.916 -0.8021  0.7280  2.6604
  415TMC3    H1 6251   1.052   2.139  10.001 -0.8749 -0.6969  0.4342
  415TMC3    H2 6252   1.237   1.911   9.701  0.4752  1.0954 -2.0947
  415TMC3    C7 6253   1.030   1.931   9.849  0.0139 -0.5730  0.1178
  415TMC3    C8 6254   1.482   1.998   9.760  0.9992 -0.1816 -0.6384
  415TMC3    O1 6255   0.993   1.883   9.742  0.9619  0.1689  0.5628
  415TMC3    O2 6256   1.474   1.887   9.708 -0.5340  0.3555 -0.0688
  416MPD2     C 6257   3.388   1.193  11.809  0.1111 -0.0076  0.0731
  416MPD2    C1 6258   3.292   1.132  11.728 -0.0762 -0.0523  0.0664
  416MPD2    C2 6259   3.337   1.041  11.633 -0.8881  0.1385  0.4129
  416MPD2    C3 6260   3.465   0.991  11.628 -0.2866  0.2808 -0.4637
  416MPD2    C4 6261   3.550   1.042  11.726 -0.1633 -0.2731 -0.2369
  416MPD2    C5 6262   3.515   1.153  11.793 -0.3936 -0.1492 -0.2543
  416MPD2     H 6263   3.266   0.987  11.572  1.9899 -1.4910 -1.5217
  416MPD2    H1 6264   3.651   1.002  11.729  1.0757  2.9091 -0.3632
  416MPD2    H2 6265   3.365   1.279  11.871  0.6089  0.6577 -0.6723
  416MPD2    H3 6266   3.593   1.208  11.844 -0.2962 -0.4737 -0.0561
  416MPD2     N 6267   3.510   0.879  11.551  0.1398 -0.3158 -0.1243
  416MPD2    H5 6268   3.602   0.839  11.568  1.1337  1.4312 -1.3088
  416MPD2    N1 6269   3.161   1.177  11.744 -0.4479  0.1231 -0.0690
  416MPD2    H7 6270   3.142   1.244  11.817 -0.9771 -1.6564  1.4364
  417TMC3    C1 6271   2.932   1.200  11.685  0.3246 -0.3292  0.5300
  417TMC3    C2 6272   2.887   1.171  11.811 -0.4703 -0.2540  0.2341
  417TMC3    C3 6273   2.749   1.171  11.827 -0.2773 -0.8601 -0.5489
  417TMC3    C4 6274   2.840   1.241  11.585  0.4580 -0.3620 -0.4128
  417TMC3    C5 6275   2.709   1.241  11.611  0.0602 -0.2402 -0.2109
  417TMC3    C6 6276   2.658   1.200  11.730 -0.1050  0.4369 -0.6166
  417TMC3     C 6277   3.067   1.162  11.642 -0.3271 -0.1470 -0.5015
  417TMC3     O 6278   3.090   1.137  11.526  0.2196  0.6059  0.1388
  417TMC3     H 6279   2.960   1.146  11.887  0.6319  0.7698 -0.4950
  417TMC3    H1 6280   2.875   1.280  11.489 -3.2939 -0.5070 -1.8100
  417TMC3    H2 6281   2.552   1.180  11.741  0.3494 -0.5301  1.9552
  417TMC3    C7 6282   2.624   1.301  11.501  0.0725  0.2921 -0.2119
  417TMC3    C8 6283   2.699   1.114  11.949 -0.5906 -0.2761 -0.2880
  417TMC3    O1 6284   2.679   1.363  11.409  0.0339 -0.2902 -0.2997
  417TMC3    O2 6285   2.576   1.082  11.949  0.0971  0.2618  0.0491
  418TMC3    C1 6286   2.700   4.030  17.587  0.8049  0.3430  0.9756
  418TMC3    C2 6287   2.595   4.029  17.673  0.3638  0.4204 -0.1753
  418TMC3    C3 6288   2.612   4.034   0.047 -0.4343  0.4666  0.4268
  418TMC3    C4 6289   2.825   4.041  17.633 -0.4500 -0.4834  0.2035
  418TMC3    C5 6290   2.846   4.037   0.011  0.6561  0.9327  0.3718
  418TMC3    C6 6291   2.739   4.025   0.098 -0.6985  0.8553 -0.0897
  418TMC3     C 6292   2.677   4.016  17.441  0.0042  0.2028 -0.0733
  418TMC3     O 6293   2.560   4.024  17.401 -0.4894  0.9544  0.2098
  418TMC3     H 6294   2.496   4.037  17.629  0.7098  1.6141 -0.7436
  418TMC3    H1 6295   2.918   4.022  17.580 -1.2865 -0.5570 -1.2354
  418TMC3    H2 6296   2.746   4.008   0.205  0.5382 -0.5970 -0.3898
  418TMC3    C7 6297   2.974   3.976   0.060  0.2212  0.6221  0.1036
  418TMC3    C8 6298   2.514   3.960   0.131 -0.6641 -0.4754 -0.2410
  418TMC3    O1 6299   3.026   3.901  17.740 -0.2488 -0.5786 -0.2377
  418TMC3    O2 6300   2.528   3.971   0.250 -0.0511  0.2633  0.1415
  419MPD2     C 6301   0.332   0.957  11.887 -0.3453  0.0550 -0.3299
  419MPD2    C1 6302   0.340   1.094  11.924  0.8101  0.3178  0.2954
  419MPD2    C2 6303   0.298   1.145  12.047  0.0099 -0.8397  0.0388
  419MPD2    C3 6304   0.251   1.052  12.136 -0.7032 -0.4830 -0.2904
  419MPD2    C4 6305   0.241   0.920  12.105 -0.8824  0.1488 -0.3115
  419MPD2    C5 6306   0.278   0.872  11.980  0.7289 -0.2122 -0.1288
  419MPD2     H 6307   0.302   1.253  12.059 -0.4007 -0.8080 -0.1207
  419MPD2    H1 6308   0.203   0.845  12.174 -0.1930 -0.2887 -0.4099
  419MPD2    H2 6309   0.366   0.917  11.792 -0.6988  0.9693 -0.8438
  419MPD2    H3 6310   0.275   0.764  11.965 -0.8902 -0.2046  0.0667
  419MPD2     N 6311   0.205   1.107  12.261 -0.0819  0.5708 -0.0806
  419MPD2    H5 6312   0.192   1.208  12.257 -2.9554  0.2055  0.4885
  419MPD2    N1 6313   0.407   1.191  11.839 -0.1262  0.1700  0.1036
  419MPD2    H7 6314   0.417   1.287  11.869  0.3827 -0.3300  1.5324
  420TMC3    C1 6315   0.153   1.116  12.498  0.3250 -0.7773  0.8494
  420TMC3    C2 6316   0.077   1.223  12.468 -0.3871  0.0862 -0.8313
  420TMC3    C3 6317   0.088   1.340  12.539  0.1200  0.2509 -0.8134
  420TMC3    C4 6318   0.235   1.125  12.604 -0.1707  1.2914  0.3197
  420TMC3    C5 6319   0.231   1.229  12.693  0.0386 -1.0943 -0.5515
  420TMC3    C6 6320   0.154   1.342  12.660  0.8406 -0.7143  0.4021
  420TMC3     C 6321   0.195   1.039  12.381  0.3079  0.4382 -0.1384
  420TMC3     O 6322   0.236   0.929  12.406  0.0178  0.4850  0.0921
  420TMC3     H 6323   0.019   1.223  12.377 -0.9123 -1.9798 -0.5108
  420TMC3    H1 6324   0.280   1.030  12.634 -0.3612  1.2825  0.5736
  420TMC3    H2 6325   0.155   1.431  12.722  0.3955 -0.0498 -0.5612
  420TMC3    C7 6326   0.325   1.237  12.801  0.1317  0.2945 -0.3548
  420TMC3    C8 6327   0.115   1.453  12.457  0.4286  0.1101 -0.5055
  420TMC3    O1 6328   0.385   1.129  12.824  0.5680 -0.0903 -0.4890
  420TMC3    O2 6329   0.145   1.422  12.344  0.4463  1.3198  1.1009
  421TMC3    C1 6330   2.501   2.944  13.462  0.9235 -0.4797 -0.3918
  421TMC3    C2 6331   2.489   3.049  13.538 -0.5572  0.4385  0.4871
  421TMC3    C3 6332   2.534   3.036  13.669  1.3836  0.7011  1.0750
  421TMC3    C4 6333   2.539   2.825  13.509 -0.3473  0.4004  0.1229
  421TMC3    C5 6334   2.572   2.810  13.636 -0.1544 -0.9472 -0.2457
  421TMC3    C6 6335   2.573   2.917  13.717 -0.7162  0.0730 -0.1705
  421TMC3     C 6336   2.433   2.962  13.337  0.6531 -0.8572  0.1455
  421TMC3     O 6337   2.456   3.058  13.268  0.4031 -0.2720  0.5376
  421TMC3     H 6338   2.430   3.133  13.504  0.8090  0.5708 -1.5782
  421TMC3    H1 6339   2.541   2.743  13.439 -1.0274  1.1071 -0.7231
  421TMC3    H2 6340   2.608   2.902  13.818 -2.1601 -1.4029  0.1039
  421TMC3    C7 6341   2.635   2.688  13.693 -0.5983  0.3232  0.2982
  421TMC3    C8 6342   2.512   3.136  13.774  0.2233 -0.1454 -0.0375
  421TMC3    O1 6343   2.697   2.694  13.799 -0.3697 -0.6531  0.0996
  421TMC3    O2 6344   2.548   3.114  13.890 -0.5461  0.1680  0.7554
  422TMC3    C1 6345   4.330   4.026  12.666 -0.1713 -0.3568 -0.8931
  422TMC3    C2 6346   4.273   4.145  12.697  0.1298  0.7242  0.4828
  422TMC3    C3 6347   4.160   4.129  12.773 -0.3807 -0.2893 -0.3371
  422TMC3    C4 6348   4.298   3.907  12.721  0.6472  0.6151  0.2459
  422TMC3    C5 6349   4.181   3.903  12.792  0.3075 -1.0087  0.5189
  422TMC3    C6 6350   4.109   4.012  12.819  0.0392 -0.1580  0.6949
  422TMC3     C 6351   4.418   4.031  12.555  0.1461 -0.4011  0.2602
  422TMC3     O 6352   4.413   4.132  12.483  0.0574 -0.6820 -0.0226
  422TMC3     H 6353   4.315   4.243  12.675 -0.6787  1.1187  0.6747
  422TMC3    H1 6354   4.340   3.815  12.681 -0.2987 -0.0024  0.6854
  422TMC3    H2 6355   4.016   4.014  12.874 -1.7795  0.9423 -2.3944
  422TMC3    C7 6356   4.114   3.773  12.795 -0.0056 -0.5994  0.6546
  422TMC3    C8 6357   4.088   4.258  12.805 -0.1442  0.3494 -0.0958
  422TMC3    O1 6358   4.180   3.669  12.804 -0.5553 -0.2455  0.5445
  422TMC3    O2 6359   4.026   4.268  12.908  0.0258 -0.4629  0.5157
  423MPD2     C 6360   0.715   0.499   0.416  0.1028 -0.3722 -0.1003
  423MPD2    C1 6361   0.773   0.387   0.476 -0.6508 -0.2951  0.1295
  423MPD2    C2 6362   0.828   0.289   0.394 -0.3062 -0.4625  0.3814
  423MPD2    C3 6363   0.826   0.301   0.253 -0.1930  0.0162  0.0624
  423MPD2    C4 6364   0.766   0.413   0.195 -0.3239  0.0107 -0.2866
  423MPD2    C5 6365   0.708   0.504   0.280 -0.1810 -0.6906 -0.2436
  423MPD2     H 6366   0.888   0.211   0.440  1.0272  1.9067  2.6923
  423MPD2    H1 6367   0.754   0.442   0.091  4.3963  2.3419 -0.1842
  423MPD2    H2 6368   0.655   0.577   0.461  1.7715  0.3021  0.9430
  423MPD2    H3 6369   0.652   0.588   0.242  3.3210  1.1058 -1.3742
  423MPD2     N 6370   0.882   0.201   0.169 -0.6114  0.2356 -0.2368
  423MPD2    H5 6371   0.870   0.207   0.069  1.0972  0.0337 -0.4458
  423MPD2    N1 6372   0.779   0.378   0.616  0.3767 -0.4102  0.4561
  423MPD2    H7 6373   0.829   0.298   0.655  0.5835 -1.6911 -2.3804
  424TMC3    C1 6374   0.757   0.432   0.838 -1.0278  0.3480 -0.3029
  424TMC3    C2 6375   0.884   0.392   0.872  0.2402 -0.2973  0.5044
  424TMC3    C3 6376   0.910   0.363   1.002  0.7147  0.5144 -0.1957
  424TMC3    C4 6377   0.656   0.455   0.927  0.0505  0.1680  0.0421
  424TMC3    C5 6378   0.677   0.407   1.053 -0.3441  0.7060 -0.3316
  424TMC3    C6 6379   0.801   0.365   1.090  0.4575  0.1574 -0.0154
  424TMC3     C 6380   0.733   0.465   0.700 -0.1159  0.3774  0.0306
  424TMC3     O 6381   0.655   0.553   0.682  0.6548  0.0616  0.0109
  424TMC3     H 6382   0.962   0.411   0.799 -1.0488  1.1549 -0.4935
  424TMC3    H1 6383   0.563   0.498   0.890 -0.5449 -0.3742  0.8987
  424TMC3    H2 6384   0.827   0.328   1.188 -0.1493 -0.8549 -0.2381
  424TMC3    C7 6385   0.565   0.375   1.147  0.1175  0.3791  0.9126
  424TMC3    C8 6386   1.034   0.295   1.044 -0.6898  0.0349  0.6709
  424TMC3    O1 6387   0.606   0.329   1.250 -0.2530  0.9777  0.0185
  424TMC3    O2 6388   1.043   0.265   1.163 -0.2548 -0.2738 -0.0633
  425MPD2     C 6389   4.704   4.314  16.578  0.1274 -0.3512 -0.2371
  425MPD2    C1 6390   0.013   4.258  16.692 -0.2787 -0.1638 -0.4985
  425MPD2    C2 6391   4.679   4.265  16.811 -0.2121 -0.6148  0.1052
  425MPD2    C3 6392   4.551   4.330  16.811  0.3282  0.4749 -0.2495
  425MPD2    C4 6393   4.502   4.394  16.701 -0.8433 -0.4715 -0.3237
  425MPD2    C5 6394   4.582   4.380  16.589  0.3047 -0.0492  0.6500
  425MPD2     H 6395   4.722   4.223  16.901 -1.5750 -4.1479 -0.9081
  425MPD2    H1 6396   4.407   4.446  16.692 -0.8950 -0.4038  0.6105
  425MPD2    H2 6397   0.018   4.308  16.484  1.1879  1.2938  0.2631
  425MPD2    H3 6398   4.545   4.431  16.501 -0.3101  1.4568  1.7895
  425MPD2     N 6399   4.474   4.329  16.927  0.0246  0.2426 -0.3890
  425MPD2    H5 6400   4.511   4.288  17.013 -4.0907 -0.0598  1.2109
  425MPD2    N1 6401   0.135   4.187  16.673  0.2558  0.3971  0.1628
  425MPD2    H7 6402   0.172   4.178  16.579 -1.1485 -0.6899 -0.2691
  426TMC3    C1 6403   0.270   4.010  16.748  0.3248  0.1763 -0.2279
  426TMC3    C2 6404   0.331   3.986  16.627  0.5406 -0.1825  0.4595
  426TMC3    C3 6405   0.391   3.858  16.608  0.2371 -0.1350  0.3502
  426TMC3    C4 6406   0.255   3.913  16.840 -0.1010  0.2320  0.0286
  426TMC3    C5 6407   0.326   3.799  16.823 -0.0322  0.6435  0.1201
  426TMC3    C6 6408   0.395   3.768  16.710  0.3418 -0.0812  0.0249
  426TMC3     C 6409   0.188   4.127  16.782 -0.7434  0.0387 -0.2140
  426TMC3     O 6410   0.187   4.165  16.900 -0.9100  0.1599  0.5494
  426TMC3     H 6411   0.323   4.056  16.545 -0.3865  0.4792  1.1165
  426TMC3    H1 6412   0.180   3.925  16.917 -0.5179 -2.0275 -0.0296
  426TMC3    H2 6413   0.443   3.672  16.694 -2.2436 -0.9746 -2.5374
  426TMC3    C7 6414   0.313   3.687  16.916 -0.2115  0.3806 -0.2903
  426TMC3    C8 6415   0.410   3.793  16.481  0.4880 -0.5200 -0.5539
  426TMC3    O1 6416   0.348   3.577  16.876  0.2038 -0.1944  0.4761
  426TMC3    O2 6417   0.417   3.671  16.469 -0.2052 -0.0469 -0.7629
  427MPD2     C 6418   3.458   1.291  14.685 -0.4471 -0.3778 -0.1234
  427MPD2    C1 6419   3.450   1.294  14.826  0.3217 -0.4324 -0.2531
  427MPD2    C2 6420   3.335   1.356  14.878 -0.6169 -0.9296  0.1809
  427MPD2    C3 6421   3.218   1.379  14.799  0.5348 -0.0763  0.0130
  427MPD2    C4 6422   3.233   1.382  14.660 -0.4433  0.5256 -0.3394
  427MPD2    C5 6423   3.357   1.340  14.608  0.1400  0.2847 -0.2306
  427MPD2     H 6424   3.321   1.365  14.985 -1.3478 -0.0737  0.0101
  427MPD2    H1 6425   3.153   1.398  14.589 -0.0966  1.1068 -0.5996
  427MPD2    H2 6426   3.545   1.260  14.628 -1.1689  0.1683 -1.5070
  427MPD2    H3 6427   3.355   1.337  14.499 -0.6774 -0.1826 -0.2074
  427MPD2     N 6428   3.089   1.406  14.846 -0.0202  0.0447  0.1221
  427MPD2    H5 6429   3.022   1.418  14.771 -0.1106  2.4987  0.5839
  427MPD2    N1 6430   3.554   1.249  14.913  0.7091 -0.6180 -0.0437
  427MPD2    H7 6431   3.534   1.265  15.011  0.5547 -1.3832  0.0494
  428TMC3    C1 6432   3.712   1.091  14.993  0.5007 -0.0842 -0.1159
  428TMC3    C2 6433   3.720   0.957  14.985  1.0972 -1.0174 -0.1961
  428TMC3    C3 6434   3.804   0.893  15.068 -0.1962  0.3201  0.3913
  428TMC3    C4 6435   3.791   1.164  15.081  0.5129  1.3894  0.2074
  428TMC3    C5 6436   3.884   1.095  15.158  0.0601  0.0714  0.2889
  428TMC3    C6 6437   3.883   0.959  15.157  0.4859 -0.5993 -0.3472
  428TMC3     C 6438   3.648   1.154  14.878  0.0019 -0.7484 -0.0627
  428TMC3     O 6439   3.658   1.102  14.769  0.1934 -0.4632  0.2207
  428TMC3     H 6440   3.650   0.900  14.924  0.6403  0.4318 -1.0340
  428TMC3    H1 6441   3.791   1.269  15.056  1.3357  1.7533  1.7396
  428TMC3    H2 6442   3.966   0.902  15.199  1.8278  1.5661 -0.0976
  428TMC3    C7 6443   4.001   1.161  15.221 -0.1030  0.3436 -0.3235
  428TMC3    C8 6444   3.795   0.745  15.068  0.0246 -0.3905  0.6614
  428TMC3    O1 6445   4.027   1.121  15.336  0.4736 -0.0450  0.1283
  428TMC3    O2 6446   3.753   0.673  14.977 -0.1807  0.1227  0.2638
  429MPD2     C 6447   4.478   1.675  17.359  0.3035 -0.2608 -0.8960
  429MPD2    C1 6448   4.611   1.649  17.344 -0.1615  0.0577 -0.7488
  429MPD2    C2 6449   4.694   1.727  17.270  0.0018 -0.4591 -0.3771
  429MPD2    C3 6450   4.640   1.833  17.196 -0.0785 -0.4235  0.4895
  429MPD2    C4 6451   4.500   1.843  17.201 -0.3842  0.5010  0.1628
  429MPD2    C5 6452   4.419   1.768  17.280 -0.2765  0.0128 -0.1038
  429MPD2     H 6453   0.061   1.710  17.273  0.3560  1.7511 -0.2135
  429MPD2    H1 6454   4.437   1.895  17.130  0.3493 -1.0685 -1.6618
  429MPD2    H2 6455   4.414   1.606  17.413 -1.4117 -0.0024 -2.6151
  429MPD2    H3 6456   4.312   1.782  17.271  0.1249  3.0059 -0.1701
  429MPD2     N 6457   4.719   1.901  17.102 -0.6098 -0.4260  0.2555
  429MPD2    H5 6458   0.078   1.881  17.104 -0.1510  1.7200 -1.1616
  429MPD2    N1 6459   4.678   1.547  17.410 -0.3204 -0.4854  0.6369
  429MPD2    H7 6460   0.037   1.549  17.391 -0.6855  1.5549 -1.0915
  430TMC3    C1 6461   0.054   2.048  16.931  0.4339  0.1468  0.2714
  430TMC3    C2 6462   0.036   2.055  16.799 -0.2978 -0.0179 -0.5275
  430TMC3    C3 6463   0.154   2.050  16.727  0.5618  0.0996  0.0133
  430TMC3    C4 6464   0.176   2.039  16.993 -0.4253  0.4221 -0.1468
  430TMC3    C5 6465   0.292   2.024  16.920 -1.3173  0.2221  1.2011
  430TMC3    C6 6466   0.281   2.043  16.786  0.1186  0.0245 -0.1543
  430TMC3     C 6467   4.682   2.003  17.014 -0.0737 -0.4430  1.2881
  430TMC3     O 6468   4.572   2.043  16.991  0.3860  0.0254 -0.4271
  430TMC3     H 6469   4.673   2.051  16.766 -0.0035 -0.7028 -1.3742
  430TMC3    H1 6470   0.190   2.041  17.101 -1.2393 -1.7790  0.0025
  430TMC3    H2 6471   0.360   2.019  16.715  0.5260  0.2566  0.2171
  430TMC3    C7 6472   0.399   1.956  16.980  0.1307  0.1726 -0.3225
  430TMC3    C8 6473   0.137   2.027  16.587  0.6925 -0.1469 -0.1115
  430TMC3    O1 6474   0.424   1.993  17.092 -0.0586  0.0220  0.0250
  430TMC3    O2 6475   0.031   1.970  16.560 -0.3015  0.6751 -0.6920
  431MPD2     C 6476   0.871   1.622  12.350  0.2949 -0.3851  0.1335
  431MPD2    C1 6477   0.880   1.701  12.239 -0.2355  0.0068 -0.4139
  431MPD2    C2 6478   0.849   1.649  12.114 -0.2580  0.0387  0.0229
  431MPD2    C3 6479   0.815   1.513  12.101  0.1674 -0.0284 -1.4219
  431MPD2    C4 6480   0.806   1.435  12.217 -0.8965 -0.2355  0.1895
  431MPD2    C5 6481   0.841   1.490  12.341  0.2127  0.3845 -0.3294
  431MPD2     H 6482   0.844   1.718  12.030 -1.1404  0.7028  0.6258
  431MPD2    H1 6483   0.773   1.332  12.211 -1.6892 -0.0589  1.4229
  431MPD2    H2 6484   0.898   1.664  12.447  1.2465 -0.6071 -0.0370
  431MPD2    H3 6485   0.834   1.418  12.422  0.8781  0.4912 -0.1705
  431MPD2     N 6486   0.782   1.454  11.975 -0.1661 -0.3390 -0.8125
  431MPD2    H5 6487   0.764   1.354  11.975  2.9693 -0.9278  2.5919
  431MPD2    N1 6488   0.933   1.835  12.244 -0.6942 -0.0380 -0.1740
  431MPD2    H7 6489   0.949   1.890  12.160 -0.1403  2.1728  1.3693
  432TMC3    C1 6490   0.732   1.421  11.755  0.5532  0.1907 -0.7331
  432TMC3    C2 6491   0.785   1.440  11.629 -0.5033 -0.4359 -0.4112
  432TMC3    C3 6492   0.732   1.356  11.531 -0.2474 -0.7161 -0.0601
  432TMC3    C4 6493   0.636   1.332  11.785  0.5110  0.5283 -0.2436
  432TMC3    C5 6494   0.566   1.269  11.684 -0.3102  0.7983  0.3480
  432TMC3    C6 6495   0.620   1.272  11.554  0.3990  0.9175  0.0381
  432TMC3     C 6496   0.782   1.515  11.854  0.0298 -0.5028 -0.6580
  432TMC3     O 6497   0.812   1.629  11.819 -0.3102  0.2874  0.1212
  432TMC3     H 6498   0.862   1.516  11.616 -0.1797 -0.5236  0.9626
  432TMC3    H1 6499   0.608   1.313  11.888  0.1987  2.1953 -0.0214
  432TMC3    H2 6500   0.569   1.223  11.472  0.3592  1.6700 -0.3957
  432TMC3    C7 6501   0.469   1.167  11.716  0.9401  0.1509  0.0058
  432TMC3    C8 6502   0.822   1.297  11.436  0.6861  0.3742  0.3527
  432TMC3    O1 6503   0.453   1.076  11.635  0.2377 -0.1822  0.3342
  432TMC3    O2 6504   0.786   1.195  11.375 -0.2784 -0.6563 -0.4764
  433MPD2     C 6505   4.246   0.456  10.976 -0.6813  0.8123  0.5529
  433MPD2    C1 6506   4.126   0.424  11.035  0.2774  0.3005  0.6478
  433MPD2    C2 6507   4.110   0.451  11.166  0.4393  0.7479  0.5615
  433MPD2    C3 6508   4.187   0.543  11.231 -0.2064 -0.8740  0.2562
  433MPD2    C4 6509   4.288   0.599  11.161 -0.4444 -0.0900 -0.9022
  433MPD2    C5 6510   4.324   0.551  11.038  0.0339 -0.5640 -0.0047
  433MPD2     H 6511   4.037   0.389  11.218  2.0405 -0.4327  1.4241
  433MPD2    H1 6512   4.350   0.670  11.214  0.0167 -0.6343 -0.7174
  433MPD2    H2 6513   4.279   0.418  10.880  2.6336  2.7087  0.9493
  433MPD2    H3 6514   4.413   0.591  10.991  0.3246 -0.8055  0.3467
  433MPD2     N 6515   4.171   0.550  11.372  0.2023 -0.0235 -0.0432
  433MPD2    H5 6516   4.119   0.477  11.418  1.0674  1.4527  3.3325
  433MPD2    N1 6517   4.039   0.340  10.967  0.0939  0.2802 -0.0692
  433MPD2    H7 6518   4.068   0.309  10.875  2.3844  1.5087  0.2314
  434TMC3    C1 6519   3.876   0.174  10.942  0.5540 -0.4403  0.0014
  434TMC3    C2 6520   3.845   0.075  11.029 -0.1838 -0.3575 -0.6503
  434TMC3    C3 6521   3.869   4.686  10.987 -0.6530 -0.2541  0.0144
  434TMC3    C4 6522   3.923   0.152  10.812 -0.1763  0.3152 -0.6549
  434TMC3    C5 6523   3.939   0.019  10.772 -0.1703 -0.0220 -0.1614
  434TMC3    C6 6524   3.910   4.659  10.863  0.5548 -0.2919  0.5378
  434TMC3     C 6525   3.918   0.295  11.011  0.4724 -0.2947  0.2299
  434TMC3     O 6526   3.855   0.322  11.112 -0.2617 -0.1534  0.1975
  434TMC3     H 6527   3.840   0.093  11.136 -1.3355 -0.0465 -0.7652
  434TMC3    H1 6528   3.936   0.240  10.749  1.6129  0.2635 -0.3519
  434TMC3    H2 6529   3.934   4.559  10.829  3.0329 -0.5114  2.8974
  434TMC3    C7 6530   3.975   0.002  10.634 -0.6387 -0.1372  0.7111
  434TMC3    C8 6531   3.923   4.597  11.086  0.5063 -0.0176 -0.9458
  434TMC3    O1 6532   4.025   0.098  10.577 -0.1442  0.7931 -0.0258
  434TMC3    O2 6533   3.945   4.649  11.193  0.2331  0.0935 -0.0641
  435MPD2     C 6534   1.930   0.213  15.460 -0.2649 -0.6203 -0.4192
  435MPD2    C1 6535   1.862   0.154  15.568 -0.2042 -0.8823 -0.9153
  435MPD2    C2 6536   1.926   0.070  15.660 -0.1405 -0.1786  0.5487
  435MPD2    C3 6537   2.059   0.043  15.638 -0.2731  0.2026  0.4686
  435MPD2    C4 6538   2.128   0.105  15.532 -0.3825  0.2425 -0.2117
  435MPD2    C5 6539   2.061   0.192  15.448  0.1270 -0.2060 -0.9844
  435MPD2     H 6540   1.876   0.037  15.750 -2.2262 -0.6147 -0.7611
  435MPD2    H1 6541   2.235   0.095  15.526 -0.2516  0.7481  1.2806
  435MPD2    H2 6542   1.896   0.289  15.391 -1.4895 -0.2713  0.5682
  435MPD2    H3 6543   2.101   0.230  15.354 -1.2953  0.7961 -1.1977
  435MPD2     N 6544   2.124   4.695  15.724  0.0705  0.2985 -0.3992
  435MPD2    H5 6545   2.059   4.662  15.794 -0.7856 -0.8422 -1.7243
  435MPD2    N1 6546   1.729   0.188  15.597 -0.5073 -0.4771 -0.0683
  435MPD2    H7 6547   1.701   0.153  15.688  3.4923 -2.8172  0.2280
  436TMC3    C1 6548   1.354   0.285  15.741 -0.1253 -0.1389  0.6665
  436TMC3    C2 6549   1.482   0.242  15.692  0.5909 -0.7510  0.3027
  436TMC3    C3 6550   1.508   0.271  15.563 -0.5982 -0.4202 -0.1771
  436TMC3    C4 6551   1.265   0.357  15.667 -0.2549 -0.1572  0.1443
  436TMC3    C5 6552   1.299   0.375  15.537 -0.6839  0.4529  0.8429
  436TMC3    C6 6553   1.420   0.335  15.482  0.7012  0.4041  0.0200
  436TMC3     C 6554   1.306   0.228  15.868  0.2780 -0.4937 -0.0318
  436TMC3     O 6555   1.377   0.140  15.916  0.3234  0.4638 -0.7769
  436TMC3     H 6556   1.550   0.190  15.758 -1.1384  0.5668  3.1034
  436TMC3    H1 6557   1.173   0.395  15.712 -0.6193  0.9619 -1.5565
  436TMC3    H2 6558   1.446   0.369  15.382 -2.3994 -0.0054 -0.9220
  436TMC3    C7 6559   1.219   0.477  15.464 -0.2759 -0.3242  0.1800
  436TMC3    C8 6560   1.641   0.251  15.508  0.2838  0.4996 -0.0310
  436TMC3    O1 6561   1.179   0.560  15.536 -0.2568  0.1039  0.2878
  436TMC3    O2 6562   1.666   0.302  15.402  0.3207  0.5976  0.3142
  437TMC3    C1 6563   0.468   1.555  12.354  0.1126  0.2323  0.1925
  437TMC3    C2 6564   0.429   1.573  12.483 -0.5839  0.7005 -0.7643
  437TMC3    C3 6565   0.409   1.704  12.524 -0.3349  0.3664  0.9766
  437TMC3    C4 6566   0.482   1.655  12.264  0.1181 -0.4570  0.3549
  437TMC3    C5 6567   0.464   1.786  12.315  0.1983  1.2722  0.5244
  437TMC3    C6 6568   0.420   1.811  12.445  0.3717  0.0604 -0.0249
  437TMC3     C 6569   0.485   1.422  12.303 -0.3416 -0.3551 -0.0742
  437TMC3     O 6570   0.475   1.414  12.184  0.1623 -0.0016 -0.1451
  437TMC3     H 6571   0.397   1.496  12.552 -2.7285  0.4114 -2.1018
  437TMC3    H1 6572   0.517   1.638  12.163  0.4601  0.7546  0.2706
  437TMC3    H2 6573   0.385   1.905  12.484  1.8963  0.6325 -0.0396
  437TMC3    C7 6574   0.504   1.900  12.226  0.0616 -0.3477 -0.7020
  437TMC3    C8 6575   0.370   1.705  12.670 -0.0330 -0.4282  0.4514
  437TMC3    O1 6576   0.506   1.879  12.105  0.0828 -0.4345 -0.3170
  437TMC3    O2 6577   0.311   1.608  12.721  0.0956 -0.1639  0.0742
  438MPD2     C 6578   2.907   3.366  16.507 -0.6090 -0.3503  0.0638
  438MPD2    C1 6579   2.949   3.257  16.583  0.0099 -0.0826 -0.5034
  438MPD2    C2 6580   2.911   3.254  16.714  0.5200  0.1471 -0.1880
  438MPD2    C3 6581   2.835   3.356  16.767  0.4803 -0.0222  0.1642
  438MPD2    C4 6582   2.795   3.465  16.692  0.2255  0.5067 -0.3656
  438MPD2    C5 6583   2.830   3.465  16.564 -0.7630  0.1988  0.6073
  438MPD2     H 6584   2.949   3.176  16.778 -3.4230 -0.3906  1.4686
  438MPD2    H1 6585   2.745   3.554  16.728 -0.5042 -0.8509  1.9958
  438MPD2    H2 6586   2.943   3.373  16.405 -0.5842  0.7060  0.1394
  438MPD2    H3 6587   2.801   3.547  16.498  2.8701  1.7887  1.0109
  438MPD2     N 6588   2.776   3.351  16.894  0.5123 -0.4520  0.3698
  438MPD2    H5 6589   2.712   3.425  16.920  0.0764 -0.8873  0.5328
  438MPD2    N1 6590   3.035   3.153  16.531 -0.1289  0.4776  0.5778
  438MPD2    H7 6591   3.056   3.079  16.597 -2.1255  0.0379  0.7151
  439TMC3    C1 6592   3.149   3.022  16.378 -0.5405  0.4549 -1.3044
  439TMC3    C2 6593   3.161   2.992  16.241 -0.1850  0.1873  0.6162
  439TMC3    C3 6594   3.229   2.877  16.220 -0.6048 -0.6064  0.8726
  439TMC3    C4 6595   3.209   2.949  16.473  0.4224  0.1579  0.0702
  439TMC3    C5 6596   3.290   2.851  16.437 -0.6619  0.4031  0.5605
  439TMC3    C6 6597   3.302   2.808  16.315  0.1742 -0.4446  0.4849
  439TMC3     C 6598   3.078   3.152  16.405 -0.6204 -0.1794  0.2460
  439TMC3     O 6599   3.056   3.223  16.309 -0.3781 -0.1547 -0.0825
  439TMC3     H 6600   3.111   3.058  16.171  0.0302 -0.6753 -0.3405
  439TMC3    H1 6601   3.213   2.981  16.576  0.6156 -3.3934  1.1572
  439TMC3    H2 6602   3.372   2.729  16.290  0.5592  0.7241 -2.1836
  439TMC3    C7 6603   3.333   2.768  16.542  0.8141 -0.2723 -0.3010
  439TMC3    C8 6604   3.217   2.807  16.100 -0.3326  0.1903 -0.2896
  439TMC3    O1 6605   3.372   2.817  16.650 -0.4047 -0.3038 -0.6086
  439TMC3    O2 6606   3.285   2.708  16.093 -0.2820 -0.3926  0.3642
  440MPD2     C 6607   1.600   3.316  14.587  0.0448  0.7462  0.1795
  440MPD2    C1 6608   1.618   3.363  14.714  0.5814 -0.3674  0.1759
  440MPD2    C2 6609   1.747   3.355  14.772 -0.1149  0.3453 -0.0395
  440MPD2    C3 6610   1.848   3.284  14.713 -0.2981 -0.8977 -0.5641
  440MPD2    C4 6611   1.823   3.223  14.592 -0.0207 -0.1495  0.4728
  440MPD2    C5 6612   1.698   3.241  14.528 -0.3318  0.5106  0.4492
  440MPD2     H 6613   1.766   3.403  14.867  0.1545 -2.2959  1.2528
  440MPD2    H1 6614   1.899   3.168  14.537 -0.7073 -1.2885  0.6448
  440MPD2    H2 6615   1.509   3.327  14.528 -0.7087 -1.3693  0.9567
  440MPD2    H3 6616   1.689   3.201  14.428 -3.3147 -1.2166  1.4347
  440MPD2     N 6617   1.984   3.270  14.760 -0.1966 -0.0490  0.1834
  440MPD2    H5 6618   2.039   3.200  14.711 -1.8268 -0.1115 -1.5850
  440MPD2    N1 6619   1.516   3.432  14.793 -0.5848  0.1188  0.1368
  440MPD2    H7 6620   1.544   3.451  14.888 -0.0171 -0.2362  0.0444
  441TMC3    C1 6621   2.129   3.241  14.939  0.1046 -0.3028 -0.5024
  441TMC3    C2 6622   2.214   3.327  14.997  0.6221 -0.3305 -0.2329
  441TMC3    C3 6623   2.279   3.294  15.110 -0.1141 -0.3521 -0.3082
  441TMC3    C4 6624   2.089   3.127  14.996  0.0988  0.2473 -0.0171
  441TMC3    C5 6625   2.158   3.085  15.103 -0.4699  0.5677  0.6306
  441TMC3    C6 6626   2.254   3.170  15.162 -0.5996  0.1913 -0.1169
  441TMC3     C 6627   2.026   3.319  14.878 -0.9596  0.1805  0.3339
  441TMC3     O 6628   2.004   3.429  14.925  0.6742 -0.5613 -0.1228
  441TMC3     H 6629   2.222   3.428  14.957 -0.4572 -0.0882  0.1532
  441TMC3    H1 6630   2.012   3.060  14.960  0.0003  0.3137  0.0689
  441TMC3    H2 6631   2.300   3.152  15.259  0.9428  0.8065 -0.7383
  441TMC3    C7 6632   2.088   3.004  15.193  0.1306  0.1947  0.2848
  441TMC3    C8 6633   2.260   3.400  15.208 -0.2634 -0.1889 -0.1243
  441TMC3    O1 6634   1.968   2.992  15.171  0.1615  0.6145  0.1561
  441TMC3    O2 6635   2.314   3.379  15.316 -0.3395  0.0631  0.5235
  442MPD2     C 6636   0.040   3.793  16.278 -0.1026  0.0284 -0.2329
  442MPD2    C1 6637   4.687   3.704  16.338  0.6470  0.1453  0.3770
  442MPD2    C2 6638   4.641   3.594  16.268 -0.0251 -0.1504  0.7463
  442MPD2    C3 6639   4.683   3.569  16.140  0.8196  1.0551  0.2850
  442MPD2    C4 6640   0.032   3.658  16.082  0.3606 -0.0277  0.0773
  442MPD2    C5 6641   0.075   3.772  16.146 -0.7470 -0.2606 -0.4920
  442MPD2     H 6642   4.561   3.536  16.314 -2.1302  0.7286 -1.7925
  442MPD2    H1 6643   0.066   3.638  15.981 -0.2041  2.7507 -0.6585
  442MPD2    H2 6644   0.088   3.869  16.338 -1.2645  0.4562  0.1459
  442MPD2    H3 6645   0.151   3.830  16.096 -0.7104 -0.3194 -0.5050
  442MPD2     N 6646   4.640   3.460  16.067  0.0170  0.4132  0.3738
  442MPD2    H5 6647   4.656   3.461  15.966  0.4906  2.3987  0.4695
  442MPD2    N1 6648   4.630   3.726  16.462  0.3295  0.4851  0.3948
  442MPD2    H7 6649   4.581   3.648  16.504  0.6844  0.9354  1.6497
  443TMC3    C1 6650   4.566   3.855  16.662  0.1236  0.3610 -0.1667
  443TMC3    C2 6651   4.528   3.977  16.696 -0.6402 -0.3416 -0.0463
  443TMC3    C3 6652   4.434   3.996  16.787  0.1372 -0.3030  0.2954
  443TMC3    C4 6653   4.517   3.738  16.717 -0.3459 -0.7222  0.4654
  443TMC3    C5 6654   4.428   3.754  16.822 -0.0983  0.4900 -0.8343
  443TMC3    C6 6655   4.387   3.884  16.857  0.4126  0.0598  0.7798
  443TMC3     C 6656   4.638   3.845  16.532  1.0017 -0.3895  0.0284
  443TMC3     O 6657   4.687   3.950  16.486  0.2220 -0.0795 -0.1229
  443TMC3     H 6658   4.571   4.060  16.642 -2.3272  0.1769 -0.6044
  443TMC3    H1 6659   4.568   3.643  16.701 -1.6421 -1.2738 -0.3736
  443TMC3    H2 6660   4.333   3.898  16.950 -1.1472 -1.8281  0.1590
  443TMC3    C7 6661   4.351   3.643  16.880 -0.1936 -0.0847 -0.0634
  443TMC3    C8 6662   4.317   4.043  16.709  0.4061  0.2079  0.0479
  443TMC3    O1 6663   4.342   3.546  16.806 -0.2293 -0.5879  0.0607
  443TMC3    O2 6664   4.333   4.087  16.594  0.1186  0.2796 -0.3105
  444MPD2     C 6665   0.080   3.385  16.669  0.3528  0.1475  0.0525
  444MPD2    C1 6666   0.030   3.268  16.728 -0.1073  0.3132  0.0163
  444MPD2    C2 6667   0.064   3.150  16.662 -0.6910  0.1254  0.4138
  444MPD2    C3 6668   0.149   3.140  16.553  0.3105 -0.0423  0.4353
  444MPD2    C4 6669   0.203   3.258  16.504  0.2467 -0.0631  0.6127
  444MPD2    C5 6670   0.164   3.381  16.560 -0.3433  0.2970  0.8551
  444MPD2     H 6671   0.029   3.055  16.702 -0.2712 -0.2846 -0.1855
  444MPD2    H1 6672   0.276   3.269  16.425 -0.5910 -1.2282 -0.3201
  444MPD2    H2 6673   0.062   3.483  16.710  1.8828  0.7155 -0.6233
  444MPD2    H3 6674   0.218   3.473  16.541  1.0773 -0.4558  1.1886
  444MPD2     N 6675   0.180   3.011  16.501 -0.0449 -0.0561 -0.5704
  444MPD2    H5 6676   0.134   2.929  16.540  0.1981 -0.3044 -0.8088
  444MPD2    N1 6677   4.690   3.257  16.843  0.3167 -0.7361  0.2374
  444MPD2    H7 6678   4.644   3.168  16.862  1.4674 -1.0223  1.6629
  445TMC3    C1 6679   0.233   2.849  16.340  0.0754  0.0631 -0.5256
  445TMC3    C2 6680   0.133   2.764  16.386  0.3783  0.0746 -1.0945
  445TMC3    C3 6681   0.118   2.641  16.324  0.5237  0.3902 -0.2541
  445TMC3    C4 6682   0.314   2.808  16.242 -0.6585 -0.0893  0.1191
  445TMC3    C5 6683   0.309   2.686  16.187  0.2913  0.1439 -0.1708
  445TMC3    C6 6684   0.216   2.596  16.233 -0.4494  0.2402 -0.5005
  445TMC3     C 6685   0.250   2.984  16.384 -0.9662  0.4101 -0.4285
  445TMC3     O 6686   0.329   3.049  16.319 -0.3382 -0.9045  0.0159
  445TMC3     H 6687   0.066   2.790  16.467 -0.3257  0.9753 -1.9619
  445TMC3    H1 6688   0.392   2.875  16.208  1.2439 -1.2341  2.2782
  445TMC3    H2 6689   0.217   2.490  16.209 -0.7795  0.4728 -1.5709
  445TMC3    C7 6690   0.419   2.645  16.101 -0.2017  0.4444 -0.3433
  445TMC3    C8 6691   0.006   2.559  16.360 -0.6597 -0.2763  0.2439
  445TMC3    O1 6692   0.519   2.714  16.101  0.2653 -0.6556 -0.5864
  445TMC3    O2 6693   4.667   2.613  16.432  0.6518 -0.3550 -0.1678
  446MPD2     C 6694   3.758   4.431  11.677 -1.0278  0.7157 -0.2907
  446MPD2    C1 6695   3.758   4.432  11.535 -0.7585 -0.1902  0.5360
  446MPD2    C2 6696   3.848   4.523  11.475  0.7526  0.2040 -0.6433
  446MPD2    C3 6697   3.938   4.600  11.544  0.3527 -0.5559 -0.0074
  446MPD2    C4 6698   3.934   4.592  11.679  0.7834 -0.3493  0.3130
  446MPD2    C5 6699   3.853   4.502  11.744 -0.7461  0.5409 -0.1670
  446MPD2     H 6700   3.838   4.526  11.367 -1.0166  2.9728 -0.4166
  446MPD2    H1 6701   4.007   4.657  11.725 -0.4560 -0.0742  1.8898
  446MPD2    H2 6702   3.693   4.372  11.740 -0.8592  0.0027 -0.7851
  446MPD2    H3 6703   3.872   4.487  11.850  2.9440  0.0867 -0.8977
  446MPD2     N 6704   4.033   4.685  11.474 -0.3562 -0.3064  0.1737
  446MPD2    H5 6705   4.020   4.699  11.374 -1.3518  0.7709  0.4517
  446MPD2    N1 6706   3.668   4.352  11.457 -0.3831 -0.5546  0.1391
  446MPD2    H7 6707   3.681   4.354  11.356  1.4713 -1.4870  0.3598
  447TMC3    C1 6708   4.231   0.053  11.442  0.2727  1.0190 -0.0355
  447TMC3    C2 6709   4.195   0.080  11.309 -0.1351 -0.0710  0.1275
  447TMC3    C3 6710   4.271   0.175  11.248 -0.4231 -0.5311  0.3143
  447TMC3    C4 6711   4.346   0.106  11.501  0.1105 -0.6847 -0.1422
  447TMC3    C5 6712   4.426   0.187  11.426 -0.0823 -0.3473 -0.4217
  447TMC3    C6 6713   4.386   0.231  11.299  0.1415  0.5485  0.4793
  447TMC3     C 6714   4.157   4.697  11.520  0.3398 -0.2828  0.3222
  447TMC3     O 6715   4.214   4.644  11.614 -0.2291 -0.1274  0.0189
  447TMC3     H 6716   4.119   0.027  11.253  0.0732 -2.1295  1.7967
  447TMC3    H1 6717   4.387   0.058  11.589 -0.3035 -0.3673  0.2238
  447TMC3    H2 6718   4.441   0.315  11.259 -0.6502  1.1388  0.6323
  447TMC3    C7 6719   4.569   0.155  11.421 -0.2781 -0.3196  0.5111
  447TMC3    C8 6720   4.292   0.135  11.108  0.3736  0.0257 -0.1717
  447TMC3    O1 6721   4.606   0.127  11.309  0.0661  0.6594  0.3812
  447TMC3    O2 6722   4.194   0.087  11.050  0.0693  1.0031 -0.4440
  448TMC3    C1 6723   2.470   4.349  17.060 -0.6807  0.4230  0.0254
  448TMC3    C2 6724   2.508   4.300  16.937  0.4225 -0.0396  0.0406
  448TMC3    C3 6725   2.638   4.250  16.923  0.2047 -0.1587 -0.0069
  448TMC3    C4 6726   2.564   4.357  17.158  0.4101  0.4930  0.3015
  448TMC3    C5 6727   2.690   4.309  17.140  0.2999 -0.1738  1.2119
  448TMC3    C6 6728   2.723   4.241  17.027  0.0369 -0.1599  0.0543
  448TMC3     C 6729   2.350   4.422  17.078 -0.2536 -0.0804  0.0007
  448TMC3     O 6730   2.313   4.487  16.981  0.1626  0.4802  0.2472
  448TMC3     H 6731   2.423   4.280  16.872  0.6538 -0.6679 -0.0632
  448TMC3    H1 6732   2.556   4.423  17.244 -2.2766  0.9423 -0.3004
  448TMC3    H2 6733   2.823   4.201  17.015  1.2210  2.7817 -0.0295
  448TMC3    C7 6734   2.798   4.312  17.239 -0.5993  0.5792  0.2687
  448TMC3    C8 6735   2.672   4.174  16.797 -0.6504  0.8842  0.4689
  448TMC3    O1 6736   2.914   4.306  17.196 -0.0892  0.1434  0.1528
  448TMC3    O2 6737   2.760   4.092  16.803 -0.3091  0.1125 -0.0101
  449MPD2     C 6738   4.056   3.006  14.228  0.1931  0.0722  0.2107
  449MPD2    C1 6739   3.937   3.035  14.171 -0.2470  0.5610 -0.6363
  449MPD2    C2 6740   3.831   2.941  14.168 -0.2124  0.6705  0.2093
  449MPD2    C3 6741   3.844   2.817  14.228  0.2408 -0.5380 -0.2315
  449MPD2    C4 6742   3.964   2.786  14.289 -0.5420 -0.2503  0.2608
  449MPD2    C5 6743   4.068   2.879  14.282  0.0193 -0.2394 -0.1563
  449MPD2     H 6744   3.747   2.967  14.105 -1.3388  1.6839  2.1073
  449MPD2    H1 6745   3.988   2.697  14.346  3.3001 -1.0969 -2.6537
  449MPD2    H2 6746   4.146   3.066  14.231  0.7550 -0.8120  1.0050
  449MPD2    H3 6747   4.169   2.855  14.313 -0.4202 -1.2814  0.4882
  449MPD2     N 6748   3.740   2.727  14.225  1.0675  0.2795 -0.5395
  449MPD2    H5 6749   3.652   2.746  14.178  0.8456 -2.0305 -1.0778
  449MPD2    N1 6750   3.925   3.147  14.085  0.0248 -0.0149  0.2687
  449MPD2    H7 6751   3.833   3.158  14.043 -0.2547 -0.2587  0.8148
  450TMC3    C1 6752   3.954   3.320  13.946  0.3518  0.0133  1.1907
  450TMC3    C2 6753   3.989   3.302  13.816 -0.7388 -0.1726 -0.2152
  450TMC3    C3 6754   3.888   3.323  13.725  0.1228 -0.6371  0.1966
  450TMC3    C4 6755   3.830   3.359  13.980 -0.3862  0.6828 -0.4350
  450TMC3    C5 6756   3.731   3.366  13.891 -0.8646  0.0203 -0.1708
  450TMC3    C6 6757   3.765   3.367  13.759 -0.1500 -0.0889  0.3835
  450TMC3     C 6758   4.020   3.233  14.044 -0.4243  1.0451  0.8175
  450TMC3     O 6759   4.138   3.241  14.075  0.3522 -0.3664 -0.3097
  450TMC3     H 6760   4.079   3.246  13.791 -1.8523 -3.1720  2.4786
  450TMC3    H1 6761   3.809   3.364  14.087  0.3881 -0.1557 -0.2327
  450TMC3    H2 6762   3.690   3.372  13.681 -1.0331  2.0337  1.3545
  450TMC3    C7 6763   3.622   3.271  13.927  0.3630 -0.5740 -0.4666
  450TMC3    C8 6764   3.903   3.296  13.587 -0.3035  0.7118 -0.6548
  450TMC3    O1 6765   3.662   3.188  14.009 -0.4175  0.5814  0.1268
  450TMC3    O2 6766   3.803   3.304  13.517  0.5241  0.0934 -0.4161
  451MPD2     C 6767   0.273   2.757   1.468 -0.0741  0.3605  0.2033
  451MPD2    C1 6768   0.288   2.699   1.348  0.2047 -0.3181  0.1358
  451MPD2    C2 6769   0.415   2.696   1.295  0.1155  0.3298 -0.3033
  451MPD2    C3 6770   0.525   2.752   1.360  0.3100 -0.7583  0.0737
  451MPD2    C4 6771   0.516   2.799   1.485  0.3227  0.4468  0.3643
  451MPD2    C5 6772   0.388   2.801   1.531 -0.2580  0.0225  0.4006
  451MPD2     H 6773   0.437   2.656   1.197 -0.2620  0.3480 -0.3963
  451MPD2    H1 6774   0.605   2.843   1.528 -0.1676  0.1737  1.6554
  451MPD2    H2 6775   0.177   2.760   1.518 -0.6552 -3.0394 -0.6752
  451MPD2    H3 6776   0.372   2.837   1.632 -0.6256  0.2033  0.2775
  451MPD2     N 6777   0.655   2.734   1.304  0.0496  1.1907 -0.5424
  451MPD2    H5 6778   0.726   2.744   1.376 -1.1905  1.0171  0.7052
  451MPD2    N1 6779   0.177   2.640   1.279  0.3997  0.0644  0.3703
  451MPD2    H7 6780   0.088   2.644   1.326  0.4826 -2.1087  0.7279
  452TMC3    C1 6781   0.816   2.638   1.182 -0.5952  0.5959 -0.1772
  452TMC3    C2 6782   0.817   2.534   1.269 -0.5696  0.2841 -0.2998
  452TMC3    C3 6783   0.849   2.407   1.230 -0.2794  0.1893 -0.8157
  452TMC3    C4 6784   0.848   2.604   1.046 -0.7256  0.3696  0.1971
  452TMC3    C5 6785   0.877   2.477   1.014  0.2514  0.2715 -0.1294
  452TMC3    C6 6786   0.885   2.377   1.104 -0.0163  0.0805  0.2435
  452TMC3     C 6787   0.688   2.696   1.179  0.3091 -0.4014 -0.0602
  452TMC3     O 6788   0.621   2.697   1.075  0.1868 -0.4920  0.2997
  452TMC3     H 6789   0.822   2.560   1.374  2.0798 -1.1189 -0.0890
  452TMC3    H1 6790   0.833   2.668   0.960  1.6568 -0.2696 -0.6849
  452TMC3    H2 6791   0.893   2.274   1.073 -1.7936 -0.2788  1.0073
  452TMC3    C7 6792   0.907   2.459   0.875 -0.5161 -1.0166 -0.4691
  452TMC3    C8 6793   0.752   2.314   1.283  0.1637  0.3546 -0.3775
  452TMC3    O1 6794   0.957   2.557   0.819 -0.0770  0.9361 -0.4874
  452TMC3    O2 6795   0.768   2.195   1.287 -0.7368 -0.0286 -0.4943
  453TMC3    C1 6796   1.840   3.346  11.567 -0.6412 -0.2151 -0.3016
  453TMC3    C2 6797   1.741   3.268  11.630  0.2130  0.1848 -0.3647
  453TMC3    C3 6798   1.665   3.197  11.538 -0.4014 -0.3569  0.0184
  453TMC3    C4 6799   1.880   3.334  11.438 -0.5576 -0.1318 -0.7268
  453TMC3    C5 6800   1.801   3.258  11.360  0.0172 -0.0772 -0.0847
  453TMC3    C6 6801   1.693   3.189  11.405 -0.3767 -0.0201 -0.5010
  453TMC3     C 6802   1.931   3.430  11.642  0.7148  0.2959  0.1509
  453TMC3     O 6803   1.986   3.530  11.592 -0.1118  0.1261 -0.0344
  453TMC3     H 6804   1.706   3.281  11.731  1.6191 -0.6371  0.2380
  453TMC3    H1 6805   1.960   3.391  11.391 -0.8261  0.8997  0.0858
  453TMC3    H2 6806   1.643   3.130  11.329  0.7220 -1.6619  0.0575
  453TMC3    C7 6807   1.818   3.255  11.215 -0.3215 -0.9712 -0.2391
  453TMC3    C8 6808   1.546   3.132  11.584 -0.1744 -0.6390 -0.0895
  453TMC3    O1 6809   1.716   3.258  11.153  1.0111  0.3231 -0.0012
  453TMC3    O2 6810   1.459   3.115  11.497 -0.0431 -0.2979  0.1835
  454MPD2     C 6811   0.674   2.964  15.442 -0.0613 -0.7610 -0.4176
  454MPD2    C1 6812   0.542   2.980  15.406 -0.2610 -0.6034 -0.1161
  454MPD2    C2 6813   0.461   3.071  15.480  0.5051  0.7277  0.3662
  454MPD2    C3 6814   0.519   3.132  15.591  0.4834 -0.8328  0.0463
  454MPD2    C4 6815   0.656   3.128  15.612 -0.0813 -0.2517 -0.6275
  454MPD2    C5 6816   0.731   3.051  15.534  0.9436 -0.1601  0.3947
  454MPD2     H 6817   0.355   3.074  15.460  0.7234 -0.4438 -1.0061
  454MPD2    H1 6818   0.701   3.179  15.697 -0.8246 -0.6027 -0.0141
  454MPD2    H2 6819   0.742   2.899  15.389 -0.8848 -2.2976  0.3952
  454MPD2    H3 6820   0.837   3.043  15.556  0.3160 -1.2790  3.0609
  454MPD2     N 6821   0.441   3.203  15.689 -0.1371 -0.0872 -0.6561
  454MPD2    H5 6822   0.487   3.256  15.763  2.3275 -1.5905 -1.1236
  454MPD2    N1 6823   0.470   2.899  15.318 -0.0893 -0.3682 -0.4872
  454MPD2    H7 6824   0.374   2.930  15.305  0.2839  0.1710 -1.9843
  455TMC3    C1 6825   0.252   3.222  15.827 -0.6914 -0.0143 -0.6098
  455TMC3    C2 6826   0.306   3.333  15.883  0.0474  0.3968  0.4092
  455TMC3    C3 6827   0.270   3.347  16.017 -0.0218 -0.2348 -0.1299
  455TMC3    C4 6828   0.165   3.132  15.893  0.1362 -0.0587 -0.2696
  455TMC3    C5 6829   0.138   3.149  16.025  0.0457 -0.1110 -0.5373
  455TMC3    C6 6830   0.184   3.256  16.087  0.2190  0.0451  1.1385
  455TMC3     C 6831   0.304   3.180  15.701 -0.1686  0.4254 -0.7099
  455TMC3     O 6832   0.236   3.096  15.645  0.7726  0.0631  0.1381
  455TMC3     H 6833   0.387   3.391  15.839 -0.4209  0.4944 -0.3187
  455TMC3    H1 6834   0.119   3.056  15.830  1.9266 -1.1851 -0.2415
  455TMC3    H2 6835   0.153   3.272  16.190  1.3346 -1.3969  1.6947
  455TMC3    C7 6836   0.057   3.051  16.094 -0.3666 -0.7589  0.4705
  455TMC3    C8 6837   0.334   3.450  16.087  0.2810 -0.1135  0.1610
  455TMC3    O1 6838   0.025   3.067  16.209 -0.0845 -0.4292  0.4618
  455TMC3    O2 6839   0.358   3.419  16.203 -0.2916 -0.2768 -0.1527
  456MPD2     C 6840   3.108   3.236  15.687  0.7041  0.0307  0.0265
  456MPD2    C1 6841   3.197   3.214  15.790 -0.1035 -0.2636 -0.7180
  456MPD2    C2 6842   3.187   3.285  15.908 -0.2601 -0.3971 -0.3134
  456MPD2    C3 6843   3.104   3.395  15.915  0.0591  0.4390  0.4391
  456MPD2    C4 6844   3.035   3.434  15.801  0.0901  0.0136 -0.4049
  456MPD2    C5 6845   3.045   3.357  15.687  0.4976 -0.2202 -0.2899
  456MPD2     H 6846   3.250   3.250  15.989  1.6286 -0.8040 -1.9325
  456MPD2    H1 6847   2.977   3.525  15.805 -0.7032 -0.4295 -2.1746
  456MPD2    H2 6848   3.111   3.180  15.595  0.9051 -0.2916  0.2309
  456MPD2    H3 6849   2.990   3.392  15.601 -1.0522  0.1734  0.8766
  456MPD2     N 6850   3.100   3.466  16.037  0.4564 -0.6572 -0.1435
  456MPD2    H5 6851   3.172   3.438  16.103  0.8608  0.3869 -0.1394
  456MPD2    N1 6852   3.278   3.101  15.775 -0.1473  0.2094  0.0201
  456MPD2    H7 6853   3.275   3.064  15.680 -2.5685 -0.6260  0.4296
  457TMC3    C1 6854   3.042   3.610  16.213  0.3088  0.3581 -0.1721
  457TMC3    C2 6855   2.985   3.732  16.244  0.1121 -0.1704  0.2665
  457TMC3    C3 6856   3.007   3.775  16.373  0.1938 -0.0823  1.0235
  457TMC3    C4 6857   3.117   3.543  16.301  0.1789  0.3894  0.6478
  457TMC3    C5 6858   3.145   3.594  16.424 -0.4877  0.3721  0.2148
  457TMC3    C6 6859   3.091   3.712  16.462 -0.0290  0.0741  0.6023
  457TMC3     C 6860   3.028   3.576  16.073  0.0358  0.1557 -0.4715
  457TMC3     O 6861   2.970   3.642  15.989 -0.2400  0.4352 -0.0959
  457TMC3     H 6862   2.919   3.783  16.175 -1.5482  0.6451  2.4304
  457TMC3    H1 6863   3.142   3.442  16.271 -1.2336  0.1492  0.2840
  457TMC3    H2 6864   3.111   3.754  16.560  2.2120  1.1279 -0.2960
  457TMC3    C7 6865   3.228   3.522  16.513  0.3540 -0.5114  0.1293
  457TMC3    C8 6866   2.921   3.872  16.435 -0.2133  0.0882  0.0679
  457TMC3    O1 6867   3.207   3.544  16.630  0.2147  0.0387  0.8958
  457TMC3    O2 6868   2.911   3.864  16.558  0.1078  0.3525  0.5805
  458MPD2     C 6869   0.756   2.338  12.177  0.3474 -0.1567  0.3748
  458MPD2    C1 6870   0.762   2.298  12.304  0.0706 -0.7605  0.2829
  458MPD2    C2 6871   0.687   2.190  12.337 -0.3634 -0.2942  0.2883
  458MPD2    C3 6872   0.615   2.114  12.251  0.2562  0.1256 -0.5737
  458MPD2    C4 6873   0.613   2.159  12.121 -0.1534 -0.3365 -0.4712
  458MPD2    C5 6874   0.677   2.271  12.082 -0.4498  0.2962  0.4441
  458MPD2     H 6875   0.686   2.150  12.438  0.9771  0.9063  0.7809
  458MPD2    H1 6876   0.541   2.107  12.057 -0.4914  1.6623 -1.7182
  458MPD2    H2 6877   0.821   2.421  12.153 -0.6443  0.0566 -1.5155
  458MPD2    H3 6878   0.677   2.296  11.976 -0.6746  1.1391  0.6477
  458MPD2     N 6879   0.543   2.001  12.303 -0.3783 -0.0292  0.0060
  458MPD2    H5 6880   0.544   1.981  12.402  0.5309  0.9738  0.1967
  458MPD2    N1 6881   0.865   2.356  12.387  0.1284 -0.7491 -0.6153
  458MPD2    H7 6882   0.926   2.432  12.361 -1.2413 -0.0064 -1.6284
  459TMC3    C1 6883   0.995   2.383  12.588 -0.6707  0.3538 -0.1764
  459TMC3    C2 6884   1.094   2.458  12.519  0.1652 -0.5912  0.2201
  459TMC3    C3 6885   1.211   2.488  12.583 -0.7462 -0.3094 -1.1766
  459TMC3    C4 6886   1.001   2.361  12.727 -0.2176  0.1840 -1.0046
  459TMC3    C5 6887   1.119   2.412  12.794  0.0257 -0.6308  0.2305
  459TMC3    C6 6888   1.227   2.459  12.717  0.2618 -0.1055  0.0698
  459TMC3     C 6889   0.890   2.314  12.516 -1.1065  0.1530  0.0096
  459TMC3     O 6890   0.837   2.223  12.579 -0.1398 -0.2249  0.7714
  459TMC3     H 6891   1.095   2.475  12.412 -1.6219  0.3638  0.3520
  459TMC3    H1 6892   0.929   2.300  12.780 -0.5404 -0.1121 -1.7883
  459TMC3    H2 6893   1.324   2.474  12.762 -0.3299  3.4260  0.2214
  459TMC3    C7 6894   1.157   2.344  12.918  0.7153 -0.4094 -0.3476
  459TMC3    C8 6895   1.278   2.613  12.548  0.2645 -0.8057 -0.9722
  459TMC3    O1 6896   1.271   2.298  12.937 -0.4022 -0.0287  0.5849
  459TMC3    O2 6897   1.387   2.627  12.601 -0.8205  0.5786 -0.6634
  460MPD2     C 6898   4.604   0.110  10.923  0.3460  0.2199  0.4542
  460MPD2    C1 6899   4.468   0.117  10.938  0.2194 -0.8171 -0.4311
  460MPD2    C2 6900   4.388   0.114  10.828 -0.0018  0.5223 -0.4551
  460MPD2    C3 6901   4.434   0.084  10.705 -0.3695 -0.3882 -0.0995
  460MPD2    C4 6902   4.574   0.060  10.690  0.2461 -0.0336 -0.4592
  460MPD2    C5 6903   4.655   0.095  10.796 -0.5399 -0.7375  0.1136
  460MPD2     H 6904   4.280   0.125  10.836 -0.0640 -1.3788  1.3330
  460MPD2    H1 6905   4.623   0.042  10.595  1.1419 -1.1866  0.2315
  460MPD2    H2 6906   4.659   0.126  11.015  2.0354 -0.7965 -0.3728
  460MPD2    H3 6907   0.022   0.105  10.784 -0.5422 -1.2320 -0.3008
  460MPD2     N 6908   4.345   0.077  10.599  0.5737  0.6651 -0.9422
  460MPD2    H5 6909   4.250   0.102  10.624  0.6202 -1.1351  1.0026
  460MPD2    N1 6910   4.423   0.140  11.070  0.0299  0.2280  0.6459
  460MPD2    H7 6911   4.492   0.167  11.139  0.5565 -2.1941  1.0388
  461TMC3    C1 6912   4.265   0.046  10.373  0.5650 -0.3621 -0.4589
  461TMC3    C2 6913   4.270   4.698  10.269 -0.9600  0.3646  0.0494
  461TMC3    C3 6914   4.200   4.739  10.156  0.4789 -0.3334  0.2878
  461TMC3    C4 6915   4.211   0.174  10.361  0.0606  0.8377 -0.2702
  461TMC3    C5 6916   4.146   0.207  10.241 -0.4841 -0.5246  0.3231
  461TMC3    C6 6917   4.133   0.118  10.148  0.1660  0.6140 -0.3675
  461TMC3     C 6918   4.377   0.030  10.469  0.7515  0.3446 -0.0730
  461TMC3     O 6919   4.485   4.734  10.419 -0.0936 -0.0957 -0.5838
  461TMC3     H 6920   4.311   4.597  10.270 -0.8053  0.4290  0.1662
  461TMC3    H1 6921   4.231   0.243  10.441  0.5726 -0.4249  0.6872
  461TMC3    H2 6922   4.054   0.132  10.075 -1.3009  0.1112  1.1442
  461TMC3    C7 6923   4.107   0.346  10.205  0.2064 -0.1274 -0.4863
  461TMC3    C8 6924   4.198   4.643  10.045  0.5195  0.3230  0.0133
  461TMC3    O1 6925   4.021   0.360  10.118 -0.2406  0.0912  0.3413
  461TMC3    O2 6926   4.229   4.524  10.070 -0.4439  0.1030  0.0031
  462TMC3    C1 6927   0.066   0.872  17.251 -0.3107  0.0827  0.0584
  462TMC3    C2 6928   0.018   0.833  17.131  0.5207  0.3391 -0.3834
  462TMC3    C3 6929   0.003   0.697  17.114  0.4140 -0.1300  0.2463
  462TMC3    C4 6930   0.101   0.788  17.353 -0.1182 -0.0092  0.1485
  462TMC3    C5 6931   0.073   0.654  17.334  0.4746  0.3158  0.1026
  462TMC3    C6 6932   0.016   0.606  17.218 -0.8197 -0.3564  0.3463
  462TMC3     C 6933   0.118   1.005  17.272 -0.1034 -0.3663  0.4988
  462TMC3     O 6934   0.199   1.024  17.363 -0.3659  0.4381 -0.5930
  462TMC3     H 6935   0.009   0.901  17.047 -1.8415  0.6947  0.1596
  462TMC3    H1 6936   0.127   0.821  17.453 -3.0229 -3.3380  1.9995
  462TMC3    H2 6937   0.041   0.503  17.198 -0.4082  0.2300 -2.1315
  462TMC3    C7 6938   0.122   0.561  17.433 -0.2833  0.5111 -0.3156
  462TMC3    C8 6939   4.723   0.655  16.977 -0.1582  0.3291 -0.0758
  462TMC3    O1 6940   0.063   0.454  17.435  0.4280 -0.4689  0.4318
  462TMC3    O2 6941   4.652   0.732  16.910  0.4069  0.5564  0.0852
  463MPD2     C 6942   1.327   4.327   1.789  0.2980  0.9670 -0.2624
  463MPD2    C1 6943   1.221   4.393   1.731  0.1944  0.7737 -0.5905
  463MPD2    C2 6944   1.234   4.531   1.710 -0.3892  0.3847  0.2820
  463MPD2    C3 6945   1.350   4.606   1.737 -0.2282  0.6683 -0.8828
  463MPD2    C4 6946   1.453   4.537   1.793 -0.0896  0.3674 -0.6705
  463MPD2    C5 6947   1.445   4.400   1.810 -0.0036 -0.3241 -0.0388
  463MPD2     H 6948   1.154   4.577   1.654 -1.2563  0.6482  1.7723
  463MPD2    H1 6949   1.550   4.584   1.807 -0.1876 -0.3792  2.4995
  463MPD2    H2 6950   1.325   4.220   1.809 -1.9017  1.3357  1.4564
  463MPD2    H3 6951   1.527   4.351   1.860  1.8674  1.1864 -1.6600
  463MPD2     N 6952   1.356   0.006   1.713 -0.2258  1.0937 -0.6244
  463MPD2    H5 6953   1.440   0.062   1.723  0.7743 -0.7961  1.5543
  463MPD2    N1 6954   1.097   4.337   1.701  0.8504 -0.1487  0.1485
  463MPD2    H7 6955   1.031   4.390   1.644  0.2142 -1.5981 -0.4620
  464TMC3    C1 6956   0.962   4.149   1.661 -0.1777 -0.4042 -0.4353
  464TMC3    C2 6957   0.961   4.187   1.526 -0.0661 -0.4426 -0.0158
  464TMC3    C3 6958   0.861   4.133   1.452 -0.8197 -0.1457  0.1152
  464TMC3    C4 6959   0.888   4.058   1.718  0.0298  0.1574 -0.1642
  464TMC3    C5 6960   0.788   4.003   1.643  0.4285 -0.3386 -0.0378
  464TMC3    C6 6961   0.767   4.044   1.509 -0.2968  0.2286 -0.1500
  464TMC3     C 6962   1.063   4.209   1.746 -0.2501  0.0782 -0.1108
  464TMC3     O 6963   1.115   4.135   1.825 -0.4278 -0.1046  0.1043
  464TMC3     H 6964   1.042   4.246   1.484  1.5417 -1.6864  1.3711
  464TMC3    H1 6965   0.886   4.031   1.823  0.2936  0.6747 -0.0307
  464TMC3    H2 6966   0.682   4.012   1.451 -0.6903 -0.3098  0.7267
  464TMC3    C7 6967   0.665   3.967   1.710 -0.1352  0.6140  0.4607
  464TMC3    C8 6968   0.813   4.234   1.355 -0.1214 -0.4391  0.3181
  464TMC3    O1 6969   0.660   4.009   1.828 -0.0600  0.4167  0.0986
  464TMC3    O2 6970   0.691   4.246   1.350  0.0514 -0.1427 -0.3644
  465MPD2     C 6971   2.395   3.708  17.419 -0.0568 -0.1745 -0.0226
  465MPD2    C1 6972   2.269   3.679  17.378 -0.3711 -0.4433  0.0197
  465MPD2    C2 6973   2.266   3.620  17.254  0.5482 -0.3509  0.8756
  465MPD2    C3 6974   2.373   3.582  17.175 -0.0510  0.3232 -0.4120
  465MPD2    C4 6975   2.500   3.619  17.219  0.9984 -0.6157  0.1890
  465MPD2    C5 6976   2.504   3.684  17.336  0.4572  0.0992  0.0801
  465MPD2     H 6977   2.171   3.593  17.208  0.6194 -0.8345  1.0162
  465MPD2    H1 6978   2.596   3.603  17.172  1.0606 -0.6740  0.3363
  465MPD2    H2 6979   2.412   3.753  17.516 -2.5535  0.0953  0.2686
  465MPD2    H3 6980   2.605   3.712  17.366 -0.0359  0.5412  1.3117
  465MPD2     N 6981   2.356   3.500  17.062  1.1195  0.2617  0.4053
  465MPD2    H5 6982   2.261   3.472  17.039  0.6649  2.5483 -0.5535
  465MPD2    N1 6983   2.154   3.704  17.452 -0.9395 -0.3893 -0.1991
  465MPD2    H7 6984   2.065   3.664  17.425 -0.1714 -0.9034 -1.9207
  466TMC3    C1 6985   2.248   3.284  16.749 -0.3660  0.1648 -0.1078
  466TMC3    C2 6986   2.285   3.336  16.629 -0.4767 -0.0400 -0.2100
  466TMC3    C3 6987   2.377   3.443  16.625 -0.8733 -0.0051 -0.4550
  466TMC3    C4 6988   2.307   3.320  16.862  0.2265 -0.1132  0.2088
  466TMC3    C5 6989   2.399   3.426  16.848 -0.2904  0.3148  0.4794
  466TMC3    C6 6990   2.434   3.490  16.737 -0.4294 -0.1772 -0.1883
  466TMC3     C 6991   2.113   3.245  16.780  0.0870  0.3501  0.0856
  466TMC3     O 6992   2.108   3.185  16.886 -0.5548  0.2606  0.3961
  466TMC3     H 6993   2.245   3.304  16.533  1.5258 -0.8239 -0.7815
  466TMC3    H1 6994   2.301   3.271  16.958  1.0287  1.1702  0.9142
  466TMC3    H2 6995   2.510   3.566  16.729 -1.8404  1.2265 -0.1165
  466TMC3    C7 6996   2.453   3.480  16.965  0.1939 -0.2800  0.3666
  466TMC3    C8 6997   2.320   3.557  16.542  0.6665 -0.0097  0.0179
  466TMC3    O1 6998   2.571   3.510  16.957  0.1771  0.3833 -0.0617
  466TMC3    O2 6999   2.327   3.530  16.421 -0.2920 -0.4147 -0.6288
  467TMC3    C1 7000   2.974   1.808  14.096 -0.3184  0.0651 -0.8600
  467TMC3    C2 7001   2.901   1.823  13.978  0.2991 -0.4983  0.2402
  467TMC3    C3 7002   2.795   1.739  13.955  0.3095  0.2898 -0.6920
  467TMC3    C4 7003   2.949   1.708  14.189 -0.7072  0.6148  0.0281
  467TMC3    C5 7004   2.854   1.618  14.155  0.2314  0.3149 -0.5131
  467TMC3    C6 7005   2.776   1.635  14.042  0.7142 -0.4495  0.1784
  467TMC3     C 7006   3.115   1.837  14.083 -0.7322 -0.3354  0.3866
  467TMC3     O 7007   3.188   1.812  14.180 -0.5483 -0.1942 -0.2955
  467TMC3     H 7008   2.913   1.919  13.930  2.8873 -2.6335 -3.3178
  467TMC3    H1 7009   2.999   1.695  14.284 -2.0375  0.0162  0.6423
  467TMC3    H2 7010   2.698   1.562  14.025  1.1780 -1.1153  0.9028
  467TMC3    C7 7011   2.812   1.535  14.273  0.4754  0.0804 -0.7475
  467TMC3    C8 7012   2.752   1.708  13.814  0.1922 -0.0256  1.1536
  467TMC3    O1 7013   2.904   1.496  14.342  0.1664  0.1982 -0.0021
  467TMC3    O2 7014   2.696   1.606  13.783 -0.3644  0.2548 -0.3257
  468MPD2     C 7015   1.218   4.608  10.562  0.1497  0.4909 -0.4663
  468MPD2    C1 7016   1.335   4.647  10.627 -0.2309  0.0268  0.2029
  468MPD2    C2 7017   1.418   4.552  10.670 -0.7911  0.0127  0.2761
  468MPD2    C3 7018   1.395   4.420  10.647  0.3429 -0.5626 -0.2170
  468MPD2    C4 7019   1.276   4.374  10.595 -0.0725  0.0285 -0.2737
  468MPD2    C5 7020   1.195   4.471  10.545 -0.1611 -0.1508 -0.3714
  468MPD2     H 7021   1.509   4.587  10.717 -1.7759 -3.0666  4.4677
  468MPD2    H1 7022   1.252   4.270  10.573 -0.0837  0.1690 -0.9268
  468MPD2    H2 7023   1.149   4.667  10.501 -0.0474  0.4683 -0.2640
  468MPD2    H3 7024   1.107   4.455  10.484 -2.3839  0.0114  2.8042
  468MPD2     N 7025   1.485   4.318  10.670  0.1714  0.2096 -0.2069
  468MPD2    H5 7026   1.466   4.227  10.630 -0.5599  0.5952 -0.7370
  468MPD2    N1 7027   1.356   0.033  10.668 -1.0119  0.2613  0.1151
  468MPD2    H7 7028   1.446   0.057  10.707 -0.6787  0.7596 -0.9466
  469TMC3    C1 7029   1.310   0.257  10.694 -0.0651 -0.0912  0.4199
  469TMC3    C2 7030   1.444   0.286  10.693  0.3376 -0.3419  0.9283
  469TMC3    C3 7031   1.482   0.398  10.765 -0.4261 -0.2313  0.6675
  469TMC3    C4 7032   1.223   0.331  10.766  0.1645  0.0943 -0.2216
  469TMC3    C5 7033   1.264   0.438  10.835  0.1526 -0.0639 -0.4531
  469TMC3    C6 7034   1.396   0.478  10.834 -0.4961 -0.3390 -0.1253
  469TMC3     C 7035   1.259   0.130  10.652  0.0873 -0.0135  0.2688
  469TMC3     O 7036   1.136   0.123  10.628  0.2157  0.2427 -0.2814
  469TMC3     H 7037   1.523   0.244  10.632  1.0467 -1.1224  2.3839
  469TMC3    H1 7038   1.123   0.290  10.779  1.1124 -2.5335 -1.1932
  469TMC3    H2 7039   1.432   0.571  10.878 -0.8853  0.6681 -1.9344
  469TMC3    C7 7040   1.162   0.503  10.916  0.7806 -0.7287 -0.5216
  469TMC3    C8 7041   1.622   0.434  10.769 -0.4694  0.3067 -0.0922
  469TMC3    O1 7042   1.044   0.484  10.885 -0.2520 -0.1687 -0.0711
  469TMC3    O2 7043   1.645   0.555  10.758 -0.8672  0.0347  0.0478
  470TMC3    C1 7044   3.898   1.086   0.533  0.3134 -0.0021  0.8603
  470TMC3    C2 7045   3.949   1.196   0.587  0.3255  0.2541  0.1160
  470TMC3    C3 7046   3.881   1.256   0.694 -0.0867  0.5989  0.5847
  470TMC3    C4 7047   3.789   1.014   0.583  0.9404 -0.6903 -0.0486
  470TMC3    C5 7048   3.726   1.084   0.680 -0.4857  0.1187  0.5674
  470TMC3    C6 7049   3.767   1.202   0.740 -0.4424 -0.1752 -0.0101
  470TMC3     C 7050   3.953   1.028   0.407 -0.4608 -0.9512 -0.6636
  470TMC3     O 7051   3.887   0.940   0.368  0.2469 -0.3874  0.4505
  470TMC3     H 7052   4.021   1.250   0.526  0.5592  0.5227  0.6235
  470TMC3    H1 7053   3.746   0.927   0.534  1.0120 -0.7954  0.0747
  470TMC3    H2 7054   3.712   1.243   0.824 -1.0418  0.8985 -0.9307
  470TMC3    C7 7055   3.575   1.058   0.686  0.5350  0.1599 -0.5905
  470TMC3    C8 7056   3.919   1.389   0.739 -0.0392 -0.1776 -0.4297
  470TMC3    O1 7057   3.537   0.950   0.660 -0.1638  0.0501  0.6960
  470TMC3    O2 7058   3.848   1.429   0.831  0.4289  0.1269 -0.4858
  471MPD2     C 7059   0.268   2.061  16.091  0.6258  0.1295  0.3780
  471MPD2    C1 7060   0.159   2.007  16.151  0.6585  0.3723  0.0590
  471MPD2    C2 7061   0.146   2.008  16.290  0.2568 -1.1285  0.6554
  471MPD2    C3 7062   0.249   2.075  16.369  0.2128  0.1020 -0.1716
  471MPD2    C4 7063   0.352   2.143  16.308  0.1005  0.4251 -0.3812
  471MPD2    C5 7064   0.363   2.133  16.170 -0.2722  0.2366 -0.5405
  471MPD2     H 7065   0.058   1.964  16.335  0.3727  0.7845  2.7490
  471MPD2    H1 7066   0.419   2.200  16.370 -0.4961  0.8683 -0.1527
  471MPD2    H2 7067   0.277   2.062  15.983  1.8688  0.0570  0.4803
  471MPD2    H3 7068   0.451   2.180  16.129 -1.6180  2.4482 -0.9322
  471MPD2     N 7069   0.234   2.081  16.513  0.4391  0.2223 -0.5372
  471MPD2    H5 7070   0.304   2.140  16.558 -0.1247 -1.6646  2.7885
  471MPD2    N1 7071   0.057   1.941  16.079  0.3949  0.1129 -0.1235
  471MPD2    H7 7072   4.720   1.900  16.130  0.6986  0.3444  0.5307
  472TMC3    C1 7073   4.708   1.795  15.917 -0.0706  0.0435 -0.4073
  472TMC3    C2 7074   4.675   1.790  15.788  0.5010  0.0617 -0.2121
  472TMC3    C3 7075   4.631   1.673  15.741 -0.3858 -0.1781  0.7626
  472TMC3    C4 7076   4.697   1.688  16.002 -0.2496 -0.2384  0.0626
  472TMC3    C5 7077   4.646   1.571  15.945 -0.0020  0.2551 -0.5375
  472TMC3    C6 7078   4.617   1.559  15.812 -1.2583  0.6296  0.7662
  472TMC3     C 7079   0.056   1.909  15.946 -0.1987  0.2920 -0.0212
  472TMC3     O 7080   0.125   1.947  15.852 -0.1221  0.3479  0.1856
  472TMC3     H 7081   4.697   1.877  15.727  1.8389  0.1184  0.3475
  472TMC3    H1 7082   4.717   1.702  16.108 -0.8443  0.9857  0.0163
  472TMC3    H2 7083   4.582   1.465  15.773  2.7022 -0.4170 -0.2747
  472TMC3    C7 7084   4.585   1.481  16.045 -0.2146 -0.5078 -0.1388
  472TMC3    C8 7085   4.582   1.675  15.609  0.1018  0.6592 -0.3867
  472TMC3    O1 7086   4.617   1.491  16.162 -0.4224  0.0261 -0.1973
  472TMC3    O2 7087   4.612   1.580  15.538 -0.0264 -0.8566  0.3616
  473MPD2     C 7088   4.665   3.810  13.757 -0.0388  0.1150 -0.0104
  473MPD2    C1 7089   4.607   3.929  13.714  0.4079 -0.6642  0.2515
  473MPD2    C2 7090   4.612   4.039  13.795 -0.0918 -0.2331 -1.1265
  473MPD2    C3 7091   4.642   4.020  13.924 -0.2214 -0.2082  0.1774
  473MPD2    C4 7092   4.690   3.904  13.968  0.0735  0.2583  0.0951
  473MPD2    C5 7093   4.708   3.799  13.885  0.5669 -0.2013  0.1175
  473MPD2     H 7094   4.580   4.135  13.758  1.1958  0.9221  0.7449
  473MPD2    H1 7095   4.711   3.887  14.073  0.4822  0.2743  0.0149
  473MPD2    H2 7096   4.693   3.733  13.685 -0.4693  1.0160 -1.1527
  473MPD2    H3 7097   0.017   3.710  13.924 -0.3694 -1.4551 -1.5569
  473MPD2     N 7098   4.636   4.129  14.022 -0.2185  0.2105 -0.3465
  473MPD2    H5 7099   4.685   4.109  14.109 -0.2797 -0.3094 -0.4264
  473MPD2    N1 7100   4.553   3.945  13.586 -0.0638 -0.4450 -0.0286
  473MPD2    H7 7101   4.538   4.034  13.539 -1.1446  0.2071  1.5335
  474TMC3    C1 7102   4.607   4.349  14.086  0.2550 -0.5213  0.0853
  474TMC3    C2 7103   4.518   4.445  14.102  0.0588 -0.9495  0.8117
  474TMC3    C3 7104   4.551   4.570  14.150  0.0769 -0.3863 -0.5113
  474TMC3    C4 7105   4.737   4.368  14.125  0.0026  0.3819  0.2527
  474TMC3    C5 7106   0.030   4.497  14.167 -0.1653  0.9162 -0.3414
  474TMC3    C6 7107   4.684   4.597  14.179  0.1924  0.1739  0.3229
  474TMC3     C 7108   4.571   4.245  13.997 -0.5039  0.2000  0.3097
  474TMC3     O 7109   4.476   4.267  13.919 -0.0844  0.4918 -0.2381
  474TMC3     H 7110   4.416   4.423  14.076 -0.9085  1.2971  2.6649
  474TMC3    H1 7111   0.067   4.285  14.132 -0.9363 -0.3373  1.2413
  474TMC3    H2 7112   4.713   4.700  14.190 -0.7033  0.9301 -4.1681
  474TMC3    C7 7113   0.162   4.519  14.222  0.0787 -0.2133 -0.3395
  474TMC3    C8 7114   4.456   4.665  14.094  0.5156 -0.0911 -0.1733
  474TMC3    O1 7115   0.254   4.454  14.180 -0.6101 -0.1613 -0.4664
  474TMC3    O2 7116   4.341   4.640  14.110  0.6353  0.4329  0.5631
  475MPD2     C 7117   1.570   2.522  11.096 -0.6729 -0.3990 -0.4881
  475MPD2    C1 7118   1.661   2.538  10.998  0.2145  0.0461 -0.0970
  475MPD2    C2 7119   1.618   2.607  10.885  0.0240  0.0321 -0.8013
  475MPD2    C3 7120   1.493   2.661  10.876 -0.6268  0.1448  0.0100
  475MPD2    C4 7121   1.394   2.631  10.969 -0.5411 -0.6247 -0.0934
  475MPD2    C5 7122   1.435   2.569  11.082 -0.5199  0.4242 -0.5361
  475MPD2     H 7123   1.684   2.628  10.801 -0.8621 -0.0589 -1.5100
  475MPD2    H1 7124   1.293   2.671  10.974 -0.2994  0.0481 -0.5444
  475MPD2    H2 7125   1.599   2.458  11.179  0.9224  1.3504  0.3025
  475MPD2    H3 7126   1.362   2.540  11.156  0.6423  0.0597  0.4671
  475MPD2     N 7127   1.469   2.739  10.761 -0.5209 -0.2060  0.1064
  475MPD2    H5 7128   1.546   2.753  10.696  1.4067  0.0594  2.4272
  475MPD2    N1 7129   1.791   2.486  11.005 -0.1599  0.1262  0.3633
  475MPD2    H7 7130   1.825   2.457  11.096  0.7442  1.6050  0.4950
  476TMC3    C1 7131   2.016   2.457  10.922 -0.1672  0.1829  0.0322
  476TMC3    C2 7132   2.097   2.472  10.814  0.2307  0.2686 -0.6806
  476TMC3    C3 7133   2.216   2.540  10.826 -0.6885  0.0388 -0.4673
  476TMC3    C4 7134   2.058   2.509  11.045 -0.1723 -0.6342  0.1742
  476TMC3    C5 7135   2.179   2.573  11.052 -0.3126  0.0817  0.1114
  476TMC3    C6 7136   2.248   2.604  10.937  0.5368 -0.2802  0.2214
  476TMC3     C 7137   1.874   2.479  10.895  0.0917 -0.3291  0.0693
  476TMC3     O 7138   1.857   2.507  10.778 -0.4841 -0.5071  0.3559
  476TMC3     H 7139   2.063   2.446  10.715 -0.4769 -2.2999  0.2515
  476TMC3    H1 7140   2.001   2.485  11.134 -1.0020  1.2126  0.1438
  476TMC3    H2 7141   2.344   2.654  10.946  1.5396 -2.1963  0.1797
  476TMC3    C7 7142   2.223   2.602  11.189 -0.1473  0.6456  0.1770
  476TMC3    C8 7143   2.305   2.560  10.713 -0.6657  0.4825 -0.1955
  476TMC3    O1 7144   2.185   2.534  11.283  0.5600  0.1228 -0.0161
  476TMC3    O2 7145   2.369   2.665  10.700 -0.5875  0.1634 -0.2568
  477MPD2     C 7146   0.172   4.169  11.632 -0.4015 -0.0600 -0.1354
  477MPD2    C1 7147   0.077   4.100  11.699 -0.5453 -0.0749  0.0330
  477MPD2    C2 7148   0.114   3.989  11.771  0.2346 -0.1043  0.3837
  477MPD2    C3 7149   0.243   3.946  11.776 -0.0416  0.7114 -0.5392
  477MPD2    C4 7150   0.335   4.018  11.713 -0.2582 -1.0246 -0.6135
  477MPD2    C5 7151   0.300   4.133  11.643  0.0799 -0.2749  0.3387
  477MPD2     H 7152   0.041   3.925  11.820  0.7081  0.3016  1.6169
  477MPD2    H1 7153   0.442   4.002  11.721 -0.3025 -1.4351 -0.8143
  477MPD2    H2 7154   0.154   4.262  11.578 -0.7433  0.8608  1.5420
  477MPD2    H3 7155   0.382   4.195  11.610 -0.0024  0.5276  1.6669
  477MPD2     N 7156   0.272   3.829  11.858  0.5044  0.1222 -0.4154
  477MPD2    H5 7157   0.203   3.793  11.923 -1.2412  0.7027 -1.9329
  477MPD2    N1 7158   4.683   4.143  11.709 -0.3224 -0.7162 -0.4588
  477MPD2    H7 7159   4.662   4.220  11.646 -2.1146 -1.1712 -0.3976
  478TMC3    C1 7160   4.458   4.171  11.780  0.2261 -0.8055  0.1883
  478TMC3    C2 7161   4.401   4.252  11.872  0.5136  0.2422  0.3188
  478TMC3    C3 7162   4.305   4.337  11.826  0.2123 -0.4833 -0.3025
  478TMC3    C4 7163   4.410   4.162  11.647 -0.6838 -0.1057 -0.2402
  478TMC3    C5 7164   4.308   4.241  11.611  0.5493  0.2527 -0.2649
  478TMC3    C6 7165   4.263   4.336  11.698  0.6858 -0.6301  0.2179
  478TMC3     C 7166   4.585   4.109  11.799  0.0569  0.4661  0.2963
  478TMC3     O 7167   4.589   4.048  11.907 -0.9291  0.4579  0.5190
  478TMC3     H 7168   4.443   4.259  11.972 -1.9004  0.6259  1.3107
  478TMC3    H1 7169   4.457   4.094  11.577  1.2357  0.8633  0.1001
  478TMC3    H2 7170   4.180   4.399  11.669  1.8439  0.1327 -1.4124
  478TMC3    C7 7171   4.208   4.196  11.516 -0.1069  0.0564  0.7967
  478TMC3    C8 7172   4.242   4.420  11.928  0.4625  0.2073 -0.2364
  478TMC3    O1 7173   4.203   4.078  11.483  0.0914 -0.4458  0.3483
  478TMC3    O2 7174   4.229   4.367  12.038 -0.3972  0.3539  0.2307
  479MPD2     C 7175   4.247   1.411  15.100 -1.1188 -1.0149  0.9983
  479MPD2    C1 7176   4.178   1.331  15.191 -0.7552 -0.6052  0.0435
  479MPD2    C2 7177   4.217   1.347  15.322 -0.1063  0.1319  0.4026
  479MPD2    C3 7178   4.313   1.441  15.356 -0.3991 -0.2018 -0.0803
  479MPD2    C4 7179   4.372   1.521  15.263 -0.0466 -1.2530  0.4064
  479MPD2    C5 7180   4.345   1.498  15.131 -0.1045 -0.6926  0.1238
  479MPD2     H 7181   4.154   1.292  15.392  0.0672  2.3007  2.2786
  479MPD2    H1 7182   4.441   1.599  15.291  0.1823 -0.4281 -2.4576
  479MPD2    H2 7183   4.203   1.412  15.001 -0.7628 -0.0371  0.8482
  479MPD2    H3 7184   4.377   1.574  15.061  0.1849 -0.2708  0.7155
  479MPD2     N 7185   4.356   1.466  15.488 -0.9379  0.3326 -0.1863
  479MPD2    H5 7186   4.449   1.503  15.504 -0.1306 -0.7885 -2.2724
  479MPD2    N1 7187   4.066   1.252  15.143 -0.0581 -0.1714 -0.4497
  479MPD2    H7 7188   4.033   1.264  15.047 -0.0917 -0.3552 -0.4605
  480TMC3    C1 7189   3.947   1.296  15.664  0.3105 -0.4122 -0.1915
  480TMC3    C2 7190   3.872   1.364  15.575 -0.5661  0.4444 -0.1889
  480TMC3    C3 7191   3.932   1.475  15.507  0.9676 -0.4346  0.6977
  480TMC3    C4 7192   4.079   1.315  15.674 -0.1649  0.5181 -0.2491
  480TMC3    C5 7193   4.145   1.419  15.607  0.6791  0.1002  0.3434
  480TMC3    C6 7194   4.064   1.501  15.526  0.1865  0.2354 -0.2956
  480TMC3     C 7195   3.887   1.180  15.732  0.4926  0.0299 -0.1482
  480TMC3     O 7196   3.940   1.144  15.835 -0.6713 -0.0391 -0.1412
  480TMC3     H 7197   3.765   1.352  15.583 -0.5702  0.0043 -0.9900
  480TMC3    H1 7198   4.141   1.255  15.739  0.9150  2.1922  0.2704
  480TMC3    H2 7199   4.117   1.581  15.477  0.4280  0.4293  0.2818
  480TMC3    C7 7200   4.290   1.429  15.608 -0.2628 -0.0710  0.1898
  480TMC3    C8 7201   3.870   1.506  15.377 -0.0020  0.1600  0.3392
  480TMC3    O1 7202   4.353   1.431  15.715 -0.4003  0.2410 -0.0740
  480TMC3    O2 7203   3.772   1.441  15.334 -0.7156 -0.4725 -0.2065
  481MPD2     C 7204   1.065   1.151  13.850  0.3769  0.3984  0.5952
  481MPD2    C1 7205   0.958   1.066  13.881 -0.4949  0.3561  0.5024
  481MPD2    C2 7206   0.949   1.018  14.015 -1.4961 -0.0634  0.5000
  481MPD2    C3 7207   1.047   1.047  14.109  0.2360 -0.5770  0.4704
  481MPD2    C4 7208   1.153   1.124  14.071  0.0815 -0.1024 -0.9515
  481MPD2    C5 7209   1.155   1.180  13.948  0.1305 -0.3339  0.3220
  481MPD2     H 7210   0.858   0.968  14.046 -1.8124 -0.0793 -0.4473
  481MPD2    H1 7211   1.237   1.151  14.134 -1.9528  1.1489  1.2207
  481MPD2    H2 7212   1.067   1.205  13.756  1.3915 -2.6777 -1.1590
  481MPD2    H3 7213   1.227   1.257  13.923 -0.6329  0.6145  1.0131
  481MPD2     N 7214   1.049   1.007  14.247 -0.6575  0.3468 -0.4069
  481MPD2    H5 7215   1.142   1.021  14.285 -0.3908 -3.8560  0.4151
  481MPD2    N1 7216   0.871   1.047  13.771 -0.1963 -0.1577 -0.5853
  481MPD2    H7 7217   0.903   1.088  13.684 -3.3939  1.2596 -1.0992
  482TMC3    C1 7218   0.673   0.987  13.668  0.8380 -0.3155  0.4098
  482TMC3    C2 7219   0.573   0.899  13.667 -0.0674 -0.0796 -0.0568
  482TMC3    C3 7220   0.482   0.904  13.565  0.6781  0.6267  0.6571
  482TMC3    C4 7221   0.685   1.084  13.566  0.4163  0.1391 -0.9205
  482TMC3    C5 7222   0.588   1.091  13.468  0.9773  0.4542 -0.0583
  482TMC3    C6 7223   0.478   1.010  13.469  0.1495 -0.5674  0.1302
  482TMC3     C 7224   0.753   0.989  13.788 -0.4933 -0.5464  0.3905
  482TMC3     O 7225   0.715   0.925  13.885 -0.0496 -0.3282 -0.4671
  482TMC3     H 7226   0.572   0.820  13.741 -3.1153  2.1054  2.2046
  482TMC3    H1 7227   0.759   1.161  13.583 -0.4941  0.6938  0.5875
  482TMC3    H2 7228   0.391   1.016  13.404  1.1819 -0.6216 -1.2439
  482TMC3    C7 7229   0.601   1.209  13.387  0.4904  0.1909  0.0724
  482TMC3    C8 7230   0.394   0.792  13.552 -0.1676 -0.0092  0.1056
  482TMC3    O1 7231   0.653   1.302  13.441 -0.6971  0.0833 -0.2404
  482TMC3    O2 7232   0.450   0.682  13.566  0.4655  0.4139 -0.4591
  483TMC3    C1 7233   3.666   0.213   0.674  0.4968 -0.0361  0.8088
  483TMC3    C2 7234   3.767   0.284   0.728 -0.0228  0.2021 -0.0421
  483TMC3    C3 7235   3.804   0.247   0.849 -0.3867  0.3883  0.6407
  483TMC3    C4 7236   3.615   0.102   0.731  0.2787  0.0268 -0.5205
  483TMC3    C5 7237   3.658   0.062   0.853  0.2237  0.0727 -0.0838
  483TMC3    C6 7238   3.757   0.136   0.909 -0.4944  0.4959 -0.4198
  483TMC3     C 7239   3.653   0.236   0.532 -0.4408 -0.4447 -0.8641
  483TMC3     O 7240   3.691   0.340   0.480 -0.1873 -0.3456 -0.7635
  483TMC3     H 7241   3.816   0.367   0.677  4.3713 -0.5456  2.9926
  483TMC3    H1 7242   3.533   0.048   0.684  0.8343  0.2555 -1.7456
  483TMC3    H2 7243   3.803   0.116   1.005 -0.7181  0.9617 -0.2150
  483TMC3    C7 7244   3.664   4.669   0.891  0.4712 -0.1627  0.0438
  483TMC3    C8 7245   3.938   0.290   0.901  0.2037  0.8381 -0.6648
  483TMC3    O1 7246   3.739   4.646   0.983  0.0509 -0.3179  0.0559
  483TMC3    O2 7247   3.959   0.293   1.024 -0.2426 -0.2079  0.2506
  484MPD2     C 7248   1.175   2.876  12.328  0.3091  0.7194  0.1584
  484MPD2    C1 7249   1.267   2.802  12.394 -0.0302  0.5467  0.4907
  484MPD2    C2 7250   1.400   2.823  12.364  0.4454 -0.7099  0.2504
  484MPD2    C3 7251   1.441   2.923  12.278  0.5652 -0.2081  0.5383
  484MPD2    C4 7252   1.345   3.009  12.223 -0.4007  0.0892 -0.3310
  484MPD2    C5 7253   1.216   2.984  12.253  0.2966  0.5620 -0.6303
  484MPD2     H 7254   1.479   2.763  12.409  1.5170 -1.0167 -2.0413
  484MPD2    H1 7255   1.379   3.081  12.149 -1.4198  0.0520 -0.8355
  484MPD2    H2 7256   1.069   2.854  12.337  0.4247 -0.0579 -0.3445
  484MPD2    H3 7257   1.135   3.044  12.212 -0.4612  0.6171  0.9529
  484MPD2     N 7258   1.576   2.948  12.235 -0.6812 -0.1845 -0.0554
  484MPD2    H5 7259   1.584   3.026  12.170  2.8491 -2.2567 -2.1240
  484MPD2    N1 7260   1.209   2.691  12.462  0.0038  0.1920  0.1989
  484MPD2    H7 7261   1.110   2.676  12.444 -0.2485  2.7684 -0.5594
  485TMC3    C1 7262   1.813   2.936  12.238 -0.1387 -0.5746 -0.1713
  485TMC3    C2 7263   1.924   2.874  12.290  0.3282 -0.3241 -0.6967
  485TMC3    C3 7264   2.047   2.902  12.227  0.6989  0.3388  0.2445
  485TMC3    C4 7265   1.821   3.027  12.130 -0.1317 -0.4290  0.3823
  485TMC3    C5 7266   1.939   3.047  12.065 -1.0103 -0.2846  0.1005
  485TMC3    C6 7267   2.052   2.986  12.114 -0.1102 -0.5919  0.5290
  485TMC3     C 7268   1.683   2.879  12.280  0.0286  0.0185 -0.2032
  485TMC3     O 7269   1.695   2.782  12.352 -0.0319 -0.0263  0.3218
  485TMC3     H 7270   1.904   2.798  12.365 -2.4952 -0.4758 -1.6046
  485TMC3    H1 7271   1.733   3.047  12.069 -0.2246 -2.6290 -0.1915
  485TMC3    H2 7272   2.147   3.008  12.066 -0.1016 -1.3698  0.1887
  485TMC3    C7 7273   1.925   3.041  11.920 -0.2817 -0.3350  0.0172
  485TMC3    C8 7274   2.123   2.776  12.210 -0.3301 -0.2910  0.7012
  485TMC3    O1 7275   1.845   3.103  11.858  0.5987  0.2050  0.0263
  485TMC3    O2 7276   2.171   2.763  12.094  0.1524  1.1140  0.3241
  486MPD2     C 7277   3.377   1.464  12.814  0.2043  0.1621 -0.3588
  486MPD2    C1 7278   3.293   1.397  12.724 -0.3403 -0.0793  0.3922
  486MPD2    C2 7279   3.228   1.466  12.621 -0.3300 -0.1348  0.2248
  486MPD2    C3 7280   3.231   1.603  12.614  0.0119  0.2932 -1.3856
  486MPD2    C4 7281   3.322   1.664  12.708 -0.0151  0.3990 -0.2055
  486MPD2    C5 7282   3.402   1.597  12.795  0.0532 -0.2504  0.4045
  486MPD2     H 7283   3.166   1.408  12.554 -0.7388 -0.0192  0.4987
  486MPD2    H1 7284   3.342   1.770  12.716 -1.4210  0.6708 -0.2387
  486MPD2    H2 7285   3.424   1.406  12.893  3.6219  0.5644 -2.0678
  486MPD2    H3 7286   3.477   1.649  12.854  1.3942 -0.1484 -1.4106
  486MPD2     N 7287   3.156   1.677  12.515 -0.3699 -0.0463  0.3792
  486MPD2    H5 7288   3.105   1.637  12.436  3.1452 -2.2575 -0.7788
  486MPD2    N1 7289   3.273   1.255  12.752 -0.0929  0.1065  0.0487
  486MPD2    H7 7290   3.336   1.206  12.815  1.0923  0.9533 -0.4863
  487TMC3    C1 7291   3.196   1.034  12.710 -0.0822  0.7870  0.3271
  487TMC3    C2 7292   3.084   0.958  12.703  0.1325 -0.5422 -0.7739
  487TMC3    C3 7293   3.081   0.825  12.731  0.1075 -0.1524  0.4354
  487TMC3    C4 7294   3.309   0.976  12.764  0.4047  0.0474 -0.2092
  487TMC3    C5 7295   3.308   0.841  12.785  0.3972 -0.1763 -0.0588
  487TMC3    C6 7296   3.196   0.767  12.764  0.3688  1.0274  0.1391
  487TMC3     C 7297   3.190   1.175  12.675 -0.3789  0.8996  0.0834
  487TMC3     O 7298   3.088   1.211  12.619  0.6435  0.4234 -0.0005
  487TMC3     H 7299   2.990   1.006  12.677 -0.3154 -0.3645  1.1434
  487TMC3    H1 7300   3.407   1.022  12.762  0.6442 -0.4217  0.6072
  487TMC3    H2 7301   3.187   0.667  12.803  2.6520  0.3192 -1.1464
  487TMC3    C7 7302   3.418   0.789  12.867  0.6768  0.0496  0.0543
  487TMC3    C8 7303   2.962   0.765  12.789  0.2458  0.3863 -0.2819
  487TMC3    O1 7304   3.458   0.868  12.945 -0.4124 -0.0944  0.0193
  487TMC3    O2 7305   2.962   0.644  12.810 -0.1845  0.3023 -0.0639
  488MPD2     C 7306   3.883   3.064  16.169  0.4434 -0.5329  0.5589
  488MPD2    C1 7307   3.972   3.132  16.242  0.1697 -0.5159  0.5822
  488MPD2    C2 7308   3.986   3.098  16.373 -0.0900 -0.8161  0.2206
  488MPD2    C3 7309   3.903   3.008  16.431  0.3165  0.7527 -0.2613
  488MPD2    C4 7310   3.799   2.953  16.358 -0.1594  0.2325 -0.3000
  488MPD2    C5 7311   3.788   2.985  16.224 -1.2530 -0.3575 -0.1904
  488MPD2     H 7312   4.057   3.157  16.431 -0.8539 -1.8818  2.2416
  488MPD2    H1 7313   3.736   2.883  16.410  0.2223 -1.9825 -2.8375
  488MPD2    H2 7314   3.868   3.085  16.063 -2.4319 -0.1622  1.0374
  488MPD2    H3 7315   3.712   2.946  16.158 -0.6335 -2.2986  0.2168
  488MPD2     N 7316   3.926   2.980  16.568 -0.1730  0.9415 -0.5875
  488MPD2    H5 7317   4.020   2.996  16.604  0.0280 -2.4063  0.3746
  488MPD2    N1 7318   4.050   3.235  16.194 -0.5145  0.0752 -0.8149
  488MPD2    H7 7319   4.110   3.277  16.264 -1.3252  0.4440 -0.3428
  489TMC3    C1 7320   3.899   2.932  16.795 -0.1937  1.0365  0.2528
  489TMC3    C2 7321   3.988   3.034  16.824  0.6025  0.1754 -0.2507
  489TMC3    C3 7322   4.010   3.064  16.954 -0.3507  0.0770 -0.2804
  489TMC3    C4 7323   3.830   2.873  16.896  0.0543 -0.4178  0.4115
  489TMC3    C5 7324   3.859   2.913  17.024  0.5921  0.3301 -0.2357
  489TMC3    C6 7325   3.962   2.996  17.057  0.1171 -0.0279 -0.3426
  489TMC3     C 7326   3.848   2.912  16.659 -0.1379  0.1444  0.3959
  489TMC3     O 7327   3.734   2.864  16.657  0.5541 -0.1832 -0.5616
  489TMC3     H 7328   4.031   3.093  16.743 -0.3199  0.5315 -0.4811
  489TMC3    H1 7329   3.761   2.795  16.867 -0.7824  0.6803 -0.5922
  489TMC3    H2 7330   3.977   3.022  17.161  2.4715  1.4683 -1.0628
  489TMC3    C7 7331   3.801   2.835  17.131 -0.5442  0.6915 -0.1541
  489TMC3    C8 7332   4.076   3.196  16.978 -0.4857  0.8084 -0.3072
  489TMC3    O1 7333   3.861   2.832  17.238 -0.1433  0.1738 -0.4843
  489TMC3    O2 7334   4.103   3.260  16.875 -0.4855 -0.4552  0.1246
  490MPD2     C 7335   0.023   2.930  17.125 -0.1097 -0.3587  0.1119
  490MPD2    C1 7336   0.032   2.804  17.181 -0.5221 -0.6695  1.3160
  490MPD2    C2 7337   0.096   2.791  17.305 -0.7590  0.7437  0.0028
  490MPD2    C3 7338   0.163   2.892  17.373 -0.7994 -0.6020  1.5034
  490MPD2    C4 7339   0.153   3.014  17.319 -0.9741 -0.1798  0.1817
  490MPD2    C5 7340   0.092   3.023  17.196 -0.2068  0.2616  0.0024
  490MPD2     H 7341   0.103   2.690  17.344 -0.0815  1.0821  0.7733
  490MPD2    H1 7342   0.203   3.101  17.362  1.0397 -1.5335  0.5824
  490MPD2    H2 7343   4.715   2.956  17.032  0.9127 -1.3713 -0.7068
  490MPD2    H3 7344   0.104   3.127  17.168 -2.8862  0.5308 -0.1323
  490MPD2     N 7345   0.242   2.873  17.490  0.4911  0.4094 -0.4846
  490MPD2    H5 7346   0.278   2.948  17.548  1.1588 -0.9754  0.8835
  490MPD2    N1 7347   4.702   2.694  17.130 -0.6675 -0.8064  0.2511
  490MPD2    H7 7348   4.705   2.606  17.180  1.7080 -0.8121  0.0940
  491TMC3    C1 7349   4.554   2.564  17.004  0.1114 -0.1154  0.1667
  491TMC3    C2 7350   4.544   2.472  17.103 -0.0057  0.3905  0.3336
  491TMC3    C3 7351   4.488   2.351  17.081 -0.4164  0.0952 -0.5858
  491TMC3    C4 7352   4.488   2.543  16.884 -0.2978 -0.8083 -0.0679
  491TMC3    C5 7353   4.425   2.424  16.868 -0.4415  0.4892 -0.3802
  491TMC3    C6 7354   4.430   2.329  16.957 -0.2715  1.0041  0.4940
  491TMC3     C 7355   4.614   2.688  17.032 -0.6896  0.8486 -0.0141
  491TMC3     O 7356   4.595   2.786  16.962  0.0274 -0.2759  0.7060
  491TMC3     H 7357   4.568   2.501  17.204 -1.2720 -0.5798  0.9243
  491TMC3    H1 7358   4.483   2.627  16.816 -2.2718 -1.1522 -0.3596
  491TMC3    H2 7359   4.387   2.231  16.940  3.2125 -0.5719  0.9607
  491TMC3    C7 7360   4.302   2.418  16.792 -0.2955 -0.3802  0.3966
  491TMC3    C8 7361   4.441   2.281  17.193 -0.0495  0.2297  0.0047
  491TMC3    O1 7362   4.238   2.313  16.801 -0.0681 -0.2356  0.6552
  491TMC3    O2 7363   4.492   2.306  17.301  0.0048  0.3257 -0.7164
  492MPD2     C 7364   4.553   2.609  11.447 -0.0153 -0.2414 -0.6016
  492MPD2    C1 7365   4.436   2.560  11.391 -0.2914  0.3256 -0.6951
  492MPD2    C2 7366   4.350   2.469  11.460 -0.6492 -0.0401 -0.3522
  492MPD2    C3 7367   4.385   2.435  11.592 -0.6878  0.4429 -0.6562
  492MPD2    C4 7368   4.503   2.491  11.649  0.3368 -0.4976 -0.1704
  492MPD2    C5 7369   4.585   2.574  11.578  0.4991  0.1363 -0.0313
  492MPD2     H 7370   4.266   2.423  11.410 -0.6817 -1.3305  0.9075
  492MPD2    H1 7371   4.527   2.470  11.753 -0.7801  1.6761  0.5304
  492MPD2    H2 7372   4.612   2.684  11.397 -2.2766  0.1793 -2.6405
  492MPD2    H3 7373   4.680   2.612  11.615  0.4471 -0.3484  0.6087
  492MPD2     N 7374   4.307   2.347  11.674  0.0683  0.0721 -0.2456
  492MPD2    H5 7375   4.329   2.357  11.773 -0.0198  0.5255 -0.2704
  492MPD2    N1 7376   4.414   2.613  11.261  0.1623  0.7589  0.3154
  492MPD2    H7 7377   4.484   2.668  11.214  0.5308 -1.7655 -2.0925
  493TMC3    C1 7378   4.303   2.682  11.076  1.3962 -0.3935 -0.2151
  493TMC3    C2 7379   4.374   2.803  11.093 -0.8502 -0.7019  0.2065
  493TMC3    C3 7380   4.349   2.907  11.008 -0.3976 -0.4960 -0.6753
  493TMC3    C4 7381   4.204   2.660  10.984 -0.4534 -0.7675 -0.1308
  493TMC3    C5 7382   4.195   2.764  10.886 -0.2957  0.1276  0.1516
  493TMC3    C6 7383   4.266   2.883  10.901 -0.3724  0.2985 -0.0951
  493TMC3     C 7384   4.311   2.585  11.184 -0.2265 -0.2327 -0.1234
  493TMC3     O 7385   4.229   2.492  11.187  0.6012 -0.8188 -0.7224
  493TMC3     H 7386   4.442   2.818  11.176  1.3468 -0.7732 -1.5463
  493TMC3    H1 7387   4.149   2.567  10.975 -1.3641 -0.2025 -0.4711
  493TMC3    H2 7388   4.264   2.961  10.826 -1.5050 -1.6694 -2.1290
  493TMC3    C7 7389   4.082   2.757  10.798  0.1004 -0.4183  0.0983
  493TMC3    C8 7390   4.427   3.035  11.019 -0.3640  0.3678 -0.3072
  493TMC3    O1 7391   4.035   2.645  10.784 -1.1175 -0.6616  0.4586
  493TMC3    O2 7392   4.452   3.076  10.908  0.4751  0.1460  0.1148
  494TMC3    C1 7393   0.251   4.491   0.222  0.0968  0.3146  0.1709
  494TMC3    C2 7394   0.281   4.376   0.289  0.1148  0.0903 -0.1130
  494TMC3    C3 7395   0.411   4.320   0.281 -0.5049 -0.8267 -1.0719
  494TMC3    C4 7396   0.356   4.558   0.163 -0.4484 -0.0369 -0.6186
  494TMC3    C5 7397   0.485   4.504   0.160 -0.4322  0.3999  0.5317
  494TMC3    C6 7398   0.511   4.381   0.211 -0.2495  0.4372  0.4410
  494TMC3     C 7399   0.201   4.588   0.311  0.2015 -0.2848 -0.4304
  494TMC3     O 7400   0.292   4.665   0.345  0.3220 -0.2187 -0.2531
  494TMC3     H 7401   0.208   4.327   0.353 -0.4013 -1.2875 -1.7707
  494TMC3    H1 7402   0.344   4.648   0.105 -1.0155 -0.0843 -0.5776
  494TMC3    H2 7403   0.615   4.352   0.219  0.1498  2.1209  1.4210
  494TMC3    C7 7404   0.572   4.559   0.054  0.1724  0.3168  0.3956
  494TMC3    C8 7405   0.453   4.228   0.380 -0.3359  0.4842  0.6640
  494TMC3    O1 7406   0.630   4.480  17.739  0.5359 -0.5294 -0.3167
  494TMC3    O2 7407   0.571   4.188   0.384 -0.1516 -0.1431  0.0193
  495TMC3    C1 7408   4.458   1.838  14.669 -0.1855  0.3717  0.0845
  495TMC3    C2 7409   4.382   1.890  14.570 -0.4649 -0.0595  0.2197
  495TMC3    C3 7410   4.260   1.938  14.596  0.3705 -0.1380  0.0562
  495TMC3    C4 7411   4.424   1.851  14.799 -0.3257 -0.1728  0.3979
  495TMC3    C5 7412   4.307   1.907  14.831  0.0043 -0.2226  0.6205
  495TMC3    C6 7413   4.220   1.951  14.728  0.2958 -0.0126  0.2494
  495TMC3     C 7414   4.482   1.705  14.636  0.1365 -0.8440  0.5653
  495TMC3     O 7415   4.431   1.616  14.701  0.2825  0.5831  0.2080
  495TMC3     H 7416   4.418   1.875  14.469 -2.6503  1.2707 -0.7479
  495TMC3    H1 7417   4.480   1.794  14.873 -1.5387 -1.3594  0.3958
  495TMC3    H2 7418   4.131   2.009  14.753  0.2238  1.1684 -2.7937
  495TMC3    C7 7419   4.236   1.830  14.931  0.0150 -0.7579 -0.3074
  495TMC3    C8 7420   4.147   1.899  14.518 -0.2198 -0.3856 -0.3049
  495TMC3    O1 7421   4.280   1.796  15.037  0.5699 -0.4598  0.1036
  495TMC3    O2 7422   4.043   1.885  14.579 -0.0687  0.2256 -0.3872
  496MPD2     C 7423   1.200   1.776  15.396 -0.1641 -0.4481 -0.2243
  496MPD2    C1 7424   1.291   1.763  15.497  0.7439  0.1955  0.1684
  496MPD2    C2 7425   1.288   1.655  15.580  0.6748 -0.4972  0.5126
  496MPD2    C3 7426   1.189   1.557  15.567  0.7342 -0.0093  0.5150
  496MPD2    C4 7427   1.099   1.572  15.467 -0.5207  0.0005  0.9325
  496MPD2    C5 7428   1.110   1.680  15.376  0.7889 -0.3070 -0.1680
  496MPD2     H 7429   1.371   1.656  15.649  0.7748 -0.4617  0.3922
  496MPD2    H1 7430   1.025   1.496  15.444 -3.0233  2.2855  1.4614
  496MPD2    H2 7431   1.206   1.857  15.324  0.2802  0.6131  1.0064
  496MPD2    H3 7432   1.048   1.686  15.287  1.4021  1.4304 -0.4895
  496MPD2     N 7433   1.198   1.439  15.632 -0.4703  0.7815 -0.1402
  496MPD2    H5 7434   1.115   1.382  15.617  0.1596  0.3267 -1.8243
  496MPD2    N1 7435   1.397   1.856  15.493  1.0275 -0.2693 -0.2451
  496MPD2    H7 7436   1.388   1.915  15.411 -0.4898 -1.8400 -1.1950
  497TMC3    C1 7437   1.286   1.255  15.761  0.1870 -0.8027 -0.0401
  497TMC3    C2 7438   1.286   1.169  15.650  0.4169 -0.0484 -0.2704
  497TMC3    C3 7439   1.339   1.043  15.663  0.4956 -0.0130 -0.1584
  497TMC3    C4 7440   1.335   1.212  15.880 -0.7494  0.0337 -0.1656
  497TMC3    C5 7441   1.397   1.088  15.885  0.0454  0.0835  0.1265
  497TMC3    C6 7442   1.388   1.000  15.781 -1.1627 -0.1399 -0.3721
  497TMC3     C 7443   1.282   1.396  15.735 -0.1186 -0.3352 -0.0866
  497TMC3     O 7444   1.364   1.460  15.797 -0.3296 -0.1664 -0.5836
  497TMC3     H 7445   1.263   1.203  15.550  0.2137  0.2040 -0.1381
  497TMC3    H1 7446   1.345   1.282  15.963  1.1848  1.2190 -1.3959
  497TMC3    H2 7447   1.417   0.897  15.795  0.0129  0.4311  1.3288
  497TMC3    C7 7448   1.439   1.051  16.018  0.3453 -0.6962 -0.8508
  497TMC3    C8 7449   1.341   0.957  15.549 -0.4363  0.5656 -0.2517
  497TMC3    O1 7450   1.388   1.118  16.106  0.1742  0.4542  0.5834
  497TMC3    O2 7451   1.250   0.973  15.471 -0.3676  0.1068 -0.0197
  498MPD2     C 7452   1.986   1.983   9.731  0.1413 -0.4863 -0.2933
  498MPD2    C1 7453   1.951   2.113   9.761 -0.0738 -0.4317 -0.4018
  498MPD2    C2 7454   1.817   2.139   9.773  0.2452  0.1362 -0.3555
  498MPD2    C3 7455   1.721   2.040   9.751 -0.4419 -0.3496 -0.4289
  498MPD2    C4 7456   1.763   1.908   9.711 -0.3231 -0.3249  0.1944
  498MPD2    C5 7457   1.895   1.883   9.707  0.6996  0.6514  0.5672
  498MPD2     H 7458   1.781   2.238   9.801  0.9917  0.3141 -0.0328
  498MPD2    H1 7459   1.699   1.824   9.686 -0.0117 -0.4056 -0.3118
  498MPD2    H2 7460   2.090   1.963   9.706 -0.1834  0.2766 -2.2609
  498MPD2    H3 7461   1.928   1.790   9.663  0.0797  0.9448 -0.5193
  498MPD2     N 7462   1.588   2.078   9.784 -0.4856  0.0974 -0.1610
  498MPD2    H5 7463   1.574   2.171   9.822 -1.9508 -0.0193 -0.4047
  498MPD2    N1 7464   2.044   2.221   9.775 -0.2416 -0.2255 -0.7238
  498MPD2    H7 7465   2.012   2.316   9.785 -1.6626 -0.7861  0.1110
  499TMC3    C1 7466   2.241   2.339   9.799 -0.2759  0.2617 -0.4463
  499TMC3    C2 7467   2.380   2.343   9.788  0.4071  0.3718  0.1981
  499TMC3    C3 7468   2.441   2.464   9.824  0.8516 -0.7550 -0.6305
  499TMC3    C4 7469   2.167   2.451   9.810 -0.4637  0.7808  0.2286
  499TMC3    C5 7470   2.231   2.568   9.827  0.3399  0.0459  0.9664
  499TMC3    C6 7471   2.376   2.581   9.828  0.2700 -0.0196 -0.3601
  499TMC3     C 7472   2.180   2.209   9.767  0.3972 -0.3089 -0.3037
  499TMC3     O 7473   2.255   2.111   9.761  0.4264 -0.3756 -0.1268
  499TMC3     H 7474   2.442   2.257   9.766 -0.6508  0.4722 -3.1253
  499TMC3    H1 7475   2.063   2.458   9.839 -0.5878 -1.3700  0.2766
  499TMC3    H2 7476   2.419   2.677   9.853  1.0006 -0.3786 -0.2140
  499TMC3    C7 7477   2.168   2.701   9.801 -0.3557 -0.1164 -0.3382
  499TMC3    C8 7478   2.583   2.458   9.852  0.2031  0.0338 -0.8223
  499TMC3    O1 7479   2.238   2.803   9.799  0.6646 -0.2514 -0.0259
  499TMC3    O2 7480   2.635   2.565   9.841  0.1812 -0.4725 -0.1122
  500MPD2     C 7481   3.378   3.915  10.586 -0.2862  0.0582 -0.5510
  500MPD2    C1 7482   3.418   3.836  10.475 -0.4510  0.5251  0.3867
  500MPD2    C2 7483   3.333   3.740  10.427  0.4910  1.4134 -0.2040
  500MPD2    C3 7484   3.215   3.705  10.492 -0.0248 -0.6011 -0.8585
  500MPD2    C4 7485   3.177   3.782  10.603  0.0618  0.4444 -0.4408
  500MPD2    C5 7486   3.259   3.889  10.646  0.0369  0.1824 -0.6118
  500MPD2     H 7487   3.365   3.691  10.336 -0.2498  0.8426 -0.1578
  500MPD2    H1 7488   3.083   3.764  10.652  0.7089 -0.6097  0.4075
  500MPD2    H2 7489   3.442   3.981  10.644 -1.1903 -0.3773  0.9716
  500MPD2    H3 7490   3.226   3.950  10.729  0.5651  0.1968 -0.4187
  500MPD2     N 7491   3.119   3.611  10.444  0.3449 -0.3949 -0.0463
  500MPD2    H5 7492   3.047   3.586  10.510 -0.2834 -1.6415 -1.2087
  500MPD2    N1 7493   3.548   3.847  10.417  0.1679  0.8221 -0.0586
  500MPD2    H7 7494   3.569   3.791  10.335 -0.9267 -2.1921  1.7237
  501TMC3    C1 7495   3.754   3.934  10.372  1.2342 -0.4977  0.6782
  501TMC3    C2 7496   3.801   4.039  10.306  0.3794  0.0965 -0.4499
  501TMC3    C3 7497   3.932   4.049  10.288 -0.0720 -0.0863  0.6619
  501TMC3    C4 7498   3.829   3.834  10.432  0.3583 -0.3108  0.0786
  501TMC3    C5 7499   3.967   3.854  10.429 -0.3182 -0.1683 -0.3042
  501TMC3    C6 7500   4.013   3.957  10.353 -0.2805 -0.1136  0.6129
  501TMC3     C 7501   3.632   3.949  10.440 -0.2192 -0.0819 -0.0262
  501TMC3     O 7502   3.630   4.046  10.512  0.0620  0.6613 -0.3863
  501TMC3     H 7503   3.734   4.120  10.281  1.4422  0.5428 -1.8244
  501TMC3    H1 7504   3.789   3.760  10.501  0.5721 -0.7705 -0.2908
  501TMC3    H2 7505   4.120   3.969  10.340 -0.2804  1.0919  1.7524
  501TMC3    C7 7506   4.031   3.821  10.557  0.5958 -0.3913  0.6845
  501TMC3    C8 7507   3.971   4.185  10.313  0.4929 -0.5570 -0.1357
  501TMC3    O1 7508   3.988   3.723  10.621 -0.0169 -0.0169 -0.0901
  501TMC3    O2 7509   4.062   4.194  10.394  0.2493 -0.7637 -0.4324
  502TMC3    C1 7510   3.463   2.173  14.736  0.2746 -0.3119 -0.5679
  502TMC3    C2 7511   3.484   2.308  14.728 -0.3582  0.0402  0.4009
  502TMC3    C3 7512   3.372   2.385  14.739 -0.0149 -0.1798 -0.4588
  502TMC3    C4 7513   3.336   2.116  14.754  0.6083  0.3852  0.2881
  502TMC3    C5 7514   3.230   2.204  14.765  0.5651 -0.6845  0.5590
  502TMC3    C6 7515   3.241   2.339  14.746 -0.4870  0.4852 -1.1003
  502TMC3     C 7516   3.552   2.150  14.854  0.0862  0.3048  0.6522
  502TMC3     O 7517   3.672   2.163  14.844  0.1224 -0.0092 -0.3068
  502TMC3     H 7518   3.577   2.353  14.761  0.1284 -0.1550 -0.6886
  502TMC3    H1 7519   3.321   2.009  14.758 -1.0426  0.6904  1.8632
  502TMC3    H2 7520   3.166   2.415  14.765 -0.5030 -0.8006  3.9981
  502TMC3    C7 7521   3.148   2.165  14.876  0.3218 -0.1865  0.2933
  502TMC3    C8 7522   3.386   2.502  14.825 -0.4760  0.3822  0.0282
  502TMC3    O1 7523   3.202   2.087  14.952  0.3610  0.0604 -0.0332
  502TMC3    O2 7524   3.355   2.610  14.781  0.3151 -0.0644 -0.3297
  503MPD2     C 7525   0.703   3.331  16.901  0.3113 -0.2255  0.3340
  503MPD2    C1 7526   0.827   3.377  16.944  0.5098 -0.6985  0.0689
  503MPD2    C2 7527   0.904   3.293  17.018 -1.0201 -0.3076 -0.1368
  503MPD2    C3 7528   0.870   3.164  17.047 -0.0305  0.2908  0.0358
  503MPD2    C4 7529   0.750   3.111  17.001  0.1475 -0.2341  0.2820
  503MPD2    C5 7530   0.671   3.197  16.926  0.1404 -0.0385  0.2876
  503MPD2     H 7531   1.000   3.333  17.051 -0.7235 -0.8055 -0.3954
  503MPD2    H1 7532   0.734   3.005  17.017  0.6208 -0.3279  0.1460
  503MPD2    H2 7533   0.626   3.400  16.868  2.1213  1.5278 -0.2330
  503MPD2    H3 7534   0.586   3.153  16.875 -0.8589 -0.9575  2.7863
  503MPD2     N 7535   0.958   3.094  17.125  0.2319 -0.1920 -0.4710
  503MPD2    H5 7536   1.050   3.134  17.140  1.2112 -1.8319 -2.1175
  503MPD2    N1 7537   0.870   3.511  16.923  0.5780 -0.8697  0.7728
  503MPD2    H7 7538   0.953   3.532  16.977  0.5821  1.8595 -0.3088
  504TMC3    C1 7539   1.061   2.930  17.247 -0.2423  1.0856  0.9648
  504TMC3    C2 7540   1.044   2.865  17.364 -0.2092  0.3113 -0.4052
  504TMC3    C3 7541   1.149   2.814  17.429  0.5882 -0.2332  0.1874
  504TMC3    C4 7542   1.187   2.964  17.201 -0.6820 -0.2108  0.2407
  504TMC3    C5 7543   1.294   2.913  17.268 -0.4618  0.6334 -0.0551
  504TMC3    C6 7544   1.273   2.828  17.381 -0.2908 -0.4381 -0.2656
  504TMC3     C 7545   0.943   2.969  17.182  0.3803 -0.5469  0.1571
  504TMC3     O 7546   0.842   2.905  17.192 -0.1586 -0.3262 -0.2245
  504TMC3     H 7547   0.941   2.857  17.398  0.2213  0.3442  0.8771
  504TMC3    H1 7548   1.208   3.020  17.110  2.9753  0.0934  1.2871
  504TMC3    H2 7549   1.354   2.778  17.433 -1.1125  0.7951  2.1538
  504TMC3    C7 7550   1.428   2.952  17.210 -0.4621 -0.0060  1.3916
  504TMC3    C8 7551   1.128   2.789  17.565  0.2895  0.8524 -0.1187
  504TMC3    O1 7552   1.437   2.998  17.096 -0.0765 -0.0625  0.0529
  504TMC3    O2 7553   1.015   2.751  17.596  0.5014  0.0396 -0.5559
  505MPD2     C 7554   0.436   2.080  10.675  0.8376 -1.1191 -0.2340
  505MPD2    C1 7555   0.543   2.008  10.724 -0.0867 -0.5109  0.3521
  505MPD2    C2 7556   0.652   2.081  10.764  0.2859 -0.1487  0.6236
  505MPD2    C3 7557   0.658   2.218  10.752 -0.2235 -0.2560 -0.5938
  505MPD2    C4 7558   0.544   2.285  10.710 -0.0182  0.2515 -0.2060
  505MPD2    C5 7559   0.436   2.214  10.662 -0.3568 -0.2573 -0.3739
  505MPD2     H 7560   0.745   2.035  10.794 -0.7092 -1.6315  1.4284
  505MPD2    H1 7561   0.542   2.392  10.696 -1.5965  0.2492  0.0045
  505MPD2    H2 7562   0.350   2.027  10.637 -1.4217 -0.3591  3.8586
  505MPD2    H3 7563   0.345   2.267  10.636  0.0145  0.0182 -1.1167
  505MPD2     N 7564   0.769   2.287  10.788 -0.1384 -0.4228 -0.4296
  505MPD2    H5 7565   0.843   2.231  10.829 -2.1329 -1.7455  1.3932
  505MPD2    N1 7566   0.534   1.866  10.720 -0.6978  0.0481 -0.1781
  505MPD2    H7 7567   0.450   1.827  10.679 -1.3846  0.5338  0.7631
  506TMC3    C1 7568   0.616   1.644  10.738 -0.4936 -0.5063 -0.1619
  506TMC3    C2 7569   0.582   1.638  10.604  0.8220  0.2415  0.8980
  506TMC3    C3 7570   0.667   1.579  10.514  0.8704  0.1950  0.1298
  506TMC3    C4 7571   0.735   1.592  10.780 -0.2060  1.0286 -0.2483
  506TMC3    C5 7572   0.819   1.530  10.683 -0.4962 -0.1319  0.2979
  506TMC3    C6 7573   0.790   1.547  10.550  0.0492  0.2600  0.1311
  506TMC3     C 7574   0.621   1.778  10.776  0.7989  0.0275  0.5002
  506TMC3     O 7575   0.717   1.816  10.842  0.0343  0.1023 -0.3164
  506TMC3     H 7576   0.484   1.675  10.575  0.5856 -1.0417  0.0885
  506TMC3    H1 7577   0.756   1.591  10.887 -0.5154  1.2138 -0.1854
  506TMC3    H2 7578   0.852   1.496  10.477 -1.5480 -2.5386  0.7108
  506TMC3    C7 7579   0.959   1.550  10.720 -0.3070 -0.6649  0.5127
  506TMC3    C8 7580   0.645   1.603  10.371  0.0171  0.2611 -0.4507
  506TMC3    O1 7581   1.035   1.466  10.680  0.1639  0.0331 -0.4528
  506TMC3    O2 7582   0.531   1.608  10.328  0.2396  0.6671 -0.1915
  507TMC3    C1 7583   2.198   2.566  14.111 -0.2332  0.1408  0.3195
  507TMC3    C2 7584   2.224   2.567  13.975 -0.3136  0.2313 -0.4373
  507TMC3    C3 7585   2.314   2.661  13.928  0.3503 -0.0864  0.4724
  507TMC3    C4 7586   2.274   2.643  14.197 -0.6538  0.4612  0.8412
  507TMC3    C5 7587   2.367   2.733  14.148 -0.4981  0.8136  0.0093
  507TMC3    C6 7588   2.391   2.738  14.017 -0.0653  0.3164 -0.7007
  507TMC3     C 7589   2.073   2.514  14.167 -0.1152  0.4281 -0.1767
  507TMC3     O 7590   2.064   2.505  14.288  0.2636  0.9358 -0.6119
  507TMC3     H 7591   2.158   2.507  13.915  0.3620 -1.5046  0.5455
  507TMC3    H1 7592   2.252   2.631  14.302  0.4013 -1.1534  0.8827
  507TMC3    H2 7593   2.463   2.810  13.980 -1.6354  1.7039 -1.0142
  507TMC3    C7 7594   2.352   2.870  14.185  0.5625 -0.0224  0.2813
  507TMC3    C8 7595   2.260   2.741  13.824  0.4903  0.0812 -0.5048
  507TMC3    O1 7596   2.350   2.957  14.096 -0.4431 -0.1802  0.6612
  507TMC3    O2 7597   2.231   2.676  13.724  0.3685  0.2645  0.2024
  508MPD2     C 7598   3.074   4.583  15.645 -0.0512 -0.8026 -0.1333
  508MPD2    C1 7599   3.067   4.676  15.744 -0.4763 -0.5380 -0.5497
  508MPD2    C2 7600   3.019   0.063  15.715  0.1149  0.0682  0.5933
  508MPD2    C3 7601   2.984   0.098  15.589  0.5566 -0.2668 -0.2045
  508MPD2    C4 7602   2.988   0.005  15.491 -0.3791  0.3573 -0.0601
  508MPD2    C5 7603   3.030   4.618  15.523 -0.1451 -0.1597  0.1401
  508MPD2     H 7604   3.025   0.140  15.791 -0.6587  0.9220 -0.2259
  508MPD2    H1 7605   2.960   0.019  15.387  0.2024 -2.8349 -0.6331
  508MPD2    H2 7606   3.112   4.481  15.656 -0.9485 -1.1388 -0.1596
  508MPD2    H3 7607   3.027   4.550  15.439 -1.5077  0.0407  0.0255
  508MPD2     N 7608   2.957   0.235  15.565  0.0818  0.0146 -1.2285
  508MPD2    H5 7609   2.978   0.299  15.641 -0.5731 -0.6997 -0.4467
  508MPD2    N1 7610   3.100   4.635  15.880  0.0697 -0.3933 -0.2368
  508MPD2    H7 7611   3.154   4.548  15.884 -3.4089 -2.6920 -3.2550
  509TMC3    C1 7612   2.766   0.589  15.310 -0.5614 -0.7305 -0.7749
  509TMC3    C2 7613   2.872   0.672  15.333  0.0457  0.2980 -0.2106
  509TMC3    C3 7614   2.974   0.620  15.409  0.0842 -0.3259  0.4360
  509TMC3    C4 7615   2.756   0.467  15.375  0.3381 -0.4816  0.1483
  509TMC3    C5 7616   2.848   0.423  15.463 -0.5845 -0.3013  0.0391
  509TMC3    C6 7617   2.968   0.496  15.477  0.0945 -0.0762  0.1264
  509TMC3     C 7618   2.645   0.644  15.251 -0.1923  0.5692  0.1867
  509TMC3     O 7619   2.565   0.564  15.208  0.5209 -0.0356  0.3851
  509TMC3     H 7620   2.890   0.763  15.277  1.9903  0.1115  0.1123
  509TMC3    H1 7621   2.666   0.408  15.362  0.9272 -1.2408 -0.4409
  509TMC3    H2 7622   3.047   0.478  15.550  2.7913  3.2820 -1.9712
  509TMC3    C7 7623   2.878   0.277  15.460  0.3378 -0.4296 -0.2966
  509TMC3    C8 7624   3.106   0.688  15.395 -0.4946  1.0378 -1.0100
  509TMC3    O1 7625   2.833   0.218  15.365 -0.0950  0.6351 -0.5836
  509TMC3    O2 7626   3.199   0.611  15.415 -0.1691  0.1175 -0.6853
  510MPD2     C 7627   0.787   2.086  14.401 -0.2054  0.6022 -0.7184
  510MPD2    C1 7628   0.848   2.006  14.494  0.3433 -0.0635  0.4806
  510MPD2    C2 7629   0.986   1.990  14.482  0.7294  0.4790  0.0124
  510MPD2    C3 7630   1.063   2.044  14.384  0.2939  0.3123  0.4383
  510MPD2    C4 7631   0.996   2.121  14.288 -0.5739  0.1876 -0.2360
  510MPD2    C5 7632   0.859   2.145  14.295 -0.1166  0.1251  0.1607
  510MPD2     H 7633   1.034   1.927  14.557  0.2801 -0.2039 -0.2676
  510MPD2    H1 7634   1.035   2.170  14.200  0.2640 -0.5609 -0.2873
  510MPD2    H2 7635   0.680   2.105  14.412 -0.2897  0.6276 -1.5893
  510MPD2    H3 7636   0.805   2.187  14.212  1.1839 -0.6120 -1.0479
  510MPD2     N 7637   1.203   2.029  14.380  0.4020 -0.6825  0.0429
  510MPD2    H5 7638   1.242   1.961  14.445  0.9589  2.4622  3.0094
  510MPD2    N1 7639   0.775   1.933  14.594  0.0567 -0.0711  0.4438
  510MPD2    H7 7640   0.822   1.868  14.657  1.0986  0.6932  0.4612
  511TMC3    C1 7641   0.594   1.881  14.746  1.0098 -0.2936  0.2664
  511TMC3    C2 7642   0.501   1.935  14.827 -0.0195 -0.7836  0.1627
  511TMC3    C3 7643   0.437   1.846  14.905 -0.0145  0.5803 -0.3552
  511TMC3    C4 7644   0.626   1.748  14.744 -0.1214  0.4723  0.4414
  511TMC3    C5 7645   0.552   1.659  14.815  0.1256 -0.2064 -0.7956
  511TMC3    C6 7646   0.449   1.710  14.892 -0.0837  0.5382 -0.0725
  511TMC3     C 7647   0.647   1.964  14.640  0.1067 -1.0855  0.0816
  511TMC3     O 7648   0.581   2.058  14.609 -0.1514  0.0582  0.1428
  511TMC3     H 7649   0.469   2.038  14.831 -0.3555 -0.8850  0.0385
  511TMC3    H1 7650   0.700   1.721  14.669 -2.1163  1.3852 -1.8528
  511TMC3    H2 7651   0.377   1.646  14.942 -0.4377  0.7674 -0.2919
  511TMC3    C7 7652   0.529   1.529  14.751  0.0473  0.4453 -0.0883
  511TMC3    C8 7653   0.332   1.905  14.990  0.1642 -0.4591 -0.8557
  511TMC3    O1 7654   0.596   1.509  14.647 -0.3647 -0.1560 -0.3200
  511TMC3    O2 7655   0.291   2.019  14.966  0.3454  0.5138  0.0891
  512TMC3    C1 7656   4.068   1.510  13.382  0.1303 -0.4301  0.0650
  512TMC3    C2 7657   4.204   1.510  13.377 -1.1053  0.0930 -0.0824
  512TMC3    C3 7658   4.271   1.409  13.310 -0.7164 -0.1069  0.6531
  512TMC3    C4 7659   3.996   1.414  13.316  0.0772  0.0798 -0.6551
  512TMC3    C5 7660   4.066   1.312  13.251  0.1409 -0.2004  0.7158
  512TMC3    C6 7661   4.203   1.306  13.245  0.9251  0.3343 -0.5559
  512TMC3     C 7662   4.003   1.621  13.453  0.5170 -0.5023  0.3859
  512TMC3     O 7663   4.067   1.679  13.537 -0.1143 -0.0023 -0.1626
  512TMC3     H 7664   4.262   1.578  13.439 -2.3986 -0.6582  1.9622
  512TMC3    H1 7665   3.888   1.409  13.326  0.4294 -2.4740  1.8881
  512TMC3    H2 7666   4.257   1.233  13.187  0.7679 -0.4132  0.2377
  512TMC3    C7 7667   3.983   1.224  13.174  0.4734  0.3274  1.1112
  512TMC3    C8 7668   4.419   1.391  13.332 -0.4598  0.0524  0.6635
  512TMC3    O1 7669   3.875   1.275  13.139 -0.3333 -0.6709  0.1006
  512TMC3    O2 7670   4.454   1.274  13.325  0.0514  0.3864 -0.1036
  513MPD2     C 7671   1.059   1.804  13.041 -0.1306  0.1697 -0.4064
  513MPD2    C1 7672   1.063   1.670  13.019 -0.5901  0.1228  0.0862
  513MPD2    C2 7673   1.080   1.593  13.139 -1.0853  0.5160  0.3294
  513MPD2    C3 7674   1.109   1.640  13.266 -0.0065  0.6581  0.1669
  513MPD2    C4 7675   1.109   1.778  13.278  0.2037  0.3530  0.6303
  513MPD2    C5 7676   1.079   1.858  13.164  0.3105 -0.3587 -0.2274
  513MPD2     H 7677   1.067   1.487  13.125 -1.6597  0.2044  3.2986
  513MPD2    H1 7678   1.126   1.837  13.368  1.1067  4.2247 -2.0954
  513MPD2    H2 7679   1.028   1.872  12.962  0.3772 -0.2541 -0.9742
  513MPD2    H3 7680   1.074   1.965  13.176  2.4755 -0.2515 -0.2704
  513MPD2     N 7681   1.143   1.547  13.363  0.2154 -0.8152 -0.4649
  513MPD2    H5 7682   1.146   1.451  13.329  0.6663  0.5049 -4.2409
  513MPD2    N1 7683   1.058   1.601  12.898 -0.1920  0.4700 -0.2535
  513MPD2    H7 7684   1.057   1.500  12.907  1.6015  0.7145  2.6286
  514TMC3    C1 7685   1.052   1.564  12.659  0.7528  0.5137 -0.4189
  514TMC3    C2 7686   1.153   1.592  12.573 -0.3224  0.3357  0.0469
  514TMC3    C3 7687   1.219   1.477  12.540 -0.2797 -0.1172 -0.7252
  514TMC3    C4 7688   1.009   1.439  12.692  0.3674  0.0561  0.2974
  514TMC3    C5 7689   1.086   1.332  12.677 -0.4999 -0.2761  0.1231
  514TMC3    C6 7690   1.195   1.355  12.603 -0.3192 -0.0966  0.2852
  514TMC3     C 7691   1.051   1.658  12.772 -0.3052 -0.2372 -0.3697
  514TMC3     O 7692   1.049   1.775  12.746 -0.4549 -0.1560  0.4776
  514TMC3     H 7693   1.184   1.686  12.529  0.1942 -0.6207 -1.6376
  514TMC3    H1 7694   0.920   1.436  12.755 -1.1362 -3.2775 -2.0243
  514TMC3    H2 7695   1.266   1.276  12.582 -0.3722 -0.4384  1.3734
  514TMC3    C7 7696   1.098   1.263  12.807  0.5095 -0.1506  0.1277
  514TMC3    C8 7697   1.360   1.491  12.510 -0.3252  0.4594 -0.0834
  514TMC3    O1 7698   1.041   1.309  12.905 -0.0140  0.6909  0.8096
  514TMC3    O2 7699   1.431   1.439  12.599 -0.4379  0.0748 -0.0066
  515MPD2     C 7700   4.308   3.551  14.859 -0.0622 -0.4842  0.7654
  515MPD2    C1 7701   4.347   3.425  14.810  0.0814  0.3315  0.1263
  515MPD2    C2 7702   4.477   3.379  14.839 -0.1983  0.2694  0.2331
  515MPD2    C3 7703   4.559   3.471  14.896  0.0236  0.2305  0.3295
  515MPD2    C4 7704   4.522   3.592  14.943 -0.2911  0.5436  0.7319
  515MPD2    C5 7705   4.397   3.631  14.926  0.6229 -0.3144  0.6648
  515MPD2     H 7706   4.506   3.277  14.818 -0.1533  0.4757 -0.7249
  515MPD2    H1 7707   4.591   3.666  14.982 -1.1793  0.6810  2.0290
  515MPD2    H2 7708   4.207   3.590  14.850  0.9535  1.5028 -1.7939
  515MPD2    H3 7709   4.360   3.728  14.959 -0.0913 -0.3482 -0.0515
  515MPD2     N 7710   4.685   3.433  14.924 -0.4501 -0.0253 -0.4535
  515MPD2    H5 7711   4.710   3.346  14.878  1.1840  0.6057 -0.7650
  515MPD2    N1 7712   4.260   3.322  14.750  0.7276 -1.0408  0.8589
  515MPD2    H7 7713   4.307   3.240  14.713 -0.7590 -2.1350  1.3983
  516TMC3    C1 7714   4.057   3.242  14.641  0.2983 -0.0802 -0.0232
  516TMC3    C2 7715   3.972   3.288  14.545  0.3029  0.4310  0.4355
  516TMC3    C3 7716   3.884   3.204  14.481  0.0792 -0.7660 -0.1555
  516TMC3    C4 7717   4.076   3.106  14.673 -0.2981  0.1837 -0.1604
  516TMC3    C5 7718   3.986   3.025  14.609  0.6463  0.2417 -0.5633
  516TMC3    C6 7719   3.889   3.070  14.519 -0.1858  0.2968 -0.2359
  516TMC3     C 7720   4.131   3.347  14.712 -0.5786  0.8921  0.3311
  516TMC3     O 7721   4.078   3.454  14.705 -0.0705  0.0861  0.2532
  516TMC3     H 7722   3.988   3.391  14.514  2.1091  0.4512  1.4058
  516TMC3    H1 7723   4.138   3.067  14.753  3.1134  2.6144 -1.5961
  516TMC3    H2 7724   3.832   3.004  14.454 -0.3893 -0.3299  0.5720
  516TMC3    C7 7725   3.983   2.885  14.657  0.3308  0.5708 -0.2845
  516TMC3    C8 7726   3.773   3.252  14.399 -0.0514  0.2116  0.1345
  516TMC3    O1 7727   4.062   2.862  14.750  0.2430 -0.1841  0.4256
  516TMC3    O2 7728   3.693   3.167  14.365 -0.2925  0.4691  0.1225
  517MPD2     C 7729   4.197   4.715  17.599 -0.2324  0.0654 -0.1998
  517MPD2    C1 7730   4.308   4.631  17.614 -0.3855 -0.2532  0.5460
  517MPD2    C2 7731   4.397   4.647  17.716 -0.0802 -0.6101  0.8986
  517MPD2    C3 7732   4.365   0.003   0.050 -0.4214  0.3268  0.6686
  517MPD2    C4 7733   4.247   0.068   0.046 -0.4411  0.0480 -0.6292
  517MPD2    C5 7734   4.162   0.057  17.705 -0.3989 -0.4047  0.1646
  517MPD2     H 7735   4.485   4.584  17.718 -0.5450 -1.2664  0.7881
  517MPD2    H1 7736   4.222   0.142   0.121  0.2017 -0.6503  0.2637
  517MPD2    H2 7737   4.122   4.714  17.520 -0.5848 -1.1407  0.1476
  517MPD2    H3 7738   4.079   0.126  17.694 -0.8036 -0.8637  0.3219
  517MPD2     N 7739   4.445   0.047   0.157  1.1929 -0.1416  0.4333
  517MPD2    H5 7740   4.404   0.123   0.210 -0.4976 -0.5494 -0.2879
  517MPD2    N1 7741   4.331   4.535  17.513  0.0484  0.2768 -0.2627
  517MPD2    H7 7742   4.408   4.469  17.523 -0.6636 -0.8375 -2.3323
  518TMC3    C1 7743   4.307   4.414  17.311  0.8831  0.3606 -0.5006
  518TMC3    C2 7744   4.358   4.294  17.355  0.4176  0.2742 -0.0646
  518TMC3    C3 7745   4.384   4.198  17.257 -0.8187  0.1868 -0.0627
  518TMC3    C4 7746   4.280   4.439  17.179 -0.3198  0.1687 -0.6623
  518TMC3    C5 7747   4.317   4.342  17.085  0.1023 -0.8792 -0.4379
  518TMC3    C6 7748   4.371   4.219  17.124  0.1133 -0.8367 -0.3033
  518TMC3     C 7749   4.253   4.519  17.404 -0.1757  0.1262 -0.2911
  518TMC3     O 7750   4.171   4.597  17.353  0.4275 -0.0051 -0.3745
  518TMC3     H 7751   4.375   4.271  17.459 -1.1930 -0.8295 -0.0544
  518TMC3    H1 7752   4.253   4.542  17.156 -0.9699  0.7932  2.8850
  518TMC3    H2 7753   4.374   4.133  17.058 -3.1387  0.3437 -1.9548
  518TMC3    C7 7754   4.363   4.394  16.959 -0.0427  0.2428 -0.0778
  518TMC3    C8 7755   4.423   4.061  17.293 -0.2397  0.1951 -0.1093
  518TMC3    O1 7756   4.294   4.487  16.912 -0.4863  0.1471 -0.7186
  518TMC3    O2 7757   4.467   3.986  17.211  0.0233 -0.6023 -0.5389
  519MPD2     C 7758   1.355   3.306  13.973  0.0585 -0.0145  0.6461
  519MPD2    C1 7759   1.327   3.174  13.964 -0.8704  1.1400 -0.2057
  519MPD2    C2 7760   1.419   3.088  13.908 -0.2784 -0.5174 -0.3968
  519MPD2    C3 7761   1.537   3.144  13.861  0.5341 -0.0569 -0.1717
  519MPD2    C4 7762   1.558   3.282  13.860 -0.3782  0.1310 -0.3014
  519MPD2    C5 7763   1.466   3.359  13.917 -0.2830 -0.6632 -0.5287
  519MPD2     H 7764   1.411   2.981  13.901 -1.7408 -0.3554 -1.0839
  519MPD2    H1 7765   1.651   3.322  13.819  1.0565 -0.2832  2.5991
  519MPD2    H2 7766   1.281   3.370  14.019  1.2060  1.8747 -0.1190
  519MPD2    H3 7767   1.471   3.467  13.921  0.7518 -0.7201 -0.1339
  519MPD2     N 7768   1.637   3.057  13.806  0.3517  0.1682 -0.2329
  519MPD2    H5 7769   1.688   3.105  13.732  1.9740  0.5412  1.1536
  519MPD2    N1 7770   1.198   3.143  14.005 -0.3487  0.3526  0.6508
  519MPD2    H7 7771   1.147   3.218  14.051  0.6512  0.3355  1.7840
  520TMC3    C1 7772   1.730   2.863  13.705  0.0732  0.5261 -0.0078
  520TMC3    C2 7773   1.710   2.903  13.575 -0.8346  0.3127 -0.9953
  520TMC3    C3 7774   1.763   2.825  13.479  0.0494  0.5168 -0.4359
  520TMC3    C4 7775   1.809   2.756  13.740 -0.2300 -0.4973 -0.0007
  520TMC3    C5 7776   1.873   2.689  13.640  0.6364 -1.0774 -0.4489
  520TMC3    C6 7777   1.846   2.718  13.509 -0.5238 -0.1020 -0.0852
  520TMC3     C 7778   1.642   2.919  13.809 -0.0908  0.4374  0.0450
  520TMC3     O 7779   1.610   2.851  13.906  0.4093  0.1867  0.4959
  520TMC3     H 7780   1.640   2.984  13.554 -0.9599  0.9022  1.6514
  520TMC3    H1 7781   1.809   2.731  13.846  0.3768  0.9080  0.3339
  520TMC3    H2 7782   1.873   2.655  13.425  1.7549 -0.6678  1.0843
  520TMC3    C7 7783   1.937   2.566  13.681  0.7585 -0.5927  0.2442
  520TMC3    C8 7784   1.708   2.820  13.347  0.1793 -0.5613 -0.0655
  520TMC3    O1 7785   1.953   2.559  13.803 -0.3351 -0.2319 -0.0115
  520TMC3    O2 7786   1.775   2.789  13.249  0.3216 -0.4653  0.5906
  521MPD2     C 7787   2.270   0.659  17.577  0.1276 -0.4927 -0.1883
  521MPD2    C1 7788   2.213   0.666  17.456  0.6163  0.1928 -0.4369
  521MPD2    C2 7789   2.299   0.633  17.350  0.2747 -0.3299  0.2611
  521MPD2    C3 7790   2.432   0.607  17.369 -0.0423  0.0645 -0.4333
  521MPD2    C4 7791   2.475   0.602  17.503 -0.1213  0.2001 -0.1475
  521MPD2    C5 7792   2.397   0.636  17.604 -0.4673 -0.3518  0.3602
  521MPD2     H 7793   2.256   0.639  17.250  2.9750  1.4213 -0.8011
  521MPD2    H1 7794   2.578   0.580  17.529 -0.3684 -1.0561 -0.2442
  521MPD2    H2 7795   2.209   0.678  17.665 -2.2610  0.5405 -2.0571
  521MPD2    H3 7796   2.433   0.631  17.706 -0.5066 -0.7196  0.3535
  521MPD2     N 7797   2.510   0.570  17.253  0.0766  0.0256 -0.8415
  521MPD2    H5 7798   2.457   0.557  17.167 -2.7852 -0.9958  1.0799
  521MPD2    N1 7799   2.076   0.704  17.452  0.2852 -0.3673  0.2061
  521MPD2    H7 7800   2.028   0.700  17.542  1.1888  0.5593  0.7314
  522TMC3    C1 7801   2.708   0.496  17.131  0.2779 -0.1359 -0.5151
  522TMC3    C2 7802   2.802   0.399  17.132  0.4679  0.4848 -0.1638
  522TMC3    C3 7803   2.872   0.368  17.019 -0.2118  0.0967 -0.4601
  522TMC3    C4 7804   2.663   0.548  17.012 -0.4070 -0.6248 -0.1609
  522TMC3    C5 7805   2.722   0.501  16.898  1.1851  0.8868 -0.0214
  522TMC3    C6 7806   2.833   0.418  16.899  0.2091 -0.1692 -0.4006
  522TMC3     C 7807   2.641   0.518  17.258  0.5491  0.7825  0.9959
  522TMC3     O 7808   2.707   0.499  17.354  0.1218 -0.0429  0.3105
  522TMC3     H 7809   2.812   0.332  17.217  1.6641 -0.5525 -1.1178
  522TMC3    H1 7810   2.588   0.627  17.012  2.8862  2.5153 -1.7428
  522TMC3    H2 7811   2.896   0.405  16.811 -0.9158 -0.7652 -1.1290
  522TMC3    C7 7812   2.684   0.559  16.769  0.7317  0.0462 -0.1339
  522TMC3    C8 7813   2.965   0.254  17.023  0.5812 -0.4555 -0.0567
  522TMC3    O1 7814   2.771   0.594  16.688 -0.0273  0.0720 -0.0545
  522TMC3    O2 7815   2.995   0.213  17.138 -0.6544  0.2043 -0.1005
  523MPD2     C 7816   4.182   0.657  10.388 -0.1985 -0.5430  0.3098
  523MPD2    C1 7817   4.124   0.587  10.282  1.0547 -0.0448  1.0441
  523MPD2    C2 7818   4.045   0.655  10.188 -0.2847 -0.4356 -0.2732
  523MPD2    C3 7819   4.016   0.790  10.206  0.0955 -0.5054 -0.0996
  523MPD2    C4 7820   4.067   0.860  10.315  0.0064  0.6544 -0.4651
  523MPD2    C5 7821   4.150   0.791  10.401 -0.1459  0.4349 -0.9261
  523MPD2     H 7822   3.999   0.601  10.106  1.1896 -3.0733  0.6542
  523MPD2    H1 7823   4.065   0.968  10.329  0.9088  0.7667 -1.2303
  523MPD2    H2 7824   4.250   0.617  10.462 -0.6361 -0.9038  0.5164
  523MPD2    H3 7825   4.202   0.845  10.480 -2.3309  1.7798 -0.4109
  523MPD2     N 7826   3.925   0.856  10.120 -0.4037  0.3660  0.5548
  523MPD2    H5 7827   3.903   0.952  10.145 -2.4127  0.1035 -0.1855
  523MPD2    N1 7828   4.161   0.445  10.287 -0.1265  0.2066 -0.2478
  523MPD2    H7 7829   4.244   0.416  10.337 -0.9118 -2.4800 -0.4854
  524TMC3    C1 7830   3.810   0.923   9.944 -0.2061  0.0229  0.3014
  524TMC3    C2 7831   3.833   0.943   9.810  0.0042 -0.0148  0.0325
  524TMC3    C3 7832   3.763   1.047   9.743 -0.4059  0.2300 -0.4923
  524TMC3    C4 7833   3.710   0.977  10.014  0.3275 -0.4884 -0.0704
  524TMC3    C5 7834   3.640   1.076   9.946  0.5319 -0.8783 -0.3535
  524TMC3    C6 7835   3.674   1.116   9.819  0.3882 -0.0859  0.0506
  524TMC3     C 7836   3.889   0.822   9.999  0.1739 -0.2586 -0.3108
  524TMC3     O 7837   3.939   0.735   9.923 -0.1937  0.9030 -0.3075
  524TMC3     H 7838   3.915   0.896   9.756  0.7074  1.3494 -0.0907
  524TMC3    H1 7839   3.686   0.953  10.117  1.3129 -1.0998  0.0160
  524TMC3    H2 7840   3.628   1.202   9.770 -3.0027 -2.0736 -0.2532
  524TMC3    C7 7841   3.509   1.106  10.001 -0.5794 -0.0425 -0.3791
  524TMC3    C8 7842   3.819   1.106   9.621 -0.0135  0.0001  0.0143
  524TMC3    O1 7843   3.485   1.061  10.114  0.1433 -0.4769 -0.0065
  524TMC3    O2 7844   3.747   1.163   9.545 -0.0433  0.0484 -0.2454
  525MPD2     C 7845   2.469   2.238  14.336  0.3460 -0.3571  0.1221
  525MPD2    C1 7846   2.566   2.258  14.430  0.0907 -0.6727  0.4247
  525MPD2    C2 7847   2.651   2.364  14.421 -0.1687 -0.0601 -0.1484
  525MPD2    C3 7848   2.644   2.456  14.315  0.1677  0.4497  0.3683
  525MPD2    C4 7849   2.546   2.430  14.218  0.1784  0.0752 -1.2612
  525MPD2    C5 7850   2.461   2.327  14.233 -0.0107 -0.5037  0.1822
  525MPD2     H 7851   2.719   2.376  14.505 -0.4928 -1.3801  0.3105
  525MPD2    H1 7852   2.542   2.500  14.135  0.8088  0.5906 -0.8488
  525MPD2    H2 7853   2.406   2.150  14.338 -1.4307  0.9443  1.7967
  525MPD2    H3 7854   2.402   2.306  14.144  0.9928  0.1839 -0.6433
  525MPD2     N 7855   2.723   2.577  14.310 -0.4571 -0.0147 -0.8990
  525MPD2    H5 7856   2.704   2.634  14.227  2.3121  1.0361 -0.7900
  525MPD2    N1 7857   2.566   2.185  14.552  0.2141  0.4486  0.4098
  525MPD2    H7 7858   2.645   2.200  14.615  0.9605 -1.5775 -0.0137
  526TMC3    C1 7859   2.496   2.068  14.742 -0.0624 -0.3772 -0.2173
  526TMC3    C2 7860   2.398   2.065  14.845 -0.2102 -0.4826 -0.4502
  526TMC3    C3 7861   2.428   2.010  14.965 -0.1459 -0.2890 -0.4471
  526TMC3    C4 7862   2.618   2.010  14.759 -0.1630 -0.0783  0.4313
  526TMC3    C5 7863   2.640   1.955  14.881 -0.1959 -0.2832 -0.4834
  526TMC3    C6 7864   2.551   1.954  14.981  0.3321 -0.2008  0.3334
  526TMC3     C 7865   2.458   2.124  14.606 -0.0361  0.0940 -0.4594
  526TMC3     O 7866   2.340   2.116  14.575 -0.8730  0.1842 -0.0340
  526TMC3     H 7867   2.308   2.120  14.820  1.3142  2.1879 -0.1480
  526TMC3    H1 7868   2.690   2.004  14.679 -0.2985 -0.6139  0.3502
  526TMC3    H2 7869   2.583   1.919  15.079  0.0124  0.9499  0.8443
  526TMC3    C7 7870   2.766   1.887  14.919  1.0676 -0.2556 -0.0451
  526TMC3    C8 7871   2.351   2.041  15.087 -0.3625  0.7695  0.2723
  526TMC3    O1 7872   2.756   1.795  14.997 -0.6365 -0.2041 -0.1123
  526TMC3    O2 7873   2.404   2.001  15.192  0.7740  0.2685  0.8182
  527MPD2     C 7874   0.085   0.477   1.310 -0.1361 -0.1348  0.1394
  527MPD2    C1 7875   0.102   0.521   1.181  0.3177  0.0914 -0.4506
  527MPD2    C2 7876   0.224   0.502   1.121 -0.2496  0.0466 -0.7638
  527MPD2    C3 7877   0.323   0.432   1.177 -0.1243  0.0291  0.8526
  527MPD2    C4 7878   0.315   0.393   1.310  0.3729 -0.1146 -0.2434
  527MPD2    C5 7879   0.195   0.425   1.374 -0.3467 -0.0244  0.5297
  527MPD2     H 7880   0.238   0.525   1.016  1.4766 -2.8674 -1.1650
  527MPD2    H1 7881   0.384   0.326   1.361 -1.2734 -0.0634  2.0614
  527MPD2    H2 7882   4.733   0.489   1.365  0.4058 -0.1744  1.0553
  527MPD2    H3 7883   0.183   0.388   1.475  1.4336 -0.3222  0.6286
  527MPD2     N 7884   0.443   0.421   1.101  0.2399 -0.0333 -0.3943
  527MPD2    H5 7885   0.440   0.455   1.006  0.6591  0.9440 -0.0705
  527MPD2    N1 7886   4.738   0.584   1.108 -0.5658 -0.8844  0.3964
  527MPD2    H7 7887   0.014   0.616   1.013  2.0910  0.3659  1.2647
  528TMC3    C1 7888   4.543   0.703   1.078  0.3664 -0.3139  0.0113
  528TMC3    C2 7889   4.627   0.802   1.025 -0.0499  0.6268 -0.0232
  528TMC3    C3 7890   4.562   0.895   0.951  0.0252 -0.3140 -0.1171
  528TMC3    C4 7891   4.410   0.698   1.061  0.8901  0.0613  0.2771
  528TMC3    C5 7892   4.355   0.788   0.971 -0.3233 -0.0980  0.1935
  528TMC3    C6 7893   4.430   0.889   0.919  0.2531  0.1141 -0.3672
  528TMC3     C 7894   4.608   0.599   1.151  0.1539 -0.0844 -0.1253
  528TMC3     O 7895   4.540   0.550   1.241 -0.0512 -0.1622  0.3082
  528TMC3     H 7896   4.726   0.817   1.065 -0.3031 -0.9652  1.2298
  528TMC3    H1 7897   4.356   0.614   1.101  1.2107 -1.3057 -2.2081
  528TMC3    H2 7898   4.380   0.969   0.866 -1.7015 -1.5992 -1.1379
  528TMC3    C7 7899   4.213   0.780   0.945  0.4534  0.0726  0.6276
  528TMC3    C8 7900   4.623   1.028   0.942 -0.2343  0.1502  0.8013
  528TMC3    O1 7901   4.178   0.827   0.835  0.7564 -0.8382 -0.6394
  528TMC3    O2 7902   4.549   1.124   0.946  0.3220 -0.1782  0.1913
  529MPD2     C 7903   2.675   3.962   1.087  0.2433 -0.5872 -0.9702
  529MPD2    C1 7904   2.785   3.954   1.004 -0.0730 -0.2538  0.1007
  529MPD2    C2 7905   2.793   4.045   0.895 -0.3469  0.0564  0.0121
  529MPD2    C3 7906   2.693   4.136   0.874 -0.1854 -0.3176  0.5907
  529MPD2    C4 7907   2.585   4.149   0.959  0.3129 -0.5763 -0.1970
  529MPD2    C5 7908   2.574   4.054   1.059  0.5962 -0.2586  0.3938
  529MPD2     H 7909   2.879   4.045   0.829 -1.5410 -1.0617 -1.5359
  529MPD2    H1 7910   2.500   4.211   0.932  0.2222 -0.0180  1.3713
  529MPD2    H2 7911   2.675   3.898   1.174 -0.6003 -0.8302 -1.1559
  529MPD2    H3 7912   2.494   4.060   1.132  0.4922 -0.6964  0.3187
  529MPD2     N 7913   2.689   4.230   0.767  0.0744  0.4626 -0.1462
  529MPD2    H5 7914   2.616   4.300   0.778 -2.3081 -2.0957  0.1999
  529MPD2    N1 7915   2.885   3.859   1.034 -0.2524  0.0282  0.7383
  529MPD2    H7 7916   2.973   3.875   0.985  1.1154 -1.4174  2.7299
  530TMC3    C1 7917   3.020   3.683   1.126  0.5263 -0.4804 -0.8115
  530TMC3    C2 7918   3.131   3.755   1.161  0.2354  0.1229 -0.3845
  530TMC3    C3 7919   3.249   3.694   1.194  0.9173 -0.3079  0.4920
  530TMC3    C4 7920   3.024   3.544   1.131  0.1116  0.7295  0.3236
  530TMC3    C5 7921   3.146   3.482   1.164  0.0341  1.0306 -0.0113
  530TMC3    C6 7922   3.258   3.558   1.192 -0.1987 -0.1554 -0.3154
  530TMC3     C 7923   2.890   3.750   1.119 -0.1671  0.0867 -0.0661
  530TMC3     O 7924   2.801   3.702   1.191 -0.5677 -0.2397 -0.0167
  530TMC3     H 7925   3.121   3.862   1.162 -0.4908  0.0419  0.2909
  530TMC3    H1 7926   2.934   3.484   1.123  1.2688 -0.9752  0.0706
  530TMC3    H2 7927   3.351   3.508   1.219  0.9528  1.9796 -0.3128
  530TMC3    C7 7928   3.149   3.341   1.198 -0.1908 -0.1256  0.0550
  530TMC3    C8 7929   3.336   3.762   1.288 -0.7233  0.1130  0.5733
  530TMC3    O1 7930   3.235   3.301   1.271  0.4984  0.0601 -0.4585
  530TMC3    O2 7931   3.304   3.871   1.325  0.5451  0.7441  0.1871
  531MPD2     C 7932   1.387   0.953  13.098 -0.1834  0.5856 -0.2480
  531MPD2    C1 7933   1.310   1.062  13.137 -0.1823  0.2183  0.2344
  531MPD2    C2 7934   1.254   1.144  13.038 -0.9439 -0.0043 -0.4903
  531MPD2    C3 7935   1.264   1.103  12.904 -0.2265  0.8055 -0.1422
  531MPD2    C4 7936   1.336   0.993  12.872  0.8316  0.0042 -0.1725
  531MPD2    C5 7937   1.399   0.916  12.967  0.2034  0.3353  0.0544
  531MPD2     H 7938   1.199   1.233  13.064  3.3457  2.5071 -0.0696
  531MPD2    H1 7939   1.359   0.966  12.770  0.8780  2.0462 -0.7044
  531MPD2    H2 7940   1.444   0.897  13.171  1.5859  2.1650 -0.4328
  531MPD2    H3 7941   1.451   0.827  12.931 -1.1169 -0.6674  0.6475
  531MPD2     N 7942   1.199   1.168  12.796 -0.1254 -0.1863  0.2127
  531MPD2    H5 7943   1.233   1.146  12.703 -1.3092 -0.1596 -0.2327
  531MPD2    N1 7944   1.320   1.093  13.272 -0.3982  0.2613 -0.1021
  531MPD2    H7 7945   1.390   1.047  13.329  0.7716 -1.3260 -2.8025
  532TMC3    C1 7946   1.290   1.240  13.466 -0.2482 -0.3668 -0.3602
  532TMC3    C2 7947   1.207   1.344  13.509  0.7647 -0.4766 -0.1975
  532TMC3    C3 7948   1.263   1.455  13.545 -0.3863  0.0971  0.0708
  532TMC3    C4 7949   1.429   1.247  13.477  0.2578  0.2179  0.4718
  532TMC3    C5 7950   1.478   1.360  13.533  0.3189  0.0816  0.1281
  532TMC3    C6 7951   1.396   1.468  13.572  0.0500  0.3851 -0.1288
  532TMC3     C 7952   1.238   1.184  13.342  0.3581  0.5429  0.1357
  532TMC3     O 7953   1.142   1.247  13.297 -0.5502  0.2617  0.4616
  532TMC3     H 7954   1.102   1.338  13.485  0.5746  0.7824  0.3560
  532TMC3    H1 7955   1.486   1.168  13.427  0.5132 -0.3057  1.5842
  532TMC3    H2 7956   1.437   1.545  13.636 -0.2235  0.3556  0.0796
  532TMC3    C7 7957   1.615   1.370  13.565  0.8042  0.0317 -0.0658
  532TMC3    C8 7958   1.201   1.574  13.487  0.3217 -0.1598 -0.6459
  532TMC3    O1 7959   1.641   1.453  13.651 -0.3603 -0.1526 -0.5739
  532TMC3    O2 7960   1.242   1.679  13.538  0.5869 -0.4072 -0.1968
  533TMC3    C1 7961   2.835   2.759  14.411  0.2186  0.7424  0.0616
  533TMC3    C2 7962   2.941   2.804  14.484 -0.0016  0.3435 -0.2709
  533TMC3    C3 7963   2.943   2.939  14.512  0.2851  0.3752 -0.1010
  533TMC3    C4 7964   2.725   2.835  14.381 -0.1329  0.2959 -0.0689
  533TMC3    C5 7965   2.723   2.961  14.440 -0.1378  0.6985  0.2861
  533TMC3    C6 7966   2.837   3.022  14.487  0.3054  0.3117  0.0647
  533TMC3     C 7967   2.823   2.615  14.400 -0.5947 -0.5694 -0.2744
  533TMC3     O 7968   2.871   2.546  14.490  0.3853 -0.2045  0.1499
  533TMC3     H 7969   3.025   2.737  14.497  0.6827  1.4257  1.0321
  533TMC3    H1 7970   2.633   2.792  14.343 -0.7426 -0.6016  2.4218
  533TMC3    H2 7971   2.834   3.125  14.519  0.0691  0.3655 -0.1309
  533TMC3    C7 7972   2.617   2.959  14.538 -0.2511 -0.6038 -0.7365
  533TMC3    C8 7973   3.066   3.001  14.557 -0.4910 -0.5647  0.3607
  533TMC3    O1 7974   2.554   2.855  14.543  0.0461 -0.1602 -0.2378
  533TMC3    O2 7975   3.139   2.934  14.633 -0.7470  0.1661 -0.5776
  534MPD2     C 7976   0.371   4.000   1.739  0.1594  0.9079 -0.1991
  534MPD2    C1 7977   0.433   3.928   1.637 -0.3188 -0.0461  0.0369
  534MPD2    C2 7978   0.353   3.882   1.536  0.1343  0.2141 -0.2900
  534MPD2    C3 7979   0.216   3.897   1.536 -0.1960 -0.4074 -0.5093
  534MPD2    C4 7980   0.152   3.964   1.635  0.1561 -0.0353 -0.2860
  534MPD2    C5 7981   0.233   4.011   1.734  0.0624  1.2361 -0.6688
  534MPD2     H 7982   0.402   3.829   1.455 -0.0506  0.6982 -0.7176
  534MPD2    H1 7983   0.044   3.974   1.641  0.2785  0.2499  1.4097
  534MPD2    H2 7984   0.417   4.031   1.832  2.6805  1.7262 -1.7212
  534MPD2    H3 7985   0.180   4.071   1.807  1.5726 -0.9656  2.2629
  534MPD2     N 7986   0.124   3.841   1.434 -0.1344  0.0432 -0.3685
  534MPD2    H5 7987   0.027   3.869   1.438 -0.4461 -1.1553  0.2863
  534MPD2    N1 7988   0.570   3.912   1.630  0.0958  0.1539 -0.3487
  534MPD2    H7 7989   0.611   3.878   1.543  0.4295  1.3255 -0.6539
  535TMC3    C1 7990   0.074   3.770   1.218 -0.3196  0.5907 -0.3566
  535TMC3    C2 7991   4.682   3.768   1.246 -0.2745 -0.9415 -0.6599
  535TMC3    C3 7992   4.597   3.769   1.136  0.5738 -0.0948 -0.2963
  535TMC3    C4 7993   0.125   3.764   1.091 -0.1235 -0.5288  0.1825
  535TMC3    C5 7994   0.034   3.786   0.988 -0.5148 -0.3261  0.0723
  535TMC3    C6 7995   4.639   3.807   1.012 -0.3487 -0.3949 -0.8330
  535TMC3     C 7996   0.169   3.775   1.325 -0.5960 -0.2045  0.0997
  535TMC3     O 7997   0.286   3.756   1.294 -0.5502 -0.2299 -0.1642
  535TMC3     H 7998   4.645   3.734   1.342  3.1395 -1.6974  0.3972
  535TMC3    H1 7999   0.231   3.767   1.069 -0.4541  0.2114 -1.3833
  535TMC3    H2 8000   4.569   3.820   0.931 -1.3133 -2.3682 -0.3281
  535TMC3    C7 8001   0.075   3.814   0.854  0.0483 -0.0071 -0.3162
  535TMC3    C8 8002   4.460   3.775   1.156 -0.4195 -0.3241 -0.1612
  535TMC3    O1 8003   0.182   3.757   0.827  0.5034 -0.3085  0.3203
  535TMC3    O2 8004   4.391   3.747   1.062 -0.2378  0.4801  0.0173
  536MPD2     C 8005   3.417   1.677  16.172  0.1719 -0.4892 -0.0223
  536MPD2    C1 8006   3.424   1.816  16.181  0.4539  0.5346 -0.1793
  536MPD2    C2 8007   3.339   1.896  16.110 -0.0771  0.2601  0.0332
  536MPD2    C3 8008   3.254   1.838  16.019  0.2649  0.2828 -0.3558
  536MPD2    C4 8009   3.254   1.703  16.011  0.3058 -0.2222 -0.1518
  536MPD2    C5 8010   3.326   1.621  16.091  0.3581 -0.1077  0.2024
  536MPD2     H 8011   3.336   2.004  16.113  0.8433  0.2187  2.4797
  536MPD2    H1 8012   3.198   1.649  15.935  0.6102  0.9195 -1.1862
  536MPD2    H2 8013   3.471   1.610  16.238  1.3326  1.7460  1.2953
  536MPD2    H3 8014   3.320   1.513  16.076 -1.7240 -0.1708  1.4769
  536MPD2     N 8015   3.170   1.924  15.947 -0.3394 -0.1459  0.0619
  536MPD2    H5 8016   3.157   2.020  15.978  0.1803  0.3427 -1.2387
  536MPD2    N1 8017   3.516   1.867  16.273 -0.0497 -0.5451  0.6236
  536MPD2    H7 8018   3.569   1.804  16.333  0.9189 -2.1491 -1.9407
  537TMC3    C1 8019   3.591   2.042  16.413 -0.3084  0.3400  0.0373
  537TMC3    C2 8020   3.670   2.151  16.443  0.2173 -0.0101 -0.2348
  537TMC3    C3 8021   3.706   2.179  16.574  0.4331  1.1586  0.6553
  537TMC3    C4 8022   3.536   1.970  16.514 -0.2412 -0.1409 -0.4427
  537TMC3    C5 8023   3.566   2.000  16.642 -0.1762  0.7107 -0.3620
  537TMC3    C6 8024   3.670   2.090  16.670 -0.3875  0.2065 -0.2327
  537TMC3     C 8025   3.535   2.010  16.285 -0.1640 -0.2493  0.0428
  537TMC3     O 8026   3.507   2.105  16.215  0.0104  0.7432 -0.4674
  537TMC3     H 8027   3.709   2.212  16.363 -2.0925 -0.4049 -1.6385
  537TMC3    H1 8028   3.456   1.896  16.512 -0.3468 -0.0652  1.2278
  537TMC3    H2 8029   3.703   2.110  16.772 -1.0560 -0.9229  0.1914
  537TMC3    C7 8030   3.495   1.944  16.748 -0.1016  0.4852  0.0440
  537TMC3    C8 8031   3.831   2.246  16.598  0.1010  0.7530  0.2756
  537TMC3    O1 8032   3.373   1.931  16.724 -0.6432 -0.2797 -0.0125
  537TMC3    O2 8033   3.896   2.204  16.693  0.2372  0.2679 -0.6161
  538TMC3    C1 8034   0.100   0.365  11.135  0.5154 -0.2549  0.2173
  538TMC3    C2 8035   0.236   0.348  11.127  0.2915  0.1151  0.2207
  538TMC3    C3 8036   0.294   0.400  11.011 -0.1389  0.7957 -0.1789
  538TMC3    C4 8037   0.017   0.380  11.028 -0.1013  0.3824  0.1975
  538TMC3    C5 8038   0.077   0.405  10.911  0.6829  0.1397 -0.0355
  538TMC3    C6 8039   0.217   0.419  10.898 -0.1312  0.3240  0.0441
  538TMC3     C 8040   0.033   0.397  11.260 -0.2450 -0.6534 -1.0341
  538TMC3     O 8041   4.653   0.430  11.252  0.3170  0.5334 -0.2925
  538TMC3     H 8042   0.295   0.305  11.206  1.3614  0.4942 -0.3769
  538TMC3    H1 8043   4.649   0.382  11.032 -0.0518  1.6190  0.9303
  538TMC3    H2 8044   0.253   0.460  10.804  1.3669 -1.3668 -0.1099
  538TMC3    C7 8045   4.730   0.481  10.825 -0.6585 -0.2221  0.4698
  538TMC3    C8 8046   0.435   0.358  10.987 -0.2968 -0.4962 -0.3400
  538TMC3    O1 8047   4.616   0.436  10.808 -0.0299  0.1454 -0.1202
  538TMC3    O2 8048   0.488   0.293  11.079 -0.2325  0.7211 -0.5555
  539MPD2     C 8049   4.119   4.640  12.080  0.3998  0.1559  0.3039
  539MPD2    C1 8050   4.156   4.654  11.949  0.5461  0.0615 -0.1640
  539MPD2    C2 8051   4.151   0.040  11.896  0.2095  0.4750 -0.2996
  539MPD2    C3 8052   4.118   0.155  11.970 -0.3774  0.2315 -0.0423
  539MPD2    C4 8053   4.073   0.134  12.096  0.3040  0.0157  0.2806
  539MPD2    C5 8054   4.081   0.013  12.148 -0.2711 -0.1041 -0.1202
  539MPD2     H 8055   4.182   0.055  11.793 -0.9019 -0.9245 -0.8375
  539MPD2    H1 8056   4.041   0.210  12.167 -1.9285 -0.4500 -0.2301
  539MPD2    H2 8057   4.124   4.545  12.133  0.9108  1.0584  1.8579
  539MPD2    H3 8058   4.064   0.009  12.255 -0.2742 -0.1022 -0.1206
  539MPD2     N 8059   4.127   0.290  11.923 -0.8319 -0.4217 -0.3319
  539MPD2    H5 8060   4.085   0.360  11.984  0.5847  1.1978 -1.2282
  539MPD2    N1 8061   4.204   4.541  11.875 -0.2652  0.7421 -0.5325
  539MPD2    H7 8062   4.219   4.557  11.776  1.4414  0.4984 -0.3130
  540TMC3    C1 8063   4.154   0.467  11.763 -0.2058 -0.5262 -0.2024
  540TMC3    C2 8064   4.174   0.490  11.633  0.3126  0.6139 -0.1071
  540TMC3    C3 8065   4.181   0.621  11.595 -0.1738  0.1236  0.3524
  540TMC3    C4 8066   4.147   0.567  11.857 -0.3682 -0.5425 -0.2296
  540TMC3    C5 8067   4.158   0.698  11.822 -0.1959  0.0615 -0.2816
  540TMC3    C6 8068   4.172   0.719  11.688 -0.3237 -0.0490  0.5295
  540TMC3     C 8069   4.171   0.326  11.801  0.1930  0.4759  0.8264
  540TMC3     O 8070   4.221   0.255  11.719  0.5243 -0.4691 -0.7937
  540TMC3     H 8071   4.158   0.407  11.565 -1.1227 -0.5737  1.6925
  540TMC3    H1 8072   4.163   0.540  11.960 -1.1156  3.4875  0.9367
  540TMC3    H2 8073   4.186   0.820  11.652  1.5482 -0.8366 -0.9347
  540TMC3    C7 8074   4.070   0.771  11.906 -0.8664 -0.3545  0.3956
  540TMC3    C8 8075   4.217   0.652  11.455  0.3278 -0.2282  0.4140
  540TMC3    O1 8076   4.011   0.701  11.986 -0.1353  0.6150 -0.0499
  540TMC3    O2 8077   4.267   0.762  11.429  0.6360 -0.0470 -0.1518
  541MPD2     C 8078   3.028   1.040  13.232  0.8508  0.1080 -1.1049
  541MPD2    C1 8079   2.943   1.144  13.258 -0.3749  0.4123 -0.3453
  541MPD2    C2 8080   2.948   1.248  13.164  0.3470  0.8565  0.6344
  541MPD2    C3 8081   3.025   1.245  13.053 -0.5696 -0.5706 -0.3185
  541MPD2    C4 8082   3.107   1.135  13.029 -0.4601  0.0737  0.1848
  541MPD2    C5 8083   3.107   1.036  13.121  0.1639 -0.8050 -0.5809
  541MPD2     H 8084   2.882   1.332  13.181  1.5078  1.5083  1.9433
  541MPD2    H1 8085   3.182   1.138  12.950  1.4153 -0.7592  1.9080
  541MPD2    H2 8086   3.045   0.964  13.307 -2.8204 -1.6426 -2.0377
  541MPD2    H3 8087   3.178   0.955  13.113 -1.7973 -2.5850 -0.1784
  541MPD2     N 8088   3.020   1.345  12.951 -0.0336  0.0816  0.0417
  541MPD2    H5 8089   3.057   1.314  12.862 -0.5752 -1.4295  0.3388
  541MPD2    N1 8090   2.858   1.140  13.376 -0.2550  0.1936  0.4420
  541MPD2    H7 8091   2.867   1.054  13.430 -0.1091 -0.1585 -0.1327
  542TMC3    C1 8092   2.931   1.536  12.846 -0.1725 -0.7329 -0.0033
  542TMC3    C2 8093   2.899   1.464  12.733  0.6468  0.4647 -0.1664
  542TMC3    C3 8094   2.827   1.526  12.635  0.5002  0.5177 -0.5364
  542TMC3    C4 8095   2.879   1.663  12.857  0.6776 -0.4979 -0.3558
  542TMC3    C5 8096   2.832   1.725  12.746  0.1355  0.8564 -0.9780
  542TMC3    C6 8097   2.801   1.658  12.634 -0.2843 -0.3378  0.0819
  542TMC3     C 8098   2.957   1.462  12.970  0.4401 -0.1556 -0.2531
  542TMC3     O 8099   2.930   1.519  13.080  0.1038 -0.2677  0.1640
  542TMC3     H 8100   2.913   1.356  12.727 -1.4110  0.2995 -1.8708
  542TMC3    H1 8101   2.880   1.718  12.950  0.8397 -1.2177  0.0684
  542TMC3    H2 8102   2.752   1.700  12.547  1.8749 -2.3669 -2.0817
  542TMC3    C7 8103   2.767   1.853  12.774  0.3602  0.3178  0.3753
  542TMC3    C8 8104   2.811   1.452  12.513  0.1864 -0.1281 -0.0084
  542TMC3    O1 8105   2.823   1.932  12.847 -0.0611 -0.1041  0.0605
  542TMC3    O2 8106   2.826   1.513  12.406  0.0410 -0.2564 -0.3394
  543TMC3    C1 8107   2.716   3.260  17.097 -0.7450  0.4865 -0.4378
  543TMC3    C2 8108   2.654   3.148  17.124 -0.1317  0.3107 -0.3859
  543TMC3    C3 8109   2.609   3.138  17.251 -0.7757 -1.4623 -0.0877
  543TMC3    C4 8110   2.727   3.365  17.187 -0.2732  0.0438 -0.3591
  543TMC3    C5 8111   2.676   3.353  17.310  1.1670 -0.6142  0.9413
  543TMC3    C6 8112   2.605   3.240  17.346 -0.9811  0.4380 -0.2492
  543TMC3     C 8113   2.799   3.247  16.989 -0.3096 -0.0124  0.0638
  543TMC3     O 8114   2.863   3.143  16.985 -0.4472 -0.3207 -0.0903
  543TMC3     H 8115   2.655   3.066  17.053 -0.7612 -1.3117  1.4807
  543TMC3    H1 8116   2.791   3.447  17.155 -0.7215  0.3873 -0.3690
  543TMC3    H2 8117   2.571   3.218  17.446 -0.2394  0.6975  0.0590
  543TMC3    C7 8118   2.717   3.452  17.411 -0.8117 -0.0868 -0.7670
  543TMC3    C8 8119   2.573   3.001  17.288 -0.2890 -0.7151  0.1923
  543TMC3    O1 8120   2.804   3.535  17.384  0.0324 -0.1264  0.1049
  543TMC3    O2 8121   2.602   2.916  17.209 -0.2072 -0.6357  0.0549
  544MPD2     C 8122   2.227   2.638  17.441  0.1534  0.4061  0.9198
  544MPD2    C1 8123   2.346   2.624  17.378  0.3353 -0.0502 -0.4268
  544MPD2    C2 8124   2.419   2.743  17.346  0.6860  0.6270  0.0246
  544MPD2    C3 8125   2.374   2.873  17.383  0.5784 -0.4386 -0.3635
  544MPD2    C4 8126   2.257   2.878  17.454 -1.0522 -0.3188 -0.2819
  544MPD2    C5 8127   2.184   2.764  17.476  0.7799 -0.4140  0.0754
  544MPD2     H 8128   2.516   2.729  17.299  1.0003 -1.1992  1.1836
  544MPD2    H1 8129   2.212   2.972  17.485  0.3055  0.5532 -0.9252
  544MPD2    H2 8130   2.167   2.552  17.467 -1.2890  0.0867 -3.5147
  544MPD2    H3 8131   2.092   2.780  17.531  1.5877  0.9891  1.0158
  544MPD2     N 8132   2.460   2.989  17.369 -0.1314  0.7067  0.6257
  544MPD2    H5 8133   2.425   3.074  17.413 -4.4911 -0.9495  0.3870
  544MPD2    N1 8134   2.394   2.487  17.355 -0.6678  0.2462  0.6676
  544MPD2    H7 8135   2.331   2.416  17.391 -0.4847 -0.3358 -0.1513
  545TMC3    C1 8136   2.563   2.314  17.340 -0.5681  0.1533 -0.2668
  545TMC3    C2 8137   2.671   2.297  17.422  0.7152 -0.2837 -0.0408
  545TMC3    C3 8138   2.684   2.173  17.484  0.0835  0.3033 -0.1949
  545TMC3    C4 8139   2.467   2.211  17.315 -0.6276  0.6903 -0.0797
  545TMC3    C5 8140   2.486   2.089  17.375  0.1969 -0.4384  0.1145
  545TMC3    C6 8141   2.592   2.068  17.464 -0.5596 -0.2391  0.6252
  545TMC3     C 8142   2.521   2.453  17.303  0.6750 -0.3120 -0.4356
  545TMC3     O 8143   2.615   2.531  17.274 -0.3899 -0.0098  0.3005
  545TMC3     H 8144   2.734   2.379  17.453 -0.9119  0.2281  1.9197
  545TMC3    H1 8145   2.409   2.223  17.224  1.3302  0.9631 -1.3034
  545TMC3    H2 8146   2.617   1.973  17.510  1.9405  0.0427 -0.1812
  545TMC3    C7 8147   2.412   1.978  17.319 -0.2735  0.4264  0.0602
  545TMC3    C8 8148   2.760   2.166  17.601  0.5194  0.3380  0.1383
  545TMC3    O1 8149   2.360   1.996  17.212 -0.1962 -0.2849 -0.7295
  545TMC3    O2 8150   2.839   2.259  17.618 -0.0421  0.6819  0.1359
  546MPD2     C 8151   4.344   2.579  17.361  0.0212  0.3797 -0.7550
  546MPD2    C1 8152   4.278   2.626  17.249 -0.1191 -0.4216 -0.0205
  546MPD2    C2 8153   4.297   2.757  17.203  0.2491  0.8495  0.3591
  546MPD2    C3 8154   4.386   2.839  17.274  0.0042  0.2117 -0.8330
  546MPD2    C4 8155   4.457   2.792  17.379 -0.5974 -0.1380  0.2788
  546MPD2    C5 8156   4.435   2.661  17.422  0.5790  0.9321  0.9928
  546MPD2     H 8157   4.242   2.798  17.119 -1.1094  2.5285  2.0455
  546MPD2    H1 8158   4.523   2.853  17.439 -0.7190  0.0722  0.1987
  546MPD2    H2 8159   4.333   2.478  17.398 -1.9386  0.6987 -0.4921
  546MPD2    H3 8160   4.496   2.630  17.505  0.1998 -0.8763  0.5890
  546MPD2     N 8161   4.415   2.975  17.250  0.2413  0.0397  0.5661
  546MPD2    H5 8162   4.466   3.023  17.323  1.7037 -0.4397 -0.1440
  546MPD2    N1 8163   4.168   2.545  17.201  0.4596  0.0222 -0.6279
  546MPD2    H7 8164   4.142   2.461  17.252  0.7676 -0.8437 -1.8876
  547TMC3    C1 8165   3.979   2.483  17.086  0.6741 -0.2878  0.0168
  547TMC3    C2 8166   3.900   2.483  16.974 -0.6531 -0.4928 -0.5681
  547TMC3    C3 8167   3.779   2.425  16.966 -1.2182  0.0488 -0.0915
  547TMC3    C4 8168   3.925   2.441  17.205  0.5003  0.0989 -0.4880
  547TMC3    C5 8169   3.802   2.379  17.194  0.5469  0.1388  0.2007
  547TMC3    C6 8170   3.725   2.369  17.082  0.3202  0.2192  0.4468
  547TMC3     C 8171   4.095   2.562  17.089  0.5267  0.7868  0.5136
  547TMC3     O 8172   4.110   2.649  17.001  0.1137  0.2631  0.3785
  547TMC3     H 8173   3.943   2.525  16.883  1.8826 -0.8203  0.4686
  547TMC3    H1 8174   3.982   2.441  17.297  0.9417 -3.2031 -0.7637
  547TMC3    H2 8175   3.619   2.351  17.091  0.7088 -0.7683  3.1786
  547TMC3    C7 8176   3.750   2.313  17.318  0.8805  0.0283 -0.2950
  547TMC3    C8 8177   3.678   2.472  16.864 -0.1887 -0.8087  0.3142
  547TMC3    O1 8178   3.802   2.322  17.429 -0.1048  0.2859 -0.5880
  547TMC3    O2 8179   3.714   2.569  16.801  0.1537  0.4073  0.3137
  548MPD2     C 8180   3.481   3.105  12.664 -0.6753 -0.7973  0.4994
  548MPD2    C1 8181   3.433   3.003  12.584  0.1730  0.5298 -0.1404
  548MPD2    C2 8182   3.515   2.899  12.550 -0.1439 -0.2606  0.8168
  548MPD2    C3 8183   3.647   2.899  12.592 -0.3049  0.5146  0.2323
  548MPD2    C4 8184   3.698   3.004  12.670  0.2158 -0.6391 -0.5511
  548MPD2    C5 8185   3.608   3.107  12.708 -0.7818  0.4634 -0.5543
  548MPD2     H 8186   3.482   2.823  12.480  0.8674 -0.0279  0.0813
  548MPD2    H1 8187   3.799   3.009  12.708  0.1517 -0.6948 -0.3709
  548MPD2    H2 8188   3.417   3.190  12.688  1.9355  2.4393 -4.0013
  548MPD2    H3 8189   3.643   3.193  12.763  2.7538 -0.9996 -0.5301
  548MPD2     N 8190   3.726   2.785  12.559  0.2069 -0.1875  0.2701
  548MPD2    H5 8191   3.690   2.731  12.481  0.3838  1.2407 -0.7970
  548MPD2    N1 8192   3.306   3.017  12.535 -0.3190  0.6675  0.1669
  548MPD2    H7 8193   3.258   3.099  12.570  0.3231  0.9996  0.2575
  549TMC3    C1 8194   3.102   2.951  12.426  0.2403 -0.1009  0.4114
  549TMC3    C2 8195   3.073   3.085  12.414  0.0592 -0.9505  0.4011
  549TMC3    C3 8196   2.944   3.122  12.386  0.1859 -0.2120  0.7205
  549TMC3    C4 8197   3.009   2.850  12.425 -0.1395 -0.2385 -0.3376
  549TMC3    C5 8198   2.877   2.894  12.404 -0.4705  0.4270 -0.4461
  549TMC3    C6 8199   2.847   3.026  12.380 -0.4791 -0.8526 -0.2139
  549TMC3     C 8200   3.244   2.917  12.463 -0.2363 -0.4833  0.1254
  549TMC3     O 8201   3.277   2.799  12.440 -0.2612  0.2102  0.1852
  549TMC3     H 8202   3.159   3.150  12.405 -0.5378  0.1080  2.1638
  549TMC3    H1 8203   3.047   2.758  12.468 -0.6371 -0.8802 -1.2748
  549TMC3    H2 8204   2.747   3.059  12.355 -0.4778  0.1263  1.0816
  549TMC3    C7 8205   2.767   2.803  12.397 -0.2297 -1.0523  0.0790
  549TMC3    C8 8206   2.917   3.254  12.339 -0.6023 -0.0295  0.2190
  549TMC3    O1 8207   2.650   2.848  12.388  0.3045  0.3952 -0.1178
  549TMC3    O2 8208   2.800   3.277  12.300 -0.0243  0.7727 -0.5781
  550TMC3    C1 8209   2.258   0.955  12.225 -0.6501 -0.0282  0.5902
  550TMC3    C2 8210   2.213   0.974  12.350  0.2195  0.2256  0.7053
  550TMC3    C3 8211   2.199   1.109  12.388 -0.3246 -0.7287  0.4938
  550TMC3    C4 8212   2.304   1.058  12.143  0.7481 -0.3935 -0.6521
  550TMC3    C5 8213   2.287   1.190  12.181  0.0178 -0.2398  0.4690
  550TMC3    C6 8214   2.213   1.213  12.297  0.9127  0.1480  0.8823
  550TMC3     C 8215   2.269   0.815  12.182 -0.6449  0.0823  0.4509
  550TMC3     O 8216   2.265   0.722  12.262  0.3000 -0.1444  0.3242
  550TMC3     H 8217   2.182   0.897  12.419  4.4090 -1.7436  0.3848
  550TMC3    H1 8218   2.336   1.037  12.041  0.4009 -1.9383 -0.4483
  550TMC3    H2 8219   2.194   1.315  12.328  0.5827  1.1188 -2.4983
  550TMC3    C7 8220   2.226   1.259  12.076  0.4034  0.3413  1.2966
  550TMC3    C8 8221   2.127   1.148  12.508  0.4235  0.1933  0.2868
  550TMC3    O1 8222   2.112   1.307  12.091 -0.1598 -0.0663  0.6373
  550TMC3    O2 8223   2.165   1.255  12.556 -0.4256 -0.3848 -0.1576
  551TMC3    C1 8224   0.146   3.571  13.234  0.5106 -1.4518 -0.7200
  551TMC3    C2 8225   0.252   3.595  13.155 -0.8025 -1.0292 -0.6290
  551TMC3    C3 8226   0.352   3.677  13.195 -0.5055 -0.2216 -0.1391
  551TMC3    C4 8227   0.123   3.634  13.351  0.0228  0.3928 -0.4413
  551TMC3    C5 8228   0.213   3.737  13.382  0.3181 -0.4519 -0.0030
  551TMC3    C6 8229   0.328   3.758  13.307 -0.3221 -0.2757  0.1030
  551TMC3     C 8230   0.045   3.486  13.177  0.2649 -0.1172 -0.8690
  551TMC3     O 8231   0.054   3.444  13.062  0.3376  0.5673  0.1085
  551TMC3     H 8232   0.272   3.549  13.059  2.8477  0.9016 -0.7978
  551TMC3    H1 8233   0.055   3.596  13.426 -1.5453  2.4672 -0.7869
  551TMC3    H2 8234   0.408   3.823  13.338  1.6468 -1.3128 -2.6987
  551TMC3    C7 8235   0.231   3.759  13.527  0.2486 -0.8442 -0.4160
  551TMC3    C8 8236   0.466   3.704  13.106 -0.0743 -0.0065 -0.4628
  551TMC3    O1 8237   0.215   3.665  13.602 -0.0575  0.1033 -0.0226
  551TMC3    O2 8238   0.487   3.615  13.021  0.5162 -0.4999 -0.5350
  552MPD2     C 8239   1.917   1.489  13.855  0.6278  0.2938 -0.0831
  552MPD2    C1 8240   1.896   1.368  13.928  0.3270 -0.7255 -0.3866
  552MPD2    C2 8241   1.996   1.315  14.013  0.6064  0.1784 -0.9890
  552MPD2    C3 8242   2.121   1.379  14.025  0.3222  0.5989 -0.4976
  552MPD2    C4 8243   2.140   1.484  13.941  0.2677 -0.2348 -0.1746
  552MPD2    C5 8244   2.043   1.540  13.859 -0.1103 -0.1997 -0.3261
  552MPD2     H 8245   1.976   1.225  14.071 -1.8285  1.4508  0.1110
  552MPD2    H1 8246   2.235   1.533  13.923 -0.3019  1.0950  0.4050
  552MPD2    H2 8247   1.839   1.524  13.788 -0.9837  1.3474  2.3161
  552MPD2    H3 8248   2.061   1.620  13.789 -1.5557 -1.4081 -2.0742
  552MPD2     N 8249   2.235   1.324  14.093  0.2237 -0.1335  0.5702
  552MPD2    H5 8250   2.330   1.359  14.087 -0.1689  1.2296  2.2460
  552MPD2    N1 8251   1.761   1.317  13.935  0.4506 -0.0960  0.0042
  552MPD2    H7 8252   1.702   1.352  13.861 -0.9894 -0.7542  0.8513
  553TMC3    C1 8253   1.604   1.154  13.986  0.1780  0.2099  0.3160
  553TMC3    C2 8254   1.575   1.133  13.852 -0.4187 -0.5375 -0.2036
  553TMC3    C3 8255   1.501   1.027  13.814  0.5766  0.2015 -0.0421
  553TMC3    C4 8256   1.544   1.065  14.079  0.0863 -0.1059 -0.2376
  553TMC3    C5 8257   1.460   0.966  14.039  0.3071 -0.2216 -0.3666
  553TMC3    C6 8258   1.443   0.938  13.908  0.3769 -0.8758 -0.1507
  553TMC3     C 8259   1.725   1.218  14.024  0.2843 -0.0268  1.1690
  553TMC3     O 8260   1.767   1.208  14.137  0.0687  0.7576  0.1116
  553TMC3     H 8261   1.627   1.187  13.774 -2.1589  0.0186 -0.9817
  553TMC3    H1 8262   1.561   1.068  14.186 -0.0902  1.5294 -0.2558
  553TMC3    H2 8263   1.388   0.850  13.880 -0.5722  0.3736 -2.2098
  553TMC3    C7 8264   1.457   0.843  14.122 -0.2593  0.4953 -0.1853
  553TMC3    C8 8265   1.545   0.961  13.695 -0.1906  0.3590  0.1257
  553TMC3    O1 8266   1.356   0.775  14.124  0.1556  0.2198 -0.2775
  553TMC3    O2 8267   1.624   1.018  13.620  0.2577 -0.0879  0.4724
  554TMC3    C1 8268   3.716   0.117  11.754 -0.1449 -0.0001  0.1619
  554TMC3    C2 8269   3.623   0.063  11.665  0.4235  0.1236 -0.3503
  554TMC3    C3 8270   3.629   0.099  11.531 -0.4634 -0.5166  0.0535
  554TMC3    C4 8271   3.801   0.212  11.718 -0.2958  0.5250 -0.3025
  554TMC3    C5 8272   3.816   0.236  11.584 -0.4926 -0.3520  0.2204
  554TMC3    C6 8273   3.735   0.180  11.488  0.4604 -0.4487  0.2287
  554TMC3     C 8274   3.720   0.087  11.891  0.2001 -0.0801 -1.2696
  554TMC3     O 8275   3.770   0.170  11.967 -0.7346  0.6076  1.3107
  554TMC3     H 8276   3.537   0.004  11.695  0.2060  0.1739 -0.8673
  554TMC3    H1 8277   3.873   0.252  11.789  0.4275 -0.6167 -0.4087
  554TMC3    H2 8278   3.750   0.208  11.384  0.2125 -0.5076  0.1767
  554TMC3    C7 8279   3.874   0.356  11.537  0.0625  0.0900 -0.1296
  554TMC3    C8 8280   3.547   0.047  11.428  0.3041  0.1349 -0.6069
  554TMC3    O1 8281   3.947   0.350  11.437  0.2973 -0.3093 -0.9729
  554TMC3    O2 8282   3.559   0.112  11.321  1.0849  0.1325  0.9135
  555TMC3    C1 8283   2.907   4.298  14.597 -0.3241 -0.7022 -0.1809
  555TMC3    C2 8284   2.858   4.412  14.648  0.6785  0.8738 -0.3004
  555TMC3    C3 8285   2.851   4.414  14.782 -0.1438 -0.0506  0.1329
  555TMC3    C4 8286   2.921   4.182  14.668 -0.1125  0.2569 -0.0096
  555TMC3    C5 8287   2.894   4.182  14.801 -0.5865 -0.3558 -0.9203
  555TMC3    C6 8288   2.860   4.303  14.857 -0.3989 -0.6853  0.2166
  555TMC3     C 8289   2.909   4.283  14.456 -0.6685  0.1075 -0.4575
  555TMC3     O 8290   3.012   4.245  14.406 -0.5826 -0.7601 -0.0907
  555TMC3     H 8291   2.831   4.494  14.582 -3.0476 -0.4615 -0.4136
  555TMC3    H1 8292   2.963   4.095  14.618 -0.7163 -1.5445  2.5938
  555TMC3    H2 8293   2.845   4.311  14.964 -0.8809  2.4486 -0.0948
  555TMC3    C7 8294   2.889   4.061  14.891  0.2765  0.2685  0.5764
  555TMC3    C8 8295   2.895   4.529  14.852 -0.2691  0.6443 -0.2264
  555TMC3    O1 8296   2.807   4.059  14.981  0.2568 -0.1230 -0.1736
  555TMC3    O2 8297   2.859   4.639  14.804 -0.3705  0.1253  0.4553
  556MPD2     C 8298   0.345   1.346  10.602  0.0050  0.2488 -0.3021
  556MPD2    C1 8299   0.451   1.309  10.683 -0.0100 -0.7973  0.7789
  556MPD2    C2 8300   0.567   1.256  10.629  0.4600 -0.4241 -0.2089
  556MPD2    C3 8301   0.559   1.219  10.493  1.0533 -0.8646 -0.5014
  556MPD2    C4 8302   0.451   1.259  10.410  1.3615  0.5747  0.4023
  556MPD2    C5 8303   0.346   1.333  10.463 -1.1609  0.1711  0.0570
  556MPD2     H 8304   0.646   1.230  10.697 -0.5439 -2.0479  0.3163
  556MPD2    H1 8305   0.454   1.239  10.303  1.0053 -1.2810  0.7364
  556MPD2    H2 8306   0.258   1.396  10.641  0.1300 -0.9668  1.5104
  556MPD2    H3 8307   0.269   1.352  10.389 -1.0914  0.1351 -0.0242
  556MPD2     N 8308   0.672   1.141  10.456  0.2590  0.7765 -0.4321
  556MPD2    H5 8309   0.756   1.139  10.513 -0.2868 -1.1288  0.2997
  556MPD2    N1 8310   0.449   1.332  10.829  0.4340  0.4348  0.1840
  556MPD2    H7 8311   0.532   1.305  10.879 -0.5898 -2.7238  0.1627
  557TMC3    C1 8312   0.770   0.957  10.338  0.2082 -0.7740 -0.0865
  557TMC3    C2 8313   0.783   0.883  10.225 -0.1000  0.1522 -0.6563
  557TMC3    C3 8314   0.825   0.755  10.239 -0.1644 -0.2906 -0.0961
  557TMC3    C4 8315   0.810   0.911  10.460  0.1661 -0.5563 -0.2657
  557TMC3    C5 8316   0.855   0.783  10.473  0.2567  0.0726  0.0535
  557TMC3    C6 8317   0.866   0.701  10.363 -1.4862  0.5735 -0.7942
  557TMC3     C 8318   0.672   1.065  10.342  0.0007 -0.1201 -0.4630
  557TMC3     O 8319   0.599   1.066  10.247  0.6153 -0.1637 -0.2614
  557TMC3     H 8320   0.730   0.914  10.136  1.6993 -0.5436 -1.9603
  557TMC3    H1 8321   0.773   0.963  10.547  0.0854 -0.3325 -0.4338
  557TMC3    H2 8322   0.896   0.597  10.370 -2.9485  0.3360  2.2806
  557TMC3    C7 8323   0.810   0.712  10.599  0.7766  0.0334 -0.0812
  557TMC3    C8 8324   0.823   0.676  10.115  0.3438 -1.1346 -0.1883
  557TMC3    O1 8325   0.751   0.769  10.684 -0.3059 -0.0352 -0.3985
  557TMC3    O2 8326   0.833   0.737  10.012 -0.0240  0.3335 -0.2513
  558TMC3    C1 8327   2.999   3.499  10.274  0.6093  1.0888  0.4014
  558TMC3    C2 8328   2.884   3.542  10.316  0.2669 -0.1001 -0.0541
  558TMC3    C3 8329   2.770   3.480  10.269  0.4693 -0.1040 -0.4495
  558TMC3    C4 8330   3.013   3.414  10.165  0.2377  0.2593  0.2196
  558TMC3    C5 8331   2.897   3.361  10.113  0.0930  0.5483 -0.4595
  558TMC3    C6 8332   2.775   3.385  10.167 -0.2214  0.2956  0.2087
  558TMC3     C 8333   3.117   3.568  10.314 -0.0728  0.1946 -0.5577
  558TMC3     O 8334   3.206   3.569  10.228 -0.6360  0.0554 -0.2656
  558TMC3     H 8335   2.877   3.629  10.381 -0.5007  1.7897 -2.6661
  558TMC3    H1 8336   3.110   3.385  10.125 -0.9490  1.0095 -3.1953
  558TMC3    H2 8337   2.683   3.349  10.122  0.1167  0.0571 -0.2936
  558TMC3    C7 8338   2.909   3.284   9.984 -0.5106  0.0300  0.4140
  558TMC3    C8 8339   2.650   3.520  10.337 -0.3853  0.4758  0.9162
  558TMC3    O1 8340   3.027   3.263   9.960 -0.0878  0.3804  0.0704
  558TMC3    O2 8341   2.557   3.494  10.270 -0.2125 -0.3087  0.3580
  559MPD2     C 8342   3.221   4.260  10.571 -0.5421  0.2225 -0.4787
  559MPD2    C1 8343   3.119   4.241  10.658 -0.4302 -0.1432  0.1818
  559MPD2    C2 8344   3.156   4.226  10.789 -0.2395 -0.1595 -0.9094
  559MPD2    C3 8345   3.284   4.235  10.833  0.7126  0.8599  0.3621
  559MPD2    C4 8346   3.383   4.253  10.744 -0.5678 -0.8391  0.9961
  559MPD2    C5 8347   3.354   4.258  10.609  0.5507 -0.2072 -0.0068
  559MPD2     H 8348   3.069   4.215  10.854  0.9326 -0.1968  0.6644
  559MPD2    H1 8349   3.486   4.247  10.777 -0.5180  1.4256  1.1988
  559MPD2    H2 8350   3.198   4.283  10.468  1.4314  4.0772 -0.0626
  559MPD2    H3 8351   3.436   4.260  10.539  0.8503  0.8086  0.3891
  559MPD2     N 8352   3.305   4.231  10.975 -0.1380 -0.3120 -1.0446
  559MPD2    H5 8353   3.226   4.195  11.027 -0.6825  0.5144 -1.3030
  559MPD2    N1 8354   2.985   4.249  10.630 -0.3397  0.1163  0.7270
  559MPD2    H7 8355   2.918   4.264  10.705  0.9147 -0.2477  1.9180
  560TMC3    C1 8356   3.401   4.221  11.180 -0.5126 -0.3588  0.4239
  560TMC3    C2 8357   3.298   4.138  11.217  0.2281  0.2235 -0.4316
  560TMC3    C3 8358   3.286   4.101  11.349 -0.5784 -0.2191 -0.0282
  560TMC3    C4 8359   3.487   4.267  11.278 -0.1630 -0.0472  0.0765
  560TMC3    C5 8360   3.471   4.229  11.408 -0.6273  0.1402 -0.2295
  560TMC3    C6 8361   3.363   4.148  11.445  0.1616 -0.0216  0.3908
  560TMC3     C 8362   3.417   4.261  11.040 -0.2713 -0.2849 -0.7837
  560TMC3     O 8363   3.520   4.319  11.011  0.0898  0.1466  0.5580
  560TMC3     H 8364   3.237   4.086  11.144 -0.9682  2.6321 -1.1500
  560TMC3    H1 8365   3.558   4.339  11.239 -0.3165  0.9417  1.6275
  560TMC3    H2 8366   3.354   4.134  11.552  0.8151  0.6789  0.5362
  560TMC3    C7 8367   3.560   4.287  11.512 -0.2351  0.7948 -0.2725
  560TMC3    C8 8368   3.197   3.985  11.375 -0.1595 -0.1770  0.0749
  560TMC3    O1 8369   3.532   4.257  11.630 -0.2730 -0.1200  0.2124
  560TMC3    O2 8370   3.102   3.962  11.298  0.1725  0.3465 -0.3518
  561TMC3    C1 8371   1.057   3.209  11.023 -0.4124 -0.2420  0.2345
  561TMC3    C2 8372   0.971   3.133  11.097  0.1536 -0.4157  0.0045
  561TMC3    C3 8373   0.927   3.183  11.215 -0.1698  0.2358  0.2732
  561TMC3    C4 8374   1.101   3.333  11.057  0.2240 -0.4171  0.0214
  561TMC3    C5 8375   1.056   3.386  11.179  0.9534 -0.4878 -0.1530
  561TMC3    C6 8376   0.962   3.316  11.254 -0.5593 -0.6946 -0.0083
  561TMC3     C 8377   1.066   3.170  10.882  0.0941  0.0303  0.8137
  561TMC3     O 8378   0.974   3.101  10.836 -0.4927  0.3239  0.0322
  561TMC3     H 8379   0.938   3.041  11.049  0.3505 -1.0262  1.0612
  561TMC3    H1 8380   1.148   3.391  10.979 -0.0942 -0.7937 -0.4434
  561TMC3    H2 8381   0.921   3.357  11.345 -1.2870  1.9684 -1.5252
  561TMC3    C7 8382   1.065   3.529  11.182 -0.1522 -0.7446 -0.8407
  561TMC3    C8 8383   0.809   3.129  11.275 -0.1091  0.1492 -0.6578
  561TMC3    O1 8384   0.963   3.592  11.204 -0.6588  0.1758  0.5598
  561TMC3    O2 8385   0.750   3.049  11.204  0.1218  0.0888 -0.2364
  562TMC3    C1 8386   2.715   4.586  15.965  0.3256  0.0771  0.3196
  562TMC3    C2 8387   2.661   4.712  15.943  0.3366  0.3561  0.4718
  562TMC3    C3 8388   2.648   0.006  15.811  0.0658  0.4124 -0.0453
  562TMC3    C4 8389   2.743   4.494  15.870  0.8741 -0.2209  0.0034
  562TMC3    C5 8390   2.717   4.524  15.741  0.1035 -0.1317 -0.9598
  562TMC3    C6 8391   2.676   4.656  15.708  0.3496  0.1320 -0.0702
  562TMC3     C 8392   2.724   4.545  16.103  0.5970  0.7159 -0.5504
  562TMC3     O 8393   2.815   4.467  16.133 -0.0047 -0.0896  0.8436
  562TMC3     H 8394   2.635   0.031  16.029  0.3739  1.4951 -0.3109
  562TMC3    H1 8395   2.779   4.401  15.913  0.4957 -0.9667 -1.2809
  562TMC3    H2 8396   2.657   4.675  15.603 -3.0211  3.8914  1.2138
  562TMC3    C7 8397   2.768   4.445  15.626 -0.0165  0.5463  0.5282
  562TMC3    C8 8398   2.598   0.139  15.780 -0.1068  0.0939 -0.1541
  562TMC3    O1 8399   2.727   4.464  15.510 -0.7311 -0.3480  0.0790
  562TMC3    O2 8400   2.624   0.229  15.854  0.2766  0.4621  0.3537
  563MPD2     C 8401   0.449   0.932  15.320 -0.1876 -0.3817  0.3643
  563MPD2    C1 8402   0.469   1.047  15.392  0.0164 -0.2723 -0.0692
  563MPD2    C2 8403   0.576   1.064  15.474 -0.7727  0.0986  0.4870
  563MPD2    C3 8404   0.669   0.966  15.472 -0.0368 -0.5022  0.5333
  563MPD2    C4 8405   0.660   0.861  15.387  0.4243 -0.6402  0.7643
  563MPD2    C5 8406   0.548   0.844  15.304 -0.4780 -0.1859  0.2337
  563MPD2     H 8407   0.585   1.144  15.547  2.1197  1.0784 -0.9311
  563MPD2    H1 8408   0.718   0.770  15.392  1.2093 -0.1164  1.2905
  563MPD2    H2 8409   0.358   0.908  15.267  0.6538 -1.8223 -0.4110
  563MPD2    H3 8410   0.522   0.748  15.261  0.2358 -0.3016  0.0527
  563MPD2     N 8411   0.774   0.979  15.564 -0.1453 -0.0649 -0.3721
  563MPD2    H5 8412   0.763   1.054  15.631 -0.4474 -0.6031  0.1786
  563MPD2    N1 8413   0.362   1.141  15.402 -0.0985 -0.4275  0.1205
  563MPD2    H7 8414   0.271   1.102  15.379 -0.4257  1.3436 -1.5953
  564TMC3    C1 8415   0.298   1.281  15.576  0.4643  0.6005 -0.2066
  564TMC3    C2 8416   0.164   1.244  15.581  0.0367  0.4057 -0.5218
  564TMC3    C3 8417   0.093   1.282  15.698  0.4381 -0.7162  0.1741
  564TMC3    C4 8418   0.369   1.337  15.679 -0.1174 -0.1854  0.8668
  564TMC3    C5 8419   0.301   1.354  15.798 -0.1016  0.1878 -0.1123
  564TMC3    C6 8420   0.163   1.323  15.810  0.2124 -0.0281  0.6948
  564TMC3     C 8421   0.374   1.270  15.455  0.0171  0.3985  0.0741
  564TMC3     O 8422   0.470   1.344  15.432  0.9098 -0.2517  0.3825
  564TMC3     H 8423   0.110   1.193  15.502 -1.6454 -0.1782  1.0185
  564TMC3    H1 8424   0.473   1.356  15.659 -0.2790  0.1681  0.3593
  564TMC3    H2 8425   0.113   1.341  15.904  0.5693 -0.1438  0.9058
  564TMC3    C7 8426   0.372   1.270  15.892  0.7372 -0.5523  0.1369
  564TMC3    C8 8427   4.724   1.189  15.742  0.4481  0.6208  0.1374
  564TMC3    O1 8428   0.494   1.286  15.903  0.0959 -0.2368  0.1811
  564TMC3    O2 8429   4.731   1.158  15.855 -0.3573 -0.7297  0.1720
  565TMC3    C1 8430   0.176   2.729  10.063  0.6049 -0.1649  0.7318
  565TMC3    C2 8431   0.159   2.638  10.165  0.0130  0.1831  0.3582
  565TMC3    C3 8432   0.089   2.532  10.122  0.2594  0.4819 -0.1845
  565TMC3    C4 8433   0.132   2.720   9.939 -0.2202 -0.0618 -0.0293
  565TMC3    C5 8434   0.059   2.609   9.903 -0.2571 -0.4207 -0.3594
  565TMC3    C6 8435   0.046   2.511   9.997  0.6831  0.3635  0.0765
  565TMC3     C 8436   0.264   2.848  10.097 -0.8696 -0.3885 -0.2462
  565TMC3     O 8437   0.326   2.897  10.005  0.2345 -0.0317  0.6491
  565TMC3     H 8438   0.235   2.630  10.241 -1.3508  0.8046  1.7810
  565TMC3    H1 8439   0.145   2.804   9.873 -4.1656  1.3494  0.9887
  565TMC3    H2 8440   4.720   2.431   9.965  0.4143  0.5976  0.0562
  565TMC3    C7 8441   0.008   2.582   9.770  0.1144 -0.4566 -0.5394
  565TMC3    C8 8442   0.053   2.437  10.230 -0.1233  0.3366  0.1487
  565TMC3    O1 8443   4.668   2.494   9.758 -0.1911  0.3392 -0.0070
  565TMC3    O2 8444   0.119   2.445  10.333  0.0930 -0.0586  0.3156
  566MPD2     C 8445   2.080   4.119  14.096  0.2189 -0.0654 -0.3147
  566MPD2    C1 8446   2.128   4.068  13.975  0.3384 -0.0474  0.0760
  566MPD2    C2 8447   2.041   4.029  13.879 -0.2630 -0.2284 -0.3794
  566MPD2    C3 8448   1.907   4.050  13.894  0.8176  0.0402 -0.7380
  566MPD2    C4 8449   1.868   4.129  13.999 -0.0895  0.6235  0.4757
  566MPD2    C5 8450   1.949   4.154  14.105 -0.2005 -0.6615 -0.2049
  566MPD2     H 8451   2.081   3.975  13.794  1.8804 -0.5113  0.8202
  566MPD2    H1 8452   1.764   4.157  14.015  0.0864  1.5256  0.0321
  566MPD2    H2 8453   2.135   4.128  14.189 -0.4830  1.4600 -0.0387
  566MPD2    H3 8454   1.904   4.204  14.190 -0.9752  1.2629 -1.7598
  566MPD2     N 8455   1.803   4.009  13.805 -0.4745  0.1074  0.0064
  566MPD2    H5 8456   1.714   4.009  13.854 -1.1074  1.3747 -1.1551
  566MPD2    N1 8457   2.270   4.039  13.975  0.2351  0.0848  0.3211
  566MPD2    H7 8458   2.315   4.088  14.051  0.6849  2.4134 -1.4473
  567TMC3    C1 8459   2.485   3.980  13.911  0.3077  0.4527 -0.6746
  567TMC3    C2 8460   2.570   3.994  13.803  0.8058 -0.1347 -0.0722
  567TMC3    C3 8461   2.703   4.038  13.829 -0.1726  0.2424 -0.0834
  567TMC3    C4 8462   2.527   3.969  14.036 -0.4223 -0.3363 -0.0488
  567TMC3    C5 8463   2.662   3.984  14.050  0.8222  1.3229 -0.4291
  567TMC3    C6 8464   2.756   4.025  13.960 -0.5838 -0.3693  0.0166
  567TMC3     C 8465   2.342   3.969  13.880 -0.5917 -0.5089  0.1575
  567TMC3     O 8466   2.306   3.937  13.768  0.3853 -0.0497 -0.3707
  567TMC3     H 8467   2.528   3.971  13.706  0.6583 -0.6337  0.1086
  567TMC3    H1 8468   2.462   3.938  14.117 -1.9363 -1.2534 -1.6103
  567TMC3    H2 8469   2.858   4.056  13.979 -0.7546 -0.3796  0.9440
  567TMC3    C7 8470   2.725   3.955  14.185  0.0041 -0.2001 -0.0331
  567TMC3    C8 8471   2.763   4.110  13.717  0.0108  0.3651 -0.7553
  567TMC3    O1 8472   2.840   3.923  14.182  0.2584 -0.3242 -0.0916
  567TMC3    O2 8473   2.686   4.151  13.633  0.5314  0.9049  0.3706
  568MPD2     C 8474   4.300   0.128  16.611  0.2442 -0.1918  1.1963
  568MPD2    C1 8475   4.418   0.150  16.545 -0.0014 -0.5830 -0.1363
  568MPD2    C2 8476   4.409   0.257  16.460  0.9504  0.1002  0.4154
  568MPD2    C3 8477   4.299   0.335  16.453 -0.2617  0.1178 -0.7462
  568MPD2    C4 8478   4.182   0.303  16.512  0.0481 -0.8656  0.6736
  568MPD2    C5 8479   4.187   0.197  16.588 -0.4463 -0.2692 -0.3099
  568MPD2     H 8480   4.499   0.292  16.412 -0.1480  0.8091 -1.1396
  568MPD2    H1 8481   4.087   0.354  16.500 -1.1049 -3.2206 -0.1853
  568MPD2    H2 8482   4.300   0.045  16.681 -0.9077 -0.4419  0.8964
  568MPD2    H3 8483   4.098   0.161  16.638  0.0820  0.6293  1.2929
  568MPD2     N 8484   4.318   0.461  16.382  0.2383 -0.5586  0.3332
  568MPD2    H5 8485   4.409   0.482  16.342  1.3894 -2.3907  2.0057
  568MPD2    N1 8486   4.528   0.072  16.574  0.4213 -0.0367 -0.3714
  568MPD2    H7 8487   4.520   0.008  16.652  0.1637  0.1342 -0.2560
  569TMC3    C1 8488   4.265   0.681  16.326 -0.0586  0.3314  0.2060
  569TMC3    C2 8489   4.368   0.743  16.390 -0.2944  0.5972 -0.5420
  569TMC3    C3 8490   4.420   0.858  16.338  0.2962 -0.6164 -0.0641
  569TMC3    C4 8491   4.206   0.731  16.219  0.8051 -0.6020 -0.1920
  569TMC3    C5 8492   4.256   0.846  16.166 -0.5295  0.0023  0.1645
  569TMC3    C6 8493   4.365   0.912  16.221  0.0884  0.2716 -0.0402
  569TMC3     C 8494   4.219   0.550  16.369  0.6211 -0.7277  0.2714
  569TMC3     O 8495   4.100   0.529  16.361 -0.2153  0.6392 -0.0950
  569TMC3     H 8496   4.411   0.689  16.474 -1.0359  0.8799  0.0158
  569TMC3    H1 8497   4.121   0.680  16.176 -0.9656 -1.0892  3.8544
  569TMC3    H2 8498   4.390   1.011  16.186  1.9727 -0.0842  0.2611
  569TMC3    C7 8499   4.243   0.850  16.018 -0.2959  0.2248  0.2865
  569TMC3    C8 8500   4.545   0.901  16.382 -0.9006  0.5503 -0.0483
  569TMC3    O1 8501   4.140   0.814  15.963  0.7463  0.2980  0.3836
  569TMC3    O2 8502   4.595   0.853  16.485 -0.1501 -0.1105 -0.1651
  570TMC3    C1 8503   4.110   3.410  16.056 -0.2961  0.4118 -0.1323
  570TMC3    C2 8504   4.180   3.431  15.943 -0.1825 -0.0317  0.1618
  570TMC3    C3 8505   4.257   3.543  15.941  0.3714 -0.2209  0.3683
  570TMC3    C4 8506   4.087   3.507  16.158 -0.4991 -0.0240 -0.0702
  570TMC3    C5 8507   4.169   3.619  16.151  0.2076  0.1818 -0.7752
  570TMC3    C6 8508   4.251   3.633  16.047 -0.5684 -0.5961  0.5462
  570TMC3     C 8509   4.037   3.290  16.068 -0.2525  0.4159  0.2063
  570TMC3     O 8510   3.966   3.262  15.973 -0.3548  0.6847 -0.6876
  570TMC3     H 8511   4.206   3.342  15.887 -0.6891  1.3331 -2.1982
  570TMC3    H1 8512   4.011   3.488  16.233  1.2318 -0.6087  1.5582
  570TMC3    H2 8513   4.310   3.724  16.041  0.5685 -1.3218  0.6194
  570TMC3    C7 8514   4.174   3.716  16.263  0.7787  0.0761 -0.5461
  570TMC3    C8 8515   4.324   3.586  15.818  0.8934  0.3314 -0.2591
  570TMC3    O1 8516   4.264   3.800  16.254 -0.1401 -0.0492 -0.3819
  570TMC3    O2 8517   4.400   3.681  15.832  0.3714 -0.2129 -0.8243
  571MPD2     C 8518   1.921   0.851   0.387  0.4391  0.4165  0.4190
  571MPD2    C1 8519   1.915   0.805   0.261  0.0410  0.1357 -0.2536
  571MPD2    C2 8520   1.881   0.891   0.162  0.0653  0.4453  0.1420
  571MPD2    C3 8521   1.853   1.025   0.185 -0.0666 -0.2621 -0.3892
  571MPD2    C4 8522   1.877   1.077   0.309 -0.1353  0.8381  0.0791
  571MPD2    C5 8523   1.913   0.986   0.411  0.4470  0.6066 -0.5266
  571MPD2     H 8524   1.884   0.854   0.060  0.8511  1.9886 -0.4037
  571MPD2    H1 8525   1.856   1.180   0.332  1.9218  1.2237  0.2530
  571MPD2    H2 8526   1.941   0.785   0.471  0.6398  1.6857  1.3659
  571MPD2    H3 8527   1.929   1.024   0.511  1.5736 -2.8606  0.6050
  571MPD2     N 8528   1.815   1.119   0.082  0.6289 -0.1979 -0.2221
  571MPD2    H5 8529   1.795   1.214   0.114  3.8672  0.4036 -0.0199
  571MPD2    N1 8530   1.940   0.665   0.238  0.3321 -0.1237  0.3665
  571MPD2    H7 8531   1.947   0.605   0.319 -0.6489 -0.5562  0.1331
  572TMC3    C1 8532   1.737   1.191  17.630  0.2047 -0.7978  0.7650
  572TMC3    C2 8533   1.620   1.146  17.570 -0.4259  0.4201 -0.0040
  572TMC3    C3 8534   1.511   1.227  17.568  0.6020 -0.1789 -0.2523
  572TMC3    C4 8535   1.742   1.323  17.667  0.3812 -0.1817 -0.0162
  572TMC3    C5 8536   1.630   1.400  17.662 -0.5702 -0.6418  0.2213
  572TMC3    C6 8537   1.514   1.360  17.608 -0.3873 -1.0596 -0.3194
  572TMC3     C 8538   1.785   1.084  17.712  0.4122  0.0356  0.0033
  572TMC3     O 8539   1.766   0.971  17.671 -0.0765  0.3161  0.1988
  572TMC3     H 8540   1.601   1.040  17.558  0.3774  0.3379 -0.5802
  572TMC3    H1 8541   1.839   1.351  17.707  0.2926  1.3153 -0.8566
  572TMC3    H2 8542   1.424   1.418  17.592  0.7855  0.8996  0.2211
  572TMC3    C7 8543   1.644   1.540  17.673  0.1588  0.2294  0.1641
  572TMC3    C8 8544   1.389   1.150  17.593 -0.5414  0.1716 -0.2546
  572TMC3    O1 8545   1.559   1.607  17.620  0.0891  0.0185 -0.5347
  572TMC3    O2 8546   1.348   1.082  17.503  0.2337 -0.6151 -0.1258
  573MPD2     C 8547   2.913   1.537   0.549  0.2642  0.1905 -0.7288
  573MPD2    C1 8548   2.792   1.592   0.510 -0.6959 -0.0817  0.0947
  573MPD2    C2 8549   2.705   1.509   0.435 -0.3439 -0.0452 -0.9249
  573MPD2    C3 8550   2.744   1.393   0.371 -0.1637 -0.8426 -0.0172
  573MPD2    C4 8551   2.869   1.342   0.419  0.1693  0.2598  0.1069
  573MPD2    C5 8552   2.946   1.411   0.504 -0.1614 -0.5620  0.0117
  573MPD2     H 8553   2.610   1.551   0.402  0.5505  2.8681  0.2680
  573MPD2    H1 8554   2.914   1.252   0.380  1.8639  1.6302 -1.0593
  573MPD2    H2 8555   2.977   1.587   0.620  1.9031 -2.8892 -0.0165
  573MPD2    H3 8556   3.040   1.377   0.545  0.7397  3.2629  1.1401
  573MPD2     N 8557   2.682   1.315   0.265  0.2523  0.5405 -1.0088
  573MPD2    H5 8558   2.743   1.240   0.235  0.1142 -0.0877  0.2536
  573MPD2    N1 8559   2.782   1.733   0.533 -0.0676 -0.4822 -0.3246
  573MPD2    H7 8560   2.854   1.781   0.585 -0.0131 -1.5909  0.6308
  574TMC3    C1 8561   2.526   1.240   0.104 -0.5338  0.4169 -0.1402
  574TMC3    C2 8562   2.448   1.294   0.007  0.0141 -0.1952  0.4044
  574TMC3    C3 8563   2.429   1.218  17.652 -0.1821 -0.4857  0.4104
  574TMC3    C4 8564   2.577   1.114   0.095  0.3140  0.2730 -0.5054
  574TMC3    C5 8565   2.555   1.043  17.737  0.0969  0.2768 -0.7482
  574TMC3    C6 8566   2.468   1.086  17.641  0.4521  0.1672 -0.5217
  574TMC3     C 8567   2.560   1.333   0.213  0.3443  0.1616 -0.0458
  574TMC3     O 8568   2.477   1.417   0.233 -0.0828 -0.2721 -0.8562
  574TMC3     H 8569   2.393   1.385   0.027 -1.3729 -0.8115 -0.5424
  574TMC3    H1 8570   2.658   1.082   0.160 -0.9102  1.1117  1.4586
  574TMC3    H2 8571   2.439   1.027  17.555  0.5909 -0.7193  0.0422
  574TMC3    C7 8572   2.613   0.919  17.719  1.1697 -0.6260  0.3043
  574TMC3    C8 8573   2.413   1.285  17.522  0.0650  0.5727  0.0009
  574TMC3    O1 8574   2.647   0.883  17.607 -0.3048  0.6153  0.1534
  574TMC3    O2 8575   2.431   1.224  17.414 -0.2049 -0.4353 -0.3428
  575TMC3    C1 8576   0.139   2.135  11.041  0.2417  0.5230  0.5179
  575TMC3    C2 8577   0.036   2.070  11.095  0.1958  0.9461  0.0848
  575TMC3    C3 8578   4.684   2.009  11.010  0.3951 -0.1178  0.5243
  575TMC3    C4 8579   0.136   2.167  10.908  0.3444  0.5997 -0.0664
  575TMC3    C5 8580   0.034   2.119  10.829  0.5818  0.2402 -0.2995
  575TMC3    C6 8581   4.685   2.029  10.873 -0.0081  0.4389 -0.2990
  575TMC3     C 8582   0.238   2.188  11.129 -0.6091 -0.4995  0.3310
  575TMC3     O 8583   0.208   2.198  11.250  0.4244  0.1208 -0.3086
  575TMC3     H 8584   0.028   2.057  11.202 -0.6193 -1.0308 -0.2157
  575TMC3    H1 8585   0.221   2.220  10.866  0.7118 -0.4088 -0.5854
  575TMC3    H2 8586   4.608   1.987  10.809 -0.2415 -1.8587  1.4882
  575TMC3    C7 8587   0.011   2.190  10.707 -0.0725  0.5821 -0.7231
  575TMC3    C8 8588   4.593   1.903  11.056  0.1406 -0.3312 -0.2679
  575TMC3    O1 8589   0.102   2.232  10.646 -0.5767 -0.1543  0.2137
  575TMC3    O2 8590   4.509   1.866  10.976  0.4467  0.0746 -0.1156
  576MPD2     C 8591   0.218   3.487  12.541  0.4295  0.0058  0.0814
  576MPD2    C1 8592   0.277   3.598  12.477  0.3752  0.0464 -0.7162
  576MPD2    C2 8593   0.300   3.711  12.550 -0.0480  0.4278 -0.3357
  576MPD2    C3 8594   0.272   3.713  12.685  0.4018 -1.2903  0.4607
  576MPD2    C4 8595   0.211   3.599  12.744  0.1039  0.0279  0.2157
  576MPD2    C5 8596   0.188   3.488  12.672  0.2167  0.1380 -0.7347
  576MPD2     H 8597   0.333   3.807  12.512 -2.6123  1.2902 -0.4056
  576MPD2    H1 8598   0.191   3.595  12.850 -3.8390  1.4722 -0.4975
  576MPD2    H2 8599   0.183   3.401  12.484 -0.4381 -0.8238  1.8827
  576MPD2    H3 8600   0.135   3.402  12.712  0.1157  0.5270 -0.0394
  576MPD2     N 8601   0.301   3.834  12.762 -0.2759  1.4610  0.1052
  576MPD2    H5 8602   0.368   3.896  12.718  0.8653  0.4661  0.4379
  576MPD2    N1 8603   0.306   3.609  12.334 -0.0610 -1.0263 -0.3466
  576MPD2    H7 8604   0.363   3.688  12.305 -1.0598  0.2323  1.1392
  577TMC3    C1 8605   0.314   3.519  12.114  0.0141  0.5826 -0.0820
  577TMC3    C2 8606   0.332   3.394  12.060  0.3298  0.1074 -0.2620
  577TMC3    C3 8607   0.377   3.400  11.935  0.3663  0.5377 -0.3290
  577TMC3    C4 8608   0.319   3.641  12.058  0.1937 -1.3462 -0.0423
  577TMC3    C5 8609   0.386   3.641  11.939  1.1541  0.6393 -0.4052
  577TMC3    C6 8610   0.418   3.521  11.879  0.6504 -0.0722  0.1810
  577TMC3     C 8611   0.294   3.500  12.259 -0.0817 -0.3982 -0.0272
  577TMC3     O 8612   0.236   3.396  12.284  0.3628 -0.5035  0.4918
  577TMC3     H 8613   0.331   3.295  12.104 -3.2428  1.0962  1.9211
  577TMC3    H1 8614   0.302   3.734  12.111 -0.0746 -0.8280 -1.0343
  577TMC3    H2 8615   0.464   3.529  11.782 -1.9643  0.3078 -1.0298
  577TMC3    C7 8616   0.395   3.760  11.855  1.1891  0.7162 -0.7573
  577TMC3    C8 8617   0.406   3.280  11.857  0.1900  0.1375 -0.1333
  577TMC3    O1 8618   0.481   3.767  11.765  0.2526  0.4988  0.2027
  577TMC3    O2 8619   0.342   3.179  11.899  0.3498  0.2515 -0.1064
  578MPD2     C 8620   3.132   4.287   0.584  0.2323 -0.1238  0.2668
  578MPD2    C1 8621   3.212   4.194   0.510  0.2669  0.7887  0.3155
  578MPD2    C2 8622   3.295   4.108   0.573  0.0127 -0.6970  0.3683
  578MPD2    C3 8623   3.289   4.101   0.707  0.0542 -0.0270 -0.0308
  578MPD2    C4 8624   3.209   4.186   0.780  0.0588 -0.1886 -0.0280
  578MPD2    C5 8625   3.136   4.287   0.725  0.3319  0.3547 -0.1831
  578MPD2     H 8626   3.371   4.052   0.521  1.2629  1.5795 -0.2324
  578MPD2    H1 8627   3.210   4.171   0.887  1.3392 -2.2895 -0.3312
  578MPD2    H2 8628   3.069   4.363   0.538  0.0369  1.3116  2.8995
  578MPD2    H3 8629   3.082   4.357   0.787  2.2925  0.6370  1.2051
  578MPD2     N 8630   3.392   4.016   0.766  0.0172 -0.1004  0.7783
  578MPD2    H5 8631   3.458   3.970   0.704 -0.3600 -0.2043  0.4556
  578MPD2    N1 8632   3.211   4.225   0.368 -0.3186 -0.1547  0.0127
  578MPD2    H7 8633   3.146   4.297   0.338 -0.6752 -0.0312  1.1049
  579TMC3    C1 8634   3.567   3.957   0.923  1.2642 -0.0636 -0.1347
  579TMC3    C2 8635   3.653   4.020   1.018 -0.0259 -0.4966  0.3370
  579TMC3    C3 8636   3.745   3.940   1.079 -0.5225  0.3852 -0.3990
  579TMC3    C4 8637   3.574   3.827   0.882 -0.3681  0.0287 -0.2779
  579TMC3    C5 8638   3.671   3.751   0.950  0.4863 -0.1341  1.3829
  579TMC3    C6 8639   3.749   3.805   1.048  0.2873  0.3095  0.4998
  579TMC3     C 8640   3.441   4.026   0.896  0.2223 -0.3220 -0.0922
  579TMC3     O 8641   3.398   4.097   0.988 -0.5032 -0.1349 -0.1727
  579TMC3     H 8642   3.645   4.124   1.049 -0.1522 -0.7990  1.3076
  579TMC3    H1 8643   3.501   3.780   0.817 -0.6607 -0.5724  0.4896
  579TMC3    H2 8644   3.814   3.741   1.107  0.3105  0.5985  0.7856
  579TMC3    C7 8645   3.713   3.619   0.904 -0.2395 -0.3981  0.4746
  579TMC3    C8 8646   3.843   4.005   1.154 -0.2445 -0.3597 -0.5202
  579TMC3    O1 8647   3.756   3.549   0.995 -0.7208  0.0989  0.1860
  579TMC3    O2 8648   3.809   4.101   1.220 -0.0505 -0.2738 -0.5344
  580TMC3    C1 8649   3.535   2.521  12.054  0.0991  0.1047 -0.1166
  580TMC3    C2 8650   3.610   2.599  11.972  0.1694  0.0601  0.1155
  580TMC3    C3 8651   3.616   2.560  11.838 -0.0609 -0.1282 -0.0945
  580TMC3    C4 8652   3.493   2.396  12.027  0.3114  0.6572 -0.0279
  580TMC3    C5 8653   3.505   2.359  11.894 -0.2073 -0.6787 -0.5501
  580TMC3    C6 8654   3.567   2.438  11.800  0.3071 -0.1355  0.4692
  580TMC3     C 8655   3.431   2.597  12.123  0.0931  0.5186 -0.6424
  580TMC3     O 8656   3.316   2.553  12.119  0.3353 -0.0878  0.3845
  580TMC3     H 8657   3.664   2.688  12.002  0.9440 -0.5420  0.4824
  580TMC3    H1 8658   3.441   2.344  12.107  0.5635  0.1138 -0.2134
  580TMC3    H2 8659   3.577   2.405  11.698 -1.3004  4.1245 -1.0427
  580TMC3    C7 8660   3.406   2.274  11.846 -0.0874  0.0525 -0.1399
  580TMC3    C8 8661   3.654   2.642  11.724  0.2962 -0.0420  0.6717
  580TMC3    O1 8662   3.403   2.250  11.726  0.3960 -0.2996  0.1741
  580TMC3    O2 8663   3.621   2.599  11.616  0.1207  0.5978 -0.4292
  581MPD2     C 8664   1.422   2.358  14.517  0.8600  0.6795 -0.2185
  581MPD2    C1 8665   1.326   2.282  14.583  1.2729 -0.1775  0.8293
  581MPD2    C2 8666   1.192   2.313  14.565 -0.7384  0.4737  0.2141
  581MPD2    C3 8667   1.155   2.423  14.483  0.9670 -0.2192 -0.8524
  581MPD2    C4 8668   1.247   2.502  14.420  0.6112 -0.6675 -0.2439
  581MPD2    C5 8669   1.381   2.463  14.436  0.0677  0.7206  0.6951
  581MPD2     H 8670   1.117   2.251  14.614  0.7395 -1.9068 -0.5324
  581MPD2    H1 8671   1.229   2.588  14.357  0.8896 -0.2324  0.2697
  581MPD2    H2 8672   1.527   2.335  14.529  0.2955 -0.5164  2.5181
  581MPD2    H3 8673   1.461   2.517  14.385  2.6364 -3.9952 -0.3094
  581MPD2     N 8674   1.016   2.460  14.485  0.3077 -0.1445  0.2448
  581MPD2    H5 8675   0.959   2.391  14.531 -0.9143 -0.8346 -2.3396
  581MPD2    N1 8676   1.370   2.190  14.673 -0.8156  0.1861  0.1672
  581MPD2    H7 8677   1.470   2.183  14.689 -0.3334  2.1646 -1.9787
  582TMC3    C1 8678   1.366   2.004  14.814 -0.3160  0.4460 -0.3605
  582TMC3    C2 8679   1.436   2.072  14.911  0.1682  0.0177 -0.5896
  582TMC3    C3 8680   1.434   2.013  15.031  0.9311  0.3263 -0.1422
  582TMC3    C4 8681   1.324   1.877  14.825  0.0806 -0.6204  0.2650
  582TMC3    C5 8682   1.321   1.825  14.954  1.0301  0.1115  0.1037
  582TMC3    C6 8683   1.387   1.888  15.056  0.1962  0.2402 -0.4820
  582TMC3     C 8684   1.289   2.088  14.728 -0.2336 -0.6613 -0.8146
  582TMC3     O 8685   1.170   2.060  14.718  0.0209 -0.4255  0.0788
  582TMC3     H 8686   1.454   2.179  14.906  1.3051 -0.0823  1.3461
  582TMC3    H1 8687   1.265   1.827  14.750  0.2311 -0.7578  0.2391
  582TMC3    H2 8688   1.361   1.845  15.152  0.2979 -0.9563 -0.9864
  582TMC3    C7 8689   1.180   1.793  14.986 -0.3718 -0.4380 -0.5783
  582TMC3    C8 8690   1.418   2.099  15.143 -0.2345  0.0788 -0.5377
  582TMC3    O1 8691   1.153   1.696  15.055 -0.2322 -0.3684  0.0245
  582TMC3    O2 8692   1.324   2.077  15.219 -0.7921  0.4027 -0.3081
  583MPD2     C 8693   1.319   3.961  16.823 -0.6513  0.2488 -0.5449
  583MPD2    C1 8694   1.342   4.073  16.753  0.2952 -0.1607  0.2489
  583MPD2    C2 8695   1.285   4.192  16.803  0.0807  0.0534 -0.7826
  583MPD2    C3 8696   1.216   4.193  16.924 -0.2738  0.4972 -0.3669
  583MPD2    C4 8697   1.186   4.076  16.985  0.2746 -0.3290 -0.5759
  583MPD2    C5 8698   1.241   3.965  16.935 -0.2873  0.5389  0.1137
  583MPD2     H 8699   1.310   4.286  16.756  1.9335  0.9884  2.0779
  583MPD2    H1 8700   1.137   4.069  17.082  0.4578 -0.0066 -0.4601
  583MPD2    H2 8701   1.367   3.869  16.793 -0.9341  0.3893 -1.4327
  583MPD2    H3 8702   1.229   3.875  16.994  0.9005  0.6852  0.5857
  583MPD2     N 8703   1.180   4.329  16.966  0.2208 -0.0722 -0.2580
  583MPD2    H5 8704   1.206   4.412  16.913  0.2266 -1.4428 -2.4053
  583MPD2    N1 8705   1.427   4.075  16.631 -0.0453 -0.3031  0.5723
  583MPD2    H7 8706   1.416   4.157  16.573  1.8030 -1.7294 -1.7796
  584TMC3    C1 8707   1.072   4.486  17.103  0.2736  0.2031  0.5020
  584TMC3    C2 8708   1.160   4.578  17.055 -0.3608  0.4356  0.3102
  584TMC3    C3 8709   1.138   4.707  17.099  0.3975 -0.6263 -0.0883
  584TMC3    C4 8710   0.976   4.513  17.196 -0.1534 -0.3008 -0.0593
  584TMC3    C5 8711   0.964   4.639  17.245 -0.1699 -0.0533  0.0564
  584TMC3    C6 8712   1.049   4.736  17.203  0.3587  0.6068  0.3218
  584TMC3     C 8713   1.095   4.343  17.072  0.2882 -0.5850 -0.4458
  584TMC3     O 8714   1.024   4.262  17.124  0.6162  0.1898  0.4620
  584TMC3     H 8715   1.235   4.567  16.978 -1.3551  1.8197 -0.8732
  584TMC3    H1 8716   0.897   4.441  17.218  0.2494  0.2483  3.1144
  584TMC3    H2 8717   1.031   0.096  17.239 -4.4831  0.5233 -1.8162
  584TMC3    C7 8718   0.879   4.651  17.365 -0.0855  0.6357 -0.1883
  584TMC3    C8 8719   1.190   0.073  17.018 -0.1869 -0.6727  0.2927
  584TMC3    O1 8720   0.834   4.546  17.415 -0.0417 -0.4030  0.2642
  584TMC3    O2 8721   1.203   0.048  16.896 -0.3392  0.3445  0.4841
  585MPD2     C 8722   0.474   3.392   0.522  0.4409  0.5640  0.0403
  585MPD2    C1 8723   0.465   3.398   0.385  0.6645  1.0947  0.1734
  585MPD2    C2 8724   0.475   3.285   0.312  0.4826 -0.2944 -0.0841
  585MPD2    C3 8725   0.458   3.162   0.370  0.2636  0.3434 -0.1124
  585MPD2    C4 8726   0.463   3.159   0.509 -0.4458 -0.4335  0.5007
  585MPD2    C5 8727   0.469   3.269   0.581 -0.7941  0.5226 -0.0439
  585MPD2     H 8728   0.469   3.301   0.206  0.3075 -2.8490 -0.4645
  585MPD2    H1 8729   0.458   3.060   0.552 -0.1006 -0.1171  1.2529
  585MPD2    H2 8730   0.496   3.479   0.583 -1.5059  0.2416  1.2174
  585MPD2    H3 8731   0.493   3.263   0.687  2.4456 -1.0969 -0.8663
  585MPD2     N 8732   0.427   3.040   0.305  0.0322 -0.2509 -0.5460
  585MPD2    H5 8733   0.432   2.955   0.359  1.2014 -0.1576 -0.5144
  585MPD2    N1 8734   0.468   3.526   0.324  0.3665 -0.2864 -0.1075
  585MPD2    H7 8735   0.453   3.607   0.384 -1.4944 -1.9983  1.7396
  586TMC3    C1 8736   0.358   2.897   0.120 -0.1102  0.3971  0.0900
  586TMC3    C2 8737   0.321   2.791   0.209  0.0592  0.3473 -0.5404
  586TMC3    C3 8738   0.273   2.679   0.160  0.3296 -0.0521  0.2618
  586TMC3    C4 8739   0.331   2.892  17.745 -0.0576  0.7005 -0.1083
  586TMC3    C5 8740   0.278   2.775  17.704  0.1378 -0.7345 -0.1203
  586TMC3    C6 8741   0.249   2.669   0.024  0.2276 -0.6076 -0.0340
  586TMC3     C 8742   0.391   3.034   0.170  0.6201 -0.7847  0.7328
  586TMC3     O 8743   0.407   3.122   0.088  0.9986  0.0205 -0.3637
  586TMC3     H 8744   0.342   2.788   0.315  0.3825 -1.8584 -0.6696
  586TMC3    H1 8745   0.376   2.964  17.678  2.2758  1.5118  2.3553
  586TMC3    H2 8746   0.211   2.576  17.741  0.6831 -1.2205  0.9070
  586TMC3    C7 8747   0.221   2.764  17.572 -0.2488  0.2663  0.2083
  586TMC3    C8 8748   0.281   2.550   0.224  0.3469  0.6351  0.2478
  586TMC3    O1 8749   0.164   2.660  17.549 -0.2369 -0.3413 -0.4965
  586TMC3    O2 8750   0.238   2.455   0.161  0.2272 -0.5520 -1.1710
  587TMC3    C1 8751   2.523   2.046  16.213 -0.2394 -0.6613  0.7647
  587TMC3    C2 8752   2.588   2.155  16.155 -0.5874 -0.9041  0.4303
  587TMC3    C3 8753   2.634   2.252  16.238 -0.4100 -0.0139  0.3593
  587TMC3    C4 8754   2.512   2.030  16.350  0.0556  0.2021  0.0921
  587TMC3    C5 8755   2.568   2.125  16.430 -0.5684  0.0505  0.6942
  587TMC3    C6 8756   2.636   2.229  16.373  0.1566 -0.0485  0.0325
  587TMC3     C 8757   2.438   1.971  16.116 -0.4158  0.0112  0.9934
  587TMC3     O 8758   2.369   2.034  16.033 -0.1136 -0.8573  0.9182
  587TMC3     H 8759   2.591   2.168  16.047  1.0032  1.1947  0.7420
  587TMC3    H1 8760   2.472   1.940  16.395 -0.4762 -0.7432 -2.2736
  587TMC3    H2 8761   2.689   2.300  16.436 -1.2325 -0.4319  1.6485
  587TMC3    C7 8762   2.586   2.079  16.561  0.1725 -0.0376 -0.3935
  587TMC3    C8 8763   2.606   2.389  16.180 -0.3945 -0.6111 -0.5193
  587TMC3    O1 8764   2.551   1.965  16.595  0.8156  0.1481  0.3456
  587TMC3    O2 8765   2.595   2.404  16.059 -0.5698  0.5978 -0.5658
  588TMC3    C1 8766   0.049   4.334   9.876  0.1238 -0.2235 -0.3646
  588TMC3    C2 8767   0.014   4.202   9.876  0.7441  0.1238  0.2431
  588TMC3    C3 8768   0.100   4.117   9.942  0.1762 -0.0360 -0.0824
  588TMC3    C4 8769   0.169   4.380   9.930  0.0327 -0.3610 -0.1845
  588TMC3    C5 8770   0.249   4.290   9.997 -0.5110 -0.6663  0.0440
  588TMC3    C6 8771   0.212   4.160  10.008 -0.5432  0.2708  0.5710
  588TMC3     C 8772   4.675   4.423   9.871  0.2579 -0.1896  0.0284
  588TMC3     O 8773   4.584   4.404   9.789 -0.0756 -0.5022  0.2496
  588TMC3     H 8774   4.663   4.172   9.828  0.9870 -1.8178  1.0005
  588TMC3    H1 8775   0.208   4.476   9.899  0.2448 -0.0443  1.0671
  588TMC3    H2 8776   0.258   4.100  10.086 -2.7887 -1.9877  0.1438
  588TMC3    C7 8777   0.314   4.350  10.111 -0.2938 -0.9526  0.1564
  588TMC3    C8 8778   0.068   3.969   9.939  0.1825  0.3165  0.8098
  588TMC3    O1 8779   0.338   4.269  10.200  0.2585 -0.0754 -0.0664
  588TMC3    O2 8780   4.721   3.939   9.855 -0.1459  0.0786 -0.0497
  589TMC3    C1 8781   3.642   2.215   0.708  0.3862 -0.0898 -0.1848
  589TMC3    C2 8782   3.663   2.279   0.831 -0.4008 -0.8445  0.2606
  589TMC3    C3 8783   3.730   2.218   0.931  0.4409 -0.6104  0.8619
  589TMC3    C4 8784   3.688   2.087   0.694 -0.1049  0.1010 -0.9584
  589TMC3    C5 8785   3.775   2.044   0.788  0.3310  0.8017  0.3941
  589TMC3    C6 8786   3.796   2.104   0.905  0.3639  0.2838  0.0262
  589TMC3     C 8787   3.528   2.262   0.630  0.8602  0.2173  0.4417
  589TMC3     O 8788   3.463   2.183   0.564  0.1936  0.2136  0.3052
  589TMC3     H 8789   3.597   2.362   0.852 -0.1470 -0.4871 -0.3535
  589TMC3    H1 8790   3.691   2.045   0.594  0.1618  1.3479 -1.4644
  589TMC3    H2 8791   3.864   2.061   0.978  0.6984 -1.6406 -1.4293
  589TMC3    C7 8792   3.824   1.916   0.762 -0.2797  0.1713  0.1360
  589TMC3    C8 8793   3.778   2.302   1.041 -0.1101 -0.1807 -0.6487
  589TMC3    O1 8794   3.763   1.835   0.694  0.1171  0.0076  0.0757
  589TMC3    O2 8795   3.709   2.400   1.067  0.2083  0.3191  0.5920
  590MPD2     C 8796   3.734   4.589  16.447  0.4528  0.6294 -0.2198
  590MPD2    C1 8797   3.657   4.641  16.344 -0.6516 -0.0413  0.2765
  590MPD2    C2 8798   3.715   4.739  16.261  0.4760 -0.3627 -0.8273
  590MPD2    C3 8799   3.844   0.047  16.280 -0.1636  0.2325  0.3896
  590MPD2    C4 8800   3.925   4.729  16.378 -0.3269 -0.1540  1.0441
  590MPD2    C5 8801   3.864   4.636  16.464 -0.2012 -0.6411 -0.0523
  590MPD2     H 8802   3.653   0.062  16.198  0.3426  0.1972 -0.1339
  590MPD2    H1 8803   4.025   0.019  16.407  0.6267 -0.1832 -2.3118
  590MPD2    H2 8804   3.694   4.519  16.519  3.1787  1.3016  1.9327
  590MPD2    H3 8805   3.913   4.595  16.552  0.4742 -0.4828 -0.3500
  590MPD2     N 8806   3.890   0.158  16.210  0.3402  0.0897 -0.7343
  590MPD2    H5 8807   3.826   0.203  16.145 -1.5785  0.1298  1.1740
  590MPD2    N1 8808   3.531   4.591  16.324 -0.4894  0.1512 -0.1299
  590MPD2    H7 8809   3.493   4.527  16.393  3.3482 -1.8419  0.1747
  591TMC3    C1 8810   4.042   0.307  16.111 -0.0634 -0.2624  0.4256
  591TMC3    C2 8811   4.171   0.329  16.081  0.0873  0.9716 -0.3714
  591TMC3    C3 8812   4.190   0.433  15.996  0.1849  0.0211  0.3674
  591TMC3    C4 8813   3.938   0.370  16.053 -0.0985 -0.4597 -0.9818
  591TMC3    C5 8814   3.961   0.485  15.976 -1.0622  0.2324 -0.5882
  591TMC3    C6 8815   4.091   0.517  15.952 -0.0751  0.0941 -0.7146
  591TMC3     C 8816   4.022   0.197  16.196 -0.1441  0.2586 -0.4277
  591TMC3     O 8817   4.122   0.156  16.246 -0.5832  0.1997  0.5398
  591TMC3     H 8818   4.255   0.277  16.125 -1.3453 -0.8202  0.2708
  591TMC3    H1 8819   3.837   0.362  16.093 -0.0678  1.6416 -0.5143
  591TMC3    H2 8820   4.121   0.595  15.882  0.3549 -0.1325 -0.7852
  591TMC3    C7 8821   3.859   0.541  15.891  0.5731  0.1133  0.3548
  591TMC3    C8 8822   4.313   0.430  15.924 -0.1229  0.0664 -0.2614
  591TMC3    O1 8823   3.777   0.461  15.844  0.2467 -0.0466  0.4067
  591TMC3    O2 8824   4.365   0.321  15.904 -0.1045 -0.5605  0.5582
  592MPD2     C 8825   3.730   2.224  11.441  0.3001 -0.6374 -0.0020
  592MPD2    C1 8826   3.781   2.229  11.572  0.4571  0.1165  0.1142
  592MPD2    C2 8827   3.741   2.129  11.659  0.0046  0.1466  0.8278
  592MPD2    C3 8828   3.647   2.027  11.630 -0.0255  0.0512  0.3442
  592MPD2    C4 8829   3.600   2.031  11.499  0.4582  0.1352  0.0729
  592MPD2    C5 8830   3.634   2.130  11.411 -0.0938 -0.9085 -0.4519
  592MPD2     H 8831   3.782   2.131  11.759  0.5625  2.2939  0.5675
  592MPD2    H1 8832   3.530   1.956  11.463  0.5877  0.5018 -0.9379
  592MPD2    H2 8833   3.765   2.298  11.370  2.3730 -0.9406  0.6843
  592MPD2    H3 8834   3.597   2.125  11.310  2.3548 -1.6284 -1.2910
  592MPD2     N 8835   3.605   1.939  11.728  0.5739 -0.5700 -0.2538
  592MPD2    H5 8836   3.639   1.960  11.821  0.0034  1.5777 -0.5272
  592MPD2    N1 8837   3.864   2.336  11.608 -0.0843  0.0547  0.2716
  592MPD2    H7 8838   3.895   2.401  11.537 -2.2578 -1.5588 -2.1534
  593TMC3    C1 8839   3.989   2.490  11.731 -0.1302  0.2005 -0.1609
  593TMC3    C2 8840   4.004   2.550  11.851  0.7967 -0.0101  0.2123
  593TMC3    C3 8841   4.084   2.666  11.859 -0.2583 -0.4968 -0.5479
  593TMC3    C4 8842   4.031   2.549  11.614 -0.6618 -0.4701  0.6484
  593TMC3    C5 8843   4.096   2.663  11.628  0.0994 -0.3938 -0.4399
  593TMC3    C6 8844   4.137   2.717  11.745  0.1455  0.2475  0.6571
  593TMC3     C 8845   3.910   2.365  11.732 -0.3958 -0.0882 -0.2628
  593TMC3     O 8846   3.877   2.312  11.840 -0.4008  0.0404  0.1689
  593TMC3     H 8847   3.953   2.515  11.939  0.9129  0.8939  0.6379
  593TMC3    H1 8848   4.022   2.508  11.514  1.4380  0.3145  0.1402
  593TMC3    H2 8849   4.185   2.814  11.738 -0.8220  0.4008 -3.5596
  593TMC3    C7 8850   4.109   2.753  11.519 -0.5762 -0.3847  0.0359
  593TMC3    C8 8851   4.023   2.765  11.944  0.1378 -0.3150 -0.4232
  593TMC3    O1 8852   4.197   2.840  11.527 -0.1208 -0.6804  0.2416
  593TMC3    O2 8853   3.905   2.743  11.977  0.1220 -0.4326 -0.0022
  594MPD2     C 8854   2.864   1.339  13.857 -0.2438  0.1020 -0.9229
  594MPD2    C1 8855   2.863   1.276  13.976  0.5855 -0.3969  0.0065
  594MPD2    C2 8856   2.962   1.305  14.070  0.2930  0.5501 -0.5980
  594MPD2    C3 8857   3.077   1.375  14.032 -0.0471 -0.0587  0.2052
  594MPD2    C4 8858   3.088   1.422  13.900 -0.1965  0.1556  0.5098
  594MPD2    C5 8859   2.981   1.405  13.820  0.1585  0.3392 -0.6392
  594MPD2     H 8860   2.960   1.271  14.172 -0.1320  2.4296  0.0199
  594MPD2    H1 8861   3.172   1.477  13.861  0.5293 -1.0519  0.3558
  594MPD2    H2 8862   2.777   1.348  13.793 -0.5607 -0.9959 -0.6508
  594MPD2    H3 8863   2.983   1.463  13.728 -4.5103  0.6042 -0.5695
  594MPD2     N 8864   3.179   1.409  14.129 -0.1697 -0.5547 -0.1183
  594MPD2    H5 8865   3.158   1.383  14.224 -2.6997  0.4200 -0.3965
  594MPD2    N1 8866   2.736   1.217  14.008 -0.2664  0.2293 -0.2378
  594MPD2    H7 8867   2.652   1.230  13.952 -1.3119  2.4317  1.8284
  595TMC3    C1 8868   3.539   1.646  14.329 -0.8588  0.4131  0.2014
  595TMC3    C2 8869   3.489   1.569  14.230 -0.1832 -0.8413  0.1107
  595TMC3    C3 8870   3.356   1.531  14.222 -0.3473 -0.6361 -0.1997
  595TMC3    C4 8871   3.451   1.694  14.416 -0.6206 -0.5481  0.2277
  595TMC3    C5 8872   3.328   1.639  14.417 -0.6603 -0.9204 -0.6754
  595TMC3    C6 8873   3.273   1.560  14.319 -0.3845 -0.2374 -0.4767
  595TMC3     C 8874   3.673   1.704  14.334 -0.1907 -0.2625 -0.1891
  595TMC3     O 8875   3.697   1.798  14.404  0.5545  0.2868 -0.1286
  595TMC3     H 8876   3.561   1.543  14.153  1.0458  0.3118  0.8786
  595TMC3    H1 8877   3.482   1.753  14.502 -0.4078 -0.8080  0.3286
  595TMC3    H2 8878   3.169   1.531  14.322 -0.9864  1.9342 -0.5416
  595TMC3    C7 8879   3.226   1.698  14.511 -0.1627 -0.4499 -0.6659
  595TMC3    C8 8880   3.302   1.467  14.100 -0.3592  0.6407 -0.2702
  595TMC3    O1 8881   3.106   1.681  14.489 -0.0112  0.2147 -0.2076
  595TMC3    O2 8882   3.361   1.464  13.990 -0.3790 -0.6693  0.0835
  596MPD2     C 8883   2.214   3.990  17.032  0.1903  0.3350 -0.0398
  596MPD2    C1 8884   2.165   4.052  16.924  0.2628 -0.2924 -0.0358
  596MPD2    C2 8885   2.203   4.018  16.794 -0.4420  0.3153  0.0491
  596MPD2    C3 8886   2.309   3.928  16.775  0.0888 -0.6289  0.7099
  596MPD2    C4 8887   2.359   3.865  16.887  0.9019  1.6319 -0.0958
  596MPD2    C5 8888   2.314   3.890  17.016 -0.1375  0.1230 -0.3359
  596MPD2     H 8889   2.152   4.053  16.706 -1.0647  1.8015  1.0008
  596MPD2    H1 8890   2.442   3.795  16.884  1.2410  2.0123  0.5272
  596MPD2    H2 8891   2.182   4.013  17.133 -1.1419  1.9542 -0.8294
  596MPD2    H3 8892   2.358   3.839  17.101 -3.9862 -1.9910  0.4005
  596MPD2     N 8893   2.357   3.905  16.648 -0.2536  0.4749  0.3120
  596MPD2    H5 8894   2.408   3.818  16.636  1.2193  1.3865 -0.0100
  596MPD2    N1 8895   2.080   4.168  16.936 -0.1497 -1.0074  0.0563
  596MPD2    H7 8896   2.063   4.220  16.851 -2.5165 -0.5107  0.8494
  597TMC3    C1 8897   1.957   4.342  17.025 -0.3048  0.6400 -0.0723
  597TMC3    C2 8898   2.003   4.432  16.935 -0.0148 -0.2364  0.3116
  597TMC3    C3 8899   1.953   4.557  16.927  0.1091  0.1862 -0.0556
  597TMC3    C4 8900   1.852   4.378  17.107 -0.6217 -0.2168 -0.1594
  597TMC3    C5 8901   1.808   4.507  17.110 -0.2719  0.3175 -0.0837
  597TMC3    C6 8902   1.857   4.596  17.014  0.1748 -0.5409 -0.2197
  597TMC3     C 8903   2.013   4.208  17.050 -0.5882  0.1522  0.4711
  597TMC3     O 8904   2.003   4.147  17.155 -0.2062 -0.6979  0.8794
  597TMC3     H 8905   2.081   4.394  16.869 -0.5886  0.2809 -0.6672
  597TMC3    H1 8906   1.824   4.313  17.189  2.2327  0.6732  1.4945
  597TMC3    H2 8907   1.824   4.697  16.995 -0.7953 -1.1252 -1.6852
  597TMC3    C7 8908   1.703   4.547  17.203 -0.1623  0.1209  0.4654
  597TMC3    C8 8909   1.998   4.654  16.828 -0.1003  0.4383  0.3319
  597TMC3    O1 8910   1.651   4.459  17.269 -0.0416 -0.4559 -0.0217
  597TMC3    O2 8911   1.918   0.001  16.790  0.6084  0.4066 -0.0370
  598TMC3    C1 8912   0.016   0.864  15.175  0.0234 -0.3683 -0.3297
  598TMC3    C2 8913   4.681   0.748  15.164  0.5977  0.0028  0.1284
  598TMC3    C3 8914   4.628   0.731  15.036 -0.4120  0.3369  0.2155
  598TMC3    C4 8915   0.036   0.959  15.085 -0.5515 -0.5364 -0.0395
  598TMC3    C5 8916   4.728   0.930  14.961 -0.3874 -0.0086 -0.1512
  598TMC3    C6 8917   4.657   0.817  14.933 -0.2105  0.0335 -0.1567
  598TMC3     C 8918   0.064   0.898  15.304 -0.6761 -0.1668 -0.1742
  598TMC3     O 8919   0.094   1.015  15.331  0.1573 -0.0983  0.3719
  598TMC3     H 8920   4.678   0.666  15.235  1.4922  0.7047  0.9810
  598TMC3    H1 8921   0.096   1.043  15.117  1.1879 -1.8150  0.0357
  598TMC3    H2 8922   4.625   0.804  14.831  1.0083  0.7555 -0.6316
  598TMC3    C7 8923   0.035   1.002  14.843  0.7067  0.4088 -0.1581
  598TMC3    C8 8924   4.528   0.624  15.009 -0.0886 -0.2813 -0.1351
  598TMC3    O1 8925   4.733   0.970  14.730 -0.2238  0.1924  0.3939
  598TMC3    O2 8926   4.498   0.600  14.892 -0.0743 -0.7251 -0.3603
  599MPD2     C 8927   0.099   3.215  15.284  0.1761 -0.2372 -0.0633
  599MPD2    C1 8928   0.050   3.096  15.332 -0.0187  0.2460  0.7851
  599MPD2    C2 8929   4.738   3.094  15.461 -0.2742 -0.3278  0.1753
  599MPD2    C3 8930   4.706   3.216  15.521 -0.4198  0.0451  0.4796
  599MPD2    C4 8931   0.016   3.333  15.473  0.6269 -0.3776  0.4151
  599MPD2    C5 8932   0.082   3.340  15.354 -0.5621 -0.5131  0.3645
  599MPD2     H 8933   4.723   3.002  15.515  2.2745  1.2555  3.5048
  599MPD2    H1 8934   4.726   3.426  15.520 -0.7436 -1.9035  2.5515
  599MPD2    H2 8935   0.163   3.216  15.197 -0.2944  0.1295 -0.4024
  599MPD2    H3 8936   0.116   3.433  15.311  1.0429 -0.8263  0.9581
  599MPD2     N 8937   4.627   3.223  15.639  0.2465  0.2271  0.4675
  599MPD2    H5 8938   4.634   3.311  15.689 -1.2213  0.5006  0.1807
  599MPD2    N1 8939   0.099   2.979  15.269  0.7043  0.3109  0.1919
  599MPD2    H7 8940   0.123   2.993  15.172  0.0305 -4.1118 -0.6168
  600TMC3    C1 8941   4.483   3.169  15.807  0.7885 -0.5772  0.3697
  600TMC3    C2 8942   4.395   3.082  15.864 -0.2179 -0.7737 -0.7873
  600TMC3    C3 8943   4.383   3.083  16.001 -0.1439 -0.0501  0.7581
  600TMC3    C4 8944   4.548   3.257  15.887  0.0408 -0.5392 -0.0580
  600TMC3    C5 8945   4.526   3.255  16.021 -0.0449  0.2018 -0.4106
  600TMC3    C6 8946   4.452   3.158  16.084  0.6394 -0.7199  0.3526
  600TMC3     C 8947   4.550   3.125  15.691 -0.2101  0.1859  0.3372
  600TMC3     O 8948   4.520   3.020  15.636  0.2500 -0.2987  0.0128
  600TMC3     H 8949   4.355   3.008  15.796  0.1781 -0.9151 -0.8648
  600TMC3    H1 8950   4.636   3.315  15.861  0.5937 -0.9296  0.9424
  600TMC3    H2 8951   4.443   3.146  16.192  2.2265  1.7057  0.7717
  600TMC3    C7 8952   4.578   3.348  16.120 -0.7682 -0.0415 -0.4411
  600TMC3    C8 8953   4.300   2.982  16.067  0.1953 -0.4496  0.4522
  600TMC3    O1 8954   4.548   3.324  16.235  1.0958  0.3277  0.5959
  600TMC3    O2 8955   4.310   2.952  16.183  0.4051 -0.0880 -0.1518
  601MPD2     C 8956   1.874   1.971   0.018  0.7778 -0.0955 -0.3801
  601MPD2    C1 8957   1.784   1.940  17.679 -0.3369  0.1298  0.3291
  601MPD2    C2 8958   1.740   1.813  17.670  1.1290  0.9474 -0.2802
  601MPD2    C3 8959   1.786   1.710  17.756  0.3861  0.2510  0.7356
  601MPD2    C4 8960   1.886   1.744   0.089 -0.1225 -0.0894  0.3859
  601MPD2    C5 8961   1.923   1.870   0.106  0.6635  0.1525 -0.3929
  601MPD2     H 8962   1.670   1.789  17.591 -0.5736  1.4655  1.0637
  601MPD2    H1 8963   1.938   1.673   0.152  1.1667  1.9417  1.5932
  601MPD2    H2 8964   1.904   2.074   0.035  1.4601 -0.5547  1.2278
  601MPD2    H3 8965   1.992   1.895   0.186  2.0594 -1.5018 -1.0780
  601MPD2     N 8966   1.750   1.579  17.749  0.3366 -0.1244  0.0736
  601MPD2    H5 8967   1.800   1.511   0.046  0.5437  1.1728  1.4541
  601MPD2    N1 8968   1.742   2.027  17.580 -0.3733 -0.8271  0.1022
  601MPD2    H7 8969   1.678   1.980  17.517 -1.4706  0.1654  0.4793
  602TMC3    C1 8970   1.739   2.203  17.424  0.1525 -0.3101 -0.0902
  602TMC3    C2 8971   1.814   2.304  17.357  0.2449 -0.0065  0.0853
  602TMC3    C3 8972   1.769   2.341  17.231 -0.3088  0.4303 -0.0175
  602TMC3    C4 8973   1.637   2.136  17.357  0.0427 -0.7863  0.7589
  602TMC3    C5 8974   1.598   2.176  17.235 -0.5034  0.4454  0.0644
  602TMC3    C6 8975   1.669   2.269  17.170 -0.3677 -0.2494 -0.8554
  602TMC3     C 8976   1.790   2.152  17.551  0.9848  0.7885  0.0559
  602TMC3     O 8977   1.876   2.214  17.607 -0.1595 -0.6250  0.3384
  602TMC3     H 8978   1.885   2.367  17.409 -2.2182  3.2294 -0.5041
  602TMC3    H1 8979   1.590   2.047  17.398 -1.3483 -0.6853 -0.6539
  602TMC3    H2 8980   1.667   2.272  17.062 -4.5130  0.4960 -0.7792
  602TMC3    C7 8981   1.484   2.110  17.172 -0.1805  0.3803 -0.2930
  602TMC3    C8 8982   1.848   2.432  17.153 -0.0650 -0.0308 -0.1395
  602TMC3    O1 8983   1.431   2.016  17.229 -0.2822 -0.0217 -0.2120
  602TMC3    O2 8984   1.963   2.450  17.194 -0.2323  0.0019 -0.2796
  603TMC3    C1 8985   4.277   1.969  11.146  0.7935 -0.0794  0.2936
  603TMC3    C2 8986   4.333   1.949  11.273  0.2695  0.6252  0.7321
  603TMC3    C3 8987   4.413   2.044  11.328 -0.0319  1.3469  0.0901
  603TMC3    C4 8988   4.314   2.077  11.073 -0.4517 -0.7611 -0.1715
  603TMC3    C5 8989   4.395   2.173  11.135 -0.9071 -0.5110  0.4053
  603TMC3    C6 8990   4.452   2.158  11.258  0.4232 -0.1850  0.3746
  603TMC3     C 8991   4.180   1.878  11.088 -0.1994  0.8688 -0.6817
  603TMC3     O 8992   4.132   1.912  10.980  0.5358 -0.0887  0.3147
  603TMC3     H 8993   4.302   1.866  11.334 -1.1557 -2.0506 -3.6266
  603TMC3    H1 8994   4.296   2.063  10.967 -0.6477  3.9723 -0.7445
  603TMC3    H2 8995   4.517   2.231  11.304  1.0801 -1.2711  1.1632
  603TMC3    C7 8996   4.444   2.284  11.061 -0.1026 -0.6236  0.6028
  603TMC3    C8 8997   4.461   2.019  11.465 -0.1940 -0.7917 -0.5974
  603TMC3    O1 8998   4.548   2.337  11.101  0.1052 -0.2175  0.6457
  603TMC3    O2 8999   4.406   1.927  11.521  0.2448 -1.0968  0.6929
  604MPD2     C 9000   1.060   0.261  16.317 -0.5264  0.1599 -0.1365
  604MPD2    C1 9001   1.030   0.371  16.239 -0.3572  0.3486  0.2779
  604MPD2    C2 9002   1.075   0.373  16.108 -0.3536  0.1844 -0.1104
  604MPD2    C3 9003   1.148   0.270  16.052  0.3843  0.4770 -0.5764
  604MPD2    C4 9004   1.175   0.154  16.128  0.8515 -0.0386 -0.1518
  604MPD2    C5 9005   1.129   0.158  16.260  1.0641 -0.1840 -0.4301
  604MPD2     H 9006   1.060   0.456  16.040 -1.5048  0.1224  0.0701
  604MPD2    H1 9007   1.235   0.070  16.096  1.4047  0.4894 -0.4913
  604MPD2    H2 9008   1.037   0.252  16.422 -1.3415  1.4359 -0.2094
  604MPD2    H3 9009   1.165   0.075  16.319 -1.9726  0.5529  2.4749
  604MPD2     N 9010   1.194   0.288  15.920 -0.1090  0.4717 -0.3727
  604MPD2    H5 9011   1.152   0.369  15.878 -0.7492 -0.1857 -0.9967
  604MPD2    N1 9012   0.961   0.475  16.297 -0.3594 -0.4421 -0.1203
  604MPD2    H7 9013   0.933   0.461  16.394  2.1006 -0.1159  0.6397
  605TMC3    C1 9014   0.884   0.693  16.318 -0.0636  0.4697 -0.4461
  605TMC3    C2 9015   0.955   0.732  16.429 -0.6141 -0.5113 -0.3497
  605TMC3    C3 9016   0.937   0.864  16.469  0.2425  0.9255  0.5367
  605TMC3    C4 9017   0.792   0.773  16.257 -0.0904 -0.4387 -0.3381
  605TMC3    C5 9018   0.779   0.897  16.309  0.7103 -0.2193  0.3949
  605TMC3    C6 9019   0.853   0.952  16.410  0.7909  0.2076  0.5759
  605TMC3     C 9020   0.910   0.582  16.228  0.4172  0.1001 -0.0260
  605TMC3     O 9021   0.879   0.588  16.108 -0.1592  0.4854 -0.8894
  605TMC3     H 9022   1.021   0.663  16.481 -1.4698  0.0780  1.5150
  605TMC3    H1 9023   0.742   0.746  16.164  0.4709  1.8196 -1.2835
  605TMC3    H2 9024   0.832   1.051  16.446  2.3466  0.9715 -0.6050
  605TMC3    C7 9025   0.671   0.968  16.259 -0.6033 -0.0257 -0.5402
  605TMC3    C8 9026   1.030   0.932  16.554  0.1003 -0.3127  0.1646
  605TMC3    O1 9027   0.670   1.090  16.273  0.1227  0.9498  0.3787
  605TMC3    O2 9028   1.003   1.044  16.603  0.7403 -0.7430 -0.1124
  606TMC3    C1 9029   1.596   4.279   0.147 -0.4523  0.8807 -0.5780
  606TMC3    C2 9030   1.697   4.346   0.207 -0.0771 -0.3074  0.2941
  606TMC3    C3 9031   1.826   4.335   0.156 -0.8501 -0.3435 -0.6232
  606TMC3    C4 9032   1.618   4.206   0.032 -0.0805  0.4444 -0.5494
  606TMC3    C5 9033   1.746   4.199  17.745 -0.2932 -0.5219  0.4624
  606TMC3    C6 9034   1.851   4.267   0.040  0.5916 -0.4472  0.2024
  606TMC3     C 9035   1.457   4.281   0.199 -0.2645 -0.2984  0.1419
  606TMC3     O 9036   1.368   4.207   0.157 -0.1711 -0.9515  0.7541
  606TMC3     H 9037   1.674   4.412   0.289 -0.7687 -1.4743  1.0453
  606TMC3    H1 9038   1.532   4.170  17.735  0.2721 -0.2424 -0.6428
  606TMC3    H2 9039   1.945   4.260  17.746  1.4676  0.2214  1.6931
  606TMC3    C7 9040   1.773   4.139  17.617 -0.4973  0.7034  0.4440
  606TMC3    C8 9041   1.939   4.390   0.232 -0.5642  0.1964 -0.2116
  606TMC3    O1 9042   1.843   4.205  17.540 -0.5190 -0.1949  0.4976
  606TMC3    O2 9043   2.044   4.371   0.180 -0.3774  0.0270 -0.1805
  607MPD2     C 9044   3.812   1.655  11.954 -0.1487  0.4487  0.4193
  607MPD2    C1 9045   3.852   1.770  12.015 -0.2871  0.9767  0.0840
  607MPD2    C2 9046   3.802   1.797  12.143 -0.8874  0.4120  0.2984
  607MPD2    C3 9047   3.720   1.706  12.216  0.2666 -0.0306  0.7199
  607MPD2    C4 9048   3.687   1.589  12.155 -0.0337 -0.3353  0.1364
  607MPD2    C5 9049   3.723   1.573  12.025 -0.0145  0.0748 -0.2476
  607MPD2     H 9050   3.829   1.886  12.199  2.0106 -1.3006  1.6043
  607MPD2    H1 9051   3.619   1.513  12.192  0.8098 -1.0648  0.1866
  607MPD2    H2 9052   3.846   1.626  11.856 -1.7400 -0.5035  0.1471
  607MPD2    H3 9053   3.696   1.479  11.979  1.7282 -0.8185  0.5624
  607MPD2     N 9054   3.685   1.744  12.347  0.0217 -0.0310 -0.3411
  607MPD2    H5 9055   3.733   1.828  12.378 -2.0466  0.7535  0.7743
  607MPD2    N1 9056   3.939   1.867  11.960 -0.1218 -0.6888 -0.1380
  607MPD2    H7 9057   3.953   1.952  12.013  1.1786 -0.9191 -0.1167
  608TMC3    C1 9058   4.101   1.966  11.838  0.0179  0.5603  0.1157
  608TMC3    C2 9059   4.180   1.976  11.955 -0.5175 -0.1305 -0.3595
  608TMC3    C3 9060   4.272   2.075  11.953 -0.8347 -0.0879 -0.3538
  608TMC3    C4 9061   4.107   2.055  11.733 -0.0674 -0.5455 -0.9324
  608TMC3    C5 9062   4.202   2.154  11.740  0.0562 -0.5332  0.4014
  608TMC3    C6 9063   4.291   2.152  11.845 -0.1392  0.0886  0.2344
  608TMC3     C 9064   3.999   1.860  11.839  0.9170 -0.1015 -0.2996
  608TMC3     O 9065   3.981   1.789  11.740 -0.6725 -0.0552  0.5907
  608TMC3     H 9066   4.170   1.909  12.040  2.7393  1.4400  1.2442
  608TMC3    H1 9067   4.024   2.060  11.664 -1.3295 -1.0786  0.5317
  608TMC3    H2 9068   4.379   2.216  11.847  0.2739 -0.4866  0.3424
  608TMC3    C7 9069   4.226   2.245  11.633  0.1941 -0.7633  0.0084
  608TMC3    C8 9070   4.299   2.149  12.075  0.6350 -0.0248  1.4609
  608TMC3    O1 9071   4.175   2.229  11.523  0.3059 -0.2347 -0.2256
  608TMC3    O2 9072   4.369   2.245  12.082  0.1813 -0.5301  0.4693
  609TMC3    C1 9073   3.133   1.031   9.149  0.1568  0.4103 -0.2231
  609TMC3    C2 9074   3.175   1.112   9.049 -0.2533 -0.4466 -0.0790
  609TMC3    C3 9075   3.311   1.152   9.041 -0.1516 -0.1341  0.9195
  609TMC3    C4 9076   3.229   0.982   9.238  0.1464 -0.3515 -0.4845
  609TMC3    C5 9077   3.353   1.039   9.240 -0.3609 -0.2552 -0.1645
  609TMC3    C6 9078   3.397   1.118   9.137 -0.2801  0.2403 -0.4543
  609TMC3     C 9079   2.989   0.990   9.170  1.0687  0.1742 -0.1633
  609TMC3     O 9080   2.959   0.896   9.243 -0.3864  0.3619 -0.0685
  609TMC3     H 9081   3.098   1.131   8.975 -0.2463  2.8840  0.7998
  609TMC3    H1 9082   3.194   0.919   9.319 -0.3268  0.2116 -0.2433
  609TMC3    H2 9083   3.499   1.155   9.134 -0.0029 -0.5621 -1.2108
  609TMC3    C7 9084   3.450   0.951   9.311  0.3455  0.0129 -0.1739
  609TMC3    C8 9085   3.340   1.179   8.898 -1.1292 -0.4697  0.9490
  609TMC3    O1 9086   3.397   0.894   9.404  0.2826  0.0997 -0.4523
  609TMC3    O2 9087   3.245   1.168   8.821 -0.0028  0.0288 -0.0919
  610TMC3    C1 9088   0.293   2.051  11.790  0.7567  0.7467 -0.3934
  610TMC3    C2 9089   0.290   1.990  11.667 -0.0535  0.6050 -0.0838
  610TMC3    C3 9090   0.264   1.855  11.660  0.3011  0.8898 -0.0489
  610TMC3    C4 9091   0.284   1.978  11.902 -0.2779 -0.3423  0.7440
  610TMC3    C5 9092   0.251   1.842  11.894  0.1968  0.2494  0.0384
  610TMC3    C6 9093   0.237   1.772  11.772  0.0614 -0.2918 -0.5045
  610TMC3     C 9094   0.295   2.194  11.809 -0.8942 -0.4069 -0.7486
  610TMC3     O 9095   0.300   2.235  11.924  0.4303  0.0768  0.5370
  610TMC3     H 9096   0.283   2.049  11.577 -0.8408  0.8019  0.1109
  610TMC3    H1 9097   0.297   2.024  12.000 -0.3020  0.1144  0.5341
  610TMC3    H2 9098   0.234   1.664  11.761  1.4915 -0.3938  0.1706
  610TMC3    C7 9099   0.221   1.774  12.019  1.2524 -0.1271  0.4445
  610TMC3    C8 9100   0.266   1.798  11.527  1.0000 -0.9119  0.2110
  610TMC3    O1 9101   0.222   1.653  12.026 -0.8201 -0.2510  0.3311
  610TMC3    O2 9102   0.186   1.708  11.516 -0.0151  0.4598 -0.2884
  611MPD2     C 9103   3.521   2.136  10.568 -0.1771 -0.1603  0.6136
  611MPD2    C1 9104   3.513   2.160  10.432  0.6447  0.1881  0.3414
  611MPD2    C2 9105   3.618   2.217  10.361 -0.5159  0.7009  0.2930
  611MPD2    C3 9106   3.730   2.247  10.428  0.2455  0.5110 -0.2824
  611MPD2    C4 9107   3.730   2.237  10.565  0.9508 -0.2185  0.6585
  611MPD2    C5 9108   3.624   2.188  10.634 -0.4890  0.2562  0.6856
  611MPD2     H 9109   3.614   2.234  10.254 -0.0216  0.3928  0.2277
  611MPD2    H1 9110   3.820   2.263  10.620  0.3929  1.4508  0.7868
  611MPD2    H2 9111   3.437   2.092  10.622 -1.1931 -0.2305 -1.0256
  611MPD2    H3 9112   3.625   2.194  10.742  0.2879  0.2927  0.6748
  611MPD2     N 9113   3.848   2.299  10.366 -0.1910 -0.7976 -0.6884
  611MPD2    H5 9114   3.920   2.318  10.436 -2.0048  0.1896  0.9043
  611MPD2    N1 9115   3.378   2.140  10.379 -0.0762  0.2138 -0.3104
  611MPD2    H7 9116   3.302   2.105  10.436 -0.4289  0.4125 -0.6612
  612TMC3    C1 9117   4.012   2.385  10.204 -0.3389 -0.4904 -0.1230
  612TMC3    C2 9118   4.111   2.408  10.307  0.2576 -0.3782  0.1176
  612TMC3    C3 9119   4.206   2.507  10.295  0.3548  0.3469  0.3258
  612TMC3    C4 9120   3.996   2.485  10.112 -0.1219  0.3556 -0.0194
  612TMC3    C5 9121   4.081   2.596  10.117 -0.8403  0.1529 -0.0631
  612TMC3    C6 9122   4.198   2.604  10.199 -0.4812  0.0472  0.1697
  612TMC3     C 9123   3.879   2.326  10.234 -0.4471 -0.3438 -0.7484
  612TMC3     O 9124   3.801   2.311  10.142 -0.0226  0.4997 -0.3718
  612TMC3     H 9125   4.127   2.331  10.382 -1.1701 -0.8217 -0.0220
  612TMC3    H1 9126   3.911   2.480  10.046 -0.2199 -1.0855  0.2092
  612TMC3    H2 9127   4.265   2.689  10.197 -1.0495  0.4821 -0.9972
  612TMC3    C7 9128   4.048   2.706  10.027 -0.0708  0.0640  0.4236
  612TMC3    C8 9129   4.293   2.534  10.402 -0.8937  0.3581 -1.1619
  612TMC3    O1 9130   3.971   2.688   9.937 -0.3941  0.0565 -0.5140
  612TMC3    O2 9131   4.375   2.617  10.373 -0.0699  0.2859  1.1519
  613MPD2     C 9132   3.627   4.343  16.124  0.0653  0.5129  0.7469
  613MPD2    C1 9133   3.546   4.338  16.014  0.7708  0.3490 -0.5718
  613MPD2    C2 9134   3.477   4.224  15.980  0.0961 -0.0813  0.0903
  613MPD2    C3 9135   3.479   4.111  16.058 -0.3395 -0.4696  0.4067
  613MPD2    C4 9136   3.544   4.123  16.176 -0.3687  0.3506 -0.6691
  613MPD2    C5 9137   3.629   4.225  16.201  0.9364  0.0972  0.1454
  613MPD2     H 9138   3.435   4.223  15.880 -0.3468  1.9525  0.2673
  613MPD2    H1 9139   3.531   4.043  16.249 -0.3675  0.4171 -0.5961
  613MPD2    H2 9140   3.677   4.429  16.166  0.0500  2.3919 -3.0457
  613MPD2    H3 9141   3.688   4.220  16.291  0.4411  1.7290  0.5584
  613MPD2     N 9142   3.419   3.987  16.019  0.3479  0.1493  0.2444
  613MPD2    H5 9143   3.442   3.909  16.079  2.4884  2.9985  3.1276
  613MPD2    N1 9144   3.544   4.452  15.933  0.0953 -0.2486 -0.6638
  613MPD2    H7 9145   3.626   4.512  15.930 -0.8693  1.1083 -0.0979
  614TMC3    C1 9146   3.506   4.538  15.715  0.3773 -0.3840  0.2009
  614TMC3    C2 9147   3.587   4.450  15.653  0.4460  0.5784  0.4469
  614TMC3    C3 9148   3.573   4.412  15.526 -0.3074  0.4485 -0.4935
  614TMC3    C4 9149   3.428   4.615  15.637 -0.1342  0.5106 -0.1068
  614TMC3    C5 9150   3.426   4.587  15.502 -0.7571 -0.3635  1.0640
  614TMC3    C6 9151   3.491   4.483  15.444  0.5428  0.3494  0.1152
  614TMC3     C 9152   3.449   4.483  15.841 -0.0346  0.0134  0.4794
  614TMC3     O 9153   3.341   4.428  15.816  0.1918  0.2945  0.3168
  614TMC3     H 9154   3.651   4.391  15.718  0.9070  0.8670  0.2522
  614TMC3    H1 9155   3.363   4.687  15.687 -1.2227 -2.2845  2.5352
  614TMC3    H2 9156   3.475   4.447  15.343  0.3342 -1.0782  0.6644
  614TMC3    C7 9157   3.352   4.677  15.416  0.0653 -0.0431  0.4964
  614TMC3    C8 9158   3.600   4.275  15.499 -0.0012 -0.6326 -0.3487
  614TMC3    O1 9159   3.329   0.051  15.453 -0.0112  0.3443 -0.2644
  614TMC3    O2 9160   3.654   4.210  15.588  0.0513  0.1516 -0.2618
  615MPD2     C 9161   2.828   0.690  15.729  0.4191 -0.3858 -0.3932
  615MPD2    C1 9162   2.896   0.808  15.705 -0.0146 -0.0804 -0.7319
  615MPD2    C2 9163   2.826   0.912  15.636  0.2805 -0.3965 -0.5415
  615MPD2    C3 9164   2.694   0.898  15.589  0.0375 -0.0707 -0.4410
  615MPD2    C4 9165   2.628   0.781  15.610  0.1354  0.2348 -0.1998
  615MPD2    C5 9166   2.697   0.676  15.686  0.3298 -0.1133 -0.2160
  615MPD2     H 9167   2.874   1.008  15.623 -2.3199  1.0319  0.3323
  615MPD2    H1 9168   2.524   0.763  15.584 -0.4002 -0.3887  2.3249
  615MPD2    H2 9169   2.870   0.612  15.791 -1.0957 -0.6028  0.3701
  615MPD2    H3 9170   2.649   0.581  15.710  0.9433 -0.0851  1.1519
  615MPD2     N 9171   2.627   1.011  15.543 -0.5256  0.0575 -0.0030
  615MPD2    H5 9172   2.683   1.096  15.532 -1.5713  0.4827 -2.0806
  615MPD2    N1 9173   3.030   0.838  15.751  0.6646  0.0767  0.3310
  615MPD2    H7 9174   3.057   0.935  15.738  0.4554 -0.2013 -2.1400
  616TMC3    C1 9175   3.253   0.811  15.827 -0.7924 -0.3925 -0.0230
  616TMC3    C2 9176   3.274   0.938  15.786 -0.3094 -0.5418 -0.4499
  616TMC3    C3 9177   3.393   0.998  15.827  0.3323 -0.3854  0.6023
  616TMC3    C4 9178   3.337   0.739  15.915 -0.3083 -0.0471 -0.2041
  616TMC3    C5 9179   3.453   0.808  15.954 -0.9308 -0.5658 -0.8866
  616TMC3    C6 9180   3.478   0.934  15.909  0.2591 -0.0507 -0.5454
  616TMC3     C 9181   3.122   0.751  15.799 -0.1574 -0.0462 -1.1807
  616TMC3     O 9182   3.088   0.647  15.848 -0.3390  0.0026  0.1510
  616TMC3     H 9183   3.229   0.975  15.694 -1.1131 -0.8412 -0.1765
  616TMC3    H1 9184   3.302   0.638  15.937  1.0619 -0.0627  1.7945
  616TMC3    H2 9185   3.567   0.986  15.943  0.8314 -1.3173 -0.1066
  616TMC3    C7 9186   3.528   0.747  16.064 -0.4145  0.1229 -0.4234
  616TMC3    C8 9187   3.421   1.128  15.764 -0.0128 -0.1376  0.1025
  616TMC3    O1 9188   3.598   0.825  16.127 -0.3764 -0.0258  0.6905
  616TMC3    O2 9189   3.362   1.160  15.661  0.5072  0.2983 -0.4967
  617MPD2     C 9190   0.760   3.505  13.442  0.4067  0.6322  0.1244
  617MPD2    C1 9191   0.792   3.497  13.578 -0.7167  0.1085  0.3005
  617MPD2    C2 9192   0.690   3.516  13.671  0.1608 -0.4880 -0.5374
  617MPD2    C3 9193   0.562   3.533  13.628  0.5925  0.4664 -0.3954
  617MPD2    C4 9194   0.534   3.558  13.492  0.0753 -0.0945 -0.1996
  617MPD2    C5 9195   0.638   3.545  13.401 -0.1692  0.2227 -0.2700
  617MPD2     H 9196   0.705   3.506  13.778 -1.8023 -0.0039 -0.2295
  617MPD2    H1 9197   0.434   3.580  13.458  0.1265  0.0864 -0.2332
  617MPD2    H2 9198   0.829   3.478  13.363  0.2793  0.5171  0.0529
  617MPD2    H3 9199   0.613   3.558  13.296  0.1933  0.9380 -0.2646
  617MPD2     N 9200   0.443   3.510  13.702  0.7743 -0.4698  0.0898
  617MPD2    H5 9201   0.352   3.528  13.662  1.3803 -3.2112 -2.5064
  617MPD2    N1 9202   0.926   3.481  13.609 -0.0569  0.1411  0.3645
  617MPD2    H7 9203   0.991   3.470  13.532 -0.5872 -1.9389  0.2268
  618TMC3    C1 9204   1.124   3.454  13.747  0.0232  0.0883  0.0564
  618TMC3    C2 9205   1.162   3.339  13.687  0.0861 -0.1506  0.4061
  618TMC3    C3 9206   1.290   3.340  13.639 -0.4098 -1.0042 -0.3249
  618TMC3    C4 9207   1.195   3.569  13.743 -0.0713  0.2066  0.3717
  618TMC3    C5 9208   1.316   3.569  13.685  0.3266  0.4254  0.5393
  618TMC3    C6 9209   1.367   3.451  13.635 -0.1715 -0.0742  0.8635
  618TMC3     C 9210   0.981   3.488  13.743 -0.4721 -0.0050  0.9862
  618TMC3     O 9211   0.922   3.518  13.847 -0.8197 -0.0478 -0.3452
  618TMC3     H 9212   1.095   3.255  13.673  2.3429 -1.6761 -1.1017
  618TMC3    H1 9213   1.159   3.655  13.799 -1.1218 -0.0790  0.1378
  618TMC3    H2 9214   1.472   3.453  13.608 -0.3668  3.6864  0.3363
  618TMC3    C7 9215   1.388   3.693  13.701 -0.4378 -0.1287 -0.0943
  618TMC3    C8 9216   1.318   3.230  13.558  0.7463  0.0797  0.5019
  618TMC3    O1 9217   1.402   3.740  13.814 -0.2170 -0.3296 -0.6063
  618TMC3    O2 9218   1.237   3.135  13.561  0.5406  0.1386  0.5476
  619MPD2     C 9219   1.857   0.576  13.846 -0.0083  0.0990  0.0006
  619MPD2    C1 9220   1.852   0.516  13.727  0.5365 -0.1518  0.2271
  619MPD2    C2 9221   1.761   0.421  13.704  0.1453 -0.5106  0.1244
  619MPD2    C3 9222   1.643   0.407  13.787  0.3204 -0.0048  0.4162
  619MPD2    C4 9223   1.646   0.473  13.904  0.2255 -0.0560 -0.2314
  619MPD2    C5 9224   1.749   0.559  13.937  0.3319 -0.7071  0.0047
  619MPD2     H 9225   1.771   0.370  13.610 -1.0904  2.0327 -1.3900
  619MPD2    H1 9226   1.557   0.486  13.965  1.2096  1.6910  0.8341
  619MPD2    H2 9227   1.931   0.651  13.872  1.2359 -0.4815 -1.8307
  619MPD2    H3 9228   1.737   0.621  14.025  0.5790  0.0579 -0.5031
  619MPD2     N 9229   1.523   0.333  13.753  0.3459 -0.3006  0.4462
  619MPD2    H5 9230   1.442   0.352  13.810  1.2459  1.1000  1.2471
  619MPD2    N1 9231   1.954   0.533  13.624 -0.1087 -0.1708  0.5565
  619MPD2    H7 9232   1.939   0.488  13.534 -0.1896 -4.0144  2.4773
  620TMC3    C1 9233   2.133   0.609  13.504 -0.1486  0.0361  0.2427
  620TMC3    C2 9234   2.075   0.517  13.418 -0.4097 -0.2009  0.0413
  620TMC3    C3 9235   1.999   0.566  13.313 -0.3891 -0.1417  0.2504
  620TMC3    C4 9236   2.161   0.736  13.462  0.1431  0.4946  0.5146
  620TMC3    C5 9237   2.087   0.784  13.357 -0.1931  0.4249 -0.4437
  620TMC3    C6 9238   2.011   0.699  13.280 -0.0830  0.3555 -0.1490
  620TMC3     C 9239   2.069   0.599  13.635  0.1737  0.1523  0.6543
  620TMC3     O 9240   2.110   0.678  13.721  0.0555  0.3188 -0.4827
  620TMC3     H 9241   2.075   0.411  13.443  1.5839 -0.4988 -1.1770
  620TMC3    H1 9242   2.222   0.788  13.535  2.8434  0.7543 -1.9097
  620TMC3    H2 9243   1.955   0.737  13.196  0.5412  1.4044 -0.0868
  620TMC3    C7 9244   2.009   0.903  13.375  0.1014 -0.6755 -0.2809
  620TMC3    C8 9245   1.858   0.531  13.325 -0.2175 -0.4620 -0.2555
  620TMC3    O1 9246   1.887   0.894  13.375 -0.1469  0.2986 -0.1680
  620TMC3    O2 9247   1.831   0.413  13.333 -0.3227 -0.3250  0.1043
  621MPD2     C 9248   2.489   4.475  10.109  0.0314  0.0334 -0.5731
  621MPD2    C1 9249   2.464   4.475   9.974  1.0104  0.2137 -0.2039
  621MPD2    C2 9250   2.524   4.572   9.901  0.5092 -0.2677  0.6496
  621MPD2    C3 9251   2.599   4.671   9.960  0.2967  0.0724 -0.3655
  621MPD2    C4 9252   2.622   4.666  10.096 -0.0238 -0.1207  0.2379
  621MPD2    C5 9253   2.578   4.561  10.165  0.5795 -0.4001  0.6416
  621MPD2     H 9254   2.513   4.567   9.793  1.2710  1.0782  0.4990
  621MPD2    H1 9255   2.686   4.737  10.148 -0.1702 -0.5882  1.0629
  621MPD2    H2 9256   2.447   4.398  10.172 -0.7601  0.8152 -0.1492
  621MPD2    H3 9257   2.603   4.552  10.270  0.8854  1.9270  0.7720
  621MPD2     N 9258   2.654   0.023   9.873 -0.4311 -0.6813  0.7545
  621MPD2    H5 9259   2.636   0.012   9.774 -1.6758 -1.8449  1.1011
  621MPD2    N1 9260   2.377   4.377   9.913 -0.1045  0.0113 -0.3131
  621MPD2    H7 9261   2.372   4.369   9.812  0.3238 -0.0876 -0.3269
  622TMC3    C1 9262   2.224   4.212   9.903  0.2173 -0.1707 -0.2274
  622TMC3    C2 9263   2.156   4.120   9.983 -0.2060 -0.5507  0.2618
  622TMC3    C3 9264   2.020   4.108   9.967  0.2505  0.9012 -0.1783
  622TMC3    C4 9265   2.159   4.276   9.797  1.0836  0.8899  0.2464
  622TMC3    C5 9266   2.030   4.246   9.782 -0.0135  0.3810  0.0161
  622TMC3    C6 9267   1.957   4.156   9.852  0.4333  0.6341 -0.3618
  622TMC3     C 9268   2.304   4.298   9.990  0.8384  0.2047  0.1640
  622TMC3     O 9269   2.266   4.298  10.106 -0.1088  0.5652 -0.1115
  622TMC3     H 9270   2.209   4.059  10.055 -0.2692 -0.2395  0.5740
  622TMC3    H1 9271   2.203   4.357   9.741 -0.2514  1.2641 -0.2842
  622TMC3    H2 9272   1.849   4.170   9.852  0.3282 -0.1233 -1.0569
  622TMC3    C7 9273   1.955   4.326   9.679  0.2850 -0.0686 -1.0116
  622TMC3    C8 9274   1.937   4.112  10.087 -0.9516 -0.6863 -0.2149
  622TMC3    O1 9275   2.006   4.434   9.655 -0.3955 -0.3222  0.5938
  622TMC3    O2 9276   1.819   4.085  10.079 -0.2134  0.1944 -0.0820
  623MPD2     C 9277   1.492   0.601  15.720  0.2479 -0.6339 -0.1533
  623MPD2    C1 9278   1.407   0.616  15.827  0.1035 -0.1397 -0.6007
  623MPD2    C2 9279   1.458   0.590  15.955 -0.1707 -0.0514  0.1535
  623MPD2    C3 9280   1.590   0.542  15.980  0.5683 -0.3967 -0.4787
  623MPD2    C4 9281   1.669   0.528  15.867  0.0580  0.5076 -0.2925
  623MPD2    C5 9282   1.616   0.559  15.741  0.8583 -0.1574  0.3043
  623MPD2     H 9283   1.398   0.601  16.044  0.5015  1.0649  0.4751
  623MPD2    H1 9284   1.772   0.499  15.881  0.2494  0.9210 -0.8682
  623MPD2    H2 9285   1.457   0.620  15.620 -1.1062 -3.2560 -0.1663
  623MPD2    H3 9286   1.682   0.537  15.658  0.2806  1.4528 -0.5778
  623MPD2     N 9287   1.641   0.504  16.114  0.1473  0.1694 -0.0808
  623MPD2    H5 9288   1.564   0.522  16.177 -0.0625  2.0682 -0.8457
  623MPD2    N1 9289   1.279   0.669  15.802  0.4512 -0.0206  0.0023
  623MPD2    H7 9290   1.266   0.686  15.703  0.6978 -1.2257 -0.2326
  624TMC3    C1 9291   1.920   0.574  16.475  0.2500 -0.7019  0.3190
  624TMC3    C2 9292   1.814   0.609  16.551  0.1158 -0.0313  0.2689
  624TMC3    C3 9293   1.693   0.584  16.497 -0.2930 -0.3045  0.0683
  624TMC3    C4 9294   1.917   0.517  16.350  0.1185  0.0761  0.0775
  624TMC3    C5 9295   1.792   0.493  16.303  0.7920 -0.5084 -0.0945
  624TMC3    C6 9296   1.683   0.524  16.377  0.5426 -0.6393 -0.1009
  624TMC3     C 9297   2.053   0.581  16.545 -0.2124  0.4588 -0.0697
  624TMC3     O 9298   2.068   0.572  16.666  0.4630  0.1655  0.0547
  624TMC3     H 9299   1.836   0.640  16.653 -0.0087  1.0966 -0.0417
  624TMC3    H1 9300   2.006   0.485  16.297 -1.0538 -2.8677 -0.0972
  624TMC3    H2 9301   1.581   0.502  16.349  0.4418  0.3655 -0.5346
  624TMC3    C7 9302   1.772   0.485  16.156  0.2477 -1.0816 -0.2635
  624TMC3    C8 9303   1.575   0.601  16.578  0.1200 -1.0824 -0.5862
  624TMC3    O1 9304   1.871   0.461  16.090  0.1710 -0.2950  0.1453
  624TMC3    O2 9305   1.482   0.537  16.533 -0.4612 -0.7470  0.1308
  625MPD2     C 9306   2.248   2.950   0.485  0.9352 -0.1348  0.3535
  625MPD2    C1 9307   2.227   3.065   0.407  0.1931 -0.1963  0.1070
  625MPD2    C2 9308   2.333   3.132   0.349  0.0338  0.0054  0.2398
  625MPD2    C3 9309   2.453   3.081   0.360  0.7526  0.4310 -0.0489
  625MPD2    C4 9310   2.480   2.965   0.435 -0.3593  0.1057  0.3415
  625MPD2    C5 9311   2.376   2.902   0.487  0.4084  0.9904  1.0461
  625MPD2     H 9312   2.313   3.229   0.304 -0.0976 -1.5891 -3.1155
  625MPD2    H1 9313   2.579   2.925   0.451 -0.9637 -2.0982 -1.4565
  625MPD2    H2 9314   2.166   2.899   0.534  0.8851  0.0393  0.4522
  625MPD2    H3 9315   2.404   2.816   0.547 -1.1026  0.2792  0.7495
  625MPD2     N 9316   2.566   3.148   0.297 -0.2825 -0.1051  0.1032
  625MPD2    H5 9317   2.541   3.224   0.235 -0.5908 -0.4958 -0.2488
  625MPD2    N1 9318   2.098   3.124   0.394  0.1064 -0.4887 -1.1774
  625MPD2    H7 9319   2.082   3.209   0.340  1.5789  0.0549 -0.7634
  626TMC3    C1 9320   1.872   3.129   0.395  0.2880 -0.0861 -0.5926
  626TMC3    C2 9321   1.790   3.041   0.332  0.8234 -0.3374  0.4143
  626TMC3    C3 9322   1.657   3.052   0.341 -0.1446  0.9359 -0.2955
  626TMC3    C4 9323   1.821   3.231   0.472  0.1576 -0.8815  0.4126
  626TMC3    C5 9324   1.688   3.239   0.476 -0.0426 -0.9159  0.8287
  626TMC3    C6 9325   1.601   3.164   0.403 -0.2224 -0.2879  0.1876
  626TMC3     C 9326   1.984   3.075   0.448  0.4201  0.2169 -0.5512
  626TMC3     O 9327   1.962   3.001   0.546  0.8779 -0.2804 -0.1686
  626TMC3     H 9328   1.843   2.964   0.278  2.9803  0.8599  0.8196
  626TMC3    H1 9329   1.884   3.303   0.524 -1.1338  0.1777  0.4878
  626TMC3    H2 9330   1.493   3.169   0.405 -0.2669 -1.0381 -0.1641
  626TMC3    C7 9331   1.630   3.324   0.581 -0.2658  0.1768  0.2561
  626TMC3    C8 9332   1.577   2.976   0.253  0.1421 -0.5278  0.7228
  626TMC3    O1 9333   1.703   3.373   0.665  0.1990 -0.4018 -0.0754
  626TMC3    O2 9334   1.629   2.946   0.145 -0.6205 -0.6003 -0.3995
  627MPD2     C 9335   0.625   2.255  14.029 -0.3281  0.7021  0.3686
  627MPD2    C1 9336   0.551   2.264  14.147 -0.3655 -0.0196  0.1830
  627MPD2    C2 9337   0.432   2.190  14.165  0.1018  0.0721 -0.4284
  627MPD2    C3 9338   0.391   2.111  14.058  0.1612 -0.0715  0.4652
  627MPD2    C4 9339   0.467   2.111  13.942  0.6081 -0.0087 -0.1082
  627MPD2    C5 9340   0.581   2.184  13.927  0.3189  0.2012 -0.4979
  627MPD2     H 9341   0.373   2.194  14.255  1.1132 -0.4378  0.2615
  627MPD2    H1 9342   0.434   2.063  13.850 -1.1885 -1.2207  1.1564
  627MPD2    H2 9343   0.714   2.315  14.015 -0.6177  0.8681 -0.7780
  627MPD2    H3 9344   0.625   2.175  13.828  0.2897 -0.4618 -0.4558
  627MPD2     N 9345   0.271   2.044  14.074  0.7715 -0.5791 -0.2864
  627MPD2    H5 9346   0.219   2.054  14.160 -1.9492 -2.0744 -1.7679
  627MPD2    N1 9347   0.600   2.347  14.243  0.1342 -0.4260 -0.1421
  627MPD2    H7 9348   0.691   2.389  14.224  0.6777 -0.9972  1.1855
  628TMC3    C1 9349   0.614   2.471  14.435  0.5458 -0.1562 -0.2228
  628TMC3    C2 9350   0.750   2.466  14.430 -0.1995  0.2671 -0.3850
  628TMC3    C3 9351   0.824   2.580  14.445 -0.0151  0.5988 -0.9287
  628TMC3    C4 9352   0.553   2.589  14.460 -0.1325 -0.1032 -0.4849
  628TMC3    C5 9353   0.629   2.702  14.464  0.5914 -0.2871 -0.1308
  628TMC3    C6 9354   0.764   2.697  14.462 -0.0143 -0.4505  0.2411
  628TMC3     C 9355   0.534   2.384  14.357 -0.6463 -0.3462  0.0217
  628TMC3     O 9356   0.423   2.362  14.404  0.8826  0.1492  0.1421
  628TMC3     H 9357   0.799   2.370  14.428 -1.9639 -0.6666  1.0390
  628TMC3    H1 9358   0.446   2.602  14.470 -0.1065 -1.6847  1.8641
  628TMC3    H2 9359   0.810   2.796  14.456 -0.9442  0.1400  2.5958
  628TMC3    C7 9360   0.575   2.825  14.402  0.0119 -0.1311 -0.2666
  628TMC3    C8 9361   0.963   2.579  14.447  0.2365 -0.1239  0.2023
  628TMC3    O1 9362   0.504   2.809  14.306 -0.4478  0.1016  0.3070
  628TMC3    O2 9363   1.017   2.688  14.452  0.0192 -0.0007  0.0064
  629MPD2     C 9364   3.658   1.584  15.788  0.9317 -0.9243  0.0076
  629MPD2    C1 9365   3.715   1.500  15.876  0.2415  0.2840 -0.3241
  629MPD2    C2 9366   3.669   1.366  15.883  0.2662 -0.5860  0.1699
  629MPD2    C3 9367   3.564   1.324  15.805 -0.6456 -0.2574 -0.6057
  629MPD2    C4 9368   3.505   1.413  15.711  0.6568  0.3274 -0.1778
  629MPD2    C5 9369   3.557   1.542  15.713  0.0512  0.3691  0.4151
  629MPD2     H 9370   3.693   1.290  15.956  1.4677  1.3758  1.8023
  629MPD2    H1 9371   3.419   1.388  15.651  0.6025  2.0554 -0.8156
  629MPD2    H2 9372   3.708   1.679  15.769  0.9732 -0.8548  0.4641
  629MPD2    H3 9373   3.510   1.616  15.649  0.1023  0.7151  0.7749
  629MPD2     N 9374   3.515   1.193  15.833 -0.2121  0.1429 -0.1546
  629MPD2    H5 9375   3.562   1.151  15.912  0.9745  1.2863 -0.2539
  629MPD2    N1 9376   3.826   1.538  15.957  0.4558 -0.1605  0.1887
  629MPD2    H7 9377   3.861   1.632  15.943 -1.8359  0.6378 -0.2065
  630TMC3    C1 9378   4.001   1.536  16.132 -0.4858  0.1035 -0.2033
  630TMC3    C2 9379   4.076   1.624  16.070 -0.1380  0.2325 -0.1940
  630TMC3    C3 9380   4.190   1.663  16.132  0.1029 -0.0511 -0.1556
  630TMC3    C4 9381   4.026   1.489  16.254  0.3945 -0.0752  0.0076
  630TMC3    C5 9382   4.136   1.542  16.316  0.3813 -0.3050  0.2950
  630TMC3    C6 9383   4.232   1.614  16.247 -0.3420 -0.1246 -0.2623
  630TMC3     C 9384   3.886   1.469  16.064  0.6714 -0.2022  0.1446
  630TMC3     O 9385   3.847   1.359  16.110  0.1442  0.9184 -0.1362
  630TMC3     H 9386   4.047   1.646  15.968 -0.0760  0.3945 -0.1771
  630TMC3    H1 9387   3.951   1.429  16.303 -0.2867  0.9185  0.1744
  630TMC3    H2 9388   4.325   1.629  16.300  0.0172 -2.8062 -0.0893
  630TMC3    C7 9389   4.156   1.523  16.464 -0.4614 -0.6494  0.9099
  630TMC3    C8 9390   4.277   1.750  16.062  0.5622 -0.4544 -0.3842
  630TMC3    O1 9391   4.076   1.437  16.511 -0.0143 -0.3672 -0.1567
  630TMC3    O2 9392   4.399   1.738  16.089 -0.4673  0.4548 -0.0659
  631MPD2     C 9393   1.753   1.592  15.799  0.1528 -0.5542 -0.0537
  631MPD2    C1 9394   1.840   1.670  15.730  0.1412  0.5125 -0.0096
  631MPD2    C2 9395   1.953   1.614  15.672  0.6776 -0.0138  0.7776
  631MPD2    C3 9396   1.976   1.481  15.690 -0.9277  0.3841  0.1254
  631MPD2    C4 9397   1.896   1.400  15.773  0.2940 -0.0246  0.1195
  631MPD2    C5 9398   1.783   1.460  15.823  0.0187 -0.1758  0.3799
  631MPD2     H 9399   2.028   1.659  15.607  0.4982  1.5439  1.6612
  631MPD2    H1 9400   1.908   1.294  15.789 -0.5392 -0.1095  0.1931
  631MPD2    H2 9401   1.666   1.636  15.845  0.1210 -1.2930  0.6098
  631MPD2    H3 9402   1.721   1.405  15.892  0.6870 -0.4455  0.7670
  631MPD2     N 9403   2.087   1.429  15.627  0.2548 -0.1433  0.8144
  631MPD2    H5 9404   2.150   1.497  15.586  0.4491 -1.7653 -1.5666
  631MPD2    N1 9405   1.804   1.805  15.703  0.2555 -0.2771  0.3206
  631MPD2    H7 9406   1.718   1.841  15.743 -0.1944 -0.9956  0.0026
  632TMC3    C1 9407   1.807   2.015  15.577  0.5045 -0.6437 -0.6680
  632TMC3    C2 9408   1.681   2.008  15.621 -0.1422  0.3981 -0.6142
  632TMC3    C3 9409   1.591   1.968  15.529  0.9522 -0.0552 -0.2406
  632TMC3    C4 9410   1.835   2.037  15.442  0.1252 -0.1458  0.5811
  632TMC3    C5 9411   1.737   2.013  15.346  0.0148 -0.1471 -0.4084
  632TMC3    C6 9412   1.612   1.977  15.392  0.2513  0.0356  0.3803
  632TMC3     C 9413   1.876   1.890  15.617 -0.5584 -0.0353 -0.2383
  632TMC3     O 9414   1.977   1.867  15.551 -0.2489  0.1675  0.3156
  632TMC3     H 9415   1.660   1.996  15.726  1.2453 -0.5810 -0.4480
  632TMC3    H1 9416   1.932   2.043  15.395 -0.6120 -2.4369 -1.2646
  632TMC3    H2 9417   1.549   1.927  15.320  1.2752  0.3467 -0.7352
  632TMC3    C7 9418   1.783   1.920  15.244  0.1122  0.2491 -0.0486
  632TMC3    C8 9419   1.495   1.875  15.580 -0.0250 -0.1452 -0.3052
  632TMC3    O1 9420   1.717   1.906  15.143 -0.0603 -0.5321  0.2576
  632TMC3    O2 9421   1.507   1.832  15.691  0.4353 -0.3894  0.5065
  633MPD2     C 9422   1.269   3.880  17.350  0.2384 -0.4723  0.2180
  633MPD2    C1 9423   1.342   3.800  17.269 -0.0426  0.2397  0.4359
  633MPD2    C2 9424   1.310   3.669  17.254 -0.4963  0.6217  0.0286
  633MPD2    C3 9425   1.197   3.611  17.314  0.1278 -0.4220 -0.5342
  633MPD2    C4 9426   1.122   3.693  17.391  0.3579  0.3623  0.0589
  633MPD2    C5 9427   1.160   3.827  17.408  0.3597 -0.4226  0.0635
  633MPD2     H 9428   1.364   3.600  17.190  1.7764  1.8931  0.5672
  633MPD2    H1 9429   1.029   3.669  17.442 -0.9058 -0.6924 -2.7999
  633MPD2    H2 9430   1.293   3.985  17.361  0.6831 -0.4492 -0.9563
  633MPD2    H3 9431   1.099   3.884  17.477  0.5794 -0.4189  0.2519
  633MPD2     N 9432   1.149   3.477  17.287 -0.2022 -0.0077 -0.2291
  633MPD2    H5 9433   1.049   3.473  17.304  0.0674 -1.7828  0.9084
  633MPD2    N1 9434   1.454   3.840  17.196  0.1277  0.2603  0.1174
  633MPD2    H7 9435   1.485   3.771  17.128 -3.6471  1.2335 -2.6329
  634TMC3    C1 9436   1.577   3.997  17.060 -0.0625 -0.0435  0.4812
  634TMC3    C2 9437   1.656   3.898  17.009  0.2617 -0.2438 -0.6667
  634TMC3    C3 9438   1.741   3.929  16.904  0.4777 -0.0812 -0.3874
  634TMC3    C4 9439   1.584   4.129  17.009 -0.0963 -0.2570 -0.5832
  634TMC3    C5 9440   1.658   4.141  16.891  0.0787 -0.2708 -0.1355
  634TMC3    C6 9441   1.734   4.042  16.837 -0.2825 -0.4023 -0.9938
  634TMC3     C 9442   1.504   3.969  17.184  0.0447 -0.2195  0.3123
  634TMC3     O 9443   1.472   4.065  17.250  0.3453  0.4155 -0.6397
  634TMC3     H 9444   1.660   3.802  17.059 -0.6369  0.1533  0.1834
  634TMC3    H1 9445   1.523   4.204  17.058  1.0642  0.1136  0.3014
  634TMC3    H2 9446   1.803   4.056  16.754 -3.5006  0.1722 -3.5738
  634TMC3    C7 9447   1.672   4.264  16.827 -0.1405 -0.2639  0.9265
  634TMC3    C8 9448   1.807   3.804  16.857  0.0874 -0.3517  0.0081
  634TMC3    O1 9449   1.755   4.275  16.734 -0.2769  0.1190  0.1352
  634TMC3    O2 9450   1.874   3.738  16.937 -0.4241 -0.2028 -0.0482
  635TMC3    C1 9451   1.951   0.465   0.117  0.5394 -0.3643 -0.4706
  635TMC3    C2 9452   2.015   0.428   0.002 -1.0701 -0.6941  0.4666
  635TMC3    C3 9453   1.958   0.331  17.689 -0.2130  0.1005 -0.2517
  635TMC3    C4 9454   1.838   0.409   0.161  0.5192 -0.5856  0.4718
  635TMC3    C5 9455   1.780   0.315   0.078 -0.7961 -0.1896  0.0308
  635TMC3    C6 9456   1.836   0.274  17.718 -0.3015  0.1831  0.1275
  635TMC3     C 9457   1.956   0.610   0.114  0.2495  0.3515  0.8999
  635TMC3     O 9458   1.989   0.662   0.008  0.8608  0.2607 -0.2326
  635TMC3     H 9459   2.111   0.473  17.738 -2.1369  1.9362  1.1842
  635TMC3    H1 9460   1.789   0.458   0.244 -1.6630 -0.9874 -0.5608
  635TMC3    H2 9461   1.788   0.216  17.640 -0.7053 -0.2458  0.6947
  635TMC3    C7 9462   1.666   0.233   0.126  0.0517  0.0437 -0.1184
  635TMC3    C8 9463   1.993   0.322  17.544  0.5793 -0.3232  0.0340
  635TMC3    O1 9464   1.628   0.260   0.240  0.2337  0.5685  0.2810
  635TMC3    O2 9465   1.919   0.275  17.459 -0.2304  0.0568  0.4532
  636MPD2     C 9466   2.894   4.226  15.460  0.9272 -0.4505  0.5098
  636MPD2    C1 9467   2.915   4.245  15.593 -0.3302  1.0410  0.1606
  636MPD2    C2 9468   2.994   4.153  15.659  0.1608  0.2837  0.7790
  636MPD2    C3 9469   3.010   4.023  15.606  0.3439  0.2120 -0.1226
  636MPD2    C4 9470   2.978   4.004  15.471  0.4190  0.7583  0.0772
  636MPD2    C5 9471   2.935   4.107  15.398  0.4757 -0.2036 -0.0097
  636MPD2     H 9472   3.009   4.172  15.765  0.4832 -0.3806  0.8506
  636MPD2    H1 9473   2.996   3.914  15.414  3.6443  0.6379  1.2830
  636MPD2    H2 9474   2.854   4.307  15.400 -0.5133 -0.7933  1.0149
  636MPD2    H3 9475   2.911   4.100  15.293  0.8083 -0.8684 -0.0405
  636MPD2     N 9476   3.078   3.926  15.679 -0.3163 -0.3644 -0.3092
  636MPD2    H5 9477   3.118   3.955  15.768  1.3058 -0.2095 -1.0935
  636MPD2    N1 9478   2.867   4.357  15.669 -0.0035  0.7902 -0.0303
  636MPD2    H7 9479   2.884   4.359  15.769  0.6529  0.5758 -0.1380
  637TMC3    C1 9480   3.181   3.723  15.736 -0.6072 -0.3941  1.4150
  637TMC3    C2 9481   3.189   3.788  15.855 -0.4410  0.0938 -0.6305
  637TMC3    C3 9482   3.311   3.824  15.902 -0.5965  0.9039 -0.3175
  637TMC3    C4 9483   3.286   3.691  15.659  0.5708  0.0660 -0.1963
  637TMC3    C5 9484   3.410   3.712  15.713  0.0941  0.0556 -0.1812
  637TMC3    C6 9485   3.421   3.774  15.838 -0.2442  0.2117  0.1063
  637TMC3     C 9486   3.095   3.795  15.642 -0.5896  0.3534  0.0393
  637TMC3     O 9487   3.047   3.735  15.547  0.4128  0.6843 -0.8435
  637TMC3     H 9488   3.099   3.833  15.895 -0.6153 -2.3643  1.7112
  637TMC3    H1 9489   3.269   3.641  15.564  4.0246 -1.7277  0.1706
  637TMC3    H2 9490   3.523   3.789  15.872 -0.1942 -0.3780  0.2068
  637TMC3    C7 9491   3.507   3.775  15.614 -0.8717  0.4745 -0.5024
  637TMC3    C8 9492   3.330   3.966  15.919 -0.0157  0.0223  0.5462
  637TMC3    O1 9493   3.605   3.828  15.661 -0.0197  0.9295  0.1059
  637TMC3    O2 9494   3.244   4.038  15.869  0.0079  0.1432  0.2870
  638MPD2     C 9495   2.609   3.181  14.842  0.3257  0.0988  0.6344
  638MPD2    C1 9496   2.566   3.068  14.765 -0.2975  0.4610 -0.0615
  638MPD2    C2 9497   2.489   2.965  14.818  0.0182 -0.5929  0.5231
  638MPD2    C3 9498   2.473   2.955  14.951  0.1700 -0.3256 -0.0494
  638MPD2    C4 9499   2.518   3.058  15.030  0.3956  0.7758  0.5458
  638MPD2    C5 9500   2.582   3.172  14.978  0.3297 -0.0249 -0.2172
  638MPD2     H 9501   2.431   2.897  14.757  2.0064 -1.6430 -0.2035
  638MPD2    H1 9502   2.503   3.056  15.137 -2.4042 -1.3730  0.1118
  638MPD2    H2 9503   2.656   3.272  14.804  0.2373 -0.4635 -0.8312
  638MPD2    H3 9504   2.604   3.253  15.046 -2.4509  1.1760 -0.7637
  638MPD2     N 9505   2.409   2.841  15.008  0.4919  0.1585  0.1832
  638MPD2    H5 9506   2.362   2.785  14.938  0.7970 -2.6702  2.2417
  638MPD2    N1 9507   2.627   3.061  14.634  0.4204 -0.2390 -0.0161
  638MPD2    H7 9508   2.685   3.139  14.604 -0.3817  0.6759  0.8005
  639TMC3    C1 9509   2.338   2.674  15.156 -0.7197  0.4693  0.3061
  639TMC3    C2 9510   2.285   2.633  15.040  0.0604  0.8151 -0.0049
  639TMC3    C3 9511   2.306   2.502  15.005  0.4626 -0.5013  0.2413
  639TMC3    C4 9512   2.417   2.588  15.230 -0.5528  0.7071  0.5481
  639TMC3    C5 9513   2.426   2.460  15.198 -0.7526 -0.2882 -0.4561
  639TMC3    C6 9514   2.387   2.415  15.075 -0.2416  0.2821  0.6372
  639TMC3     C 9515   2.404   2.809  15.142 -0.2934 -0.0040 -0.1637
  639TMC3     O 9516   2.438   2.865  15.247  0.1665 -0.0116 -0.1953
  639TMC3     H 9517   2.228   2.699  14.974  0.8313  1.5551  0.0624
  639TMC3    H1 9518   2.473   2.632  15.312 -0.6359  1.8284  0.0058
  639TMC3    H2 9519   2.401   2.311  15.046 -1.7041  0.4329 -0.6019
  639TMC3    C7 9520   2.550   2.390  15.229  0.7458 -0.2463 -0.1375
  639TMC3    C8 9521   2.243   2.444  14.889 -0.0751  0.7135 -0.0379
  639TMC3    O1 9522   2.577   2.372  15.347  0.0311 -0.1594  0.8315
  639TMC3    O2 9523   2.309   2.360  14.832 -0.1275 -0.2313 -0.3629
  640MPD2     C 9524   2.653   1.287  10.101  0.0121  0.6906  0.1223
  640MPD2    C1 9525   2.667   1.352   9.985  0.5615 -0.2162  0.5535
  640MPD2    C2 9526   2.587   1.462   9.949 -0.1659  0.3805  1.0014
  640MPD2    C3 9527   2.493   1.497  10.041  0.8085 -0.2010  0.2051
  640MPD2    C4 9528   2.490   1.444  10.165  0.1883  0.2703 -0.4845
  640MPD2    C5 9529   2.569   1.332  10.196 -0.1743 -0.3762  0.4944
  640MPD2     H 9530   2.584   1.509   9.852 -1.1718 -0.4999  0.6039
  640MPD2    H1 9531   2.419   1.475  10.241  1.2803 -0.7125  0.9403
  640MPD2    H2 9532   2.718   1.205  10.128 -1.1099  0.3190  1.7478
  640MPD2    H3 9533   2.568   1.289  10.296  1.1558 -1.4080  0.0568
  640MPD2     N 9534   2.410   1.613  10.016 -0.3145  0.0256  0.2983
  640MPD2    H5 9535   2.325   1.612  10.071 -0.2865 -0.0225  0.3401
  640MPD2    N1 9536   2.754   1.289   9.893 -0.0354  0.0733  0.1298
  640MPD2    H7 9537   2.798   1.202   9.921  0.8885  0.0729 -1.3452
  641TMC3    C1 9538   2.880   1.254   9.686 -0.2770 -0.7111 -0.0173
  641TMC3    C2 9539   2.945   1.150   9.741  0.0819 -1.0832 -0.2395
  641TMC3    C3 9540   3.057   1.105   9.671  0.6954 -0.8014 -0.7090
  641TMC3    C4 9541   2.912   1.313   9.569  0.3591 -0.1164 -0.0991
  641TMC3    C5 9542   3.026   1.268   9.500 -1.1852  0.6697  0.5597
  641TMC3    C6 9543   3.096   1.157   9.547 -0.0379  0.6392  0.4621
  641TMC3     C 9544   2.782   1.335   9.765 -0.8836  0.4966 -0.2530
  641TMC3     O 9545   2.753   1.439   9.710  0.1230 -0.2689 -0.2960
  641TMC3     H 9546   2.909   1.107   9.834  0.0688  0.3135  0.4045
  641TMC3    H1 9547   2.886   1.415   9.541  0.8014 -0.3919 -1.4993
  641TMC3    H2 9548   3.169   1.105   9.485 -0.3859  2.2968 -1.3639
  641TMC3    C7 9549   3.070   1.332   9.379 -0.6518  0.1459  0.3649
  641TMC3    C8 9550   3.143   1.012   9.738  0.9720  0.6478  0.1534
  641TMC3    O1 9551   3.179   1.302   9.336 -0.1730 -1.2531  0.6627
  641TMC3    O2 9552   3.235   0.960   9.673 -0.3530 -0.7333 -0.6043
  642TMC3    C1 9553   3.900   2.658  12.505  0.2163  0.1616  0.3486
  642TMC3    C2 9554   4.032   2.663  12.465  1.0860 -0.5389 -0.5669
  642TMC3    C3 9555   4.068   2.581  12.357 -0.2859 -0.2140 -0.1514
  642TMC3    C4 9556   3.813   2.560  12.464 -0.0044  0.4452  0.2033
  642TMC3    C5 9557   3.862   2.463  12.374 -0.4480  0.1047 -0.5700
  642TMC3    C6 9558   3.986   2.477  12.319 -0.5766 -0.8102  0.0744
  642TMC3     C 9559   3.860   2.767  12.586  1.3561 -0.4140  0.4021
  642TMC3     O 9560   3.932   2.830  12.664  0.1065 -0.7984 -0.2819
  642TMC3     H 9561   4.081   2.754  12.497  0.7151 -0.8122  0.7555
  642TMC3    H1 9562   3.711   2.555  12.501  0.1994 -1.0876  0.5620
  642TMC3    H2 9563   4.024   2.405  12.248 -2.0046 -1.0867 -0.4058
  642TMC3    C7 9564   3.786   2.342  12.351  0.5420  0.0585 -0.2227
  642TMC3    C8 9565   4.193   2.611  12.290  0.4991 -0.1503  0.3737
  642TMC3    O1 9566   3.808   2.285  12.245 -0.5306 -0.5161 -0.1643
  642TMC3    O2 9567   4.210   2.548  12.187 -0.0769 -0.6534  0.3123
  643TMC3    C1 9568   3.429   2.571   0.147  0.4511  0.0894 -0.3689
  643TMC3    C2 9569   3.300   2.596   0.098  0.1461 -0.2533 -0.1993
  643TMC3    C3 9570   3.226   2.480   0.058  0.1454 -0.0856 -0.1089
  643TMC3    C4 9571   3.490   2.451   0.141 -0.9708 -0.1458 -0.3185
  643TMC3    C5 9572   3.416   2.343   0.107  0.1896 -0.4519  0.4259
  643TMC3    C6 9573   3.284   2.353   0.063  0.0134  0.7463  0.0850
  643TMC3     C 9574   3.523   2.682   0.165 -0.3217 -0.7110  0.0618
  643TMC3     O 9575   3.519   2.767   0.076  0.1711 -0.4780 -0.0464
  643TMC3     H 9576   3.264   2.698   0.090  0.2767 -0.3138 -1.6351
  643TMC3    H1 9577   3.592   2.440   0.175 -1.4764  0.9748  1.5589
  643TMC3    H2 9578   3.238   2.265   0.019 -0.5705  1.3961 -0.5896
  643TMC3    C7 9579   3.494   2.284   0.000 -0.2064  0.0318 -0.2854
  643TMC3    C8 9580   3.148   2.500  17.697 -0.6262 -0.5256  0.2108
  643TMC3    O1 9581   3.602   2.329  17.726 -0.1228 -0.3470  0.1856
  643TMC3    O2 9582   3.083   2.412  17.648  0.1800 -0.4248 -0.7793
  644MPD2     C 9583   2.410   1.543   9.615 -0.0836  0.5264 -0.0802
  644MPD2    C1 9584   2.461   1.644   9.539 -0.5835 -0.0789 -0.4928
  644MPD2    C2 9585   2.379   1.723   9.462 -0.7588  1.2489 -0.6029
  644MPD2    C3 9586   2.243   1.702   9.458  0.1945 -0.3799  0.2382
  644MPD2    C4 9587   2.198   1.594   9.533  0.5659  0.4087 -0.7494
  644MPD2    C5 9588   2.284   1.515   9.604 -0.0909  0.1386  0.8075
  644MPD2     H 9589   2.425   1.806   9.410 -0.6427  0.4296 -1.7959
  644MPD2    H1 9590   2.097   1.560   9.552  0.6952  0.5615  0.2125
  644MPD2    H2 9591   2.470   1.483   9.682 -0.6254 -1.4409 -1.3554
  644MPD2    H3 9592   2.243   1.440   9.670  0.8987 -0.7663  0.4069
  644MPD2     N 9593   2.156   1.801   9.397 -0.0018  0.2927 -0.1270
  644MPD2    H5 9594   2.200   1.882   9.356  0.2667  0.6859  0.9360
  644MPD2    N1 9595   2.597   1.668   9.562 -0.0816 -0.1819  0.0956
  644MPD2    H7 9596   2.655   1.626   9.635  3.2919  0.7829 -2.0412
  645TMC3    C1 9597   1.944   1.917   9.375 -0.3142  0.5070 -0.0430
  645TMC3    C2 9598   2.008   2.041   9.375 -0.2802  0.7286 -0.9772
  645TMC3    C3 9599   1.932   2.154   9.384 -0.7044  0.4009 -0.2439
  645TMC3    C4 9600   1.808   1.910   9.383 -0.3734 -0.5418  0.1320
  645TMC3    C5 9601   1.735   2.033   9.384 -0.6479  0.0147 -0.9094
  645TMC3    C6 9602   1.793   2.160   9.387 -0.2764  0.2188 -0.1696
  645TMC3     C 9603   2.015   1.794   9.401  0.1213 -0.4395  0.2379
  645TMC3     O 9604   1.946   1.697   9.433 -0.4409  0.2464 -0.5777
  645TMC3     H 9605   2.114   2.026   9.391 -0.2749  0.3057 -1.4085
  645TMC3    H1 9606   1.753   1.817   9.383  2.8202 -2.4266  0.6623
  645TMC3    H2 9607   1.743   2.255   9.400 -0.4514  0.0551  0.3656
  645TMC3    C7 9608   1.588   2.037   9.385 -0.3688  0.2194  0.4219
  645TMC3    C8 9609   1.989   2.285   9.411 -0.6622 -0.9260 -0.1849
  645TMC3    O1 9610   1.532   2.145   9.412  0.2439 -0.6797 -0.0853
  645TMC3    O2 9611   1.920   2.361   9.477  0.3132 -0.2183  0.1383
  646MPD2     C 9612   2.785   1.774  14.521 -0.6680  0.0893  0.3198
  646MPD2    C1 9613   2.679   1.714  14.590 -0.5950  0.4332 -0.5386
  646MPD2    C2 9614   2.551   1.739  14.557 -0.0222 -0.8048 -0.2906
  646MPD2    C3 9615   2.519   1.805  14.440 -0.3482  0.5638 -0.7380
  646MPD2    C4 9616   2.622   1.860  14.364  0.1097 -0.9738 -0.8383
  646MPD2    C5 9617   2.753   1.843  14.411 -0.0095  0.8383  0.7383
  646MPD2     H 9618   2.474   1.698  14.622  0.4133 -3.1932 -1.2897
  646MPD2    H1 9619   2.607   1.917  14.272 -2.1925  0.2782  0.3155
  646MPD2    H2 9620   2.890   1.774  14.546 -0.2619  2.0774 -1.3440
  646MPD2    H3 9621   2.844   1.879  14.363 -0.6779  1.6032  0.0495
  646MPD2     N 9622   2.385   1.830  14.412 -0.8061 -0.1079 -0.5344
  646MPD2    H5 9623   2.323   1.793  14.484  0.1864 -3.6215 -1.4594
  646MPD2    N1 9624   2.726   1.638  14.699 -0.1582 -0.4343  0.3598
  646MPD2    H7 9625   2.826   1.630  14.713 -0.3044  2.3154  3.2307
  647TMC3    C1 9626   2.718   1.509  14.883  0.0047 -0.2667 -0.8907
  647TMC3    C2 9627   2.643   1.449  14.977 -0.4624 -0.0876 -0.3251
  647TMC3    C3 9628   2.704   1.393  15.083 -0.2703 -0.4444 -0.2130
  647TMC3    C4 9629   2.852   1.506  14.885 -0.4631  0.1290  0.0065
  647TMC3    C5 9630   2.914   1.442  14.986  0.5270 -0.4733  0.1151
  647TMC3    C6 9631   2.844   1.383  15.087 -0.9546 -0.1364 -0.4905
  647TMC3     C 9632   2.650   1.599  14.800 -0.5687  0.3625 -0.0494
  647TMC3     O 9633   2.530   1.611  14.819 -0.2871 -0.4538  0.0212
  647TMC3     H 9634   2.535   1.437  14.973 -0.4632  0.2769 -1.3815
  647TMC3    H1 9635   2.916   1.575  14.831  1.0369 -1.5476 -0.3564
  647TMC3    H2 9636   2.901   1.341  15.169 -1.0189  0.8761  0.0666
  647TMC3    C7 9637   3.051   1.400  14.971 -0.2730 -0.3218  0.1295
  647TMC3    C8 9638   2.648   1.276  15.145 -0.1974  0.8750  0.0021
  647TMC3    O1 9639   3.100   1.343  15.069 -0.2450 -0.0716  0.8736
  647TMC3    O2 9640   2.701   1.234  15.247  0.2569  0.1316 -0.3849
  648TMC3    C1 9641   2.356   3.930  16.406  0.6079 -0.4741 -0.2299
  648TMC3    C2 9642   2.458   3.846  16.386  0.3302 -0.1878  0.2230
  648TMC3    C3 9643   2.491   3.818  16.255 -0.2435  0.1730  0.0116
  648TMC3    C4 9644   2.295   3.990  16.300  0.3478  0.9450  0.5469
  648TMC3    C5 9645   2.331   3.959  16.171  0.0353 -0.2951 -0.3143
  648TMC3    C6 9646   2.429   3.875  16.149  0.1209 -0.2859 -0.4822
  648TMC3     C 9647   2.328   3.988  16.539 -0.4202 -0.6741  0.2745
  648TMC3     O 9648   2.278   4.101  16.537 -0.2888 -0.0392  0.3752
  648TMC3     H 9649   2.506   3.792  16.468 -0.6375  1.2770  1.7541
  648TMC3    H1 9650   2.207   4.053  16.310 -1.6549 -1.6938 -0.5554
  648TMC3    H2 9651   2.483   3.878  16.055  0.3444  0.2309 -0.3356
  648TMC3    C7 9652   2.251   3.996  16.055 -0.2743 -0.1524 -0.0500
  648TMC3    C8 9653   2.580   3.709  16.240  0.2264 -0.9472 -0.3217
  648TMC3    O1 9654   2.308   3.976  15.946  0.0026 -0.0998  0.1238
  648TMC3    O2 9655   2.656   3.673  16.333 -0.1763  0.4985 -0.1786
  649TMC3    C1 9656   0.795   0.504  12.748 -0.8887  0.5851  0.4468
  649TMC3    C2 9657   0.932   0.517  12.729 -0.0014 -0.2829 -0.1290
  649TMC3    C3 9658   1.012   0.461  12.826 -0.4552 -0.3223  0.3362
  649TMC3    C4 9659   0.746   0.431  12.853  0.5126  0.4280  0.1937
  649TMC3    C5 9660   0.833   0.380  12.951 -0.2088  0.3639  0.1331
  649TMC3    C6 9661   0.966   0.391  12.932 -0.0371 -0.1949  0.0164
  649TMC3     C 9662   0.700   0.530  12.646  0.2649 -0.0761 -0.0498
  649TMC3     O 9663   0.578   0.529  12.683  0.3586 -0.1676  0.1070
  649TMC3     H 9664   0.976   0.562  12.640  0.5692  0.8733  0.7410
  649TMC3    H1 9665   0.638   0.425  12.860  0.3413  2.4827 -0.7379
  649TMC3    H2 9666   1.039   0.344  12.998 -1.4572 -0.3911  1.4528
  649TMC3    C7 9667   0.774   0.303  13.054  0.4215 -0.8153  0.0387
  649TMC3    C8 9668   1.158   0.481  12.811 -0.0753 -0.0696  0.1046
  649TMC3    O1 9669   0.653   0.300  13.042 -0.5679  0.1904 -0.1169
  649TMC3    O2 9670   1.232   0.401  12.866 -0.6445  0.1893 -0.0434
  650TMC3    C1 9671   3.028   1.867  12.463 -0.2948  0.5870  0.1676
  650TMC3    C2 9672   2.956   1.972  12.519 -0.2487 -0.2611  0.2366
  650TMC3    C3 9673   2.834   2.009  12.464 -0.4887  0.6367  0.0780
  650TMC3    C4 9674   2.987   1.809  12.347  0.2406  0.1287 -0.6690
  650TMC3    C5 9675   2.873   1.852  12.288 -0.0851  0.6139  0.0566
  650TMC3    C6 9676   2.794   1.949  12.344 -0.0418 -0.3265  0.0982
  650TMC3     C 9677   3.131   1.805  12.545 -0.4752 -0.5878  0.5268
  650TMC3     O 9678   3.161   1.881  12.637 -0.8781 -0.1106 -0.2992
  650TMC3     H 9679   2.974   2.000  12.622 -2.7630 -1.7598  1.0860
  650TMC3    H1 9680   3.049   1.738  12.293  0.4417  0.7213 -1.2124
  650TMC3    H2 9681   2.712   1.996  12.292 -0.6340  0.6129  1.8861
  650TMC3    C7 9682   2.886   1.876  12.145  0.4664 -0.0764 -0.6683
  650TMC3    C8 9683   2.816   2.154  12.484 -0.1130 -0.0350  0.3933
  650TMC3    O1 9684   2.792   1.842  12.075 -0.2311 -0.2782 -0.4998
  650TMC3    O2 9685   2.921   2.212  12.505 -0.4453 -0.3278 -0.4864
  651MPD2     C 9686   2.063   3.921  10.382  0.1951  0.4536  0.2307
  651MPD2    C1 9687   2.055   4.016  10.481 -0.2280  0.4253 -0.2468
  651MPD2    C2 9688   2.167   4.095  10.502 -0.3886 -0.3411  0.4763
  651MPD2    C3 9689   2.281   4.086  10.420 -0.7359 -0.2220 -0.4088
  651MPD2    C4 9690   2.282   3.988  10.317 -0.2505  0.9519  0.5156
  651MPD2    C5 9691   2.171   3.907  10.304  0.1849 -0.0825 -0.1224
  651MPD2     H 9692   2.168   4.167  10.583  1.5975 -1.0116  1.0517
  651MPD2    H1 9693   2.365   3.974  10.249 -0.0801 -1.7596  1.2870
  651MPD2    H2 9694   1.982   3.850  10.368  1.3636 -0.8451  0.0038
  651MPD2    H3 9695   2.170   3.819  10.240 -1.6250 -0.8574  0.9233
  651MPD2     N 9696   2.386   4.171  10.449  0.1268 -0.4399 -0.1967
  651MPD2    H5 9697   2.377   4.222  10.536  1.2510 -0.3041 -0.1625
  651MPD2    N1 9698   1.946   4.030  10.569  0.0282  0.3230 -0.4839
  651MPD2    H7 9699   1.955   4.096  10.646  0.5199  0.6831 -0.8484
  652TMC3    C1 9700   2.801   4.312  10.500 -0.0653 -1.2127  0.2526
  652TMC3    C2 9701   2.717   4.244  10.415  0.7335  0.5625  0.3267
  652TMC3    C3 9702   2.586   4.278  10.424  0.1874  0.3376 -0.0041
  652TMC3    C4 9703   2.765   4.410  10.581  0.6978  0.1815 -0.0939
  652TMC3    C5 9704   2.634   4.441  10.589  0.6828  0.3735  0.3773
  652TMC3    C6 9705   2.546   4.369  10.514 -0.2260  0.6124 -0.3799
  652TMC3     C 9706   2.937   4.262  10.505 -0.4786  0.2158 -1.0853
  652TMC3     O 9707   2.982   4.238  10.396 -0.4893 -0.0194 -0.3352
  652TMC3     H 9708   2.747   4.171  10.341 -1.4840 -0.7965  0.7659
  652TMC3    H1 9709   2.838   4.473  10.630  1.3725 -0.0815 -0.7523
  652TMC3    H2 9710   2.448   4.416  10.514 -0.3948  0.2586  0.0748
  652TMC3    C7 9711   2.601   4.579  10.608  0.2119  0.1853  0.1387
  652TMC3    C8 9712   2.500   4.176  10.375  0.6353 -0.6924  0.6804
  652TMC3    O1 9713   2.491   4.604  10.654  0.4148  0.2167  0.3965
  652TMC3    O2 9714   2.533   4.114  10.273 -0.0481 -0.0094  0.5083
  653MPD2     C 9715   0.831   4.151  17.654  0.1769  0.4282  0.0252
  653MPD2    C1 9716   0.912   4.231  17.575  0.8628  0.9161  0.1745
  653MPD2    C2 9717   0.927   4.192  17.441  0.8765 -0.1987 -0.0786
  653MPD2    C3 9718   0.871   4.068  17.394 -0.0134 -0.8742 -0.3194
  653MPD2    C4 9719   0.796   3.995  17.479 -0.0577  0.0094  0.0212
  653MPD2    C5 9720   0.782   4.031  17.608 -0.3460  0.1591  0.6954
  653MPD2     H 9721   0.978   4.257  17.370  0.2785 -0.8011 -1.0520
  653MPD2    H1 9722   0.741   3.908  17.445  0.3406 -0.5923  0.9452
  653MPD2    H2 9723   0.807   4.178  17.756  1.0264  0.3339  0.2499
  653MPD2    H3 9724   0.731   3.971  17.683  1.8924 -1.2616  1.0695
  653MPD2     N 9725   0.893   4.037  17.258  0.1823 -0.3018 -0.5797
  653MPD2    H5 9726   0.928   4.111  17.198  1.6079 -0.0100  0.6386
  653MPD2    N1 9727   0.974   4.353  17.620 -0.7933 -0.0614 -0.3269
  653MPD2    H7 9728   1.030   4.410  17.556 -2.0742  1.4983 -0.0606
  654TMC3    C1 9729   0.897   3.904  17.052  0.2261  0.3901  0.3495
  654TMC3    C2 9730   0.825   3.993  16.976 -0.1227 -0.4668 -0.1289
  654TMC3    C3 9731   0.783   3.969  16.852  0.1988  0.4771 -0.3500
  654TMC3    C4 9732   0.889   3.776  17.004 -0.0694 -0.1659  0.3916
  654TMC3    C5 9733   0.842   3.746  16.878 -0.1854  0.3908 -0.3033
  654TMC3    C6 9734   0.784   3.844  16.803 -0.2494 -0.3362 -0.5076
  654TMC3     C 9735   0.875   3.915  17.194  0.6399 -0.1294  0.3060
  654TMC3     O 9736   0.831   3.811  17.241  0.3034 -0.2777  0.9716
  654TMC3     H 9737   0.830   4.097  17.004 -1.1532 -0.5087  0.2058
  654TMC3    H1 9738   0.941   3.700  17.061  1.2686  0.5729  0.1406
  654TMC3    H2 9739   0.750   3.814  16.704  0.0614  2.9526 -1.6163
  654TMC3    C7 9740   0.801   3.608  16.852  0.7374 -0.3435 -0.0096
  654TMC3    C8 9741   0.698   4.069  16.789 -0.1204  0.5617  0.0234
  654TMC3    O1 9742   0.714   3.594  16.771 -0.0200 -0.0256 -0.0990
  654TMC3    O2 9743   0.655   4.149  16.874 -0.6499  0.0880 -0.2753
  655MPD2     C 9744   2.561   4.009  15.600  0.0317 -1.1079 -0.5855
  655MPD2    C1 9745   2.458   4.102  15.563 -0.1254  0.2696 -0.5266
  655MPD2    C2 9746   2.391   4.083  15.441  0.4261 -0.9094  0.4890
  655MPD2    C3 9747   2.435   3.994  15.350 -0.0532 -0.2931 -0.3970
  655MPD2    C4 9748   2.556   3.932  15.372 -0.3823 -0.4752 -0.2154
  655MPD2    C5 9749   2.614   3.934  15.496  0.3202 -0.1787  0.0848
  655MPD2     H 9750   2.300   4.137  15.420  1.2388 -0.2079 -1.2760
  655MPD2    H1 9751   2.599   3.869  15.295 -0.6633 -1.4892  0.4681
  655MPD2    H2 9752   2.620   4.002  15.691  0.3937  2.2894 -0.5673
  655MPD2    H3 9753   2.706   3.881  15.521  1.2969  1.7041  0.4983
  655MPD2     N 9754   2.385   3.978  15.221  0.3796 -0.0228  0.2785
  655MPD2    H5 9755   2.447   3.918  15.168  0.1191 -0.6083  0.6424
  655MPD2    N1 9756   2.424   4.204  15.653  0.1838 -0.5468 -0.2487
  655MPD2    H7 9757   2.338   4.249  15.624  0.1415  0.5234  1.5214
  656TMC3    C1 9758   2.425   4.350  15.829  0.2277  0.1584 -0.3761
  656TMC3    C2 9759   2.405   4.364  15.960 -0.5278  0.5046  0.1824
  656TMC3    C3 9760   2.320   4.462  16.009  0.4711 -0.3544 -0.3558
  656TMC3    C4 9761   2.365   4.441  15.740 -0.1790 -0.7115  0.7801
  656TMC3    C5 9762   2.285   4.537  15.795  0.7638  0.3408  1.3705
  656TMC3    C6 9763   2.271   4.562  15.927  0.4013 -0.0642  0.3198
  656TMC3     C 9764   2.479   4.224  15.777 -0.2188  0.3366 -0.7845
  656TMC3     O 9765   2.573   4.174  15.837  0.0580 -0.1780  0.1616
  656TMC3     H 9766   2.451   4.296  16.030 -1.3796 -0.5435 -0.2909
  656TMC3    H1 9767   2.396   4.434  15.636 -0.4320  0.3657  0.6336
  656TMC3    H2 9768   2.202   4.637  15.966 -0.8446  0.1681 -2.3280
  656TMC3    C7 9769   2.254   4.645  15.707  0.5541  0.1612 -0.0255
  656TMC3    C8 9770   2.274   4.430  16.143 -0.9169  0.6053 -0.9579
  656TMC3    O1 9771   2.341   4.669  15.625  0.0897  0.0006 -0.0046
  656TMC3    O2 9772   2.293   4.318  16.189  0.6906 -0.6851 -0.3664
  657TMC3    C1 9773   1.306   3.543  14.840 -0.9231  0.1216  0.2094
  657TMC3    C2 9774   1.329   3.543  14.974  0.4958  0.3537  0.6976
  657TMC3    C3 9775   1.242   3.601  15.060  0.5369  0.2733  0.0395
  657TMC3    C4 9776   1.198   3.604  14.784 -0.5774 -0.5410 -0.2135
  657TMC3    C5 9777   1.114   3.662  14.875  0.0224 -0.4905  0.5517
  657TMC3    C6 9778   1.126   3.649  15.010  0.4337 -0.1573 -0.6978
  657TMC3     C 9779   1.387   3.464  14.749 -0.3550 -0.4302 -0.2666
  657TMC3     O 9780   1.340   3.446  14.633  0.4070 -0.0108 -0.1058
  657TMC3     H 9781   1.420   3.500  15.014  0.7866  0.0524 -0.2889
  657TMC3    H1 9782   1.181   3.597  14.677 -1.3880  0.0650 -0.1248
  657TMC3    H2 9783   1.049   3.696  15.070  1.1000 -0.0776  0.0969
  657TMC3    C7 9784   1.008   3.752  14.834  0.1894  0.6173 -0.2139
  657TMC3    C8 9785   1.275   3.623  15.202  0.3557  0.4825 -0.8225
  657TMC3    O1 9786   0.917   3.790  14.910  0.1832 -0.1431  0.3831
  657TMC3    O2 9787   1.349   3.534  15.240 -0.3068 -0.6334 -0.4246
  658MPD2     C 9788   2.716   3.856  14.688 -0.5215  0.3835 -0.3122
  658MPD2    C1 9789   2.589   3.886  14.643  0.3435 -0.4321 -0.3670
  658MPD2    C2 9790   2.567   3.921  14.507  1.2397 -0.1126 -0.1052
  658MPD2    C3 9791   2.676   3.923  14.423 -0.2993  0.4684 -0.6099
  658MPD2    C4 9792   2.800   3.871  14.462 -0.2638 -0.1887  0.0952
  658MPD2    C5 9793   2.817   3.845  14.594 -0.1181 -0.1917 -0.0123
  658MPD2     H 9794   2.470   3.950  14.466  0.4209 -0.2233  1.7409
  658MPD2    H1 9795   2.886   3.868  14.396 -0.8742  0.1388 -0.7147
  658MPD2    H2 9796   2.733   3.834  14.792 -0.8345  2.3743  0.1628
  658MPD2    H3 9797   2.915   3.831  14.637  0.0761  1.1326 -0.0306
  658MPD2     N 9798   2.642   3.952  14.289 -0.1569 -0.4646 -0.4682
  658MPD2    H5 9799   2.543   3.967  14.270 -0.0071  0.8958 -0.1575
  658MPD2    N1 9800   2.486   3.904  14.735  0.2124  0.3889  0.7814
  658MPD2    H7 9801   2.522   3.893  14.830  1.0018 -0.7712  0.3490
  659TMC3    C1 9802   2.280   3.925  14.829 -0.5266 -0.4970 -0.5530
  659TMC3    C2 9803   2.321   3.956  14.955  0.3254  0.0475 -0.7343
  659TMC3    C3 9804   2.230   3.954  15.060 -0.3380  0.0529  0.3646
  659TMC3    C4 9805   2.153   3.881  14.802 -0.2697  0.2308  0.6805
  659TMC3    C5 9806   2.070   3.869  14.910 -0.1411 -0.0051 -0.0604
  659TMC3    C6 9807   2.097   3.912  15.037 -0.0644  0.9647  0.6025
  659TMC3     C 9808   2.358   3.954  14.707 -0.3932  1.0987  0.2402
  659TMC3     O 9809   2.303   3.958  14.601  0.0737  0.1677 -0.0213
  659TMC3     H 9810   2.405   4.024  14.963 -0.5520  0.9279  1.2760
  659TMC3    H1 9811   2.122   3.863  14.700  0.9616  1.4989  0.0849
  659TMC3    H2 9812   2.030   3.902  15.122  0.2856  3.5715  1.1832
  659TMC3    C7 9813   1.934   3.852  14.885 -0.7261  0.2521  0.1376
  659TMC3    C8 9814   2.261   4.022  15.188  0.3131 -0.4246 -0.6511
  659TMC3    O1 9815   1.855   3.881  14.971  0.0198  0.3489  0.3301
  659TMC3    O2 9816   2.169   4.075  15.241  0.2618 -0.0123  0.0787
  660MPD2     C 9817   0.114   3.088  12.361  0.4677  0.0681 -0.5525
  660MPD2    C1 9818   0.012   3.161  12.422  0.1434 -0.6453 -0.5235
  660MPD2    C2 9819   4.730   3.149  12.558 -0.0125 -0.2700 -0.2729
  660MPD2    C3 9820   0.051   3.048  12.625 -0.3728  0.8473  0.4014
  660MPD2    C4 9821   0.143   2.969  12.557  1.1107  0.3531 -0.7525
  660MPD2    C5 9822   0.175   2.990  12.421  0.9077 -0.7671  0.3106
  660MPD2     H 9823   4.655   3.215  12.603  0.3271  1.1292 -1.7607
  660MPD2    H1 9824   0.185   2.884  12.609  0.6531  0.6171  0.0477
  660MPD2    H2 9825   0.158   3.113  12.265 -1.1740  0.2288 -1.2597
  660MPD2    H3 9826   0.242   2.921  12.373  1.9950 -0.2629  1.0999
  660MPD2     N 9827   0.019   3.011  12.756 -0.0098 -0.6475  0.0097
  660MPD2    H5 9828   0.047   2.918  12.786 -1.4664 -0.9961  0.2673
  660MPD2    N1 9829   4.699   3.266  12.351  0.2559 -0.3833 -0.1559
  660MPD2    H7 9830   4.731   3.272  12.255 -0.8589  1.1143 -0.4214
  661TMC3    C1 9831   4.557   3.439  12.272  0.8888 -0.4696  0.2732
  661TMC3    C2 9832   4.631   3.432  12.156  0.4332 -0.4296 -0.2976
  661TMC3    C3 9833   4.544   3.466  12.049 -0.0613 -0.6660  0.1673
  661TMC3    C4 9834   4.425   3.466  12.287  0.2965 -0.5797 -0.2376
  661TMC3    C5 9835   4.350   3.490  12.173 -0.5215  0.2683  0.0994
  661TMC3    C6 9836   4.409   3.496  12.051 -0.6133  1.1595  0.2507
  661TMC3     C 9837   4.622   3.374  12.388 -0.5668 -0.4416 -0.3125
  661TMC3     O 9838   4.590   3.418  12.499  0.4519  0.7284 -0.0673
  661TMC3     H 9839   4.739   3.428  12.153  0.4352 -2.0811  2.1238
  661TMC3    H1 9840   4.370   3.448  12.379 -1.8282  0.6385 -1.2766
  661TMC3    H2 9841   4.354   3.502  11.958  1.3520  0.7071 -0.9659
  661TMC3    C7 9842   4.219   3.428  12.170  0.6424 -0.5593 -0.0587
  661TMC3    C8 9843   4.612   3.463  11.922  0.3009 -0.6202 -0.1670
  661TMC3    O1 9844   4.119   3.496  12.146  0.3828 -0.1412  0.4395
  661TMC3    O2 9845   4.702   3.378  11.909 -0.5203  0.5079 -0.8792
  662MPD2     C 9846   0.461   2.203   0.559 -0.2064  0.8827  0.1320
  662MPD2    C1 9847   0.424   2.191   0.429 -0.3100  0.0237  0.2120
  662MPD2    C2 9848   0.396   2.306   0.358  0.1374 -0.5237 -0.5307
  662MPD2    C3 9849   0.383   2.431   0.420  0.6188 -0.6974  0.2033
  662MPD2    C4 9850   0.430   2.444   0.548  0.4916 -0.3398  0.8357
  662MPD2    C5 9851   0.463   2.333   0.616 -0.8467  0.2906  0.2040
  662MPD2     H 9852   0.372   2.297   0.253 -0.2701 -0.0033 -0.4854
  662MPD2    H1 9853   0.443   2.541   0.595  1.5973 -0.9306  1.7374
  662MPD2    H2 9854   0.487   2.115   0.616 -1.1085  0.2395 -0.4339
  662MPD2    H3 9855   0.502   2.341   0.717 -0.3442 -0.1019  0.0371
  662MPD2     N 9856   0.334   2.550   0.353  0.6610  0.1809 -0.0956
  662MPD2    H5 9857   0.334   2.638   0.403 -0.3616 -1.4986  2.8559
  662MPD2    N1 9858   0.421   2.071   0.359 -0.0695  0.2630 -0.4270
  662MPD2    H7 9859   0.388   2.070   0.263 -1.6733  1.6489  0.1139
  663TMC3    C1 9860   0.424   1.836   0.308  0.3378 -0.2082 -0.4274
  663TMC3    C2 9861   0.328   1.875   0.213  0.3076 -0.0099  0.2347
  663TMC3    C3 9862   0.334   1.808   0.096 -0.7427 -0.0465  0.1921
  663TMC3    C4 9863   0.519   1.740   0.289  0.0505 -0.6783 -0.1167
  663TMC3    C5 9864   0.515   1.675   0.174  0.5972 -0.3819  0.0072
  663TMC3    C6 9865   0.412   1.699   0.087 -0.0604  0.5416 -0.6507
  663TMC3     C 9866   0.461   1.942   0.403  0.0201  0.3351  0.5940
  663TMC3     O 9867   0.514   1.910   0.506 -0.0420 -0.0576 -0.9523
  663TMC3     H 9868   0.243   1.934   0.248  0.0074  0.2887 -0.9936
  663TMC3    H1 9869   0.582   1.710   0.373 -1.6445 -2.7338  0.4159
  663TMC3    H2 9870   0.412   1.653  17.748  1.9247 -1.5142  0.2917
  663TMC3    C7 9871   0.624   1.578   0.143 -0.5186 -0.4522 -0.2140
  663TMC3    C8 9872   0.199   1.803   0.033 -0.1920 -0.1382  0.6522
  663TMC3    O1 9873   0.695   1.562   0.238 -0.5958 -0.2110 -0.0850
  663TMC3    O2 9874   0.161   1.692  17.756  0.1327 -0.3367 -0.2006
  664MPD2     C 9875   3.592   0.857  17.245 -0.1635  0.4229  0.1974
  664MPD2    C1 9876   3.638   0.959  17.327 -0.0787 -0.2750 -0.9029
  664MPD2    C2 9877   3.597   0.963  17.460  0.7633  0.3270  0.0297
  664MPD2    C3 9878   3.498   0.877  17.506  0.2905  0.6296 -0.0019
  664MPD2    C4 9879   3.450   0.783  17.422  0.3206 -0.5694 -0.5998
  664MPD2    C5 9880   3.495   0.769  17.290 -0.4220  0.0408 -0.1088
  664MPD2     H 9881   3.639   1.044  17.519 -1.6312  1.9000 -0.3958
  664MPD2    H1 9882   3.366   0.718  17.446 -0.8214  0.7674 -0.9492
  664MPD2    H2 9883   3.619   0.858  17.140  0.0576  1.1685  0.2649
  664MPD2    H3 9884   3.435   0.709  17.223 -1.3990  2.4377 -1.3942
  664MPD2     N 9885   3.437   0.910  17.633 -0.2072  0.4822  0.6875
  664MPD2    H5 9886   3.473   0.991  17.682  0.9047 -0.6625  1.7659
  664MPD2    N1 9887   3.724   1.067  17.288 -0.1795  0.3953 -0.2897
  664MPD2    H7 9888   3.753   1.129  17.362 -0.2059  0.5602 -0.4168
  665TMC3    C1 9889   3.351   0.881   0.082  0.2277 -0.0405  0.0343
  665TMC3    C2 9890   3.235   0.870   0.151  0.1048  0.2302  0.4085
  665TMC3    C3 9891   3.218   0.960   0.256  0.2110  0.1559  0.4661
  665TMC3    C4 9892   3.461   0.954   0.119 -0.1581 -0.1438  0.4963
  665TMC3    C5 9893   3.442   1.040   0.225  0.2277  0.0718  0.2617
  665TMC3    C6 9894   3.321   1.053   0.285 -0.5792  0.4963  1.0703
  665TMC3     C 9895   3.351   0.830  17.705 -0.7454 -0.1057  0.8026
  665TMC3     O 9896   3.278   0.739  17.667  0.3060 -0.1699 -0.8579
  665TMC3     H 9897   3.155   0.808   0.115  0.0632 -0.0305  0.9468
  665TMC3    H1 9898   3.559   0.940   0.075 -0.4746  4.3196 -1.7114
  665TMC3    H2 9899   3.309   1.118   0.370 -0.1899  0.4206  1.1846
  665TMC3    C7 9900   3.565   1.113   0.260 -0.6338 -0.9516 -0.4278
  665TMC3    C8 9901   3.151   0.892   0.364  0.1008 -0.4710 -0.3537
  665TMC3    O1 9902   3.665   1.079   0.203  0.6267  0.6185 -0.3288
  665TMC3    O2 9903   3.210   0.796   0.412 -0.1240  0.3746 -0.1513
  666TMC3    C1 9904   2.722   0.250   9.809 -0.5785 -0.0084 -0.9385
  666TMC3    C2 9905   2.758   0.203   9.688  0.8322  0.6743  0.6992
  666TMC3    C3 9906   2.759   0.299   9.589  0.2075  0.5686 -0.3548
  666TMC3    C4 9907   2.695   0.383   9.834 -0.7470  0.0480  0.1355
  666TMC3    C5 9908   2.674   0.467   9.731  0.1147 -1.3642  0.1141
  666TMC3    C6 9909   2.711   0.421   9.603 -0.7477  0.1808  0.4919
  666TMC3     C 9910   2.694   0.155   9.915 -0.3731 -0.1016 -1.2499
  666TMC3     O 9911   2.677   0.218  10.023 -0.3065  0.0798  0.1247
  666TMC3     H 9912   2.808   0.107   9.681 -1.2580 -0.4204  0.9808
  666TMC3    H1 9913   2.660   0.410   9.933 -0.6553  0.5877  0.0200
  666TMC3    H2 9914   2.691   0.480   9.514  1.2653 -2.0969 -1.4415
  666TMC3    C7 9915   2.660   0.608   9.771  0.1009 -0.0081 -0.6722
  666TMC3    C8 9916   2.823   0.279   9.457  0.2282  0.3982 -0.0930
  666TMC3    O1 9917   2.630   0.625   9.886 -0.4700  0.0294 -0.4310
  666TMC3    O2 9918   2.766   0.197   9.396  0.5734  0.2553 -0.0995
  667MPD2     C 9919   4.325   1.016  14.317  0.0199 -0.1557 -0.1226
  667MPD2    C1 9920   4.274   1.013  14.446 -0.3816  0.0585  0.5617
  667MPD2    C2 9921   4.154   0.949  14.470 -0.1163  0.5897 -0.0247
  667MPD2    C3 9922   4.079   0.896  14.361  0.1046  0.6276 -0.3945
  667MPD2    C4 9923   4.129   0.899  14.232  0.5936  0.8792  0.4061
  667MPD2    C5 9924   4.252   0.957  14.217  0.1311  0.5811 -0.7871
  667MPD2     H 9925   4.109   0.949  14.568 -1.3329 -0.2234 -0.5784
  667MPD2    H1 9926   4.082   0.850  14.147  3.4165  0.8958 -1.1544
  667MPD2    H2 9927   4.423   1.051  14.289 -0.7068  1.1044 -1.0801
  667MPD2    H3 9928   4.298   0.955  14.119 -1.6854  1.0028 -1.6482
  667MPD2     N 9929   3.949   0.830  14.368 -0.4972 -0.1990  0.3295
  667MPD2    H5 9930   3.903   0.804  14.281 -0.1490  0.4595 -0.0505
  667MPD2    N1 9931   4.345   1.063  14.557 -0.4689  0.3128  1.0370
  667MPD2    H7 9932   4.301   1.048  14.647 -1.4299 -0.2923  0.4673
  668TMC3    C1 9933   4.504   1.175  14.682 -0.9385  0.3240 -0.8611
  668TMC3    C2 9934   4.588   1.283  14.687  0.5106  0.3517 -0.4166
  668TMC3    C3 9935   4.611   1.359  14.798 -0.0421  0.3630 -0.3577
  668TMC3    C4 9936   4.443   1.132  14.799  0.0738 -0.3800 -0.5852
  668TMC3    C5 9937   4.461   1.213  14.910 -0.6540  0.3767  0.4142
  668TMC3    C6 9938   4.544   1.327  14.915 -0.5581  0.0020  0.5234
  668TMC3     C 9939   4.467   1.126  14.549 -0.5424  0.0509 -1.1119
  668TMC3     O 9940   4.541   1.147  14.453 -0.2969 -0.3963  1.0430
  668TMC3     H 9941   4.609   1.319  14.587  0.9377 -0.9543 -0.7952
  668TMC3    H1 9942   4.388   1.039  14.804  0.1457 -0.2723  2.1751
  668TMC3    H2 9943   4.571   1.378  15.007  3.3459 -1.2802  0.0722
  668TMC3    C7 9944   4.459   1.150  15.039 -0.1723 -0.2435  0.0473
  668TMC3    C8 9945   4.710   1.461  14.808 -0.1244 -0.1550 -0.5453
  668TMC3    O1 9946   4.526   1.196  15.129  0.1597  0.1808 -0.5315
  668TMC3    O2 9947   4.718   1.516  14.918 -0.1036  0.4125 -0.3591
  669TMC3    C1 9948   2.472   0.973  14.311  0.8015 -1.1156 -0.0053
  669TMC3    C2 9949   2.361   1.054  14.300 -0.8251  0.1579  0.4342
  669TMC3    C3 9950   2.363   1.158  14.209 -0.1825  0.0775  0.0842
  669TMC3    C4 9951   2.595   1.003  14.254  0.0896  0.3228 -0.6658
  669TMC3    C5 9952   2.593   1.112  14.169 -0.6597 -0.1711 -0.3773
  669TMC3    C6 9953   2.481   1.187  14.140 -0.0861 -0.0480 -0.5937
  669TMC3     C 9954   2.463   0.876  14.417  0.0948 -0.7423 -0.2061
  669TMC3     O 9955   2.354   0.842  14.455 -0.1279  0.1587 -0.1223
  669TMC3     H 9956   2.274   1.021  14.354 -0.5000 -0.3243  0.6616
  669TMC3    H1 9957   2.676   0.933  14.269 -0.0688  0.5380  1.1398
  669TMC3    H2 9958   2.487   1.271  14.072  1.5921  0.3672  0.0733
  669TMC3    C7 9959   2.720   1.154  14.129  0.6311 -0.0588  0.1895
  669TMC3    C8 9960   2.229   1.210  14.169 -0.1841  0.0043  0.4642
  669TMC3    O1 9961   2.813   1.105  14.184  0.0389  0.3728 -0.6612
  669TMC3    O2 9962   2.129   1.170  14.222  0.2367 -0.1964 -0.0617
  670MPD2     C 9963   0.594   3.200  13.455  0.5638 -0.5502 -0.4029
  670MPD2    C1 9964   0.723   3.171  13.462 -0.0576 -0.1991 -1.1158
  670MPD2    C2 9965   0.769   3.110  13.578 -0.3805 -0.7485  0.0949
  670MPD2    C3 9966   0.693   3.122  13.698  0.0960  0.8644 -0.1903
  670MPD2    C4 9967   0.561   3.161  13.692  0.1216 -0.4172  0.1954
  670MPD2    C5 9968   0.517   3.203  13.569  0.1195  0.6519 -0.5388
  670MPD2     H 9969   0.867   3.065  13.570  0.5140  1.3023 -0.6202
  670MPD2    H1 9970   0.494   3.159  13.777 -1.7991  0.3327 -1.3130
  670MPD2    H2 9971   0.546   3.237  13.365  1.5354  3.2451  0.6562
  670MPD2    H3 9972   0.411   3.223  13.554 -0.0792  1.0102  1.3572
  670MPD2     N 9973   0.755   3.084  13.818 -0.4127 -0.0772 -0.0044
  670MPD2    H5 9974   0.851   3.054  13.809  0.4420  1.8738  2.4635
  670MPD2    N1 9975   0.808   3.169  13.351 -0.2048  0.5008  0.1689
  670MPD2    H7 9976   0.904   3.140  13.363 -0.5280 -0.7992 -0.4327
  671TMC3    C1 9977   0.792   3.068  14.053  0.1954  0.2426  0.5237
  671TMC3    C2 9978   0.925   3.082  14.011  0.7974 -0.3911  0.2618
  671TMC3    C3 9979   1.019   3.003  14.067 -0.1181 -0.4385 -0.2293
  671TMC3    C4 9980   0.758   2.956  14.121  0.1900 -0.3358  0.3360
  671TMC3    C5 9981   0.855   2.864  14.153 -0.2587 -0.3750 -0.3359
  671TMC3    C6 9982   0.987   2.890  14.136 -0.0501  0.3628 -0.2935
  671TMC3     C 9983   0.695   3.083  13.943  0.5647 -0.7479  0.0778
  671TMC3     O 9984   0.575   3.086  13.974 -0.5192  0.1182 -0.4855
  671TMC3     H 9985   0.947   3.179  13.968  0.0874 -0.4171 -0.1619
  671TMC3    H1 9986   0.652   2.941  14.140 -0.4702  2.5963 -1.0938
  671TMC3    H2 9987   1.054   2.811  14.169  0.9070  2.0589  1.8294
  671TMC3    C7 9988   0.819   2.741  14.093 -0.8025  0.7065 -0.3737
  671TMC3    C8 9989   1.157   3.013  14.018 -0.0308  0.1134 -0.2909
  671TMC3    O1 9990   0.905   2.672  14.040 -0.2595  0.1179  0.0252
  671TMC3    O2 9991   1.233   2.915  14.021 -0.0905 -0.1482 -0.0531
  672MPD2     C 9992   1.094   3.780   1.435  0.6736  0.5300  0.6141
  672MPD2    C1 9993   1.111   3.854   1.320  1.0907  0.1623 -0.6626
  672MPD2    C2 9994   1.181   3.974   1.325 -0.1662  0.0515  0.0011
  672MPD2    C3 9995   1.247   4.008   1.444  0.2088 -0.3891 -0.1288
  672MPD2    C4 9996   1.246   3.921   1.550  0.0497  0.0070 -0.4111
  672MPD2    C5 9997   1.169   3.808   1.544  0.6489  0.2017  0.3381
  672MPD2     H 9998   1.193   4.045   1.244 -0.6390  0.7792  0.5669
  672MPD2    H1 9999   1.308   3.929   1.639 -0.6237  0.1827  0.0450
  672MPD2    H210000   1.028   3.695   1.444  1.7875 -0.3434  0.4979
  672MPD2    H310001   1.171   3.736   1.625 -2.6364 -1.7592 -1.3411
  672MPD2     N10002   1.322   4.132   1.450  0.4071  0.3559 -0.0979
  672MPD2    H510003   1.385   4.144   1.529  0.7374  0.3431 -0.3583
  672MPD2    N110004   1.040   3.824   1.205 -0.4334  0.3564  0.4878
  672MPD2    H710005   1.046   3.897   1.135  1.9525  0.6846  1.0465
  673TMC3    C110006   0.918   3.715   1.046  0.4933 -0.0387  0.1780
  673TMC3    C210007   0.946   3.630   0.944  0.3496  1.0018 -0.9409
  673TMC3    C310008   0.861   3.650   0.836  0.5492 -0.2489 -0.0947
  673TMC3    C410009   0.824   3.817   1.047  0.4213 -0.1016  0.8227
  673TMC3    C510010   0.736   3.822   0.944 -0.1113 -0.4684  0.0124
  673TMC3    C610011   0.754   3.733   0.833  0.7203 -0.1689  0.2472
  673TMC3     C10012   0.986   3.702   1.174  0.5680  0.3428  0.8116
  673TMC3     O10013   0.989   3.594   1.236 -0.4994  0.1597  0.1570
  673TMC3     H10014   1.026   3.558   0.957 -2.8414 -2.6994 -1.7724
  673TMC3    H110015   0.811   3.887   1.128 -0.1598  0.5114  0.2017
  673TMC3    H210016   0.698   3.747   0.741  2.2532  1.2031 -0.4746
  673TMC3    C710017   0.633   3.925   0.939 -0.1076  0.1494  0.2322
  673TMC3    C810018   0.923   3.628   0.705 -0.3661 -0.1959 -0.0163
  673TMC3    O110019   0.593   3.972   1.042  0.0167 -0.1448  0.2875
  673TMC3    O210020   0.853   3.645   0.608  0.7324  0.2733 -0.0141
  674MPD2     C10021   0.577   3.536  17.154  0.2509  0.1026  0.0431
  674MPD2    C110022   0.532   3.455  17.254 -0.0170 -0.1256 -0.0756
  674MPD2    C210023   0.487   3.507  17.376 -0.6499 -0.8239  0.3211
  674MPD2    C310024   0.497   3.642  17.397 -0.1527  0.5205 -0.6325
  674MPD2    C410025   0.528   3.728  17.292 -0.4026 -1.1776  0.0497
  674MPD2    C510026   0.554   3.671  17.166  0.0326 -0.5274 -0.1297
  674MPD2     H10027   0.449   3.450  17.460 -0.6295 -2.3780 -0.7152
  674MPD2    H110028   0.518   3.835  17.306  2.9142 -0.9103  0.3023
  674MPD2    H210029   0.630   3.506  17.065 -0.2679 -0.5272 -0.0512
  674MPD2    H310030   0.591   3.733  17.086 -2.7643  0.8107 -0.3861
  674MPD2     N10031   0.471   3.692  17.527 -0.2197  0.0871  0.3345
  674MPD2    H510032   0.454   3.622  17.598 -1.3016  1.0831  1.0671
  674MPD2    N110033   0.557   3.321  17.245 -0.6754 -0.2964 -0.2829
  674MPD2    H710034   0.618   3.295  17.169 -1.2224 -0.1372 -0.7764
  675TMC3    C110035   0.650   3.143  17.373 -0.7555 -0.6072  0.5098
  675TMC3    C210036   0.614   3.024  17.436  0.5095  0.5635  0.5499
  675TMC3    C310037   0.704   2.967  17.524  0.2806 -0.8699 -0.0777
  675TMC3    C410038   0.769   3.204  17.393 -0.7472 -0.1897  0.4408
  675TMC3    C510039   0.858   3.139  17.472 -0.4568  0.1348 -0.1348
  675TMC3    C610040   0.828   3.022  17.536 -0.0276 -0.1685  0.1993
  675TMC3     C10041   0.544   3.235  17.349  1.0797 -0.4018  0.2136
  675TMC3     O10042   0.444   3.220  17.420 -0.6759  0.6533 -1.2510
  675TMC3     H10043   0.520   2.977  17.414  0.8411 -0.0469  0.4369
  675TMC3    H110044   0.795   3.296  17.343 -1.1652  0.3715  1.2601
  675TMC3    H210045   0.900   2.969  17.597  0.9289 -0.0917 -0.8543
  675TMC3    C710046   0.971   3.214  17.513  0.0951 -0.2988  0.5278
  675TMC3    C810047   0.658   2.863  17.617  0.3268  0.3780  0.1172
  675TMC3    O110048   1.082   3.172  17.508 -0.4305 -0.0520  0.1005
  675TMC3    O210049   0.565   2.792  17.583  0.4897  0.0674  0.4458
  676MPD2     C10050   3.635   1.897  10.822  0.1369  0.1124  0.2633
  676MPD2    C110051   3.528   1.809  10.833  0.0776 -0.2919 -0.1714
  676MPD2    C210052   3.548   1.676  10.790 -0.4303 -0.2549 -0.8712
  676MPD2    C310053   3.671   1.630  10.751  0.6182  0.2086 -0.4159
  676MPD2    C410054   3.775   1.722  10.732 -0.3844  0.2624  0.0961
  676MPD2    C510055   3.750   1.856  10.771  0.0177 -0.3287  0.0126
  676MPD2     H10056   3.464   1.608  10.787 -1.3299  0.6923  2.3595
  676MPD2    H110057   3.868   1.689  10.687  0.4979 -0.5012  2.5273
  676MPD2    H210058   3.621   2.003  10.839 -0.8713 -0.5178  3.1750
  676MPD2    H310059   3.828   1.930  10.759  1.0020 -1.4266 -0.4148
  676MPD2     N10060   3.702   1.492  10.734  0.0986 -0.6121  0.6394
  676MPD2    H510061   3.792   1.475  10.689 -0.7998  1.1618 -1.8348
  676MPD2    N110062   3.401   1.843  10.876  0.0022 -0.7638  0.0691
  676MPD2    H710063   3.338   1.763  10.878 -2.5660  1.1990 -1.8131
  677TMC3    C110064   3.230   1.978  10.959 -0.5109  0.0673 -0.8093
  677TMC3    C210065   3.180   1.876  11.028 -0.1351  0.0381  0.3727
  677TMC3    C310066   3.074   1.900  11.104 -0.3943 -0.4140 -0.2576
  677TMC3    C410067   3.168   2.100  10.949 -0.6803  0.2392  0.2257
  677TMC3    C510068   3.053   2.116  11.018  0.5153 -0.3421  0.7708
  677TMC3    C610069   3.005   2.022  11.104 -0.3309 -0.4157  0.4653
  677TMC3     C10070   3.359   1.970  10.904  0.3433 -0.2772 -0.4332
  677TMC3     O10071   3.425   2.074  10.900  0.3198  0.5649 -0.3553
  677TMC3     H10072   3.246   1.794  11.055 -1.1796 -0.6307  0.8880
  677TMC3    H110073   3.195   2.175  10.876  0.1121 -0.1359  0.1384
  677TMC3    H210074   2.922   2.045  11.169 -1.2431 -0.0518 -0.8462
  677TMC3    C710075   3.003   2.252  11.041 -0.6466 -0.1874  0.2570
  677TMC3    C810076   3.083   1.828  11.232  0.9675  1.1904 -0.0956
  677TMC3    O110077   2.890   2.260  11.090  0.3797  0.2165  0.7467
  677TMC3    O210078   3.185   1.776  11.262  0.2256 -0.3323 -0.3776
  678MPD2     C10079   4.163   2.552   1.247  0.2248  0.1941  0.0531
  678MPD2    C110080   4.212   2.439   1.188 -0.4222 -0.1899  0.5515
  678MPD2    C210081   4.120   2.350   1.138  0.5820  0.4478 -0.1542
  678MPD2    C310082   3.986   2.370   1.151 -0.1146 -0.4225 -0.3169
  678MPD2    C410083   3.938   2.476   1.221 -0.0839 -0.1806  0.0157
  678MPD2    C510084   4.033   2.566   1.262  0.2277  0.2994  0.2175
  678MPD2     H10085   4.155   2.260   1.089 -0.7607 -0.0463 -0.2143
  678MPD2    H110086   3.833   2.486   1.244  0.8114 -0.4264  4.2092
  678MPD2    H210087   4.221   2.621   1.307  0.4776 -0.4014  0.4949
  678MPD2    H310088   3.995   2.646   1.327 -1.5494  0.4877 -1.0430
  678MPD2     N10089   3.907   2.281   1.071  0.0551  0.1298 -0.2567
  678MPD2    H510090   3.952   2.198   1.036 -1.2902 -0.5610 -0.3496
  678MPD2    N110091   4.353   2.411   1.170 -0.4953 -0.6586 -0.0483
  678MPD2    H710092   4.378   2.325   1.121 -1.2845 -0.9772  0.1148
  679TMC3    C110093   0.067   2.494   1.136  0.5498 -0.3907 -0.7664
  679TMC3    C210094   4.690   2.505   1.205 -0.6094 -0.3435  0.3215
  679TMC3    C310095   4.582   2.442   1.159  0.2505  0.7049 -0.0567
  679TMC3    C410096   0.069   2.435   1.013  0.4782 -0.1052  0.4781
  679TMC3    C510097   4.694   2.377   0.964 -0.5288 -0.1317  0.4257
  679TMC3    C610098   4.583   2.369   1.039  0.5095  0.2289  0.0586
  679TMC3     C10099   0.196   2.546   1.180 -0.5725 -0.7261 -0.1379
  679TMC3     O10100   0.299   2.504   1.131  0.3340  0.6854 -0.7020
  679TMC3     H10101   4.688   2.537   1.309  0.1434 -1.1346  0.5886
  679TMC3    H110102   0.161   2.435   0.955  0.3372 -0.8661  0.2487
  679TMC3    H210103   4.496   2.315   1.004  0.5228 -0.2111  0.7126
  679TMC3    C710104   4.676   2.355   0.819  0.3224 -0.5025  0.2410
  679TMC3    C810105   4.454   2.481   1.217  0.2258  0.8115 -0.2692
  679TMC3    O110106   0.006   2.420   0.745 -0.4094  0.0739  0.4625
  679TMC3    O210107   4.448   2.571   1.301  0.0943  0.0676 -0.0619
  680MPD2     C10108   4.708   0.541  13.448  0.0723  0.4381  0.3358
  680MPD2    C110109   0.088   0.503  13.512  0.3968  0.1464  0.6061
  680MPD2    C210110   0.180   0.604  13.547  0.7132 -0.1154  0.2041
  680MPD2    C310111   0.171   0.725  13.497 -0.3404  0.1979 -0.1940
  680MPD2    C410112   0.050   0.757  13.439  0.8530  0.0820  0.1912
  680MPD2    C510113   4.691   0.676  13.415  0.9008  0.1722  0.0853
  680MPD2     H10114   0.265   0.562  13.601  1.4340  0.8586 -0.1725
  680MPD2    H110115   0.034   0.858  13.405 -0.5935 -0.7125 -1.4861
  680MPD2    H210116   4.627   0.475  13.420  0.2363 -0.6507  2.4591
  680MPD2    H310117   4.605   0.716  13.363 -0.3940 -3.1271 -0.3646
  680MPD2     N10118   0.267   0.826  13.521  0.2821 -0.0678 -0.4802
  680MPD2    H510119   0.242   0.923  13.501 -1.6382  0.0046  2.2073
  680MPD2    N110120   0.123   0.368  13.541  0.4143 -0.1632  0.5223
  680MPD2    H710121   0.218   0.353  13.573  0.7952  3.7210  1.1884
  681TMC3    C110122   0.126   0.150  13.598 -0.3421  0.1723  0.2240
  681TMC3    C210123   0.094   0.118  13.722 -0.2896  0.1438 -0.0387
  681TMC3    C310124   0.198   0.099  13.807 -0.1568  0.6654 -0.2439
  681TMC3    C410125   0.257   0.150  13.554  0.0135 -0.7601  0.4463
  681TMC3    C510126   0.354   0.122  13.639 -0.0901  0.2349  0.6613
  681TMC3    C610127   0.330   0.094  13.772  0.0329  0.0561 -0.1708
  681TMC3     C10128   0.038   0.261  13.546  0.0435  0.5911 -0.3339
  681TMC3     O10129   4.655   0.243  13.531 -0.1126 -0.3807 -0.4367
  681TMC3     H10130   4.732   0.143  13.744 -1.4137 -2.5405 -2.2692
  681TMC3    H110131   0.277   0.165  13.448  0.8234  1.9500  0.9955
  681TMC3    H210132   0.401   0.067  13.850  1.3119 -1.7207 -1.9513
  681TMC3    C710133   0.480   0.068  13.591 -0.8182  0.1850  0.6964
  681TMC3    C810134   0.161   0.112  13.947 -0.4898  0.4169 -0.6246
  681TMC3    O110135   0.536   4.732  13.669  0.5433  0.1216  0.4462
  681TMC3    O210136   0.044   0.085  13.971 -0.0919  0.2034 -0.0921
  682MPD2     C10137   2.095   1.697  10.334 -0.1667 -0.2867 -0.4352
  682MPD2    C110138   2.051   1.571  10.375 -0.1418 -0.4727  0.7676
  682MPD2    C210139   1.969   1.563  10.486 -0.4488 -0.0482  0.1393
  682MPD2    C310140   1.916   1.679  10.544  0.3114 -0.1059 -0.0171
  682MPD2    C410141   1.958   1.799  10.503 -0.0545 -0.0688 -0.0474
  682MPD2    C510142   2.054   1.812  10.402  0.5875  0.0037 -0.2583
  682MPD2     H10143   1.954   1.461  10.521 -2.8802  0.8819  1.8432
  682MPD2    H110144   1.905   1.890  10.529  0.5128 -0.1239  1.3082
  682MPD2    H210145   2.169   1.716  10.258 -0.7175  1.6251 -0.5060
  682MPD2    H310146   2.093   1.907  10.368 -0.6344  0.2770 -0.9087
  682MPD2     N10147   1.808   1.685  10.642 -0.4001  0.4046 -0.2651
  682MPD2    H510148   1.787   1.776  10.682 -1.8692  0.3586 -0.9343
  682MPD2    N110149   2.084   1.448  10.314  0.5807 -0.0338 -0.0931
  682MPD2    H710150   2.051   1.365  10.362 -0.1672  0.3050 -0.0113
  683TMC3    C110151   1.675   1.656  11.044  0.2327  0.2213  0.1484
  683TMC3    C210152   1.591   1.560  11.075 -0.3709  0.3603  0.0729
  683TMC3    C310153   1.536   1.492  10.969  0.5537  0.4825  0.7238
  683TMC3    C410154   1.718   1.681  10.915 -0.1022 -0.4401  0.0723
  683TMC3    C510155   1.667   1.603  10.813  0.6935  0.2257 -0.1294
  683TMC3    C610156   1.569   1.511  10.837 -0.2019 -0.8594  0.5428
  683TMC3     C10157   1.718   1.748  11.150  0.4032 -0.4888  0.5254
  683TMC3     O10158   1.839   1.785  11.147  0.4658  0.0975 -0.2460
  683TMC3     H10159   1.579   1.522  11.176 -0.3568  0.1635 -0.0006
  683TMC3    H110160   1.793   1.752  10.884 -0.3634 -0.5642 -0.8407
  683TMC3    H210161   1.538   1.444  10.757  0.8410  0.6049 -1.0813
  683TMC3    C710162   1.741   1.577  10.693 -0.7709 -0.3216  0.2855
  683TMC3    C810163   1.465   1.371  10.981  0.6311  1.6966 -0.4373
  683TMC3    O110164   1.743   1.463  10.644  0.5857  0.4600 -0.1293
  683TMC3    O210165   1.383   1.343  10.895  0.2829 -0.0094 -0.4148
  684MPD2     C10166   1.029   1.365  16.130 -0.0420  0.0781 -0.8327
  684MPD2    C110167   0.985   1.353  15.996  0.2866  0.3590  0.2757
  684MPD2    C210168   0.977   1.459  15.911  0.1585 -0.1912  0.1719
  684MPD2    C310169   1.000   1.586  15.957  0.4369 -0.6615  0.4523
  684MPD2    C410170   1.032   1.599  16.091  0.2236 -0.0262  0.4164
  684MPD2    C510171   1.045   1.490  16.176 -0.0203 -0.4879  0.8875
  684MPD2     H10172   0.977   1.437  15.805 -1.3034  0.2682  0.0694
  684MPD2    H110173   1.037   1.698  16.135  1.8763 -0.2861  0.7894
  684MPD2    H210174   1.029   1.290  16.208 -0.5062  0.1332 -0.7820
  684MPD2    H310175   1.069   1.493  16.282  1.2498 -0.4767  0.5972
  684MPD2     N10176   0.995   1.696  15.869  0.4998  0.3125 -0.2448
  684MPD2    H510177   1.025   1.781  15.917  0.4211  0.0436  0.2801
  684MPD2    N110178   0.980   1.229  15.932  0.3363  0.9513 -0.3338
  684MPD2    H710179   0.967   1.232  15.831  1.5158  1.9538 -0.4589
  685TMC3    C110180   0.976   0.997  15.902 -0.4140  0.5792 -1.1152
  685TMC3    C210181   0.945   1.015  15.766  0.5361  0.5393 -0.2304
  685TMC3    C310182   0.969   0.911  15.688  0.8196 -0.1734 -0.1744
  685TMC3    C410183   1.038   0.889  15.946 -0.0605 -0.5890 -0.5617
  685TMC3    C510184   1.091   0.800  15.852  0.1887 -0.5367 -0.7382
  685TMC3    C610185   1.052   0.806  15.725 -0.5366  0.0401  0.0850
  685TMC3     C10186   0.977   1.108  15.993  0.0116  0.2711  0.0598
  685TMC3     O10187   0.981   1.088  16.114 -0.4517  0.2177  0.1041
  685TMC3     H10188   0.914   1.109  15.721  0.1862  0.6638  0.2793
  685TMC3    H110189   1.054   0.880  16.053 -2.1078  1.5412 -0.0704
  685TMC3    H210190   1.064   0.718  15.663  1.0060 -1.1569  2.0648
  685TMC3    C710191   1.187   0.705  15.902  0.3477 -1.1176 -0.3221
  685TMC3    C810192   0.882   0.898  15.568  0.1675  0.3026 -0.6666
  685TMC3    O110193   1.199   0.692  16.023  0.0032  0.2656 -0.2844
  685TMC3    O210194   0.911   0.811  15.484 -0.6265  0.2838 -0.3216
  686MPD2     C10195   2.988   1.142  15.904 -0.2909  0.4320 -0.3692
  686MPD2    C110196   2.858   1.113  15.929  1.0585  0.8152 -0.4412
  686MPD2    C210197   2.767   1.202  15.873 -0.3862  0.0588  0.2165
  686MPD2    C310198   2.801   1.309  15.789 -0.1824 -0.5377 -0.3721
  686MPD2    C410199   2.934   1.341  15.779 -0.2367 -0.4175 -0.2696
  686MPD2    C510200   3.026   1.256  15.838 -0.4740  0.0293 -0.4763
  686MPD2     H10201   2.661   1.182  15.883 -0.4687 -0.2294 -1.1442
  686MPD2    H110202   2.958   1.420  15.708  0.3434 -1.2346 -0.9814
  686MPD2    H210203   3.069   1.083  15.946  0.1615  1.6045  0.4297
  686MPD2    H310204   3.130   1.273  15.814  0.2962  0.6772  3.4380
  686MPD2     N10205   2.710   1.378  15.703 -0.2349 -0.7413 -0.0894
  686MPD2    H510206   2.744   1.414  15.614  1.2160 -0.5589  0.5383
  686MPD2    N110207   2.828   0.989  15.992  0.6418 -0.5195  0.4198
  686MPD2    H710208   2.902   0.926  16.020  1.7164 -0.0627 -1.4425
  687TMC3    C110209   2.491   1.352  15.613 -0.1160  0.1170  0.3045
  687TMC3    C210210   2.358   1.372  15.636  0.5954  0.1139 -0.1516
  687TMC3    C310211   2.268   1.279  15.588 -0.5317  0.9601  0.7500
  687TMC3    C410212   2.545   1.249  15.539  0.5164 -0.0436  0.5950
  687TMC3    C510213   2.451   1.150  15.514 -0.3531 -0.2800 -0.0176
  687TMC3    C610214   2.314   1.162  15.535  0.0698  0.3519 -0.2854
  687TMC3     C10215   2.578   1.383  15.726 -0.1287  0.7123  0.0919
  687TMC3     O10216   2.512   1.406  15.830  0.5914 -0.3736  0.6084
  687TMC3     H10217   2.314   1.451  15.696 -1.3986 -0.4890 -0.8087
  687TMC3    H110218   2.649   1.247  15.506  1.2577 -3.2219  3.1799
  687TMC3    H210219   2.245   1.090  15.491 -0.6441  0.1493  1.1677
  687TMC3    C710220   2.495   1.017  15.509  0.1738  0.4368  0.3997
  687TMC3    C810221   2.126   1.298  15.611  0.4375  0.7166 -0.7286
  687TMC3    O110222   2.406   0.930  15.518  0.1016  0.7382  0.0608
  687TMC3    O210223   2.057   1.195  15.620 -0.1700  0.1784 -1.0503
  688MPD2     C10224   1.448   0.182  17.436 -0.4633 -0.2785 -0.3690
  688MPD2    C110225   1.411   0.051  17.426  0.1047 -0.0618  0.2727
  688MPD2    C210226   1.504   4.713  17.359 -0.6357 -0.0928  0.3928
  688MPD2    C310227   1.610   0.029  17.290  0.7397  0.8326  0.6733
  688MPD2    C410228   1.640   0.164  17.304 -0.2734 -0.4471  0.1132
  688MPD2    C510229   1.557   0.236  17.386  0.4148  0.1336  0.3489
  688MPD2     H10230   1.490   4.606  17.352  0.4959 -0.3160  1.6631
  688MPD2    H110231   1.723   0.217  17.258 -0.5758  0.4220  0.5702
  688MPD2    H210232   1.386   0.253  17.490 -0.5974 -1.4008  0.9500
  688MPD2    H310233   1.584   0.336  17.418  3.3488 -1.7961  3.8235
  688MPD2     N10234   1.702   4.686  17.222  0.9011 -0.9824 -0.5576
  688MPD2    H510235   1.788   4.730  17.191  0.1051 -0.4063 -1.9211
  688MPD2    N110236   1.312   4.727  17.510 -0.0155 -0.2110 -0.0407
  688MPD2    H710237   1.323   4.630  17.541  1.7228  0.2108  0.6757
  689TMC3    C110238   1.125   4.735  17.666 -0.4457 -0.3906  0.1133
  689TMC3    C210239   1.069   0.075   0.000  0.1955  0.2636 -0.3394
  689TMC3    C310240   1.000   0.009   0.102 -0.4510 -1.9843 -0.7595
  689TMC3    C410241   1.098   4.599  17.652  0.1444  0.1552  0.1443
  689TMC3    C510242   1.027   4.544  17.757 -0.2624  0.7503 -0.3751
  689TMC3    C610243   0.976   4.615   0.098 -0.4667  0.6388 -0.0560
  689TMC3     C10244   1.211   0.061  17.568  0.1780 -0.6711 -0.1402
  689TMC3     O10245   1.166   0.174  17.539  0.0064  0.7284  0.3437
  689TMC3     H10246   1.082   0.182  17.749  1.8663 -0.0329 -1.3390
  689TMC3    H110247   1.136   4.543  17.567  3.0682  0.4264  1.2674
  689TMC3    H210248   0.918   4.572   0.178  3.7453 -3.2079  0.8858
  689TMC3    C710249   0.965   4.407  17.750 -0.2827  0.2963  0.3127
  689TMC3    C810250   0.947   0.087   0.212 -0.2527 -0.3014 -0.8409
  689TMC3    O110251   0.910   4.362   0.089 -0.0967  0.1090 -0.2584
  689TMC3    O210252   0.933   0.030   0.321  0.1084 -0.6696 -0.6092
  690MPD2     C10253   3.748   1.917  15.488  0.6794 -0.0091  0.1793
  690MPD2    C110254   3.716   1.894  15.355 -0.1779  0.2029  0.5327
  690MPD2    C210255   3.811   1.928  15.262  0.1829 -0.7736  0.2104
  690MPD2    C310256   3.926   2.000  15.291  0.0377 -0.0634  0.3277
  690MPD2    C410257   3.939   2.040  15.423 -0.6149  0.1838 -0.7557
  690MPD2    C510258   3.847   1.999  15.516 -0.4588 -0.5348 -0.0184
  690MPD2     H10259   3.790   1.912  15.157 -1.5507 -0.8396  0.5682
  690MPD2    H110260   4.016   2.107  15.460  0.9306 -2.0432  0.0440
  690MPD2    H210261   3.680   1.880  15.564  0.8715 -2.2191 -0.7065
  690MPD2    H310262   3.863   2.032  15.618 -1.9631  1.7536 -0.5220
  690MPD2     N10263   4.007   2.061  15.184  0.1167  0.2533  0.2424
  690MPD2    H510264   3.989   2.050  15.085 -0.0271  1.5672  0.1252
  690MPD2    N110265   3.607   1.807  15.325 -0.0307  0.0270  0.1344
  690MPD2    H710266   3.602   1.771  15.231 -3.1957 -1.1021  0.7217
  691TMC3    C110267   3.404   1.691  15.348 -1.0036  0.5224 -0.1766
  691TMC3    C210268   3.267   1.717  15.371 -0.3998 -0.3614  0.4167
  691TMC3    C310269   3.177   1.616  15.352 -0.3692 -0.1084 -0.3117
  691TMC3    C410270   3.446   1.568  15.310  0.1612 -0.4824  0.5485
  691TMC3    C510271   3.347   1.474  15.280 -0.1460 -0.5440  0.1880
  691TMC3    C610272   3.215   1.499  15.299  0.9624 -0.0292 -0.2698
  691TMC3     C10273   3.500   1.778  15.411  0.0303  0.7140  0.1509
  691TMC3     O10274   3.474   1.819  15.522  0.2345 -0.2093  0.2620
  691TMC3     H10275   3.245   1.811  15.422 -0.8890 -0.2207 -0.0552
  691TMC3    H110276   3.552   1.544  15.305  0.3735  1.1245 -2.7049
  691TMC3    H210277   3.140   1.427  15.270  0.7102  0.5474 -1.0257
  691TMC3    C710278   3.387   1.342  15.241  0.1991  0.8950  0.8485
  691TMC3    C810279   3.037   1.644  15.348 -0.5411  0.4214 -0.0158
  691TMC3    O110280   3.488   1.330  15.175 -0.8158 -0.3532  0.0686
  691TMC3    O210281   2.961   1.565  15.287  0.9934  0.1420  0.2778
  692TMC3    C110282   0.180   2.747  15.255  0.4400 -0.2233 -0.2757
  692TMC3    C210283   0.295   2.801  15.205  0.1190 -0.2048  0.0271
  692TMC3    C310284   0.410   2.719  15.192 -0.0460 -0.1759  0.4121
  692TMC3    C410285   0.179   2.624  15.316  0.6359 -0.0631 -0.4356
  692TMC3    C510286   0.288   2.543  15.301  0.6911  0.0451  0.1967
  692TMC3    C610287   0.404   2.586  15.231 -0.8652  0.0840 -0.0596
  692TMC3     C10288   0.093   2.849  15.321 -0.8685  0.8015  0.2770
  692TMC3     O10289   0.036   2.803  15.416  0.2661  0.2388 -0.2417
  692TMC3     H10290   0.294   2.885  15.137  2.6052 -0.1400  0.0554
  692TMC3    H110291   0.087   2.583  15.355 -0.0186  1.7215 -0.0754
  692TMC3    H210292   0.492   2.529  15.257  0.4163  2.7183  1.3447
  692TMC3    C710293   0.284   2.421  15.381 -0.0325 -0.6845 -0.2810
  692TMC3    C810294   0.519   2.786  15.254  0.4787 -0.1244 -0.4312
  692TMC3    O110295   0.180   2.405  15.445  0.1876 -0.2196 -0.1724
  692TMC3    O210296   0.625   2.726  15.250  0.2823 -0.7657  0.0111
  693MPD2     C10297   4.549   0.952  10.835  0.2661 -0.4615 -0.2739
  693MPD2    C110298   4.480   0.835  10.810  0.4871  0.0682 -0.4534
  693MPD2    C210299   4.552   0.719  10.807 -0.0127 -0.1846 -0.1711
  693MPD2    C310300   4.691   0.722  10.831  0.5812  0.7161 -0.3116
  693MPD2    C410301   0.010   0.839  10.858 -0.1656 -0.0699 -0.0854
  693MPD2    C510302   4.682   0.957  10.865 -0.3618 -0.5415  0.3574
  693MPD2     H10303   4.501   0.625  10.789 -1.4154  0.1714  1.8987
  693MPD2    H110304   0.115   0.848  10.885 -0.5601  0.5288  1.2238
  693MPD2    H210305   4.479   1.024  10.876  0.9300 -0.2335  0.4697
  693MPD2    H310306   4.724   1.043  10.915  0.7471  0.0568 -1.5913
  693MPD2     N10307   0.030   0.609  10.830 -0.2398 -0.3187 -0.3592
  693MPD2    H510308   0.126   0.627  10.857  0.5679 -2.3231 -1.8365
  693MPD2    N110309   4.338   0.843  10.806  0.1358 -0.2226 -0.0370
  693MPD2    H710310   4.289   0.921  10.848  0.5009  0.4041 -0.7726
  694TMC3    C110311   4.124   0.753  10.779  0.1049  0.1996 -1.1544
  694TMC3    C210312   4.045   0.651  10.717  0.1185  0.3736  0.6807
  694TMC3    C310313   3.932   0.598  10.784 -0.5275 -0.3764 -0.9916
  694TMC3    C410314   4.084   0.811  10.896 -0.0056  0.1847 -0.4003
  694TMC3    C510315   3.976   0.751  10.959 -0.2171  0.9023 -0.2827
  694TMC3    C610316   3.902   0.646  10.907 -0.2930  0.7852  0.0709
  694TMC3     C10317   4.265   0.734  10.753 -0.4076 -0.3796 -0.0281
  694TMC3     O10318   4.296   0.645  10.672 -0.4077 -0.1679  0.5193
  694TMC3     H10319   4.067   0.617  10.617 -0.1830 -0.4503  0.8927
  694TMC3    H110320   4.145   0.884  10.947  0.7897 -0.7297 -0.0519
  694TMC3    H210321   3.810   0.606  10.948 -0.1137 -1.0591 -1.3566
  694TMC3    C710322   3.946   0.789  11.095  0.4728  0.1035  0.3360
  694TMC3    C810323   3.859   0.489  10.731  0.4309  0.2132  0.1135
  694TMC3    O110324   4.007   0.890  11.129 -0.1952  0.2671 -0.2421
  694TMC3    O210325   3.763   0.451  10.798 -0.2189  0.7587  0.1586
  695MPD2     C10326   1.506   2.781  13.119  0.3095 -0.5239  0.4048
  695MPD2    C110327   1.474   2.790  13.256  0.2360 -0.0182  0.3195
  695MPD2    C210328   1.343   2.768  13.302 -0.7078 -0.6638  0.5256
  695MPD2    C310329   1.239   2.757  13.212  0.2941  0.1364  0.1212
  695MPD2    C410330   1.270   2.761  13.075 -0.2493 -0.1663  0.6496
  695MPD2    C510331   1.398   2.769  13.034  0.1680 -0.4190  0.4364
  695MPD2     H10332   1.323   2.777  13.408 -0.1516  0.7536  0.4995
  695MPD2    H110333   1.192   2.754  13.000  1.4498  0.3014 -1.1722
  695MPD2    H210334   1.608   2.776  13.081 -0.3925  0.3323 -1.5688
  695MPD2    H310335   1.417   2.769  12.927 -2.4934 -1.2705 -0.0668
  695MPD2     N10336   1.105   2.753  13.256 -0.6134  0.2530  0.1116
  695MPD2    H510337   1.094   2.747  13.357 -1.1000  0.4363  0.0677
  695MPD2    N110338   1.569   2.813  13.360  0.2981  0.5438 -0.0204
  695MPD2    H710339   1.535   2.852  13.447 -2.2788 -0.8644 -0.3947
  696TMC3    C110340   0.868   2.754  13.267 -0.5895 -0.0610  0.1530
  696TMC3    C210341   0.862   2.685  13.385 -0.1404  0.2111  0.6591
  696TMC3    C310342   0.738   2.664  13.442 -0.2698  0.6302 -0.6374
  696TMC3    C410343   0.750   2.802  13.208 -0.0423 -0.0859 -0.2481
  696TMC3    C510344   0.633   2.786  13.271  0.4075  0.5030 -0.3474
  696TMC3    C610345   0.622   2.718  13.389 -0.5020  0.5192  0.6064
  696TMC3     C10346   0.988   2.763  13.185 -0.6826 -0.5902  0.1762
  696TMC3     O10347   0.969   2.786  13.062  0.2523  0.3659  0.2731
  696TMC3     H10348   0.944   2.627  13.427 -0.9997 -1.6216 -0.2026
  696TMC3    H110349   0.742   2.846  13.109  2.6749 -1.0287 -0.8951
  696TMC3    H210350   0.524   2.693  13.426 -0.6284 -0.4258 -0.3971
  696TMC3    C710351   0.519   2.875  13.230  0.4192 -1.3354  0.1449
  696TMC3    C810352   0.743   2.661  13.584 -0.6711  1.0061  0.3371
  696TMC3    O110353   0.531   2.933  13.122  0.3516 -0.4722  0.6137
  696TMC3    O210354   0.841   2.714  13.645 -0.4979 -0.2951 -0.5594
  697MPD2     C10355   0.339   4.390  15.507  0.5143 -0.4809  0.0476
  697MPD2    C110356   0.260   4.379  15.398 -0.0203 -0.2023 -0.3746
  697MPD2    C210357   0.233   4.486  15.318  0.0193  0.1627 -0.0812
  697MPD2    C310358   0.270   4.614  15.361  0.2839  0.6409 -0.3443
  697MPD2    C410359   0.330   4.633  15.482  0.6635 -0.6327  0.6383
  697MPD2    C510360   0.367   4.515  15.549  0.6407  0.5145 -0.1296
  697MPD2     H10361   0.178   4.471  15.226 -0.0250 -0.8948  0.1207
  697MPD2    H110362   0.362   4.728  15.524  0.2313  0.1494 -0.8149
  697MPD2    H210363   0.360   4.308  15.575 -1.3000 -3.0088 -2.4530
  697MPD2    H310364   0.415   4.539  15.643 -0.3782 -1.8780  0.9884
  697MPD2     N10365   0.246   4.717  15.265 -0.0716 -1.0422  0.4864
  697MPD2    H510366   0.216   4.687  15.173  0.2984 -0.7856  0.2870
  697MPD2    N110367   0.224   4.256  15.341  0.7948  0.1248  0.0797
  697MPD2    H710368   0.162   4.254  15.260  1.1484  1.4376 -0.2187
  698TMC3    C110369   0.303   0.177  15.155 -0.0434 -0.0744 -1.0189
  698TMC3    C210370   0.275   0.309  15.170  0.4651 -0.1347 -0.6344
  698TMC3    C310371   0.266   0.380  15.057 -0.0429 -0.2796 -0.3386
  698TMC3    C410372   0.310   0.112  15.032 -0.1002  0.3385  0.3977
  698TMC3    C510373   0.285   0.190  14.920 -0.6794 -0.2195 -0.4545
  698TMC3    C610374   0.270   0.325  14.932  0.2840  0.0777  0.3248
  698TMC3     C10375   0.290   0.107  15.278 -0.2956 -0.6128  0.4753
  698TMC3     O10376   0.326   0.170  15.373 -0.9504 -0.1679  0.4847
  698TMC3     H10377   0.274   0.364  15.263  0.5484  1.1529 -1.3906
  698TMC3    H110378   0.319   0.004  15.024 -1.7620  0.2953 -0.9955
  698TMC3    H210379   0.244   0.378  14.842  0.8588 -1.0671 -0.5219
  698TMC3    C710380   0.239   0.134  14.796 -0.1443  0.1443 -0.1802
  698TMC3    C810381   0.296   0.522  15.059  0.2499 -0.3512 -0.8056
  698TMC3    O110382   0.128   0.162  14.754  0.3929 -0.2067  0.5267
  698TMC3    O210383   0.233   0.596  15.129  0.5435 -0.7459 -0.0309
  699TMC3    C110384   4.657   3.004  12.970 -0.6736 -0.6063  0.2131
  699TMC3    C210385   0.013   2.923  13.024  0.4447 -1.3097 -0.1285
  699TMC3    C310386   0.016   2.890  13.155 -0.4482  0.1148  0.2548
  699TMC3    C410387   4.557   3.051  13.051  0.6652  0.6724  0.1094
  699TMC3    C510388   4.564   3.017  13.189  0.1822 -0.1714  0.3321
  699TMC3    C610389   4.655   2.931  13.235 -0.3436  0.7240 -0.0155
  699TMC3     C10390   4.678   3.072  12.845  0.1230  0.4574  0.3929
  699TMC3     O10391   4.624   3.184  12.842 -0.6501  0.2560  0.4878
  699TMC3     H10392   0.082   2.866  12.964  1.5321 -2.0837  1.8408
  699TMC3    H110393   4.477   3.112  13.009 -0.9902 -1.2871  0.3808
  699TMC3    H210394   4.648   2.901  13.339  0.9521  0.0766 -0.1132
  699TMC3    C710395   4.451   3.045  13.276  1.1350  0.2788 -1.1604
  699TMC3    C810396   0.082   2.770  13.202 -0.3254 -0.2993  0.2827
  699TMC3    O110397   4.468   3.048  13.397  0.5953  0.2473 -0.4553
  699TMC3    O210398   0.050   2.732  13.315  0.6355  1.2592 -0.3372
  700TMC3    C110399   4.115   0.409  17.375  0.0717  0.3399  0.1948
  700TMC3    C210400   4.177   0.297  17.342  0.3133 -0.3047 -0.7147
  700TMC3    C310401   4.299   0.262  17.391 -0.2740 -1.1775 -1.0360
  700TMC3    C410402   4.187   0.502  17.445 -0.8444  0.7280 -0.2103
  700TMC3    C510403   4.321   0.472  17.481  0.4889 -0.2519  0.1985
  700TMC3    C610404   4.378   0.349  17.457  0.5059 -0.3623 -0.9576
  700TMC3     C10405   4.037   0.457  17.261 -0.1483 -0.3104 -0.8095
  700TMC3     O10406   3.976   0.370  17.202 -0.2314 -0.3795 -0.5300
  700TMC3     H10407   4.120   0.228  17.283 -0.4859 -1.1452  1.0386
  700TMC3    H110408   4.148   0.598  17.477  0.1845  0.8607  0.6531
  700TMC3    H210409   4.483   0.325  17.471  0.3266  0.9056  2.5342
  700TMC3    C710410   4.391   0.575  17.554 -0.1430  0.2361  0.4873
  700TMC3    C810411   4.362   0.159  17.316 -0.0006  0.0290  0.1040
  700TMC3    O110412   4.349   0.689  17.567  0.1793  0.2609  0.1450
  700TMC3    O210413   4.325   0.146  17.200  0.4808 -0.2877  0.0809
  701TMC3    C110414   4.247   3.944  15.708  0.1905 -0.3738 -0.5367
  701TMC3    C210415   4.214   3.890  15.591 -0.3118  0.0685 -0.0947
  701TMC3    C310416   4.307   3.915  15.489 -0.0260  0.3357  0.6661
  701TMC3    C410417   4.367   4.000  15.733  0.3727  0.7754 -0.1015
  701TMC3    C510418   4.455   4.020  15.630  0.1216  0.4181 -1.2151
  701TMC3    C610419   4.424   3.978  15.505 -0.2491  0.1061  1.3528
  701TMC3     C10420   4.158   3.922  15.821 -0.0505  1.1640  0.0963
  701TMC3     O10421   4.182   3.976  15.926 -0.4889  0.3225  0.3139
  701TMC3     H10422   4.118   3.850  15.561 -1.0804  2.8772 -1.3898
  701TMC3    H110423   4.384   4.056  15.824 -1.3480 -3.0115  2.5574
  701TMC3    H210424   4.485   3.987  15.415 -1.9180  0.5008  0.2660
  701TMC3    C710425   4.526   4.146  15.619  0.1508 -0.3432 -0.3550
  701TMC3    C810426   4.258   3.927  15.357 -0.7449  0.5382 -0.8836
  701TMC3    O110427   4.530   4.196  15.505 -0.1536  0.7141 -0.2574
  701TMC3    O210428   4.304   4.017  15.285 -0.0829  0.0107  0.0787
  702MPD2     C10429   3.651   1.461  10.059  0.6026 -0.2158  0.4156
  702MPD2    C110430   3.547   1.453  10.152  0.4164  0.2973 -0.3184
  702MPD2    C210431   3.433   1.534  10.132  0.3254  0.2802  0.0015
  702MPD2    C310432   3.431   1.631  10.037 -0.2531  0.3911 -0.3584
  702MPD2    C410433   3.536   1.639   9.942 -0.3104  0.0750  0.8879
  702MPD2    C510434   3.638   1.549   9.954  0.0196  0.6478  0.3496
  702MPD2     H10435   3.357   1.527  10.209  0.9255 -1.0332  0.4746
  702MPD2    H110436   3.541   1.711   9.860 -3.6012  2.4197  2.7277
  702MPD2    H210437   3.743   1.407  10.075  1.6852  1.4861 -0.1078
  702MPD2    H310438   3.710   1.552   9.872 -0.8491 -1.2825 -0.4812
  702MPD2     N10439   3.330   1.727  10.038 -0.5560 -0.2926 -0.1435
  702MPD2    H510440   3.332   1.809   9.979  2.9288  0.3409  0.8444
  702MPD2    N110441   3.557   1.375  10.268  0.5288  0.1396 -0.5227
  702MPD2    H710442   3.473   1.357  10.322 -0.4560 -1.5728 -2.6513
  703TMC3    C110443   3.160   1.853  10.135 -0.3869  0.2286 -0.0077
  703TMC3    C210444   3.058   1.851  10.232  0.0112 -0.3288 -0.3080
  703TMC3    C310445   3.055   1.951  10.323  0.1604  0.6341 -0.4773
  703TMC3    C410446   3.242   1.963  10.121 -0.7426  0.0113 -0.1160
  703TMC3    C510447   3.227   2.066  10.210 -0.0133  0.3465  0.7440
  703TMC3    C610448   3.126   2.067  10.295  0.3218  0.2404 -0.0683
  703TMC3     C10449   3.214   1.721  10.107  0.4072  0.1028  0.7396
  703TMC3     O10450   3.163   1.637  10.177 -0.4439 -0.5540 -0.6779
  703TMC3     H10451   3.008   1.758  10.256  0.0018 -0.2434  0.0109
  703TMC3    H110452   3.327   1.961  10.054 -0.9719 -0.4519 -0.3970
  703TMC3    H210453   3.123   2.154  10.359 -0.2050 -0.7746  1.2865
  703TMC3    C710454   3.347   2.143  10.241 -0.3940 -0.3576  0.3963
  703TMC3    C810455   3.039   1.920  10.459  0.1385  0.1779  0.5789
  703TMC3    O110456   3.424   2.164  10.150 -0.1853  0.3630  0.0321
  703TMC3    O210457   3.095   1.991  10.544 -0.4809 -0.0573  0.2110
  704TMC3    C110458   1.528   4.404  12.494 -0.6793  0.1486 -0.0607
  704TMC3    C210459   1.564   4.360  12.373 -0.0699 -0.1148 -0.4760
  704TMC3    C310460   1.681   4.296  12.376  0.8668  0.4732 -0.0544
  704TMC3    C410461   1.572   4.351  12.611 -0.4448 -0.4031  0.2621
  704TMC3    C510462   1.670   4.265  12.601 -0.2892  0.9352 -0.3133
  704TMC3    C610463   1.739   4.245  12.485  0.0700  0.0663 -0.1981
  704TMC3     C10464   1.410   4.481  12.518  0.5006 -0.3561  0.0816
  704TMC3     O10465   1.373   4.487  12.635  0.3621  0.0110 -0.2725
  704TMC3     H10466   1.523   4.394  12.279 -0.8745 -0.1900 -0.1518
  704TMC3    H110467   1.528   4.359  12.710  0.1272  1.5666  0.3728
  704TMC3    H210468   1.805   4.160  12.475  1.8527  1.4118  0.2398
  704TMC3    C710469   1.686   4.158  12.692 -0.5002  1.4242 -0.0464
  704TMC3    C810470   1.732   4.255  12.248  0.9290  0.0394  0.5867
  704TMC3    O110471   1.740   4.058  12.647  0.4171 -0.2995  0.0217
  704TMC3    O210472   1.655   4.261  12.157  0.1316 -0.6238 -0.3961
  705MPD2     C10473   0.671   2.307  15.811 -0.1176 -0.3061  0.4817
  705MPD2    C110474   0.706   2.424  15.866  0.3005  0.5388 -0.1909
  705MPD2    C210475   0.622   2.500  15.943 -0.2298 -0.6499  0.2401
  705MPD2    C310476   0.494   2.460  15.954 -0.2915 -0.3636 -0.0620
  705MPD2    C410477   0.447   2.343  15.889  0.2703 -0.2484  0.0189
  705MPD2    C510478   0.536   2.269  15.813  0.3736  0.2134 -0.5806
  705MPD2     H10479   0.648   2.598  15.980 -1.1679 -0.6644  0.9194
  705MPD2    H110480   0.346   2.305  15.884  0.7507 -1.5881  0.6336
  705MPD2    H210481   0.735   2.245  15.750  1.9663 -0.1223  2.4671
  705MPD2    H310482   0.510   2.166  15.792 -2.7117  0.3127  2.8570
  705MPD2     N10483   0.397   2.529  16.035  0.2310  0.6438  0.1050
  705MPD2    H510484   0.305   2.486  16.038  0.5880 -0.1641 -0.6010
  705MPD2    N110485   0.840   2.481  15.862 -0.2892 -0.2664 -0.7006
  705MPD2    H710486   0.856   2.562  15.920  0.0425 -1.3841  0.7776
  706TMC3    C110487   1.288   2.495  15.760  0.1768 -0.0990  1.1356
  706TMC3    C210488   1.321   2.552  15.878 -0.2531 -0.4223  0.5137
  706TMC3    C310489   1.221   2.569  15.975  0.0917 -0.1946  0.0916
  706TMC3    C410490   1.160   2.457  15.729 -0.1328  0.6822  0.2185
  706TMC3    C510491   1.062   2.493  15.820 -0.3458  0.6351 -0.1733
  706TMC3    C610492   1.085   2.549  15.941 -0.4834 -0.3935 -0.1807
  706TMC3     C10493   1.377   2.517  15.648  0.0868 -0.2241 -0.5301
  706TMC3     O10494   1.447   2.617  15.664  0.3539 -0.2578 -0.3480
  706TMC3     H10495   1.427   2.564  15.899 -0.3358 -0.1674  0.7775
  706TMC3    H110496   1.135   2.417  15.631 -1.5275 -0.9322  1.2307
  706TMC3    H210497   1.007   2.579  16.010  1.2899  1.0625  1.1763
  706TMC3    C710498   0.940   2.422  15.796 -0.8514 -0.0722 -0.1057
  706TMC3    C810499   1.251   2.686  16.048 -0.0629  0.6775 -0.6989
  706TMC3    O110500   0.934   2.343  15.709 -0.2854 -0.2157 -0.5087
  706TMC3    O210501   1.347   2.758  16.016 -0.2369  0.0048 -0.1011
  707TMC3    C110502   2.098   1.906  17.548  0.2743  0.2773  0.0279
  707TMC3    C210503   2.079   1.771  17.565 -0.0956 -0.3311  0.5867
  707TMC3    C310504   2.024   1.697  17.469 -0.1741  0.6551 -0.1524
  707TMC3    C410505   2.080   1.968  17.426 -0.0614  0.2368  0.2372
  707TMC3    C510506   2.015   1.889  17.335  0.0713 -0.4724  0.1607
  707TMC3    C610507   1.986   1.755  17.354  0.1114 -0.0059 -0.1777
  707TMC3     C10508   2.180   1.968  17.647  0.4304  0.1933  0.2420
  707TMC3     O10509   2.216   1.897  17.740  0.1518  0.3657  0.0256
  707TMC3     H10510   2.102   1.728  17.661 -0.5515 -1.5427  0.1493
  707TMC3    H110511   2.090   2.076  17.416 -0.7824  0.0837 -2.0357
  707TMC3    H210512   1.947   1.692  17.275  0.8437 -1.7472  0.8534
  707TMC3    C710513   1.973   1.968  17.221 -0.9487 -0.3654  0.1843
  707TMC3    C810514   2.015   1.551  17.476  0.1145  0.8020  0.9096
  707TMC3    O110515   2.022   2.079  17.203 -0.1480  0.0696 -0.4154
  707TMC3    O210516   1.943   1.507  17.387  0.4084  0.2780 -0.3476
  708MPD2     C10517   3.704   0.691  14.008 -0.2209  0.5393  0.4766
  708MPD2    C110518   3.799   0.755  13.930  0.3584  0.9919 -0.2373
  708MPD2    C210519   3.853   0.881  13.965  0.2937 -0.3342  0.6538
  708MPD2    C310520   3.803   0.947  14.074 -0.8699 -0.1280 -0.4730
  708MPD2    C410521   3.701   0.884  14.146  0.4489 -0.2196  0.1789
  708MPD2    C510522   3.646   0.768  14.107  0.0016  0.3447  0.5428
  708MPD2     H10523   3.919   0.932  13.897 -1.0890 -0.6743 -0.9448
  708MPD2    H110524   3.653   0.933  14.230 -2.0023 -1.2585 -0.6118
  708MPD2    H210525   3.652   0.600  13.980  0.9895 -0.7959  2.5616
  708MPD2    H310526   3.565   0.724  14.164  0.7407  0.1399  1.4397
  708MPD2     N10527   3.846   1.080  14.093  0.0068  0.2194 -1.1169
  708MPD2    H510528   3.913   1.103  14.020  1.6164  0.2136  0.3661
  708MPD2    N110529   3.864   0.697  13.832 -0.4064 -0.3108 -0.2756
  708MPD2    H710530   3.937   0.753  13.788  0.3480 -0.0040  1.3627
  709TMC3    C110531   3.924   0.549  13.653 -0.1654 -0.4733 -0.0952
  709TMC3    C210532   3.851   0.501  13.548  0.5276  0.4793 -1.2817
  709TMC3    C310533   3.855   0.557  13.423 -0.2350 -0.4995 -0.5535
  709TMC3    C410534   4.004   0.660  13.623  0.5759  0.5160 -0.0228
  709TMC3    C510535   3.989   0.727  13.505  0.6530 -0.3184  0.0597
  709TMC3    C610536   3.921   0.679  13.398 -1.0499  0.9123  0.2146
  709TMC3     C10537   3.843   0.569  13.779  1.1383 -0.4712  0.0057
  709TMC3     O10538   3.772   0.478  13.813  0.1720  0.2652  0.4146
  709TMC3     H10539   3.781   0.418  13.556  1.6833 -0.2342  1.5402
  709TMC3    H110540   4.083   0.693  13.689  2.4778 -2.5119 -0.7663
  709TMC3    H210541   3.913   0.732  13.303 -0.5678  0.2159 -0.2210
  709TMC3    C710542   4.017   0.867  13.528  0.0850  0.1889 -0.3182
  709TMC3    C810543   3.787   0.484  13.322  0.5350  0.0479  0.3652
  709TMC3    O110544   4.094   0.891  13.618  0.0246  0.4336  0.3983
  709TMC3    O210545   3.817   0.363  13.320 -0.0795  0.0153  0.9238
  710TMC3    C110546   4.579   2.691   0.105  0.2095 -0.4501 -0.6629
  710TMC3    C210547   4.607   2.605  17.759  0.3465 -0.2117  0.0598
  710TMC3    C310548   4.557   2.482  17.759  0.7286 -0.9647 -0.2518
  710TMC3    C410549   4.496   2.655   0.203 -0.1172 -0.3579 -0.2906
  710TMC3    C510550   4.454   2.521   0.213  0.3176 -0.1451  0.6310
  710TMC3    C610551   4.483   2.435   0.107  0.5568 -0.1938 -0.5543
  710TMC3     C10552   4.653   2.814   0.104  1.1556 -0.2209  0.3504
  710TMC3     O10553   4.680   2.867  17.758  0.4050  0.4256 -0.0648
  710TMC3     H10554   4.677   2.633  17.681  1.9360 -1.2221  1.1274
  710TMC3    H110555   4.474   2.715   0.291  0.3354 -1.2463  0.4225
  710TMC3    H210556   4.460   2.329   0.113 -1.2204  0.1392 -1.4324
  710TMC3    C710557   4.453   2.473   0.349 -0.4872  0.5418  0.1324
  710TMC3    C810558   4.639   2.378  17.695 -0.2836 -0.9803 -0.3032
  710TMC3    O110559   4.481   2.545   0.443  0.0451  0.3037  0.0317
  710TMC3    O210560   0.013   2.389  17.654 -0.2294 -0.1462  0.1024
  711TMC3    C110561   0.175   3.445  14.997 -0.7532  0.6729 -0.0705
  711TMC3    C210562   0.268   3.518  15.057  0.7245  0.2172  0.3682
  711TMC3    C310563   0.396   3.518  15.008 -0.4975 -0.3585  0.5953
  711TMC3    C410564   0.209   3.370  14.883 -0.2345 -0.1261  0.0309
  711TMC3    C510565   0.337   3.364  14.840 -0.0715  0.3815 -0.2220
  711TMC3    C610566   0.427   3.448  14.894  0.3055 -0.5262 -0.0197
  711TMC3     C10567   0.037   3.493  15.012  0.4315  0.3622 -0.5898
  711TMC3     O10568   0.019   3.565  15.110  0.0905  0.0554 -0.1425
  711TMC3     H10569   0.250   3.572  15.150 -0.5253 -0.5151  0.5404
  711TMC3    H110570   0.135   3.324  14.819 -1.0505 -1.5540  1.9839
  711TMC3    H210571   0.528   3.454  14.856  0.8326 -0.6123  1.3624
  711TMC3    C710572   0.401   3.230  14.823  0.2071  0.2700 -0.6344
  711TMC3    C810573   0.503   3.514  15.108  0.0354 -0.1223 -0.3203
  711TMC3    O110574   0.521   3.225  14.863 -0.7687 -0.2252 -0.6699
  711TMC3    O210575   0.497   3.584  15.207 -0.1967  0.2163 -0.3329
  712MPD2     C10576   1.378   4.085  13.631  0.5828 -0.3420 -0.5519
  712MPD2    C110577   1.283   4.142  13.556  0.5045 -0.0836 -0.8124
  712MPD2    C210578   1.281   4.277  13.533  0.5364 -1.0418  0.2138
  712MPD2    C310579   1.376   4.360  13.600  0.4804  0.0768  0.2630
  712MPD2    C410580   1.465   4.298  13.685  0.5030 -0.1262 -0.0230
  712MPD2    C510581   1.468   4.165  13.700  0.3415  0.3904 -0.1352
  712MPD2     H10582   1.202   4.323  13.475 -0.1150 -1.6442  0.6187
  712MPD2    H110583   1.537   4.362  13.735  0.0845  0.5068 -0.2263
  712MPD2    H210584   1.371   3.978  13.648 -0.2666 -0.2552 -0.3267
  712MPD2    H310585   1.541   4.115  13.762  0.3516 -0.2427 -0.6568
  712MPD2     N10586   1.391   4.502  13.588  0.0302  0.5087 -0.2720
  712MPD2    H510587   1.451   4.550  13.654  0.9214 -0.4705 -0.3778
  712MPD2    N110588   1.188   4.061  13.485 -0.4457  0.3706 -1.5080
  712MPD2    H710589   1.148   4.095  13.398 -0.1324  2.3741 -0.8517
  713TMC3    C110590   1.338   4.722  13.505  0.2831 -0.2483 -0.1225
  713TMC3    C210591   1.430   0.032  13.589  0.1340 -0.4302  0.9412
  713TMC3    C310592   1.412   0.150  13.644  0.4566 -0.1090 -0.1665
  713TMC3    C410593   1.234   0.058  13.464 -0.6137 -0.0681  1.0468
  713TMC3    C510594   1.222   0.182  13.529 -0.0340  0.2059  0.1593
  713TMC3    C610595   1.313   0.231  13.618  0.0145  0.5090 -0.2212
  713TMC3     C10596   1.332   4.575  13.491 -1.2808 -0.2778 -0.0816
  713TMC3     O10597   1.261   4.540  13.402  0.1191  0.3483  0.5158
  713TMC3     H10598   1.523   4.722  13.610  1.4442  2.1422  1.3135
  713TMC3    H110599   1.165   0.021  13.389 -0.6090  3.3353 -0.6438
  713TMC3    H210600   1.297   0.329  13.661  1.8989  1.1939 -1.0312
  713TMC3    C710601   1.131   0.280  13.471  0.2207 -0.4537 -0.2174
  713TMC3    C810602   1.535   0.216  13.679  0.1155  0.3231 -0.0300
  713TMC3    O110603   1.078   0.358  13.548 -0.1008 -0.0497 -0.0582
  713TMC3    O210604   1.640   0.190  13.621 -0.5439  0.1021 -0.2119
  714MPD2     C10605   3.799   3.855   1.484 -0.7245 -0.3726 -0.0818
  714MPD2    C110606   3.811   3.747   1.403 -0.2376  1.0315  0.3648
  714MPD2    C210607   3.692   3.705   1.342 -0.4424  0.0067  0.5188
  714MPD2    C310608   3.577   3.772   1.355  0.2005 -0.2037  0.5661
  714MPD2    C410609   3.572   3.881   1.437 -0.0673 -0.1266  0.0973
  714MPD2    C510610   3.686   3.924   1.495  0.4567  0.6416  0.4948
  714MPD2     H10611   3.685   3.617   1.280  3.1094 -0.2913  0.5199
  714MPD2    H110612   3.479   3.934   1.455  0.0333  0.2928 -0.6242
  714MPD2    H210613   3.893   3.898   1.517 -0.4963 -1.7816  1.0553
  714MPD2    H310614   3.685   4.015   1.554 -0.8236  1.3842 -0.6938
  714MPD2     N10615   3.467   3.720   1.287  0.6039 -0.3889  0.3140
  714MPD2    H510616   3.477   3.628   1.245 -0.5712  0.2561 -1.3785
  714MPD2    N110617   3.932   3.676   1.406  0.3056  0.1602  0.1515
  714MPD2    H710618   4.012   3.714   1.455  1.3451 -0.6741 -0.9041
  715TMC3    C110619   4.085   3.502   1.346 -0.3878 -0.6160 -0.1031
  715TMC3    C210620   4.101   3.367   1.313  0.3141 -0.3784 -0.3263
  715TMC3    C310621   4.225   3.306   1.316  0.1579 -0.2538 -0.0912
  715TMC3    C410622   4.192   3.561   1.411  0.1064 -0.0384  0.8166
  715TMC3    C510623   4.312   3.502   1.400  0.3890  1.0185 -0.0178
  715TMC3    C610624   4.334   3.376   1.346 -0.0398  0.1331 -0.9754
  715TMC3     C10625   3.950   3.558   1.330  0.0713 -0.9144 -0.1839
  715TMC3     O10626   3.866   3.481   1.282  0.4434 -0.3824  0.3277
  715TMC3     H10627   4.015   3.311   1.277  0.0820 -0.4733  0.3773
  715TMC3    H110628   4.186   3.668   1.429  0.4453  0.2377 -0.6990
  715TMC3    H210629   4.439   3.356   1.330 -0.4618 -1.4306 -1.7972
  715TMC3    C710630   4.433   3.552   1.478 -0.1663 -0.0360  0.2607
  715TMC3    C810631   4.248   3.185   1.238 -0.5307  0.5394 -0.4361
  715TMC3    O110632   4.546   3.510   1.445 -0.8688 -0.7385  0.3724
  715TMC3    O210633   4.155   3.144   1.170  0.2844  0.9359 -0.1444
  716MPD2     C10634   3.124   0.855  10.079  0.3202  0.6933  0.0773
  716MPD2    C110635   3.172   0.885   9.956  0.0443  0.3258  0.2634
  716MPD2    C210636   3.287   0.814   9.925 -0.0735  0.8679  0.7822
  716MPD2    C310637   3.343   0.718  10.011  0.5788 -0.0153  0.1644
  716MPD2    C410638   3.286   0.697  10.134 -0.2716 -0.4409 -0.8535
  716MPD2    C510639   3.178   0.767  10.172  0.3742 -0.5274  0.2498
  716MPD2     H10640   3.343   0.825   9.833 -0.4822 -0.0948  0.4200
  716MPD2    H110641   3.320   0.626  10.209  0.6970  0.6436 -0.2668
  716MPD2    H210642   3.038   0.909  10.116  0.8295  1.5835 -0.0392
  716MPD2    H310643   3.119   0.743  10.260 -1.6362 -0.4311 -1.0648
  716MPD2     N10644   3.457   0.645   9.964 -0.6504  0.2090 -0.2115
  716MPD2    H510645   3.484   0.647   9.866 -1.2749 -0.3102 -0.3874
  716MPD2    N110646   3.103   0.980   9.868 -0.4585 -0.3334  0.3552
  716MPD2    H710647   3.020   1.025   9.906 -1.8687 -2.2167 -0.4579
  717TMC3    C110648   3.620   0.482   9.952 -0.0095  0.2653 -0.3847
  717TMC3    C210649   3.671   0.539   9.844  0.2017  0.4483  0.1789
  717TMC3    C310650   3.752   0.475   9.758  0.1442 -0.2972  0.5829
  717TMC3    C410651   3.633   0.351   9.963 -0.2401  0.1921  0.0343
  717TMC3    C510652   3.725   0.284   9.883 -0.1365 -0.0378  1.4515
  717TMC3    C610653   3.791   0.346   9.780 -0.2318 -0.6787  0.8476
  717TMC3     C10654   3.512   0.539  10.032 -0.8770 -0.5195 -0.2429
  717TMC3     O10655   3.481   0.481  10.134 -0.2370  0.2582  0.1759
  717TMC3     H10656   3.653   0.644   9.825 -3.3024 -0.4855 -1.6296
  717TMC3    H110657   3.583   0.297  10.043  1.5024 -0.5709  0.6054
  717TMC3    H210658   3.864   0.299   9.715  0.6156 -1.0763  2.0906
  717TMC3    C710659   3.712   0.143   9.881  0.1863  0.4359 -0.8734
  717TMC3    C810660   3.824   0.554   9.662 -0.4369  0.9056 -0.2124
  717TMC3    O110661   3.679   0.095   9.988  0.0078  0.6283  0.3263
  717TMC3    O210662   3.924   0.496   9.616  0.6093 -0.0945  0.2417
  718MPD2     C10663   2.916   4.408  12.787 -0.2770  0.0439  0.1781
  718MPD2    C110664   2.829   4.452  12.690 -0.9432  0.3273 -0.0924
  718MPD2    C210665   2.697   4.421  12.703 -0.4465 -0.5638  0.5194
  718MPD2    C310666   2.652   4.340  12.803 -0.1994 -0.5900 -0.5298
  718MPD2    C410667   2.739   4.300  12.907 -0.1139 -0.0633 -0.3344
  718MPD2    C510668   2.872   4.329  12.894  0.0923  0.4036 -0.0980
  718MPD2     H10669   2.627   4.470  12.636 -1.1475 -0.4069  1.3645
  718MPD2    H110670   2.712   4.241  12.993 -2.9701  3.1577  0.9917
  718MPD2    H210671   3.022   4.428  12.771  0.2582 -2.5678  0.5867
  718MPD2    H310672   2.943   4.287  12.964  0.3544  0.8706 -0.0848
  718MPD2     N10673   2.508   4.321  12.807  0.2786  0.2971  0.0390
  718MPD2    H510674   2.449   4.371  12.741 -1.5045 -3.0032 -0.8313
  718MPD2    N110675   2.878   4.529  12.587 -0.3118  1.1312 -0.1025
  718MPD2    H710676   2.967   4.574  12.603 -0.4132  1.5049 -0.5838
  719TMC3    C110677   2.866   4.653  12.380 -0.4997  0.1878 -0.2131
  719TMC3    C210678   2.803   4.650  12.262 -0.0031 -0.6591 -0.2550
  719TMC3    C310679   2.751   0.019  12.207  0.1813 -0.0489  0.0568
  719TMC3    C410680   2.897   0.037  12.440  0.3257 -0.1102 -0.3801
  719TMC3    C510681   2.852   0.149  12.372  0.0369  0.6642 -0.0672
  719TMC3    C610682   2.782   0.144  12.256  1.1072  0.0385 -0.8705
  719TMC3     C10683   2.810   4.548  12.465  0.5114  0.2356 -0.7094
  719TMC3     O10684   2.716   4.495  12.415 -0.5182  0.7537 -0.4888
  719TMC3     H10685   2.779   4.555  12.214  1.0919 -0.3996 -1.3036
  719TMC3    H110686   2.943   0.029  12.538 -0.8787  0.9984  0.2706
  719TMC3    H210687   2.751   0.233  12.201 -0.6857 -0.8548 -1.3128
  719TMC3    C710688   2.884   0.271  12.434 -0.1187  0.5135 -0.2092
  719TMC3    C810689   2.618   0.002  12.175 -0.2431 -0.0563  0.2836
  719TMC3    O110690   2.972   0.279  12.520  0.1859 -0.1859  0.4214
  719TMC3    O210691   2.559   0.084  12.103  1.1062  0.1151 -0.1274
  720MPD2     C10692   1.398   1.550  14.025  1.0531  0.1539  0.0095
  720MPD2    C110693   1.519   1.614  13.999 -0.0188 -0.5451 -0.1875
  720MPD2    C210694   1.626   1.592  14.089  0.3565 -1.0727  0.5434
  720MPD2    C310695   1.601   1.527  14.210 -1.1807 -0.4586  0.2314
  720MPD2    C410696   1.481   1.464  14.226  1.0169  0.1860 -0.0936
  720MPD2    C510697   1.378   1.470  14.132 -0.3218  0.4915 -0.5659
  720MPD2     H10698   1.723   1.636  14.071  0.5205 -0.3386  3.1695
  720MPD2    H110699   1.457   1.404  14.313 -0.8993  1.1560  0.0591
  720MPD2    H210700   1.308   1.575  13.969  0.7137 -0.0364  0.4724
  720MPD2    H310701   1.285   1.415  14.145  0.7880 -1.1786  0.4285
  720MPD2     N10702   1.707   1.518  14.304  0.1544  0.4909 -0.0557
  720MPD2    H510703   1.785   1.580  14.282  0.3332  0.8760  1.6485
  720MPD2    N110704   1.531   1.710  13.892  0.0985  0.1249  0.1812
  720MPD2    H710705   1.621   1.731  13.850  0.7556 -1.2791  0.9155
  721TMC3    C110706   1.826   1.474  14.504 -0.4982  0.3716  0.3308
  721TMC3    C210707   1.818   1.469  14.644  0.1340  0.0032 -0.5687
  721TMC3    C310708   1.935   1.437  14.706 -0.1454 -0.8656 -0.4369
  721TMC3    C410709   1.937   1.452  14.434 -0.3492 -0.3348 -0.3000
  721TMC3    C510710   2.049   1.447  14.508 -1.1243 -0.3223  0.4225
  721TMC3    C610711   2.055   1.439  14.645  0.2986  0.1563  0.2231
  721TMC3     C10712   1.702   1.462  14.431  1.0054 -0.2028 -0.0654
  721TMC3     O10713   1.607   1.425  14.501 -0.3175  0.0375 -0.1249
  721TMC3     H10714   1.722   1.463  14.693  0.2347  2.8647 -0.0581
  721TMC3    H110715   1.942   1.442  14.326  2.0707  2.2092 -0.4271
  721TMC3    H210716   2.148   1.428  14.699  0.5014  0.6491 -0.0353
  721TMC3    C710717   2.175   1.451  14.444  0.4521 -0.0619 -0.1453
  721TMC3    C810718   1.950   1.417  14.852 -0.2623 -0.7456  0.2274
  721TMC3    O110719   2.192   1.557  14.384  0.2221  0.4548 -0.3826
  721TMC3    O210720   2.025   1.333  14.890  0.0858  0.5737 -0.2899
  722MPD2     C10721   0.160   0.168  13.195  0.6316  0.1587 -0.7353
  722MPD2    C110722   0.115   0.295  13.173  0.7529 -0.0810 -0.0560
  722MPD2    C210723   4.720   0.321  13.160 -0.0101  0.2964  0.3601
  722MPD2    C310724   4.620   0.229  13.153  0.1257  0.5604 -0.2555
  722MPD2    C410725   4.668   0.097  13.182  0.3505 -0.6695  0.0142
  722MPD2    C510726   0.063   0.075  13.203  0.5222  0.4000  0.1352
  722MPD2     H10727   4.690   0.425  13.150  1.1818  0.6855  0.8847
  722MPD2    H110728   4.603   0.011  13.199 -1.6507  0.3059 -2.8056
  722MPD2    H210729   0.260   0.136  13.222 -0.3281  0.0014  2.6286
  722MPD2    H310730   0.101   4.714  13.217  3.5215  1.7608  1.8172
  722MPD2     N10731   4.483   0.264  13.135 -0.9656  0.1623  0.2445
  722MPD2    H510732   4.471   0.361  13.110  0.7725  1.0407  2.8081
  722MPD2    N110733   0.211   0.396  13.167 -0.4500  0.0341 -0.5193
  722MPD2    H710734   0.187   0.482  13.119 -0.0510 -1.6090 -3.7191
  723TMC3    C110735   4.255   0.256  13.118 -0.5852  0.0169  0.0422
  723TMC3    C210736   4.143   0.178  13.104  0.8056  0.2362  0.2076
  723TMC3    C310737   4.022   0.230  13.060 -0.4812 -0.2314  0.0201
  723TMC3    C410738   4.250   0.395  13.100  0.0357 -0.1861  0.4176
  723TMC3    C510739   4.126   0.444  13.075 -0.4658 -0.0327 -0.1881
  723TMC3    C610740   4.013   0.370  13.051 -0.0108  0.0576 -0.0820
  723TMC3     C10741   4.375   0.184  13.148  0.4532  0.5488  0.3599
  723TMC3     O10742   4.375   0.070  13.186 -0.2531  0.0019  0.0122
  723TMC3     H10743   4.150   0.072  13.127 -2.3432 -0.4416 -2.0481
  723TMC3    H110744   4.319   0.468  13.139 -1.2823  1.6048 -0.6267
  723TMC3    H210745   3.914   0.411  13.031 -0.4507 -1.4568 -1.0167
  723TMC3    C710746   4.115   0.585  13.068 -0.1320  0.0479  0.2305
  723TMC3    C810747   3.973   0.173  12.942 -0.2277  0.1737  0.9263
  723TMC3    O110748   4.207   0.650  13.109  0.0810 -0.1977 -0.4919
  723TMC3    O210749   3.925   0.244  12.857  0.0968  0.1817  0.0580
  724TMC3    C110750   0.009   3.122  10.264  0.1601  0.3688 -0.2172
  724TMC3    C210751   0.039   3.200  10.160  0.7494 -0.1837 -0.1352
  724TMC3    C310752   0.148   3.282  10.186 -0.0400 -0.1743  0.3694
  724TMC3    C410753   0.060   3.137  10.393 -0.4602  0.5785  0.3439
  724TMC3    C510754   0.158   3.233  10.414 -0.0305 -0.2048  0.1574
  724TMC3    C610755   0.208   3.305  10.306  0.8866 -0.3192  0.7255
  724TMC3     C10756   4.674   3.004  10.232 -0.0750  0.5962  0.6137
  724TMC3     O10757   4.659   2.926  10.324  0.0936  0.2917  0.4605
  724TMC3     H10758   0.001   3.193  10.059 -1.4301  0.4478  0.6491
  724TMC3    H110759   0.014   3.087  10.477 -0.4534  0.0486  0.0313
  724TMC3    H210760   0.294   3.370  10.319  0.5975  0.0844  0.6487
  724TMC3    C710761   0.198   3.270  10.548 -0.6055 -0.5646 -0.0260
  724TMC3    C810762   0.198   3.353  10.069 -0.0112  0.1601  0.2060
  724TMC3    O110763   0.280   3.361  10.551 -0.4975  0.6130  0.1965
  724TMC3    O210764   0.172   3.310   9.957 -0.5841  0.0185  0.4096
  725TMC3    C110765   1.835   1.887  12.770 -0.3614 -0.3117  0.1895
  725TMC3    C210766   1.729   1.914  12.685 -0.6867 -0.3910  0.0088
  725TMC3    C310767   1.633   1.817  12.669 -0.6159  0.2376 -0.3530
  725TMC3    C410768   1.852   1.759  12.814 -0.2565 -0.1558 -0.3267
  725TMC3    C510769   1.752   1.666  12.795  0.1985 -0.6836  0.4151
  725TMC3    C610770   1.646   1.691  12.717 -0.0786  0.1923 -0.8059
  725TMC3     C10771   1.927   1.998  12.797 -0.1318 -0.6943  0.9049
  725TMC3     O10772   1.948   2.080  12.705  0.0536  0.2213 -0.3519
  725TMC3     H10773   1.715   2.016  12.654 -0.2012 -0.3672 -0.1333
  725TMC3    H110774   1.919   1.730  12.894  0.0996  3.8824  0.8661
  725TMC3    H210775   1.575   1.610  12.707 -1.5542  1.0703  2.5517
  725TMC3    C710776   1.824   1.545  12.753  0.0660  0.0925  0.5206
  725TMC3    C810777   1.535   1.836  12.564  0.4612  0.0758  0.2938
  725TMC3    O110778   1.937   1.550  12.719 -0.3219  0.1982 -0.2732
  725TMC3    O210779   1.424   1.787  12.591 -0.5893 -0.2028  0.1950
  726MPD2     C10780   4.444   3.727  10.466 -0.7613 -0.3928 -0.0630
  726MPD2    C110781   4.403   3.772  10.344  0.1401 -0.3916 -0.3522
  726MPD2    C210782   4.291   3.715  10.280  0.2588  0.2454 -0.0092
  726MPD2    C310783   4.234   3.606  10.339  0.2801 -0.2621  0.2131
  726MPD2    C410784   4.283   3.557  10.459 -0.1096  0.3528  0.4426
  726MPD2    C510785   4.388   3.610  10.520 -0.3045 -0.5873  0.7415
  726MPD2     H10786   4.255   3.766  10.191 -1.7870  2.0718  1.8782
  726MPD2    H110787   4.251   3.461  10.499 -1.9696  1.1198  0.7772
  726MPD2    H210788   4.526   3.769  10.524 -0.9189 -0.6502  0.3436
  726MPD2    H310789   4.415   3.576  10.619  2.0711 -0.6802  0.0741
  726MPD2     N10790   4.124   3.539  10.285 -0.5020  0.0728  0.4525
  726MPD2    H510791   4.079   3.471  10.346 -1.3242  1.0856  0.9640
  726MPD2    N110792   4.453   3.890  10.285  0.0394  0.3717  0.1931
  726MPD2    H710793   4.393   3.923  10.210  0.3721  1.3448  0.3483
  727TMC3    C110794   4.550   4.095  10.256 -0.2711 -0.4154 -0.2522
  727TMC3    C210795   4.547   4.198  10.345 -0.0733 -0.4654 -0.1267
  727TMC3    C310796   4.452   4.290  10.327  0.0639  0.2597  0.1898
  727TMC3    C410797   4.465   4.093  10.149 -0.0590  0.3047 -0.2892
  727TMC3    C510798   4.374   4.190  10.141 -1.0669 -0.4228 -0.1527
  727TMC3    C610799   4.359   4.290  10.226 -0.0729  0.3847 -0.0075
  727TMC3     C10800   4.559   3.968  10.324  0.5416  0.0599 -0.2743
  727TMC3     O10801   4.651   3.951  10.407  0.4052 -0.0163  0.0692
  727TMC3     H10802   4.598   4.187  10.440 -0.7778 -0.5422  0.2427
  727TMC3    H110803   4.475   4.021  10.069  3.4853 -0.6683  1.0574
  727TMC3    H210804   4.268   4.347  10.212 -1.6885 -2.7943 -2.4783
  727TMC3    C710805   4.250   4.127  10.096  0.5664  0.1376  0.2562
  727TMC3    C810806   4.435   4.375  10.443  0.9229 -0.0579 -0.4193
  727TMC3    O110807   4.247   4.005  10.112  0.2162  0.3853  0.3514
  727TMC3    O210808   4.531   4.441  10.480  0.3352  0.2886  0.3444
  728TMC3    C110809   4.210   2.163  15.089 -0.7850  0.4601 -0.2854
  728TMC3    C210810   4.345   2.169  15.097 -0.0047 -0.0233  0.5136
  728TMC3    C310811   4.411   2.246  15.008  0.1592 -0.0417  0.3260
  728TMC3    C410812   4.140   2.229  14.995 -0.4931  0.4036 -0.1826
  728TMC3    C510813   4.220   2.304  14.903  0.4231 -0.6964 -0.1120
  728TMC3    C610814   4.353   2.319  14.911  0.2547 -0.4572 -0.5040
  728TMC3     C10815   4.138   2.106  15.208 -0.5050 -0.2663 -1.0151
  728TMC3     O10816   4.205   2.090  15.309 -0.3147 -0.2269 -0.1417
  728TMC3     H10817   4.398   2.118  15.177 -1.4237 -1.9996  0.2021
  728TMC3    H110818   4.032   2.235  14.988 -0.3887  1.2033 -1.2383
  728TMC3    H210819   4.406   2.370  14.831 -1.3408  0.5590 -0.9150
  728TMC3    C710820   4.156   2.399  14.814 -0.4243  0.0559 -0.2033
  728TMC3    C810821   4.556   2.258  15.020 -0.1355 -0.2716  0.3094
  728TMC3    O110822   4.231   2.485  14.779 -0.6647 -0.4353 -0.2375
  728TMC3    O210823   4.610   2.168  15.080  0.3265  0.6204  0.1254
  729MPD2     C10824   1.801   3.335  16.606 -0.4193 -0.2910  0.0098
  729MPD2    C110825   1.876   3.290  16.715 -0.2916 -0.0601 -0.1492
  729MPD2    C210826   1.818   3.252  16.838  0.2696  0.0862  0.1884
  729MPD2    C310827   1.683   3.277  16.853  0.3169 -0.2397  0.2388
  729MPD2    C410828   1.607   3.316  16.742  0.3731  0.4824  0.4108
  729MPD2    C510829   1.664   3.346  16.618 -0.1153  0.2437 -0.2633
  729MPD2     H10830   1.874   3.222  16.925 -0.8262  0.8179  1.1340
  729MPD2    H110831   1.499   3.315  16.748  0.4430  1.8329  1.9605
  729MPD2    H210832   1.836   3.354  16.505 -3.5995 -1.3983 -1.2884
  729MPD2    H310833   1.606   3.359  16.527  0.4631 -1.1589 -0.8319
  729MPD2     N10834   1.617   3.246  16.973 -0.1402 -0.2717 -0.3182
  729MPD2    H510835   1.516   3.254  16.961 -0.0776 -1.3017 -1.5178
  729MPD2    N110836   2.019   3.289  16.692 -0.6806 -0.2084  0.0997
  729MPD2    H710837   2.046   3.316  16.598 -0.6681 -1.0571 -0.1394
  730TMC3    C110838   1.568   3.285  17.206 -0.2928  0.6334 -0.1713
  730TMC3    C210839   1.626   3.329  17.323 -0.2109 -0.1861 -0.1062
  730TMC3    C310840   1.542   3.395  17.404  0.2230  0.2304 -0.5342
  730TMC3    C410841   1.436   3.301  17.182  0.3750  0.0544 -0.2050
  730TMC3    C510842   1.358   3.352  17.279 -0.3500  0.1325 -0.0782
  730TMC3    C610843   1.408   3.399  17.393 -0.5775  0.1945 -0.5263
  730TMC3     C10844   1.670   3.245  17.103 -0.4258 -0.2746  0.5837
  730TMC3     O10845   1.787   3.261  17.128 -0.4906  0.1174 -0.7274
  730TMC3     H10846   1.733   3.324  17.336 -0.4881 -0.0492  2.1599
  730TMC3    H110847   1.392   3.259  17.092  2.3325  1.5765 -1.8678
  730TMC3    H210848   1.336   3.445  17.459  0.7461  0.9250  0.4101
  730TMC3    C710849   1.214   3.366  17.246  0.2958  0.8699  0.3425
  730TMC3    C810850   1.579   3.524  17.462  0.7582  0.3235 -0.5222
  730TMC3    O110851   1.173   3.268  17.183 -0.2736  0.0865  0.1222
  730TMC3    O210852   1.501   3.593  17.526 -0.1054  1.1979  0.0699
  731MPD2     C10853   1.775   1.550  12.201  0.0290 -0.3825  0.5813
  731MPD2    C110854   1.663   1.568  12.117 -0.0703  0.1937 -0.2152
  731MPD2    C210855   1.542   1.555  12.181  0.2081  0.5195 -0.4178
  731MPD2    C310856   1.527   1.534  12.322  0.2601  0.6204 -0.0643
  731MPD2    C410857   1.645   1.528  12.393  0.0109  1.0892  0.1311
  731MPD2    C510858   1.762   1.552  12.340 -0.4025 -0.2440 -0.4654
  731MPD2     H10859   1.459   1.574  12.114  0.5608 -0.0547 -1.0156
  731MPD2    H110860   1.647   1.498  12.498 -1.3331 -0.0404 -0.1771
  731MPD2    H210861   1.875   1.543  12.159 -1.4908 -2.3401 -2.7640
  731MPD2    H310862   1.842   1.533  12.412  0.6668  0.6523 -1.4172
  731MPD2     N10863   1.399   1.529  12.379 -0.3656 -0.7568  0.3659
  731MPD2    H510864   1.317   1.543  12.320  0.1728  0.7186 -0.0193
  731MPD2    N110865   1.682   1.576  11.980  0.3849 -0.0397 -0.4199
  731MPD2    H710866   1.771   1.608  11.941 -0.5814  1.6007 -1.2534
  732TMC3    C110867   1.627   1.567  11.742  0.1023  0.0806  0.0915
  732TMC3    C210868   1.560   1.504  11.641  0.5942  0.4365  0.1316
  732TMC3    C310869   1.622   1.473  11.526  0.3966  0.1618  0.1177
  732TMC3    C410870   1.763   1.601  11.716 -0.4763  0.7506 -0.2773
  732TMC3    C510871   1.818   1.574  11.595 -0.2004  0.5829 -0.3467
  732TMC3    C610872   1.745   1.518  11.493  0.0601 -0.7445  0.0859
  732TMC3     C10873   1.585   1.567  11.882 -0.4166 -0.0202 -0.3257
  732TMC3     O10874   1.470   1.535  11.900  0.1133 -0.1942  0.2801
  732TMC3     H10875   1.462   1.464  11.665  0.5217 -0.9499 -2.4532
  732TMC3    H110876   1.823   1.641  11.796 -0.2455  0.7051 -0.4293
  732TMC3    H210877   1.793   1.500  11.397 -2.3824 -0.1532 -1.2619
  732TMC3    C710878   1.958   1.587  11.581 -0.0805 -0.4205 -0.0235
  732TMC3    C810879   1.546   1.413  11.422  0.2074  0.5812  0.1648
  732TMC3    O110880   2.013   1.659  11.498 -0.2246 -0.4157 -0.1731
  732TMC3    O210881   1.612   1.347  11.342  0.0788 -0.9389  0.4515
  733TMC3    C110882   2.066   4.223  12.869  0.2522  0.8406  0.4532
  733TMC3    C210883   2.192   4.223  12.925 -0.0886 -1.0749  0.4714
  733TMC3    C310884   2.300   4.236  12.837  0.7320  0.3476 -0.2692
  733TMC3    C410885   2.033   4.223  12.733  0.1054 -0.6506 -0.0407
  733TMC3    C510886   2.147   4.240  12.654  0.5341 -0.1715 -0.3729
  733TMC3    C610887   2.281   4.250  12.701  0.0742  0.2907  0.3918
  733TMC3     C10888   1.950   4.261  12.946  0.3275 -0.5001 -0.3315
  733TMC3     O10889   1.889   4.354  12.896  0.4569  0.2474  0.1240
  733TMC3     H10890   2.208   4.207  13.031  2.3381  0.2486  0.3200
  733TMC3    H110891   1.934   4.253  12.702  0.7937 -0.4379 -2.0205
  733TMC3    H210892   2.364   4.257  12.632 -1.9888 -2.7729 -2.3912
  733TMC3    C710893   2.139   4.302  12.522  0.4390 -0.1557  0.0404
  733TMC3    C810894   2.436   4.241  12.894 -0.5351 -0.3197  0.3393
  733TMC3    O110895   2.042   4.274  12.448 -0.1966 -0.1956  0.1461
  733TMC3    O210896   2.463   4.181  12.999 -0.4346  0.3222  0.2288
  734MPD2     C10897   4.139   2.220  12.559 -0.0105 -0.1096 -1.2130
  734MPD2    C110898   4.071   2.110  12.507 -0.2722  0.4111 -0.1719
  734MPD2    C210899   4.098   2.075  12.371  0.5360  0.1687 -0.1468
  734MPD2    C310900   4.188   2.146  12.297  0.3755  0.0460  0.5479
  734MPD2    C410901   4.251   2.255  12.353 -0.1921 -0.2060 -0.0148
  734MPD2    C510902   4.223   2.289  12.478 -0.4124 -0.7003  0.3975
  734MPD2     H10903   4.049   1.989  12.327  1.4282  0.0027 -0.8118
  734MPD2    H110904   4.322   2.320  12.302 -0.4436  0.6501  0.7377
  734MPD2    H210905   4.130   2.250  12.662  1.2215  1.6420 -1.6208
  734MPD2    H310906   4.284   2.364  12.526  0.1624 -0.3281 -0.9258
  734MPD2     N10907   4.219   2.097  12.172 -0.3542 -0.2213  0.4036
  734MPD2    H510908   4.182   2.004  12.155  0.5464 -0.6983  1.0167
  734MPD2    N110909   3.992   2.036  12.597  0.1213  0.3951  0.1984
  734MPD2    H710910   3.980   2.071  12.691 -0.1161  1.2309 -0.1415
  735TMC3    C110911   3.807   1.900  12.643 -0.0417  0.0087  0.5910
  735TMC3    C210912   3.700   1.849  12.579 -0.0580  0.6062  0.2663
  735TMC3    C310913   3.687   1.717  12.576  0.0224  0.5118  0.0260
  735TMC3    C410914   3.890   1.820  12.713  0.4666 -0.6472  0.2214
  735TMC3    C510915   3.879   1.685  12.713  0.6222  0.8982  0.0956
  735TMC3    C610916   3.777   1.632  12.638 -0.0030  1.1713 -0.1126
  735TMC3     C10917   3.888   1.967  12.544  0.3724 -0.4860  0.3364
  735TMC3     O10918   3.849   1.942  12.428  0.0470  0.3202  0.3436
  735TMC3     H10919   3.637   1.909  12.514 -2.2207 -0.2083  1.6018
  735TMC3    H110920   3.975   1.863  12.766  1.4353 -1.0383 -1.0048
  735TMC3    H210921   3.775   1.525  12.626 -0.9043  1.3446 -1.4585
  735TMC3    C710922   4.013   1.614  12.714 -0.2738 -0.3348  0.9140
  735TMC3    C810923   3.637   1.671  12.448  0.8311 -0.2224  0.7526
  735TMC3    O110924   4.111   1.683  12.720  0.4228 -0.7557  0.2532
  735TMC3    O210925   3.599   1.555  12.433  0.4967 -0.4544 -0.2754
  736MPD2     C10926   4.110   1.268  12.706  0.0181  0.3108  0.0669
  736MPD2    C110927   4.115   1.397  12.676 -0.0740  0.1106  0.1739
  736MPD2    C210928   4.213   1.445  12.598  0.6697 -0.0344 -0.4783
  736MPD2    C310929   4.310   1.370  12.533  0.1076  0.1478 -0.6097
  736MPD2    C410930   4.310   1.241  12.565  0.7017 -0.6424  0.3187
  736MPD2    C510931   4.207   1.193  12.645  0.1279 -0.3998 -0.5104
  736MPD2     H10932   4.205   1.544  12.556  1.2386  1.2004  2.3170
  736MPD2    H110933   4.381   1.170  12.526  2.4573  0.2393  1.8817
  736MPD2    H210934   4.033   1.213  12.758  0.6154  0.6438  1.3074
  736MPD2    H310935   4.216   1.086  12.665 -0.3986 -0.3165  0.1559
  736MPD2     N10936   4.396   1.417  12.432 -0.3617  0.5583  0.0749
  736MPD2    H510937   4.447   1.344  12.384 -0.4291 -0.1216  1.0501
  736MPD2    N110938   4.009   1.475  12.721  0.0335 -0.0596  0.2102
  736MPD2    H710939   3.932   1.421  12.759 -1.3733  1.2333 -0.8332
  737TMC3    C110940   4.492   1.559  12.271 -0.2307 -0.3579  0.1076
  737TMC3    C210941   4.492   1.683  12.214 -0.6323  0.1973 -0.3513
  737TMC3    C310942   4.565   1.710  12.105  0.0931  0.4123 -0.2773
  737TMC3    C410943   4.564   1.454  12.226  0.0423  0.1451 -0.2170
  737TMC3    C510944   4.649   1.484  12.115 -0.4716 -0.0949 -0.1177
  737TMC3    C610945   4.650   1.613  12.053  0.2582  0.0113 -0.5944
  737TMC3     C10946   4.392   1.547  12.382 -0.4085 -0.1640  0.8261
  737TMC3     O10947   4.329   1.651  12.403  0.0921 -0.6250 -0.4104
  737TMC3     H10948   4.433   1.769  12.244  0.1300  0.4387  0.4755
  737TMC3    H110949   4.541   1.351  12.248  0.8393  0.0567  0.1985
  737TMC3    H210950   4.719   1.637  11.973  1.3106 -0.6255  0.1167
  737TMC3    C710951   4.700   1.366  12.036  0.6303  0.7627 -0.2255
  737TMC3    C810952   4.580   1.849  12.062 -0.1411  0.2045 -0.1859
  737TMC3    O110953   4.668   1.256  12.068 -0.0050 -0.3543  0.2476
  737TMC3    O210954   4.548   1.931  12.144  0.0981 -0.3804  0.1368
  738MPD2     C10955   0.361   0.789  14.922 -0.3214  0.1656 -0.1249
  738MPD2    C110956   0.441   0.674  14.922 -0.4420 -0.0572 -0.4284
  738MPD2    C210957   0.568   0.675  14.874 -0.6026 -0.2177  0.2774
  738MPD2    C310958   0.615   0.800  14.817 -0.1561 -0.2818  0.9834
  738MPD2    C410959   0.526   0.903  14.816 -0.1707 -0.6987 -0.7729
  738MPD2    C510960   0.401   0.906  14.864  0.5659 -0.5225 -0.4857
  738MPD2     H10961   0.630   0.588  14.862 -0.9326 -0.4719  0.4159
  738MPD2    H110962   0.562   0.995  14.770  1.9844 -0.6529  0.9985
  738MPD2    H210963   0.260   0.788  14.962 -0.0407 -1.3308  0.5588
  738MPD2    H310964   0.343   0.997  14.855 -1.5362 -1.5614  2.1866
  738MPD2     N10965   0.739   0.811  14.740  0.1675 -0.2665  0.5502
  738MPD2    H510966   0.753   0.899  14.691 -0.6160 -0.2546  0.3499
  738MPD2    N110967   0.396   0.548  14.969 -0.6799  0.3368 -0.1459
  738MPD2    H710968   0.462   0.473  14.952 -1.5315  0.3489 -3.4611
  739TMC3    C110969   0.934   0.770  14.650  0.8305  0.5954  0.6858
  739TMC3    C210970   0.905   0.802  14.521 -0.8488 -0.1719 -0.0188
  739TMC3    C310971   0.969   0.911  14.465 -0.4423  0.4412 -0.2752
  739TMC3    C410972   1.004   0.850  14.729  0.4136  0.2543  0.5800
  739TMC3    C510973   1.078   0.950  14.673  0.1450 -0.0280  1.2550
  739TMC3    C610974   1.062   0.989  14.543 -0.3551  0.5074  0.4047
  739TMC3     C10975   0.830   0.708  14.723 -0.1093  0.0266  0.0255
  739TMC3     O10976   0.827   0.586  14.733 -0.6399  0.8162  0.5890
  739TMC3     H10977   0.841   0.741  14.458 -2.1815 -0.2829  1.4596
  739TMC3    H110978   0.996   0.840  14.837  0.4021  1.5049  0.6930
  739TMC3    H210979   1.113   1.074  14.499 -1.0041  0.6061 -0.1681
  739TMC3    C710980   1.131   1.051  14.767  0.1143  0.5049 -0.3636
  739TMC3    C810981   0.947   0.942  14.321 -0.6273 -0.5344 -0.0160
  739TMC3    O110982   1.157   1.157  14.713  0.1216  0.0094  0.0045
  739TMC3    O210983   0.832   0.912  14.281 -0.2585 -1.0659 -0.1036
  740TMC3    C110984   1.413   2.012  14.275  0.9742  0.1164  0.1486
  740TMC3    C210985   1.471   2.003  14.398 -0.0664  0.3132 -0.4733
  740TMC3    C310986   1.605   1.995  14.412 -0.1805  0.2277 -0.5445
  740TMC3    C410987   1.476   2.009  14.162 -0.0129 -0.0222 -0.0761
  740TMC3    C510988   1.614   1.996  14.173 -1.0561  0.2391  0.7183
  740TMC3    C610989   1.682   1.975  14.296 -0.6425  0.2173 -0.0227
  740TMC3     C10990   1.285   2.076  14.277  0.2513 -0.8747  0.7553
  740TMC3     O10991   1.267   2.148  14.179  0.5469  0.5929  0.2863
  740TMC3     H10992   1.423   2.023  14.493  2.0634 -1.4387  0.9577
  740TMC3    H110993   1.426   2.016  14.066 -0.6994 -0.1506  0.2689
  740TMC3    H210994   1.786   2.002  14.312 -1.1981  1.5627  1.3039
  740TMC3    C710995   1.705   1.988  14.059 -0.0922  0.3508 -0.1490
  740TMC3    C810996   1.664   1.976  14.545  0.8998 -0.0776 -0.3878
  740TMC3    O110997   1.809   1.927  14.086  0.1887  0.4934  0.4098
  740TMC3    O210998   1.607   2.020  14.641  0.4863  0.0677 -0.2702
  741TMC3    C110999   0.753   1.281  14.233 -0.3477  0.8358  0.1609
  741TMC3    C211000   0.658   1.201  14.179  0.4588  0.4011  0.2437
  741TMC3    C311001   0.586   1.122  14.267 -0.7501 -0.3509  0.4471
  741TMC3    C411002   0.787   1.283  14.362  0.3560  0.4411 -0.4308
  741TMC3    C511003   0.711   1.202  14.449 -0.0205 -0.2121 -0.6018
  741TMC3    C611004   0.602   1.134  14.407 -0.3931  0.2632  0.4527
  741TMC3     C11005   0.843   1.355  14.143  0.2794  0.2115  0.1411
  741TMC3     O11006   0.953   1.390  14.191  0.7410 -0.1465 -0.1939
  741TMC3     H11007   0.637   1.188  14.074 -2.3967  0.5722  0.7951
  741TMC3    H111008   0.883   1.322  14.394  2.2143 -1.6298 -3.5340
  741TMC3    H211009   0.551   1.082  14.488 -0.1294 -0.3034  0.2556
  741TMC3    C711010   0.751   1.176  14.589 -0.1355  0.2375 -0.2770
  741TMC3    C811011   0.482   1.044  14.209  0.2940 -0.3177 -0.1264
  741TMC3    O111012   0.753   1.063  14.628 -0.9313 -0.8341 -0.1980
  741TMC3    O211013   0.455   1.071  14.092  0.6519  0.6938  0.5553
  742TMC3    C111014   0.670   4.662  15.258 -0.1290  0.0414  0.2865
  742TMC3    C211015   0.574   4.619  15.169 -0.6740 -0.3791 -0.0056
  742TMC3    C311016   0.573   4.483  15.130  0.1097 -0.1076  0.1500
  742TMC3    C411017   0.784   4.587  15.274 -1.1079 -0.2646 -0.5514
  742TMC3    C511018   0.781   4.461  15.224  0.4907 -0.4110 -0.4783
  742TMC3    C611019   0.677   4.398  15.156 -0.1135  0.0026 -0.3282
  742TMC3     C11020   0.676   0.064  15.293  0.2683 -0.1305  0.3123
  742TMC3     O11021   0.624   0.134  15.208 -0.2858 -0.6891 -0.1613
  742TMC3     H11022   0.488   4.685  15.158 -0.6754 -0.3784  0.0095
  742TMC3    H111023   0.870   4.639  15.314 -1.8702 -0.3350  1.2057
  742TMC3    H211024   0.699   4.307  15.101 -0.7398  0.9309 -2.1129
  742TMC3    C711025   0.894   4.384  15.250  0.5423 -0.9010  0.4979
  742TMC3    C811026   0.494   4.472  15.008  0.2628 -0.2955 -0.0792
  742TMC3    O111027   0.928   4.296  15.175  0.2667 -0.5325 -0.4170
  742TMC3    O211028   0.470   4.581  14.963  0.1466 -0.4440  0.9666
  743MPD2     C11029   2.260   1.609   0.724  0.0779  0.0788  0.4553
  743MPD2    C111030   2.342   1.496   0.737 -0.0925  0.3037  0.0964
  743MPD2    C211031   2.470   1.508   0.789 -0.0656  0.5668 -0.0759
  743MPD2    C311032   2.514   1.643   0.818 -0.1026 -1.1721  0.3108
  743MPD2    C411033   2.432   1.753   0.799  0.2543  0.4111 -0.4670
  743MPD2    C511034   2.307   1.737   0.751  0.3486 -0.0341  0.3948
  743MPD2     H11035   2.537   1.428   0.817 -1.1972 -0.0828  0.7853
  743MPD2    H111036   2.478   1.850   0.814  0.0159  0.8095 -2.3363
  743MPD2    H211037   2.157   1.607   0.690  0.1206  0.0255  0.3271
  743MPD2    H311038   2.253   1.829   0.732  0.3206  0.4266  2.6140
  743MPD2     N11039   2.643   1.652   0.867 -0.2497  0.1059  0.2201
  743MPD2    H511040   2.699   1.569   0.880  0.7765  0.8934  0.8419
  743MPD2    N111041   2.280   1.378   0.699 -0.2501 -0.9809 -0.4097
  743MPD2    H711042   2.191   1.377   0.649  0.7156 -3.9540 -2.1208
  744TMC3    C111043   2.278   1.149   0.603 -0.1488 -0.0071 -0.5617
  744TMC3    C211044   2.215   1.196   0.495  0.3877  0.3022 -0.5555
  744TMC3    C311045   2.222   1.133   0.376 -0.9373 -0.4206  0.0062
  744TMC3    C411046   2.349   1.033   0.580  0.3573 -0.7385  0.1834
  744TMC3    C511047   2.357   0.967   0.461  0.1358 -0.0753 -0.0268
  744TMC3    C611048   2.284   1.017   0.357 -1.0562  0.6992  0.4588
  744TMC3     C11049   2.340   1.247   0.694 -0.0353 -0.9659 -0.4330
  744TMC3     O11050   2.445   1.217   0.752 -0.4231 -0.6371  0.8633
  744TMC3     H11051   2.172   1.295   0.504 -0.8167 -0.3571  0.8276
  744TMC3    H111052   2.389   0.972   0.660 -0.6001  0.8696  1.8592
  744TMC3    H211053   2.298   0.962   0.264 -2.6109  2.5996 -0.9024
  744TMC3    C711054   2.487   0.912   0.433 -0.2450 -0.0791 -0.7596
  744TMC3    C811055   2.172   1.202   0.260 -0.2340 -0.0787 -0.4549
  744TMC3    O111056   2.521   0.943   0.322  0.7500  0.3625  0.0573
  744TMC3    O211057   2.143   1.319   0.272  0.5768 -0.3431 -0.4124
  745TMC3    C111058   1.069   3.860  13.434  0.3039 -0.7111  0.1641
  745TMC3    C211059   0.949   3.825  13.485 -0.0991 -0.5561  0.7640
  745TMC3    C311060   0.847   3.806  13.397  0.8882 -0.5370 -0.5889
  745TMC3    C411061   1.091   3.878  13.301 -0.2462  0.3201 -0.0505
  745TMC3    C511062   0.994   3.834  13.218  1.2246  0.3223  0.2702
  745TMC3    C611063   0.872   3.808  13.262 -0.3761  0.0023 -0.7368
  745TMC3     C11064   1.154   3.935  13.525  0.2177  0.3647 -0.2600
  745TMC3     O11065   1.131   3.916  13.645 -0.0764  0.2643  0.1888
  745TMC3     H11066   0.935   3.791  13.587 -1.5917 -0.5548  0.5566
  745TMC3    H111067   1.189   3.898  13.259 -1.3319  2.6275 -1.4238
  745TMC3    H211068   0.788   3.796  13.194 -0.7999 -0.5177 -0.1282
  745TMC3    C711069   0.998   3.866  13.075  0.3939 -0.0223  0.0094
  745TMC3    C811070   0.737   3.891  13.434 -0.4481 -0.1243 -0.3522
  745TMC3    O111071   0.957   3.784  12.998 -0.0526  0.5366 -0.0478
  745TMC3    O211072   0.628   3.872  13.380 -0.2137 -0.1513  0.6203
  746TMC3    C111073   3.644   1.272  10.673 -0.0549 -0.4140 -0.3608
  746TMC3    C211074   3.697   1.309  10.550  0.1192  0.4339  0.7834
  746TMC3    C311075   3.633   1.262  10.443 -0.0034  0.4553 -0.7582
  746TMC3    C411076   3.538   1.179  10.683  0.0867  0.9275  0.9660
  746TMC3    C511077   3.495   1.124  10.573  1.2960  0.3560  0.2154
  746TMC3    C611078   3.528   1.171  10.444  0.3661  0.3787 -0.2475
  746TMC3     C11079   3.628   1.383  10.764 -0.0321 -0.0848  0.2798
  746TMC3     O11080   3.516   1.372  10.826  1.1046 -0.4672 -0.3344
  746TMC3     H11081   3.767   1.391  10.539  0.6948  0.1857  2.5369
  746TMC3    H111082   3.497   1.148  10.778  1.8319 -2.1370  0.7170
  746TMC3    H211083   3.485   1.142  10.349 -0.1775  0.0429  0.0978
  746TMC3    C711084   3.373   1.055  10.592 -0.0125  0.0673 -0.1552
  746TMC3    C811085   3.672   1.322  10.320 -0.4678 -0.5323 -0.7763
  746TMC3    O111086   3.342   1.015  10.704  0.1458 -0.8089  0.4396
  746TMC3    O211087   3.786   1.345  10.292  0.0163  0.2888 -0.3685
  747TMC3    C111088   0.372   1.416  11.029  0.1270 -0.2266 -0.5987
  747TMC3    C211089   0.292   1.377  11.132 -0.5676 -0.3685  0.6323
  747TMC3    C311090   0.318   1.420  11.262 -0.4871  0.6738 -0.2394
  747TMC3    C411091   0.487   1.474  11.050 -0.0467 -0.1236  0.4431
  747TMC3    C511092   0.514   1.502  11.178 -0.0621 -0.5696 -0.3986
  747TMC3    C611093   0.431   1.482  11.288  0.5266  0.4157 -0.9533
  747TMC3     C11094   0.337   1.363  10.901  0.0636 -0.2386  1.6731
  747TMC3     O11095   0.219   1.355  10.869  0.2083 -0.0559 -0.3041
  747TMC3     H11096   0.195   1.336  11.110  0.2667 -0.9099 -2.0054
  747TMC3    H111097   0.558   1.508  10.975 -1.3765  1.0965 -0.2526
  747TMC3    H211098   0.468   1.488  11.390 -1.0575 -2.4696 -0.2121
  747TMC3    C711099   0.643   1.557  11.197  0.6224  0.2145 -0.2851
  747TMC3    C811100   0.277   1.333  11.363  0.7253 -0.0957  0.0060
  747TMC3    O111101   0.669   1.645  11.276 -0.1406 -0.5116 -0.1349
  747TMC3    O211102   0.251   1.221  11.317 -0.3676  0.7538  0.0110
  748MPD2     C11103   2.302   2.302   0.740  0.2244  0.2073 -0.1827
  748MPD2    C111104   2.342   2.353   0.620  0.3226 -0.0039 -0.2668
  748MPD2    C211105   2.451   2.438   0.619 -0.4701 -0.6370 -0.0185
  748MPD2    C311106   2.529   2.471   0.732  0.1666  0.1702  0.2182
  748MPD2    C411107   2.493   2.408   0.851  0.8136  0.0141  0.5407
  748MPD2    C511108   2.382   2.326   0.852 -0.0248  0.0406 -0.1812
  748MPD2     H11109   2.493   2.486   0.530 -2.6296  0.5247 -0.4008
  748MPD2    H111110   2.545   2.424   0.944  1.8321 -0.2355  0.0114
  748MPD2    H211111   2.222   2.231   0.753  2.0157 -1.5820  0.9178
  748MPD2    H311112   2.361   2.288   0.951  1.4940  0.2788  0.2400
  748MPD2     N11113   2.644   2.557   0.732  0.6070 -0.7910  0.1738
  748MPD2    H511114   2.699   2.567   0.817 -0.8716 -1.0520  1.1693
  748MPD2    N111115   2.252   2.330   0.510  0.1507 -0.7837  0.6795
  748MPD2    H711116   2.190   2.250   0.518  0.1431 -1.0265 -1.7269
  749TMC3    C111117   2.808   2.694   0.654  0.2137  0.0283  0.6913
  749TMC3    C211118   2.897   2.632   0.736  0.1275 -0.8014 -0.1787
  749TMC3    C311119   3.018   2.698   0.756  0.4055  0.2453  0.6042
  749TMC3    C411120   2.849   2.799   0.574 -0.0921  0.3702  0.5506
  749TMC3    C511121   2.975   2.846   0.582  0.0884  0.3972  0.5720
  749TMC3    C611122   3.055   2.804   0.680 -0.3587 -0.1868 -0.2233
  749TMC3     C11123   2.679   2.641   0.633  0.3353 -0.1782  0.5680
  749TMC3     O11124   2.616   2.689   0.539 -0.0047 -0.2237  0.2384
  749TMC3     H11125   2.878   2.539   0.789  1.7217  0.1625  2.0988
  749TMC3    H111126   2.786   2.839   0.496 -0.4712  1.9189  1.6552
  749TMC3    H211127   3.152   2.850   0.686  0.0193 -1.1104  0.9428
  749TMC3    C711128   3.044   2.925   0.480  0.3753  0.2803  0.2814
  749TMC3    C811129   3.118   2.639   0.833 -0.0367 -0.2218  0.3677
  749TMC3    O111130   3.134   3.000   0.520 -0.3435  0.0374 -1.0478
  749TMC3    O211131   3.195   2.715   0.882 -0.2525  0.7605  0.2684
  750MPD2     C11132   2.889   3.096  11.393  0.0316  0.1173 -0.5518
  750MPD2    C111133   2.845   2.979  11.447  0.2994  0.1634  0.0652
  750MPD2    C211134   2.799   2.881  11.366  0.6669 -0.3642  0.5245
  750MPD2    C311135   2.791   2.894  11.228 -0.9514  0.5456 -0.1784
  750MPD2    C411136   2.835   3.011  11.172  0.1178  0.7643  0.1028
  750MPD2    C511137   2.876   3.111  11.257 -0.9639  1.1827  1.0576
  750MPD2     H11138   2.767   2.784  11.402 -1.3611 -0.6367 -1.9952
  750MPD2    H111139   2.805   3.030  11.070  2.6628  0.4063 -0.7094
  750MPD2    H211140   2.918   3.179  11.456  0.9218  1.1985 -2.3629
  750MPD2    H311141   2.895   3.207  11.210 -1.5841  0.2442 -1.0987
  750MPD2     N11142   2.722   2.804  11.141  0.8060  0.3914 -0.6642
  750MPD2    H511143   2.737   2.825  11.043 -1.6398  1.1252 -0.9020
  750MPD2    N111144   2.833   2.961  11.592 -0.2034  0.5181 -0.0012
  750MPD2    H711145   2.885   3.028  11.647  0.2697  1.3509 -1.4586
  751TMC3    C111146   2.661   2.593  11.063  0.1835  0.3239  0.6267
  751TMC3    C211147   2.577   2.484  11.072 -0.8998 -0.0189 -0.2365
  751TMC3    C311148   2.566   2.399  10.968  0.1763 -0.0888 -0.9300
  751TMC3    C411149   2.741   2.612  10.959 -0.6965 -1.0897  0.1933
  751TMC3    C511150   2.728   2.523  10.850  0.6809  0.0179  0.0656
  751TMC3    C611151   2.637   2.420  10.852 -0.4732 -0.3890  0.6790
  751TMC3     C11152   2.666   2.680  11.171  0.1229 -0.3109 -0.2744
  751TMC3     O11153   2.643   2.628  11.278 -0.3059  0.1974  0.4703
  751TMC3     H11154   2.530   2.473  11.170  0.1164  0.8555  0.3451
  751TMC3    H111155   2.825   2.680  10.949 -0.3630 -1.5824 -0.3625
  751TMC3    H211156   2.635   2.342  10.776 -0.4084 -0.7989  1.1002
  751TMC3    C711157   2.827   2.542  10.741 -0.1423 -0.8610  0.3866
  751TMC3    C811158   2.455   2.307  10.959 -0.3439 -0.3384 -0.5250
  751TMC3    O111159   2.922   2.617  10.746  0.3488 -0.1986 -0.6293
  751TMC3    O211160   2.443   2.265  10.847  0.5615  0.1598  0.3592
  752TMC3    C111161   2.041   3.764  17.658 -0.4178 -0.6465 -0.9743
  752TMC3    C211162   1.960   3.654  17.659 -0.5869 -0.1198  0.1853
  752TMC3    C311163   1.871   3.640   0.002  0.9022  0.4843 -0.0281
  752TMC3    C411164   2.036   3.859  17.753 -0.0182  0.3081 -0.3079
  752TMC3    C511165   1.950   3.840   0.097  0.3888 -0.1620 -0.5791
  752TMC3    C611166   1.860   3.736   0.099  0.2020  0.4387  0.8230
  752TMC3     C11167   2.152   3.782  17.565  0.4017 -0.6603  0.9285
  752TMC3     O11168   2.231   3.861  17.608  0.2661  0.4614  0.4419
  752TMC3     H11169   1.972   3.583  17.578  3.6973 -0.7735  1.4280
  752TMC3    H111170   2.101   3.946  17.751 -3.9571  3.2653 -0.9425
  752TMC3    H211171   1.792   3.717   0.181 -1.0859  1.2598 -0.0587
  752TMC3    C711172   1.945   3.940   0.207  0.0730  0.0307 -0.6807
  752TMC3    C811173   1.783   3.523  17.754  0.4014 -0.0613 -0.3486
  752TMC3    O111174   2.041   4.014   0.224 -0.1184  0.1941  0.1359
  752TMC3    O211175   1.810   3.446  17.663  0.0913  0.2127  0.2852
  753TMC3    C111176   4.533   4.021  13.188  0.0508 -0.7532 -0.4807
  753TMC3    C211177   4.565   3.983  13.314  0.0777 -0.9062  0.2327
  753TMC3    C311178   4.492   3.883  13.372 -0.8148  0.8981  0.3781
  753TMC3    C411179   4.429   3.962  13.120  0.0856  0.6964 -0.2629
  753TMC3    C511180   4.360   3.866  13.184  0.6952  0.3444  0.3820
  753TMC3    C611181   4.396   3.811  13.304 -0.1948 -0.0599 -0.2101
  753TMC3     C11182   4.617   4.115  13.116  0.4763  0.3218 -0.6635
  753TMC3     O11183   4.616   4.233  13.155 -0.3439 -0.4145  0.7142
  753TMC3     H11184   4.654   4.025  13.359 -2.2154 -0.1687  4.0621
  753TMC3    H111185   4.400   4.001  13.023 -2.6085 -3.5003 -1.1374
  753TMC3    H211186   4.348   3.726  13.351 -0.1801  0.2602  0.3823
  753TMC3    C711187   4.221   3.859  13.147 -0.6928  0.4956 -0.2844
  753TMC3    C811188   4.535   3.841  13.504 -0.7702  0.7374  0.3072
  753TMC3    O111189   4.179   3.968  13.104 -0.1169 -0.2498  0.0193
  753TMC3    O211190   4.531   3.719  13.515  0.0127  0.0284  0.6666
  754MPD2     C11191   3.115   2.757  12.823  0.0250 -0.4205 -0.2937
  754MPD2    C111192   3.051   2.646  12.860 -0.0515  0.1290 -0.3149
  754MPD2    C211193   2.917   2.635  12.829  0.0690  0.6178 -0.1719
  754MPD2    C311194   2.849   2.744  12.772 -0.1358 -0.1709 -0.8732
  754MPD2    C411195   2.915   2.867  12.755  0.6807 -0.0914 -0.3832
  754MPD2    C511196   3.048   2.869  12.776  0.4682 -0.3753 -0.9332
  754MPD2     H11197   2.862   2.543  12.846  1.4711 -0.1741  0.0487
  754MPD2    H111198   2.867   2.962  12.735 -0.0039 -0.3464  0.0253
  754MPD2    H211199   3.223   2.765  12.830 -0.1088  0.5266  0.6148
  754MPD2    H311200   3.102   2.962  12.764 -0.1946 -0.2615 -3.1502
  754MPD2     N11201   2.710   2.740  12.754  0.0380  0.1381  0.5686
  754MPD2    H511202   2.668   2.815  12.700  0.7413 -0.4613 -0.8044
  754MPD2    N111203   3.124   2.546  12.922  0.4408 -0.2552  0.3654
  754MPD2    H711204   3.209   2.581  12.964  1.3705 -1.8702 -0.1655
  755MPD2     C11205   2.338   3.440  12.866 -0.5007  0.7312 -0.3299
  755MPD2    C111206   2.217   3.369  12.847 -0.4037  0.4316  0.5171
  755MPD2    C211207   2.220   3.230  12.823  0.0914  0.7138  0.9168
  755MPD2    C311208   2.343   3.167  12.828  0.0839  0.4232  0.1654
  755MPD2    C411209   2.460   3.237  12.830  0.1644 -0.4385  0.1930
  755MPD2    C511210   2.455   3.377  12.844  0.3538  0.8638  0.1612
  755MPD2     H11211   2.127   3.175  12.827 -0.7786  2.2705  2.0218
  755MPD2    H111212   2.548   3.174  12.822 -0.8794 -2.1487  1.9648
  755MPD2    H211213   2.329   3.546  12.883 -0.6767  0.9641 -1.8966
  755MPD2    H311214   2.547   3.431  12.823  0.6332  0.0759 -0.6458
  755MPD2     N11215   2.348   3.027  12.819  1.0014 -0.2901  0.3430
  755MPD2    H511216   2.429   2.979  12.855 -1.0853 -1.9154  2.8159
  755MPD2    N111217   2.093   3.420  12.849 -0.4732 -0.1967 -0.1359
  755MPD2    H711218   2.024   3.347  12.861 -1.8281  1.0890 -0.1605
  756MPD2     C11219   2.902   3.212   9.699 -0.5460  0.5685  0.1203
  756MPD2    C111220   2.793   3.257   9.769 -0.1101  0.3542  0.9947
  756MPD2    C211221   2.670   3.272   9.706 -0.3846  0.5798 -0.0961
  756MPD2    C311222   2.669   3.262   9.570  0.0229  0.0097 -0.6838
  756MPD2    C411223   2.776   3.209   9.500  0.3595 -0.0630 -0.0576
  756MPD2    C511224   2.886   3.176   9.570  0.0890  0.2918 -0.5411
  756MPD2     H11225   2.581   3.317   9.748  0.7804  3.2925 -0.4814
  756MPD2    H111226   2.780   3.185   9.395 -1.3545 -2.9309  0.5339
  756MPD2    H211227   2.988   3.176   9.754 -0.2543  0.1854 -0.6018
  756MPD2    H311228   2.976   3.139   9.523 -0.7245  1.0058 -2.6634
  756MPD2     N11229   2.547   3.295   9.504 -0.2199 -0.6142  0.6686
  756MPD2    H511230   2.473   3.315   9.571  0.6145  0.3998  1.2854
  756MPD2    N111231   2.799   3.298   9.904 -0.5483 -0.5484  0.0290
  756MPD2    H711232   2.716   3.335   9.949 -1.4473 -3.1346  0.5159
  757MPD2     C11233   1.858   2.816   9.657 -0.0096  0.1934  0.0960
  757MPD2    C111234   1.992   2.796   9.665 -0.0695 -0.0302 -0.0053
  757MPD2    C211235   2.080   2.883   9.597 -1.2632 -0.0069  0.0275
  757MPD2    C311236   2.026   2.971   9.512  0.1737  0.2146  0.0901
  757MPD2    C411237   1.889   2.993   9.503 -0.2285  0.2435  0.7308
  757MPD2    C511238   1.810   2.919   9.580 -0.6816  0.4875 -0.1322
  757MPD2     H11239   2.187   2.868   9.603 -1.2181 -1.2626 -4.2759
  757MPD2    H111240   1.849   3.068   9.437 -0.9063 -0.4550  0.3561
  757MPD2    H211241   1.792   2.744   9.704  1.5719 -1.0544  0.3816
  757MPD2    H311242   1.703   2.936   9.590 -0.6537  0.2258  0.6931
  757MPD2     N11243   2.118   3.056   9.452  0.2628 -0.2815  0.9523
  757MPD2    H511244   2.214   3.055   9.485  1.2175 -2.2760 -1.7981
  757MPD2    N111245   2.040   2.694   9.754 -0.0221 -0.0519  0.3710
  757MPD2    H711246   1.979   2.617   9.777  1.0332 -1.1531 -0.5192
  758MPD2     C11247   2.984   2.692  15.671  0.2918  0.2474 -0.0130
  758MPD2    C111248   3.049   2.607  15.761 -0.0831 -0.5336 -0.6027
  758MPD2    C211249   3.085   2.658  15.886 -0.2572 -0.0895  0.4375
  758MPD2    C311250   3.072   2.790  15.911 -0.9440  0.4853 -0.5121
  758MPD2    C411251   2.998   2.868  15.825  0.4312 -0.0648  0.3648
  758MPD2    C511252   2.952   2.816  15.710 -0.3884  0.3736  0.5062
  758MPD2     H11253   3.135   2.592  15.957  0.1332 -0.4606 -0.1841
  758MPD2    H111254   2.981   2.971  15.855 -1.1197 -0.3373  0.3977
  758MPD2    H211255   2.956   2.664  15.571 -1.5437 -0.7925  0.7966
  758MPD2    H311256   2.891   2.883  15.651 -2.1865 -1.0467  0.7397
  758MPD2     N11257   3.106   2.845  16.027  0.3737 -0.1233  0.4166
  758MPD2    H511258   3.062   2.933  16.051  0.1312  0.2588 -1.4414
  758MPD2    N111259   3.066   2.475  15.723  0.0046 -0.4432  0.6105
  758MPD2    H711260   3.064   2.462  15.622  1.4890  1.1038  0.3739
  759MPD2     C11261   2.343   0.159   9.873  0.7055  0.1657 -0.3155
  759MPD2    C111262   2.313   0.264   9.961 -0.3612  0.1503  0.3941
  759MPD2    C211263   2.325   0.392   9.912  0.1039 -0.7103  0.3195
  759MPD2    C311264   2.342   0.415   9.778  0.6221 -0.3119  0.2804
  759MPD2    C411265   2.358   0.305   9.688  0.2286  0.3544  0.3949
  759MPD2    C511266   2.359   0.180   9.741 -0.3430  0.3926  0.1724
  759MPD2     H11267   2.307   0.474   9.981 -0.1609 -0.9992  0.5965
  759MPD2    H111268   2.367   0.318   9.581 -1.7314 -0.3944  0.1411
  759MPD2    H211269   2.343   0.058   9.910 -0.1151  0.7145  1.1863
  759MPD2    H311270   2.384   0.097   9.675  0.5074  0.9676 -0.2254
  759MPD2     N11271   2.337   0.551   9.742 -0.1466 -0.2835 -0.3557
  759MPD2    H511272   2.324   0.624   9.811 -1.0778  0.6702 -1.5418
  759MPD2    N111273   2.302   0.242  10.100  0.2075  0.5644  0.1073
  759MPD2    H711274   2.327   0.323  10.156  1.3526 -0.6625  1.3876
  760MPD2     C11275   1.377   2.935  11.728  0.0259 -0.5659 -0.6304
  760MPD2    C111276   1.507   2.959  11.760 -0.3678  0.1192  0.2602
  760MPD2    C211277   1.577   2.879  11.848 -0.4568 -0.0024 -0.5444
  760MPD2    C311278   1.507   2.769  11.905  0.7012  0.7784  0.0800
  760MPD2    C411279   1.373   2.748  11.875  0.1276  0.0678 -0.0635
  760MPD2    C511280   1.309   2.833  11.789 -0.1831  0.5992 -0.1078
  760MPD2     H11281   1.685   2.891  11.851 -0.2589 -1.4384 -1.8890
  760MPD2    H111282   1.325   2.657  11.909 -0.0868 -0.5603 -2.0518
  760MPD2    H211283   1.318   2.995  11.660 -1.0290  0.4134  1.1400
  760MPD2    H311284   1.204   2.818  11.767 -0.0165 -1.5005  0.4845
  760MPD2     N11285   1.571   2.659  11.960 -0.3134  0.0835  0.7057
  760MPD2    H511286   1.514   2.575  11.968 -0.6109  0.3186  1.0317
  760MPD2    N111287   1.586   3.054  11.693  0.5488  0.6898  0.5910
  760MPD2    H711288   1.679   3.063  11.732  1.4726 -0.6859 -1.2957
  761MPD2     C11289   2.029   2.070  11.128  0.9482  0.3118 -0.1905
  761MPD2    C111290   2.108   2.046  11.018  0.1605 -0.5583 -0.4555
  761MPD2    C211291   2.222   2.123  10.999 -0.3163 -0.2184  0.7786
  761MPD2    C311292   2.257   2.222  11.083  0.9416 -0.2818 -0.2725
  761MPD2    C411293   2.180   2.245  11.196 -0.2152 -0.2994  0.2678
  761MPD2    C511294   2.066   2.168  11.213 -0.1146  0.1524  0.7533
  761MPD2     H11295   2.287   2.099  10.916  1.2443 -0.7793  2.1754
  761MPD2    H111296   2.208   2.317  11.272 -1.2323  0.6076 -0.2101
  761MPD2    H211297   1.946   2.010  11.163  1.7064 -0.6737 -0.1147
  761MPD2    H311298   2.003   2.188  11.299 -3.0208  0.3959 -1.4706
  761MPD2     N11299   2.377   2.294  11.075 -0.2577  0.0705 -0.9724
  761MPD2    H511300   2.400   2.353  11.155 -0.9255  0.8628 -1.3657
  761MPD2    N111301   2.071   1.938  10.931  0.0651  0.0959  0.1051
  761MPD2    H711302   2.004   1.871  10.969 -0.0866  0.0130 -0.3089
  762MPD2     C11303   2.786   1.674  10.840 -0.6533 -0.3502  0.4543
  762MPD2    C111304   2.707   1.674  10.727  0.2205  0.2110 -0.0343
  762MPD2    C211305   2.765   1.726  10.607  0.4063 -0.5593 -0.5443
  762MPD2    C311306   2.890   1.783  10.608  0.0944 -0.1730 -0.0947
  762MPD2    C411307   2.965   1.780  10.719  0.4320 -0.1002 -0.5138
  762MPD2    C511308   2.912   1.729  10.833  0.1018  0.4475 -0.6494
  762MPD2     H11309   2.702   1.713  10.519 -1.6375  0.7197  0.7289
  762MPD2    H111310   3.060   1.832  10.719  0.4703 -0.1621  2.2905
  762MPD2    H211311   2.756   1.622  10.930 -2.0487  2.6785  1.7463
  762MPD2    H311312   2.967   1.729  10.926 -2.9098 -0.7743  1.1145
  762MPD2     N11313   2.937   1.824  10.483  0.2551  0.3544 -0.2965
  762MPD2    H511314   2.878   1.801  10.404 -0.3444  0.8652 -0.0004
  762MPD2    N111315   2.571   1.640  10.743 -0.0796  0.9271  0.4360
  762MPD2    H711316   2.552   1.606  10.836  1.1409 -0.5852  0.1286
  763MPD2     C11317   4.504   2.625  16.030 -0.2822 -0.0743  0.6344
  763MPD2    C111318   4.588   2.641  15.924  0.1623  0.4731  0.5281
  763MPD2    C211319   4.690   2.729  15.932 -0.0377  0.4995 -0.6874
  763MPD2    C311320   4.703   2.824  16.038  0.1044  0.2597 -0.3947
  763MPD2    C411321   4.622   2.805  16.147  0.2931 -0.9863 -0.4748
  763MPD2    C511322   4.525   2.706  16.139  0.1701  0.1627 -0.8855
  763MPD2     H11323   0.019   2.739  15.849  2.1367  0.8586  1.1619
  763MPD2    H111324   4.620   2.877  16.228 -0.9891 -0.2484 -1.1677
  763MPD2    H211325   4.418   2.559  16.039 -0.6238 -0.1310 -3.0158
  763MPD2    H311326   4.465   2.700  16.229  0.8375  2.4311 -0.2908
  763MPD2     N11327   0.041   2.940  16.008 -0.0023  0.0177  0.0643
  763MPD2    H511328   0.088   2.933  15.918 -0.4692  1.8373 -0.3130
  763MPD2    N111329   4.573   2.559  15.812  0.4787  0.3871  0.1879
  763MPD2    H711330   4.647   2.558  15.743 -0.9963 -0.6009 -1.3686
  764MPD2     C11331   2.976   4.375  17.462  0.4290 -0.3115  0.3961
  764MPD2    C111332   2.845   4.346  17.477 -0.5021  0.0888  0.0267
  764MPD2    C211333   2.792   4.355  17.602 -0.1426  0.0933 -0.0298
  764MPD2    C311334   2.865   4.369  17.721 -1.2542 -0.2127  0.0619
  764MPD2    C411335   3.005   4.398  17.701 -0.0127  0.6601  0.7187
  764MPD2    C511336   3.047   4.414  17.571 -0.1500 -0.5111 -0.2356
  764MPD2     H11337   2.686   4.349  17.626  0.3309 -4.7641  0.8097
  764MPD2    H111338   3.074   4.417   0.023 -2.5880  0.7153  2.8789
  764MPD2    H211339   3.034   4.383  17.371 -1.0895  1.8432 -0.3843
  764MPD2    H311340   3.150   4.447  17.555  0.7144 -2.4668  1.3129
  764MPD2     N11341   2.802   4.370   0.089  0.0558  0.8661  0.5115
  764MPD2    H511342   2.700   4.375   0.094 -0.0259 -2.6320  1.9321
  764MPD2    N111343   2.755   4.329  17.369  0.5943  0.3351 -0.1622
  764MPD2    H711344   2.658   4.310  17.394  0.2579  0.8934 -1.0336
  765MPD2     C11345   2.591   1.894  15.409  0.5051  0.1050  0.0169
  765MPD2    C111346   2.686   1.951  15.493 -0.1945  0.1735 -0.4878
  765MPD2    C211347   2.818   1.906  15.497 -0.4190 -0.5602  0.3772
  765MPD2    C311348   2.857   1.806  15.413  0.6172 -0.0458  0.0813
  765MPD2    C411349   2.762   1.751  15.321  0.2928 -0.3430 -0.2006
  765MPD2    C511350   2.635   1.797  15.326  0.5285  0.8611 -0.9439
  765MPD2     H11351   2.880   1.955  15.572  2.2229  1.8090 -3.3342
  765MPD2    H111352   2.793   1.689  15.237 -0.5220 -1.6794  0.4801
  765MPD2    H211353   2.489   1.927  15.400 -0.0542 -1.1448  1.6401
  765MPD2    H311354   2.569   1.758  15.249  0.1764 -1.0795  0.3510
  765MPD2     N11355   2.995   1.760  15.416 -0.0858 -1.1024  0.0863
  765MPD2    H511356   3.058   1.805  15.482 -1.5010 -0.0172  0.7053
  765MPD2    N111357   2.641   2.061  15.574  0.2211  0.0519  0.4480
  765MPD2    H711358   2.542   2.078  15.562  0.3762  0.0210 -0.8114
  766MPD2     C11359   2.058   2.371  15.344 -0.2484 -0.3731 -0.4967
  766MPD2    C111360   2.165   2.297  15.383 -0.3313 -0.0275 -0.1655
  766MPD2    C211361   2.228   2.209  15.295  1.1822 -0.1666  0.0027
  766MPD2    C311362   2.173   2.192  15.171 -0.1230 -0.0321 -0.1582
  766MPD2    C411363   2.069   2.268  15.133  0.0435  0.4719  0.0593
  766MPD2    C511364   2.013   2.361  15.217 -0.4071 -0.2953 -0.7271
  766MPD2     H11365   2.321   2.158  15.320  0.4714 -2.2814 -1.6545
  766MPD2    H111366   2.029   2.248  15.034 -0.2102 -1.2380  0.5172
  766MPD2    H211367   2.016   2.447  15.408 -0.6880 -1.3442  0.3698
  766MPD2    H311368   1.919   2.411  15.196 -0.6418 -0.3214  0.2697
  766MPD2     N11369   2.242   2.123  15.069  0.0928  0.5220  0.4959
  766MPD2    H511370   2.207   2.110  14.975 -0.1557  2.4959  0.3151
  766MPD2    N111371   2.219   2.335  15.510  0.3487  0.1218  0.4818
  766MPD2    H711372   2.189   2.425  15.546 -0.8561  0.5921 -1.7433
  767MPD2     C11373   1.898   2.460  14.751 -0.2592  0.0548  0.3543
  767MPD2    C111374   2.026   2.416  14.773  0.4138 -0.4954 -0.4603
  767MPD2    C211375   2.068   2.313  14.688 -0.6086 -0.2327 -0.0099
  767MPD2    C311376   1.990   2.270  14.584  0.1157  0.3545 -0.0882
  767MPD2    C411377   1.860   2.312  14.572 -0.2453  0.0609  0.1546
  767MPD2    C511378   1.816   2.409  14.656  0.8382 -0.2457 -0.1447
  767MPD2     H11379   2.165   2.265  14.691  0.2139  1.3085 -2.3626
  767MPD2    H111380   1.793   2.274  14.497 -0.1024  1.7046 -0.8108
  767MPD2    H211381   1.863   2.543  14.811 -0.4469  0.4452 -0.2920
  767MPD2    H311382   1.714   2.446  14.665  1.2006  0.9789 -1.1085
  767MPD2     N11383   2.053   2.181  14.495 -0.2746  0.9146  0.3847
  767MPD2    H511384   2.143   2.141  14.520 -0.8704 -0.2885  0.5953
  767MPD2    N111385   2.107   2.472  14.876  0.5422 -0.0007 -0.1272
  767MPD2    H711386   2.056   2.543  14.928  0.6172  0.2006 -0.3249
  768MPD2     C11387   2.938   0.170  10.984 -0.1205  0.9626 -0.2303
  768MPD2    C111388   2.956   0.301  10.973 -0.1191 -0.1591 -0.7186
  768MPD2    C211389   3.053   0.358  11.054 -0.3330 -0.6149 -0.1240
  768MPD2    C311390   3.125   0.289  11.149 -0.5893 -0.3499  0.0814
  768MPD2    C411391   3.103   0.152  11.153  0.2461  0.2084  0.2321
  768MPD2    C511392   3.010   0.095  11.071 -0.0287  0.0756 -0.4275
  768MPD2     H11393   3.069   0.464  11.041  0.3919 -0.6987  0.0796
  768MPD2    H111394   3.150   0.090  11.229 -3.1383 -0.4074  1.8069
  768MPD2    H211395   2.855   0.134  10.924  0.1785 -1.4899  0.8326
  768MPD2    H311396   2.994   4.729  11.087 -0.4882  0.8653  4.1988
  768MPD2     N11397   3.226   0.346  11.231 -0.0309 -0.4721 -0.4832
  768MPD2    H511398   3.259   0.297  11.313  0.3812  0.0698 -0.3229
  768MPD2    N111399   2.872   0.393  10.897 -0.0559  0.5712  0.3142
  768MPD2    H711400   2.899   0.490  10.910  2.1755  0.1659 -1.3589
  769MPD2     C11401   4.034   3.751  14.942  0.3251 -0.0133  0.1228
  769MPD2    C111402   4.030   3.649  15.033 -0.7706  0.8281 -0.1496
  769MPD2    C211403   4.079   3.675  15.159 -0.2946  0.3202 -0.0828
  769MPD2    C311404   4.130   3.798  15.189  0.5719  0.3916  0.0474
  769MPD2    C411405   4.122   3.899  15.095  0.3004  0.5144 -0.0906
  769MPD2    C511406   4.079   3.874  14.967 -0.2202 -0.0959 -0.2643
  769MPD2     H11407   4.069   3.599  15.236  0.2238  0.5728  0.2310
  769MPD2    H111408   4.159   3.998  15.118  2.4205 -0.6687  1.6364
  769MPD2    H211409   4.009   3.725  14.840  1.8153 -0.2269 -0.1852
  769MPD2    H311410   4.071   3.949  14.889  0.6361  0.2174 -0.0497
  769MPD2     N11411   4.180   3.819  15.319  0.1172  0.1064  0.4807
  769MPD2    H511412   4.178   3.742  15.386 -0.4274 -1.5064 -1.4084
  769MPD2    N111413   3.980   3.522  14.993  0.2271 -0.5743 -0.0986
  769MPD2    H711414   3.961   3.517  14.894  1.6029  2.0904 -0.4999
  770MPD2     C11415   3.516   2.535  15.163 -0.1629  0.1408  0.0869
  770MPD2    C111416   3.493   2.570  15.033  0.3865 -0.0419 -0.1893
  770MPD2    C211417   3.536   2.695  14.984  0.3865 -0.4954  0.2852
  770MPD2    C311418   3.586   2.786  15.069  0.0958  0.0270  0.3718
  770MPD2    C411419   3.601   2.753  15.202 -0.3518 -0.5084  0.4521
  770MPD2    C511420   3.571   2.626  15.243  0.2770  0.6707 -0.2179
  770MPD2     H11421   3.526   2.725  14.880  0.2954 -2.0823 -0.1642
  770MPD2    H111422   3.640   2.824  15.274 -0.1741  0.1688 -0.3144
  770MPD2    H211423   3.493   2.444  15.217 -1.7213  0.6203  0.2502
  770MPD2    H311424   3.584   2.594  15.346  0.3785  0.8385 -0.1768
  770MPD2     N11425   3.625   2.915  15.022  0.4028  0.2396  0.2522
  770MPD2    H511426   3.619   2.919  14.920  0.2493  0.7107  0.2771
  770MPD2    N111427   3.439   2.473  14.947 -0.2505  0.3519  0.2303
  770MPD2    H711428   3.426   2.379  14.985  1.2018  0.4864  1.0550
  771MPD2     C11429   0.140   1.555  13.506 -0.2843  0.2209 -0.2298
  771MPD2    C111430   0.062   1.664  13.480  0.1949 -0.0975 -0.0878
  771MPD2    C211431   4.669   1.638  13.438 -0.8109  0.7974  0.4049
  771MPD2    C311432   4.611   1.517  13.420 -0.4008  0.4691 -0.4973
  771MPD2    C411433   4.686   1.407  13.455 -0.0186  0.3478 -0.7475
  771MPD2    C511434   0.074   1.432  13.496  0.7372 -0.5179 -0.1621
  771MPD2     H11435   4.606   1.724  13.419 -0.4627  1.2773  1.3921
  771MPD2    H111436   4.659   1.305  13.431 -0.0422 -0.4640  2.8334
  771MPD2    H211437   0.237   1.559  13.553 -0.3508  0.1003 -0.0818
  771MPD2    H311438   0.128   1.343  13.529  1.2252 -0.0780  0.2280
  771MPD2     N11439   4.481   1.506  13.370  0.0441 -0.2891 -0.2220
  771MPD2    H511440   4.427   1.590  13.354  1.3681  1.0051  2.0387
  771MPD2    N111441   0.103   1.801  13.502  0.2996 -0.7793 -1.0524
  771MPD2    H711442   0.033   1.874  13.507  1.2198  0.1039 -1.0007
  772MPD2     C11443   4.694   2.271  14.041 -0.0947 -0.1936 -0.0200
  772MPD2    C111444   4.632   2.204  13.935 -0.8326  0.4224 -0.3149
  772MPD2    C211445   4.498   2.167  13.942  0.0034 -0.0116  0.7338
  772MPD2    C311446   4.419   2.216  14.053 -0.3303  0.2520  0.5027
  772MPD2    C411447   4.486   2.291  14.150 -0.4281 -0.7375 -0.4341
  772MPD2    C511448   4.625   2.322  14.146 -0.0591  0.2188 -0.2026
  772MPD2     H11449   4.450   2.118  13.858  2.0343  3.2750 -2.3849
  772MPD2    H111450   4.435   2.320  14.241 -2.9878 -0.7949 -1.8471
  772MPD2    H211451   0.058   2.300  14.043 -0.6558  1.8392  0.5863
  772MPD2    H311452   4.672   2.378  14.226  0.3958  0.2099 -0.4609
  772MPD2     N11453   4.282   2.187  14.068  0.1459  0.1398  0.0740
  772MPD2    H511454   4.245   2.222  14.156 -1.9118  1.0044 -1.1572
  772MPD2    N111455   4.714   2.164  13.820  0.3447 -0.0089  0.1186
  772MPD2    H711456   4.670   2.091  13.765  0.8195 -0.4650  0.3389
  773MPD2     C11457   3.880   3.127  17.630  0.0971 -0.2775 -0.5720
  773MPD2    C111458   3.810   3.019  17.588 -0.1991 -0.2908 -0.1533
  773MPD2    C211459   3.829   2.897  17.648 -0.4176 -0.4008 -1.4467
  773MPD2    C311460   3.922   2.879  17.750  0.0361  0.1840 -0.0184
  773MPD2    C411461   3.987   2.991   0.046  0.1524  0.2569 -0.3773
  773MPD2    C511462   3.966   3.109  17.736  0.5144  0.5102  0.3506
  773MPD2     H11463   3.789   2.808  17.601 -1.0226 -0.5726 -0.6098
  773MPD2    H111464   4.058   2.993   0.127  0.9939  1.4409 -1.1450
  773MPD2    H211465   3.876   3.221  17.576 -0.5464 -0.9176 -1.6167
  773MPD2    H311466   4.024   3.190   0.020 -1.4047  1.7195  0.6586
  773MPD2     N11467   3.947   2.753   0.032  0.9409 -0.5372 -0.4539
  773MPD2    H511468   3.914   2.678  17.731 -2.0916  1.0270 -0.7341
  773MPD2    N111469   3.726   3.038  17.474 -0.7239 -1.0187  0.3456
  773MPD2    H711470   3.647   2.975  17.460 -3.0783  1.3900  2.6311
  774MPD2     C11471   2.770   1.695  13.512 -0.2213  0.5227 -0.3730
  774MPD2    C111472   2.802   1.803  13.590  0.9249  0.0524  0.1541
  774MPD2    C211473   2.875   1.902  13.528  0.1090  0.2717  0.2371
  774MPD2    C311474   2.889   1.913  13.393 -0.2364 -0.0461  0.2812
  774MPD2    C411475   2.843   1.807  13.317 -0.3563 -0.2328 -0.9699
  774MPD2    C511476   2.793   1.695  13.378 -0.3287 -0.8565  0.3634
  774MPD2     H11477   2.909   1.983  13.591  0.7561  0.6646 -0.6294
  774MPD2    H111478   2.879   1.808  13.215  0.7684 -0.7745 -0.5696
  774MPD2    H211479   2.724   1.607  13.556 -2.6803  0.1130 -3.6809
  774MPD2    H311480   2.784   1.597  13.333  1.1458 -1.0797  0.5587
  774MPD2     N11481   2.966   2.024  13.351  0.2237 -0.0523 -0.1434
  774MPD2    H511482   2.995   2.086  13.425  0.4843 -1.1047  0.6223
  774MPD2    N111483   2.800   1.807  13.734  0.4115  0.2821 -0.3547
  774MPD2    H711484   2.829   1.894  13.777 -0.6694  0.7678 -0.6106
  775MPD2     C11485   4.308   3.431  15.477 -0.2118 -1.1910 -0.1089
  775MPD2    C111486   4.352   3.524  15.571  0.5120  0.2625 -0.2761
  775MPD2    C211487   4.447   3.615  15.538  0.0920  0.3798  0.8418
  775MPD2    C311488   4.500   3.613  15.405 -0.1642 -0.3194 -0.9343
  775MPD2    C411489   4.448   3.516  15.318 -0.3328  0.1903  0.0532
  775MPD2    C511490   4.350   3.423  15.352  0.0422  0.2914  1.4828
  775MPD2     H11491   4.481   3.682  15.615 -0.9364  0.2464  1.4111
  775MPD2    H111492   4.483   3.495  15.218  0.4763 -2.0094  0.7964
  775MPD2    H211493   4.241   3.357  15.520  0.4155 -1.5409  0.2606
  775MPD2    H311494   4.318   3.351  15.279 -2.0160  1.3413  1.3652
  775MPD2     N11495   4.600   3.694  15.356 -0.1285 -0.1454  0.3572
  775MPD2    H511496   4.633   3.674  15.262  0.4659 -1.6371  0.8781
  775MPD2    N111497   4.292   3.512  15.702  0.0473 -0.5132  0.1101
  775MPD2    H711498   4.221   3.441  15.717  2.0703 -2.2795  1.2929
  776MPD2     C11499   2.261   3.155  11.725 -0.2853 -0.0090 -0.2929
  776MPD2    C111500   2.361   3.212  11.798 -0.6534 -0.9264  0.2565
  776MPD2    C211501   2.411   3.334  11.757 -0.3851 -0.6134  0.3157
  776MPD2    C311502   2.352   3.404  11.651  0.0635 -0.1422 -0.2658
  776MPD2    C411503   2.248   3.355  11.580 -0.5212  0.8526  0.0076
  776MPD2    C511504   2.207   3.228  11.624  0.3800  0.1700 -0.6514
  776MPD2     H11505   2.499   3.375  11.805 -1.2045  0.3520  0.9940
  776MPD2    H111506   2.199   3.404  11.496 -0.7679 -3.1741 -2.2349
  776MPD2    H211507   2.221   3.060  11.759 -4.1789  1.5130 -0.6119
  776MPD2    H311508   2.121   3.191  11.570  0.2099  2.2625 -1.8304
  776MPD2     N11509   2.402   3.525  11.608 -1.2038 -0.2861  0.2443
  776MPD2    H511510   2.356   3.567  11.528  1.7336  0.2988 -1.1580
  776MPD2    N111511   2.435   3.130  11.888  0.2959 -0.4566 -0.8802
  776MPD2    H711512   2.416   3.031  11.882 -1.7748 -0.0552 -0.9521
  777MPD2     C11513   3.796   1.535   0.462 -0.3342 -0.0622  0.5651
  777MPD2    C111514   3.670   1.522   0.520 -0.0421 -0.6832 -0.1902
  777MPD2    C211515   3.589   1.420   0.471  0.5287 -0.4924 -0.2056
  777MPD2    C311516   3.628   1.322   0.388  0.7872 -0.0655  0.0787
  777MPD2    C411517   3.759   1.327   0.345  0.4833  0.3654  0.3899
  777MPD2    C511518   3.842   1.432   0.385 -0.0307  0.6375  0.2407
  777MPD2     H11519   3.490   1.413   0.516  0.7047 -0.1131  0.2515
  777MPD2    H111520   3.803   1.257   0.275  1.5376 -0.9437  2.3852
  777MPD2    H211521   3.858   1.618   0.494  3.0579 -1.6249 -1.9059
  777MPD2    H311522   3.944   1.439   0.349 -0.5010  1.2313 -0.9821
  777MPD2     N11523   3.530   1.219   0.348  0.3079 -0.0875  0.5118
  777MPD2    H511524   3.435   1.237   0.378  0.1077  1.2380 -0.9132
  777MPD2    N111525   3.631   1.616   0.619  0.6860 -0.1370 -0.7131
  777MPD2    H711526   3.704   1.680   0.645 -0.9650  1.2626  0.4701
  778MPD2     C11527   0.099   1.710  14.731 -0.5105  0.0432 -0.5629
  778MPD2    C111528   0.124   1.590  14.670 -0.0924  0.5795 -0.8030
  778MPD2    C211529   0.206   1.593  14.558 -0.5291  0.0809  0.6778
  778MPD2    C311530   0.281   1.705  14.533  0.3554 -0.3321 -0.4890
  778MPD2    C411531   0.272   1.815  14.606  0.1658  0.9770  0.4009
  778MPD2    C511532   0.178   1.818  14.704 -0.2911 -0.4127 -0.0536
  778MPD2     H11533   0.207   1.505  14.495  0.6053  1.4166 -1.1590
  778MPD2    H111534   0.335   1.901  14.588 -0.1350  1.0941 -0.0955
  778MPD2    H211535   0.026   1.717  14.810  0.8146 -0.4270  0.7063
  778MPD2    H311536   0.166   1.912  14.755 -3.3049 -1.4545  1.1346
  778MPD2     N11537   0.368   1.700  14.417 -0.0641  0.1011  0.5370
  778MPD2    H511538   0.377   1.605  14.383 -1.1200  0.9318 -2.0555
  778MPD2    N111539   0.042   1.478  14.694 -0.2540  0.5489  0.0479
  778MPD2    H711540   0.042   1.397  14.632 -0.4619  0.8693 -0.3708
  779MPD2     C11541   4.285   0.107  13.923  0.6520  0.1981  0.5432
  779MPD2    C111542   4.426   0.112  13.941  0.5411 -0.9196  0.2681
  779MPD2    C211543   4.492   0.220  13.891  0.1919 -0.2987 -0.6411
  779MPD2    C311544   4.429   0.325  13.823 -0.2544 -0.2712 -0.5482
  779MPD2    C411545   4.288   0.315  13.813 -0.4758 -0.0996  0.2683
  779MPD2    C511546   4.224   0.213  13.865 -0.7383 -0.4942  0.5298
  779MPD2     H11547   4.598   0.230  13.910 -0.2152  0.2222  1.2899
  779MPD2    H111548   4.224   0.388  13.765 -0.8580 -0.5659  0.0687
  779MPD2    H211549   4.230   0.024  13.966  2.1018 -1.7245 -1.3573
  779MPD2    H311550   4.116   0.219  13.860 -0.6662  1.4349  1.1913
  779MPD2     N11551   4.507   0.443  13.790 -0.1341  0.1564  0.3987
  779MPD2    H511552   4.607   0.449  13.810  0.4040 -2.1569 -1.6295
  779MPD2    N111553   4.508   0.024  14.020 -0.3083 -0.2365  0.2978
  779MPD2    H711554   4.609   0.027  14.007 -0.1615 -1.7511  1.1471
  780MPD2     C11555   4.224   0.357   0.921  0.0997 -0.2339 -0.1743
  780MPD2    C111556   4.171   0.300   0.807 -0.4205 -0.5159 -0.5355
  780MPD2    C211557   4.245   0.264   0.700 -0.1638 -0.8364 -0.2520
  780MPD2    C311558   4.383   0.279   0.707  0.3053  0.0616  0.4889
  780MPD2    C411559   4.438   0.326   0.824 -0.1376  0.3335  0.3517
  780MPD2    C511560   4.365   0.366   0.933 -0.7031 -0.1875 -0.3977
  780MPD2     H11561   4.193   0.228   0.612 -0.6104  1.7421 -1.0355
  780MPD2    H111562   4.545   0.339   0.837 -0.2654  1.3168  0.4615
  780MPD2    H211563   4.160   0.401   0.997  1.2859  3.6797 -1.4488
  780MPD2    H311564   4.410   0.419   1.017  0.7806  0.0974 -1.3687
  780MPD2     N11565   4.464   0.243   0.592 -0.3266  0.2186 -0.4007
  780MPD2    H511566   4.418   0.204   0.510  0.3803 -2.0420  0.2783
  780MPD2    N111567   4.028   0.279   0.796 -0.1158  0.5806 -0.0649
  780MPD2    H711568   3.998   0.266   0.699 -1.9191 -0.9234  0.6840
  781MPD2     C11569   0.966   2.400  11.837 -0.1953 -0.0634  1.0311
  781MPD2    C111570   1.014   2.267  11.839  0.4485 -0.6652 -0.2424
  781MPD2    C211571   1.031   2.202  11.722  0.2256  0.7629 -0.1462
  781MPD2    C311572   1.026   2.262  11.597  0.2237 -0.4846  0.0267
  781MPD2    C411573   0.979   2.393  11.595  0.5465  0.6600 -0.5212
  781MPD2    C511574   0.958   2.456  11.715  0.3378  0.2703 -0.4927
  781MPD2     H11575   1.057   2.097  11.722  1.7082  1.1416  4.8173
  781MPD2    H111576   0.989   2.455  11.506 -1.7116 -1.5865 -2.3506
  781MPD2    H211577   0.924   2.449  11.924 -1.2029  1.0922 -0.1207
  781MPD2    H311578   0.927   2.560  11.711  0.6689  0.3935  0.1885
  781MPD2     N11579   1.072   2.196  11.480  0.4477  0.1346 -0.2522
  781MPD2    H511580   1.119   2.106  11.484  1.5607  0.8019  1.7019
  781MPD2    N111581   1.043   2.208  11.964 -0.6455 -0.1710 -0.2525
  781MPD2    H711582   1.059   2.108  11.961 -0.4501 -0.1197 -0.9354
  782MPD2     C11583   3.636   2.807   9.796  0.9464 -0.2279  0.6006
  782MPD2    C111584   3.671   2.820   9.929 -0.1586  0.5022  0.6000
  782MPD2    C211585   3.723   2.941   9.975 -0.3442 -0.3304  0.2823
  782MPD2    C311586   3.732   3.044   9.889  0.4825  0.4565  0.0077
  782MPD2    C411587   3.693   3.039   9.755 -0.4942 -0.4896 -0.5382
  782MPD2    C511588   3.641   2.918   9.711 -0.2760  0.2825 -0.8297
  782MPD2     H11589   3.746   2.947  10.081 -0.0605 -1.4853  0.2874
  782MPD2    H111590   3.688   3.125   9.689  2.3871 -0.3148 -0.5266
  782MPD2    H211591   3.602   2.709   9.765 -2.6696  1.5050 -1.0026
  782MPD2    H311592   3.609   2.913   9.608  3.2199 -0.7479 -1.8603
  782MPD2     N11593   3.773   3.161   9.950  0.0444  0.3435 -0.0484
  782MPD2    H511594   3.784   3.152  10.050 -0.5909  1.3843  0.1233
  782MPD2    N111595   3.640   2.713  10.020 -0.1598 -0.5087  0.4986
  782MPD2    H711596   3.588   2.633   9.986 -1.1924  0.5770 -0.4690
  783MPD2     C11597   2.797   2.373  10.409  0.7344  1.0549  0.4338
  783MPD2    C111598   2.860   2.442  10.514  0.6478  0.0793  0.0391
  783MPD2    C211599   2.992   2.484  10.493 -0.1227  0.4246  0.0179
  783MPD2    C311600   3.063   2.458  10.374  0.2134  0.1379 -0.4018
  783MPD2    C411601   2.993   2.393  10.268 -0.8539 -0.0325 -0.7388
  783MPD2    C511602   2.860   2.356  10.290  0.0720 -0.1348 -0.1163
  783MPD2     H11603   3.044   2.543  10.567  0.3971  1.3008 -1.0522
  783MPD2    H111604   3.034   2.361  10.173  0.0921 -1.3457  0.0972
  783MPD2    H211605   2.695   2.336  10.419  0.5936  1.2281 -0.3870
  783MPD2    H311606   2.821   2.304  10.204  1.7181  0.7862 -1.4034
  783MPD2     N11607   3.201   2.482  10.379  0.1403 -0.6602  0.6371
  783MPD2    H511608   3.244   2.507  10.468  2.3380 -1.2735 -0.2482
  783MPD2    N111609   2.782   2.470  10.632 -0.2045  0.0649 -0.0196
  783MPD2    H711610   2.690   2.431  10.649 -0.2270  0.1310  0.0116
  784MPD2     C11611   1.332   3.698   0.409  0.6834 -0.0170  0.4308
  784MPD2    C111612   1.373   3.709   0.538 -0.1795 -0.2607  0.2485
  784MPD2    C211613   1.280   3.681   0.639 -0.2546 -0.4982 -0.3459
  784MPD2    C311614   1.150   3.653   0.608 -0.9330 -0.5323 -0.5092
  784MPD2    C411615   1.111   3.641   0.475  0.9919 -0.4425 -0.0647
  784MPD2    C511616   1.204   3.658   0.375 -0.3009  1.0982  0.0762
  784MPD2     H11617   1.308   3.680   0.743 -2.9513  1.0413  0.4050
  784MPD2    H111618   1.009   3.622   0.445  0.7263 -0.9185  1.1275
  784MPD2    H211619   1.400   3.715   0.326 -0.0768 -1.3734 -0.4551
  784MPD2    H311620   1.176   3.644   0.271  2.5723  0.0743 -0.5476
  784MPD2     N11621   1.061   3.632   0.718 -0.3330 -0.3533 -0.5172
  784MPD2    H511622   1.100   3.638   0.812 -2.0066  0.4083  0.1308
  784MPD2    N111623   1.507   3.739   0.574 -0.6245 -0.1855 -0.0176
  784MPD2    H711624   1.525   3.749   0.674  1.5470  2.0345 -0.6320
  785MPD2     C11625   1.316   1.889  10.850  0.2303  0.6880  0.0633
  785MPD2    C111626   1.194   1.949  10.852  0.1097 -0.4332 -0.0273
  785MPD2    C211627   1.081   1.877  10.822  0.6128  0.3846 -0.0745
  785MPD2    C311628   1.089   1.745  10.789  0.4854  0.6038  0.4707
  785MPD2    C411629   1.211   1.683  10.786 -0.0169 -0.6473  0.1666
  785MPD2    C511630   1.325   1.755  10.814  0.5001 -0.4405 -0.5954
  785MPD2     H11631   0.983   1.919  10.801  1.4898  0.7054 -3.5147
  785MPD2    H111632   1.217   1.581  10.751 -0.0304 -0.1758 -1.1931
  785MPD2    H211633   1.407   1.948  10.857  0.2176  0.6443  0.5371
  785MPD2    H311634   1.423   1.708  10.820  0.3937 -0.8337 -1.9010
  785MPD2     N11635   0.975   1.683  10.751  0.4526 -0.4447 -0.5112
  785MPD2    H511636   0.889   1.733  10.732  1.3758  0.0968 -3.2750
  785MPD2    N111637   1.183   2.088  10.887  0.2720  0.0726 -0.1239
  785MPD2    H711638   1.274   2.134  10.888  0.5254 -0.4018 -2.0743
  786MPD2     C11639   0.249   4.269  14.609  0.7253 -0.6563  0.5892
  786MPD2    C111640   0.322   4.179  14.675 -0.8855  0.0063 -0.7926
  786MPD2    C211641   0.384   4.199  14.795 -0.5969 -0.1216 -0.3735
  786MPD2    C311642   0.387   4.326  14.845 -1.0374  0.0898  1.0466
  786MPD2    C411643   0.305   4.422  14.784  0.1442  0.3606  0.0211
  786MPD2    C511644   0.236   4.386  14.666 -0.2104 -0.2242 -1.2414
  786MPD2     H11645   0.422   4.112  14.848  0.6344  0.8460  0.3416
  786MPD2    H111646   0.301   4.524  14.820  0.4678  0.1588  0.6178
  786MPD2    H211647   0.200   4.250  14.515  0.6564  3.6012 -0.1945
  786MPD2    H311648   0.174   4.459  14.616 -2.1747  0.9050  2.8025
  786MPD2     N11649   0.466   4.347  14.958  0.2854 -0.0464 -0.6794
  786MPD2    H511650   0.504   4.264  15.002  1.5660  0.1545 -1.4096
  786MPD2    N111651   0.338   4.056  14.624  0.2521  0.1554  0.7726
  786MPD2    H711652   0.425   4.010  14.648 -0.5024  0.1727  3.4928
  787MPD2     C11653   0.723   3.600  14.774 -0.3759  0.1454  0.7730
  787MPD2    C111654   0.703   3.581  14.639  0.4141  0.3735 -0.4544
  787MPD2    C211655   0.780   3.483  14.573  0.4407  0.6279  0.4579
  787MPD2    C311656   0.863   3.394  14.642  0.8804  0.7902  0.0733
  787MPD2    C411657   0.868   3.415  14.778  0.1460  0.0677  0.0149
  787MPD2    C511658   0.803   3.515  14.840  0.3164 -0.6343 -0.0009
  787MPD2     H11659   0.781   3.464  14.466 -1.9791  1.0371  0.3778
  787MPD2    H111660   0.926   3.350  14.842 -0.6170  1.1494  1.8074
  787MPD2    H211661   0.664   3.668  14.835  0.3266  2.8062 -1.5162
  787MPD2    H311662   0.815   3.533  14.946 -0.4380  2.1937 -0.3957
  787MPD2     N11663   0.914   3.278  14.577  0.0723  0.4166 -0.1308
  787MPD2    H511664   0.902   3.283  14.476  4.2977 -2.1027 -0.7210
  787MPD2    N111665   0.612   3.672  14.572 -0.2020 -0.3730 -0.0038
  787MPD2    H711666   0.573   3.750  14.624 -1.2740 -0.3318 -0.8787
  788MPD2     C11667   3.051   3.682   0.462  0.1533  0.4334  0.7827
  788MPD2    C111668   3.048   3.655   0.325  0.0549 -0.0275 -0.1799
  788MPD2    C211669   3.022   3.757   0.232  0.3008  0.5888  0.0345
  788MPD2    C311670   3.017   3.885   0.286 -0.2236  0.5792 -0.1600
  788MPD2    C411671   3.020   3.912   0.419  0.1435  0.0647  0.4012
  788MPD2    C511672   3.027   3.810   0.508  0.1695  0.1839 -0.7519
  788MPD2     H11673   3.026   3.725   0.129 -0.0137 -2.2290  0.9159
  788MPD2    H111674   2.996   4.010   0.459 -1.3298 -0.4542  0.7867
  788MPD2    H211675   3.076   3.605   0.534  0.0627 -1.4127 -1.1867
  788MPD2    H311676   3.032   3.820   0.616  2.5997  0.4046 -0.8720
  788MPD2     N11677   2.988   3.990   0.196  0.4892 -0.2115 -0.4372
  788MPD2    H511678   2.945   4.075   0.232  2.0889  0.9525 -1.2590
  788MPD2    N111679   3.055   3.525   0.267 -0.4891 -0.9743  0.0853
  788MPD2    H711680   3.044   3.518   0.166  2.7296 -2.2931 -0.1843
  789MPD2     C11681   2.539   2.668  16.137 -0.2265  0.3286  0.8773
  789MPD2    C111682   2.516   2.605  16.257  0.0932  0.3099  0.6288
  789MPD2    C211683   2.446   2.675  16.354  0.5951 -0.7587  0.1023
  789MPD2    C311684   2.385   2.799  16.331 -0.2536 -0.1215 -0.2849
  789MPD2    C411685   2.406   2.855  16.209 -0.6863 -0.1701 -0.0028
  789MPD2    C511686   2.465   2.780  16.105 -0.0028  0.3112 -0.3267
  789MPD2     H11687   2.422   2.632  16.450 -3.2312 -0.8678 -0.9234
  789MPD2    H111688   2.346   2.941  16.182  1.5886  1.6672  0.7777
  789MPD2    H211689   2.593   2.623  16.054  0.9307  0.5506  1.5038
  789MPD2    H311690   2.481   2.832  16.012  0.3183  1.7075  0.5124
  789MPD2     N11691   2.310   2.865  16.428  0.4213 -0.0421 -0.7500
  789MPD2    H511692   2.259   2.944  16.390 -2.3824 -0.6798  1.6750
  789MPD2    N111693   2.567   2.479  16.285 -0.2189 -0.2349 -0.2003
  789MPD2    H711694   2.555   2.444  16.380 -0.8478 -0.9552 -0.5415
  790MPD2     C11695   3.393   4.420  13.071  0.5281  0.8637  0.3338
  790MPD2    C111696   3.471   4.312  13.105  0.3993 -0.2001  0.3742
  790MPD2    C211697   3.438   4.188  13.065  0.3884 -0.5228  0.3877
  790MPD2    C311698   3.326   4.172  12.988  0.3371 -0.1086  0.1468
  790MPD2    C411699   3.239   4.285  12.956 -0.2528 -0.7006 -0.8936
  790MPD2    C511700   3.284   4.409  12.986 -0.9983 -0.8151 -0.2593
  790MPD2     H11701   3.494   4.095  13.076  0.7305 -0.5367 -1.3609
  790MPD2    H111702   3.145   4.279  12.901 -0.3822  1.8373 -0.9427
  790MPD2    H211703   3.410   4.522  13.105 -0.1211  0.7450  1.0172
  790MPD2    H311704   3.225   4.493  12.952  2.4693  0.8717 -2.0593
  790MPD2     N11705   3.303   4.039  12.935  0.3675  0.2148 -0.2770
  790MPD2    H511706   3.371   3.969  12.961 -0.5565  0.1830  2.0224
  790MPD2    N111707   3.596   4.337  13.174  0.9273 -0.2287  0.2790
  790MPD2    H711708   3.625   4.433  13.192 -0.4049 -0.2715  2.6059
  791MPD2     C11709   2.726   3.855  12.486 -0.2688  0.5568  0.0790
  791MPD2    C111710   2.756   3.745  12.559  0.1954  0.7242 -0.8159
  791MPD2    C211711   2.675   3.639  12.554 -0.3226 -0.1641 -0.4612
  791MPD2    C311712   2.554   3.641  12.486 -0.2592  0.5396 -0.7106
  791MPD2    C411713   2.528   3.754  12.410 -0.3385  0.1824  0.8839
  791MPD2    C511714   2.615   3.860  12.417  0.0532  0.2789 -0.0891
  791MPD2     H11715   2.698   3.552  12.614 -0.0765 -0.2449 -0.6785
  791MPD2    H111716   2.434   3.756  12.356 -0.3484  2.3130  0.9824
  791MPD2    H211717   2.794   3.939  12.481  1.2778 -0.7092  0.1178
  791MPD2    H311718   2.595   3.946  12.353 -1.6262 -0.3620 -0.4135
  791MPD2     N11719   2.461   3.533  12.496  0.2846  0.2751 -0.3832
  791MPD2    H511720   2.498   3.451  12.543 -1.6108 -1.1603 -1.3646
  791MPD2    N111721   2.874   3.743  12.633 -0.2237  0.2423 -0.2113
  791MPD2    H711722   2.920   3.833  12.636 -1.6924  0.8943  2.1136
  792MPD2     C11723   3.244   3.711  11.606  0.2633  0.0940  0.2174
  792MPD2    C111724   3.175   3.782  11.517 -1.0700 -0.9259  0.2499
  792MPD2    C211725   3.059   3.731  11.466 -0.2048 -0.1117  0.3766
  792MPD2    C311726   3.010   3.604  11.502  0.0268 -0.6794  0.4427
  792MPD2    C411727   3.083   3.532  11.595  0.1190  0.2760  0.2843
  792MPD2    C511728   3.203   3.586  11.642  0.2709 -0.0609 -0.0972
  792MPD2     H11729   2.995   3.788  11.400 -0.0685  2.8663  2.8073
  792MPD2    H111730   3.051   3.432  11.622  5.6233 -1.5503  0.0155
  792MPD2    H211731   3.342   3.742  11.641  0.4604  0.5651 -0.7672
  792MPD2    H311732   3.262   3.539  11.720 -0.7731 -0.0468  0.6989
  792MPD2     N11733   2.903   3.539  11.436  0.2067 -0.3844  0.1086
  792MPD2    H511734   2.869   3.454  11.481 -0.2730  0.4164  1.2696
  792MPD2    N111735   3.239   3.905  11.480  0.4601 -0.0981  0.1706
  792MPD2    H711736   3.323   3.930  11.532  1.1105  0.3002 -1.0695
  793MPD2     C11737   2.439   3.582  10.530  0.0296  0.0392  0.4920
  793MPD2    C111738   2.566   3.557  10.567  0.2838 -0.0795 -0.1719
  793MPD2    C211739   2.597   3.536  10.700  0.3746  0.7909  0.1507
  793MPD2    C311740   2.502   3.537  10.799  0.4993 -0.5163 -0.6233
  793MPD2    C411741   2.370   3.554  10.759  0.8626 -0.0418 -0.3303
  793MPD2    C511742   2.343   3.596  10.631  1.2454  0.2404  0.3259
  793MPD2     H11743   2.702   3.524  10.726  0.4889 -0.6444 -0.9504
  793MPD2    H111744   2.285   3.545  10.825 -0.3111 -1.9610 -2.0796
  793MPD2    H211745   2.407   3.610  10.430 -0.4594  1.0594  0.9289
  793MPD2    H311746   2.241   3.626  10.612  1.7069  1.5452 -0.0794
  793MPD2     N11747   2.545   3.515  10.928  0.4796  0.2458 -0.6072
  793MPD2    H511748   2.645   3.494  10.934  0.2436  0.1367  3.1762
  793MPD2    N111749   2.672   3.544  10.470 -0.2960  0.1673 -0.1919
  793MPD2    H711750   2.764   3.522  10.506 -1.0142 -2.6959 -0.1266
  794MPD2     C11751   3.632   3.226  16.629 -0.0052 -0.6778 -0.8135
  794MPD2    C111752   3.531   3.283  16.702 -0.1378 -0.0445  0.2263
  794MPD2    C211753   3.424   3.344  16.639  0.0073  0.2252  0.2191
  794MPD2    C311754   3.428   3.371  16.502 -0.2021  0.0881 -0.1174
  794MPD2    C411755   3.521   3.306  16.422 -0.2459  0.0225  0.7713
  794MPD2    C511756   3.624   3.236  16.492  0.0630 -0.3313  0.9545
  794MPD2     H11757   3.344   3.377  16.705 -0.4394 -2.2615  0.9206
  794MPD2    H111758   3.528   3.307  16.314  0.1067 -0.0922  0.7910
  794MPD2    H211759   3.711   3.162  16.668  2.7498  1.8932 -2.1674
  794MPD2    H311760   3.699   3.188  16.430  0.0104 -0.4512  0.9826
  794MPD2     N11761   3.326   3.450  16.447 -0.0785 -0.0660 -0.1878
  794MPD2    H511762   3.324   3.458  16.346  0.6041  2.0847 -0.0474
  794MPD2    N111763   3.517   3.266  16.842  0.3703  0.1552  0.1998
  794MPD2    H711764   3.427   3.295  16.878 -0.5863 -3.1708  0.4076
  795MPD2     C11765   0.998   0.666  13.159 -0.2512 -0.1606  0.2399
  795MPD2    C111766   0.918   0.582  13.245  0.2816 -0.1924  0.1208
  795MPD2    C211767   0.971   0.468  13.299 -0.0019 -0.2988 -0.3893
  795MPD2    C311768   1.101   0.432  13.278  0.2162 -0.3152 -0.3960
  795MPD2    C411769   1.177   0.513  13.196  0.8051 -0.5330  0.5292
  795MPD2    C511770   1.123   0.624  13.140 -0.3111 -0.1900  0.0169
  795MPD2     H11771   0.909   0.398  13.354  0.1701  0.0311  0.2212
  795MPD2    H111772   1.279   0.484  13.172  0.4353 -0.0871 -1.6035
  795MPD2    H211773   0.957   0.747  13.100  0.4956  0.3462  0.4231
  795MPD2    H311774   1.189   0.662  13.063 -0.1180  2.7548  1.6283
  795MPD2     N11775   1.167   0.318  13.342 -0.1219  0.1242 -0.3608
  795MPD2    H511776   1.251   0.280  13.299  0.2815 -1.3541  1.7812
  795MPD2    N111777   0.779   0.598  13.268  0.7506 -0.4930 -0.3915
  795MPD2    H711778   0.723   0.527  13.314  0.7452 -0.1202  0.1896
  796MPD2     C11779   0.469   2.002  15.590  0.0049  0.2786  0.1205
  796MPD2    C111780   0.565   2.052  15.499  0.0286 -0.4611  0.2882
  796MPD2    C211781   0.529   2.156  15.418  0.6261  0.0179 -0.2513
  796MPD2    C311782   0.406   2.218  15.434  0.1470 -0.0764 -0.6848
  796MPD2    C411783   0.316   2.164  15.513 -0.1719 -0.3189 -0.4046
  796MPD2    C511784   0.346   2.056  15.588  0.1320 -0.1020  0.1125
  796MPD2     H11785   0.610   2.194  15.356  0.7548 -0.7110 -0.5282
  796MPD2    H111786   0.212   2.194  15.519  0.3900  1.0475  2.8736
  796MPD2    H211787   0.491   1.924  15.662 -3.2562 -2.8278 -2.2915
  796MPD2    H311788   0.278   2.011  15.660  1.4101 -1.8058  0.2339
  796MPD2     N11789   0.384   2.333  15.352 -0.2149 -0.4636  0.3336
  796MPD2    H511790   0.448   2.356  15.277  1.9798  3.1266  3.3191
  796MPD2    N111791   0.699   2.006  15.514  0.3927 -0.0247 -0.5819
  796MPD2    H711792   0.704   1.942  15.593 -0.2420  1.0242  0.3053
  797MPD2     C11793   1.299   2.003  16.957 -0.2646  0.3044 -1.2428
  797MPD2    C111794   1.351   2.128  16.964  0.1733  0.2977  0.2138
  797MPD2    C211795   1.313   2.217  16.870 -0.7327 -0.0504  1.1782
  797MPD2    C311796   1.220   2.194  16.774 -0.2976  0.6608  0.8172
  797MPD2    C411797   1.163   2.074  16.774  0.2452  0.1356 -0.1131
  797MPD2    C511798   1.197   1.981  16.868  0.0062  0.0406  0.3480
  797MPD2     H11799   1.366   2.311  16.874  0.9156 -0.8814 -1.0134
  797MPD2    H111800   1.080   2.054  16.707  0.3415  0.5029 -0.3472
  797MPD2    H211801   1.338   1.926  17.022 -2.9886 -0.2658 -0.2918
  797MPD2    H311802   1.146   1.885  16.875  0.2451  0.0379  2.1764
  797MPD2     N11803   1.201   2.281  16.665 -0.2569 -0.9176 -0.1271
  797MPD2    H511804   1.155   2.242  16.583 -1.1775 -0.9966  0.4275
  797MPD2    N111805   1.440   2.180  17.064  0.5677 -0.3400  0.0895
  797MPD2    H711806   1.482   2.272  17.055 -0.3900  0.1061  0.1867
  798MPD2     C11807   1.863   2.552  16.669  0.4297  0.8684  0.4705
  798MPD2    C111808   1.737   2.590  16.716 -1.4326 -0.3173 -0.8999
  798MPD2    C211809   1.718   2.581  16.849  0.4414 -1.0243  0.6697
  798MPD2    C311810   1.813   2.530  16.937  0.1459  0.1899 -0.0957
  798MPD2    C411811   1.938   2.497  16.893 -0.3095 -0.3385 -0.8491
  798MPD2    C511812   1.959   2.505  16.760  0.3179  0.0199  0.0761
  798MPD2     H11813   1.620   2.605  16.890  0.7686  1.8384 -0.2329
  798MPD2    H111814   2.017   2.446  16.947 -2.6454 -1.3057  1.6393
  798MPD2    H211815   1.891   2.566  16.565 -3.2642  1.8370 -0.4049
  798MPD2    H311816   2.048   2.463  16.716  1.6416  2.4750  0.4111
  798MPD2     N11817   1.768   2.499  17.062 -0.0992  0.1257  0.1789
  798MPD2    H511818   1.668   2.485  17.073  0.3121 -1.0959  2.5080
  798MPD2    N111819   1.646   2.630  16.619  0.1692  0.1998  0.2452
  798MPD2    H711820   1.658   2.596  16.524  1.0269  1.8964 -0.2519
  799MPD2     C11821   0.599   3.152  14.548 -0.1247 -0.0338  0.5124
  799MPD2    C111822   0.558   3.061  14.450 -0.6082  0.4643  0.0391
  799MPD2    C211823   0.468   3.093  14.349  0.2980  0.0694 -0.0001
  799MPD2    C311824   0.430   3.227  14.339  0.5589  0.2053  0.3994
  799MPD2    C411825   0.472   3.314  14.432 -0.3107  0.1086 -0.3710
  799MPD2    C511826   0.544   3.274  14.541 -0.4715  0.1705  0.0954
  799MPD2     H11827   0.430   3.017  14.282  1.3137  0.2100 -0.7389
  799MPD2    H111828   0.433   3.414  14.425 -1.0302 -0.2995 -2.3060
  799MPD2    H211829   0.671   3.140  14.628  0.2848  0.0357  0.1546
  799MPD2    H311830   0.564   3.345  14.620 -1.9216 -2.1948  2.6043
  799MPD2     N11831   0.347   3.276  14.235  0.0730  0.3915  0.2155
  799MPD2    H511832   0.331   3.376  14.227 -2.5195  0.0413  1.0003
  799MPD2    N111833   0.613   2.936  14.469 -0.2017  0.0038  0.1776
  799MPD2    H711834   0.673   2.922  14.549 -0.8612  0.2440  0.7145
  800MPD2     C11835   0.608   4.365  13.592  0.6325  0.1370 -0.3615
  800MPD2    C111836   0.744   4.352  13.613 -0.2963 -0.3025  0.3051
  800MPD2    C211837   0.791   4.221  13.583  0.5448  0.2021  0.3500
  800MPD2    C311838   0.719   4.117  13.528  1.1566  0.3267  0.3339
  800MPD2    C411839   0.584   4.140  13.505 -0.0832 -0.1003  1.2762
  800MPD2    C511840   0.532   4.263  13.550  0.0466  0.2461  0.0322
  800MPD2     H11841   0.895   4.195  13.600  0.0092 -2.2958 -0.2581
  800MPD2    H111842   0.513   4.067  13.469  0.3715  0.7890 -1.4445
  800MPD2    H211843   0.561   4.462  13.604  2.8070  0.9878  1.3705
  800MPD2    H311844   0.430   4.283  13.519 -0.5319  1.2302  2.5693
  800MPD2     N11845   0.787   4.000  13.506  0.3829  1.2477 -0.1747
  800MPD2    H511846   0.883   3.995  13.540  0.7364 -3.8034 -1.9730
  800MPD2    N111847   0.815   4.454  13.675 -0.2592  0.3566 -0.3039
  800MPD2    H711848   0.768   4.543  13.684  0.0797  0.5217 -0.1345
  801MPD2     C11849   0.825   0.418  13.867  0.1182 -0.1988  0.7757
  801MPD2    C111850   0.891   0.335  13.951 -0.1083 -0.2398 -0.7013
  801MPD2    C211851   0.896   0.359  14.086  0.5144  0.5265 -0.2037
  801MPD2    C311852   0.829   0.475  14.138 -0.4517  0.4054  0.2240
  801MPD2    C411853   0.759   0.563  14.051 -0.4687  0.3799 -0.2437
  801MPD2    C511854   0.772   0.537  13.917  0.3227 -0.2614  0.0674
  801MPD2     H11855   0.951   0.291  14.151  1.3979 -0.9319 -2.4816
  801MPD2    H111856   0.700   0.648  14.083 -2.2686 -0.2313 -1.9801
  801MPD2    H211857   0.829   0.403  13.760  1.8311  0.5960  0.7254
  801MPD2    H311858   0.719   0.590  13.839  3.0747 -1.4998 -2.6484
  801MPD2     N11859   0.813   0.492  14.277 -0.1278 -0.2977  0.8802
  801MPD2    H511860   0.747   0.566  14.298  0.7245  1.1844 -1.5960
  801MPD2    N111861   0.956   0.217  13.899  0.3082 -0.9330  0.1232
  801MPD2    H711862   1.003   0.158  13.967 -1.2657  0.2670  2.2938
  802MPD2     C11863   4.713   0.508  16.728  0.5069 -0.2396 -0.4107
  802MPD2    C111864   0.074   0.484  16.820 -0.3886 -0.4994  0.5410
  802MPD2    C211865   0.170   0.390  16.791 -0.2224  0.1231  0.0856
  802MPD2    C311866   0.173   0.333  16.664  0.4451 -0.0158  0.3821
  802MPD2    C411867   0.069   0.357  16.575  0.2154 -0.5232  0.1369
  802MPD2    C511868   4.712   0.450  16.604 -0.4054 -0.3899  0.4465
  802MPD2     H11869   0.247   0.373  16.865 -1.4691 -2.5028  0.7694
  802MPD2    H111870   0.054   0.308  16.480 -1.3852  0.6720 -0.2165
  802MPD2    H211871   4.641   0.588  16.741 -1.2284 -2.0722  1.2736
  802MPD2    H311872   4.627   0.470  16.540  1.5166  2.3280 -1.2537
  802MPD2     N11873   0.273   0.245  16.636  0.0262 -0.1726  0.1426
  802MPD2    H511874   0.330   0.214  16.714 -0.6671  2.3781  1.6564
  802MPD2    N111875   0.057   0.540  16.949  0.1617  0.2120  0.3789
  802MPD2    H711876   0.117   0.511  17.026  1.2993  0.3211 -0.4725
  803MPD2     C11877   1.369   3.361  11.825 -0.0366  0.4507 -0.1429
  803MPD2    C111878   1.415   3.480  11.878  0.4315 -0.7866  0.3979
  803MPD2    C211879   1.384   3.506  12.011  1.1618  0.5859 -0.0208
  803MPD2    C311880   1.301   3.421  12.088  0.2386  0.5042 -0.0761
  803MPD2    C411881   1.246   3.313  12.028  0.4265 -0.2277  0.2485
  803MPD2    C511882   1.285   3.290  11.898 -0.3095 -0.1472  0.7381
  803MPD2     H11883   1.416   3.595  12.062  0.1454  1.7316 -1.3822
  803MPD2    H111884   1.180   3.241  12.075  1.1561 -1.3767 -0.4664
  803MPD2    H211885   1.387   3.326  11.724  1.8315  1.1925 -0.0582
  803MPD2    H311886   1.258   3.190  11.865  0.2318  0.2939 -0.9954
  803MPD2     N11887   1.262   3.437  12.221 -0.0377 -0.4054  0.3929
  803MPD2    H511888   1.187   3.377  12.256  0.0912 -1.0430 -0.4237
  803MPD2    N111889   1.488   3.578  11.804 -0.4638  0.0320  0.4019
  803MPD2    H711890   1.519   3.660  11.855  2.5570 -1.1733  0.5393
  804MPD2     C11891   1.311   0.314  16.900  0.1822 -0.2338 -0.4456
  804MPD2    C111892   1.297   0.289  17.035  0.0650  0.5523 -0.2900
  804MPD2    C211893   1.354   0.380  17.121  0.7366  0.2481  0.5330
  804MPD2    C311894   1.440   0.476  17.082  0.2752  0.1834  0.2279
  804MPD2    C411895   1.449   0.496  16.940 -0.0750 -0.4552  0.1314
  804MPD2    C511896   1.393   0.411  16.850 -0.0621  0.4212  0.0693
  804MPD2     H11897   1.330   0.373  17.227 -1.8611 -0.3687 -0.0959
  804MPD2    H111898   1.499   0.584  16.902 -0.8178  0.4228  1.1909
  804MPD2    H211899   1.261   0.251  16.827  0.0121  0.0225 -0.5517
  804MPD2    H311900   1.416   0.420  16.744  1.3109  4.0522  0.6610
  804MPD2     N11901   1.485   0.562  17.179 -0.4656 -0.2389  0.1160
  804MPD2    H511902   1.454   0.557  17.276 -0.7021  1.7876  0.1539
  804MPD2    N111903   1.219   0.189  17.093 -0.2735  0.1437  0.5366
  804MPD2    H711904   1.219   0.182  17.194 -4.0258  1.1808  0.6053
  805MPD2     C11905   0.767   3.249  15.090 -0.1728 -0.4034  0.6188
  805MPD2    C111906   0.700   3.358  15.149 -0.5012  0.1154  0.4967
  805MPD2    C211907   0.743   3.401  15.271 -0.9724  0.0512  0.6823
  805MPD2    C311908   0.847   3.339  15.335  0.2390  0.9145  0.1235
  805MPD2    C411909   0.920   3.242  15.276  0.4879  0.1375 -0.2547
  805MPD2    C511910   0.878   3.197  15.150 -0.8099 -0.0669 -0.0428
  805MPD2     H11911   0.697   3.487  15.317 -1.4744  0.3126 -0.3050
  805MPD2    H111912   0.995   3.176  15.318 -0.2939 -0.4905  0.1675
  805MPD2    H211913   0.734   3.200  14.999  0.0498 -1.1648  0.9458
  805MPD2    H311914   0.921   3.110  15.102 -0.8012 -1.1506  1.9352
  805MPD2     N11915   0.873   3.386  15.470 -0.0248  0.4888  0.1320
  805MPD2    H511916   0.816   3.461  15.507 -1.1040 -0.1963 -0.1436
  805MPD2    N111917   0.592   3.407  15.078  0.7356 -0.1612  0.7082
  805MPD2    H711918   0.591   3.360  14.988 -0.1238  0.6561  0.2824
  806MPD2     C11919   0.673   2.642   0.328  0.0275  0.0849  0.4952
  806MPD2    C111920   0.713   2.776   0.331  0.8352 -0.1293 -0.0873
  806MPD2    C211921   0.729   2.847   0.216 -0.4160  0.1679 -0.5062
  806MPD2    C311922   0.697   2.797   0.094  0.0180 -0.7713 -0.5435
  806MPD2    C411923   0.651   2.669   0.091 -0.0910 -0.6049  0.2301
  806MPD2    C511924   0.654   2.588   0.205  0.8547  0.3969  0.2065
  806MPD2     H11925   0.793   2.935   0.216 -1.3378  0.8331  0.4999
  806MPD2    H111926   0.617   2.625  17.757 -0.0344  0.0520 -0.0987
  806MPD2    H211927   0.664   2.594   0.425  0.7869 -0.0150  0.5174
  806MPD2    H311928   0.630   2.483   0.197  0.2262  0.5090  0.6116
  806MPD2     N11929   0.723   2.869  17.736 -0.4318  0.2441 -0.1939
  806MPD2    H511930   0.784   2.948  17.752 -1.3289  0.9311 -0.1776
  806MPD2    N111931   0.736   2.831   0.456  0.6129  0.7811 -0.4442
  806MPD2    H711932   0.700   2.788   0.541  0.5974 -2.0665 -1.8782
  807MPD2     C11933   0.275   3.060   1.006 -0.4158  0.1780 -0.3923
  807MPD2    C111934   0.398   3.049   1.072  0.8651  0.1206  0.4152
  807MPD2    C211935   0.399   3.057   1.213  0.2284 -0.6734 -0.1108
  807MPD2    C311936   0.284   3.082   1.283 -0.0362  0.5585 -0.6553
  807MPD2    C411937   0.167   3.083   1.217 -0.7141  0.1349  0.3852
  807MPD2    C511938   0.159   3.061   1.079 -0.2882  0.2068  0.5070
  807MPD2     H11939   0.485   3.040   1.276  0.2235  0.6595  0.2622
  807MPD2    H111940   0.073   3.112   1.263 -0.9052 -0.4142  0.3494
  807MPD2    H211941   0.269   3.061   0.898  0.8667 -1.5370 -0.4724
  807MPD2    H311942   0.064   3.074   1.029  0.3280 -0.3412 -0.7993
  807MPD2     N11943   0.298   3.112   1.428 -0.0112 -0.2018  0.1002
  807MPD2    H511944   0.391   3.118   1.468  0.0749  1.9981 -0.4523
  807MPD2    N111945   0.524   3.038   1.004  0.7435  0.2364  0.6147
  807MPD2    H711946   0.603   3.017   1.064  2.4337  2.0725 -0.9689
  808MPD2     C11947   1.160   4.314  10.235  0.4453  0.6883 -0.0192
  808MPD2    C111948   1.053   4.392  10.192  0.8101  0.1597  0.6752
  808MPD2    C211949   1.072   4.527  10.190  0.0299 -0.3305 -0.3035
  808MPD2    C311950   1.194   4.584  10.205 -0.0162 -0.5446 -0.2983
  808MPD2    C411951   1.306   4.505  10.230  0.0745  0.2840  0.1419
  808MPD2    C511952   1.286   4.368  10.247 -0.2532  0.3316 -0.1700
  808MPD2     H11953   0.990   4.594  10.165  0.3135 -0.3278 -1.2196
  808MPD2    H111954   1.406   4.542  10.248  0.3930  0.0074 -1.0235
  808MPD2    H211955   1.159   4.208  10.259  1.0601  0.9824  1.2928
  808MPD2    H311956   1.375   4.313  10.277  1.1264  2.8747  0.4313
  808MPD2     N11957   1.212   4.722  10.206 -0.0380 -0.2986  0.2511
  808MPD2    H511958   1.308   0.000  10.232  0.8674 -3.1845 -0.9710
  808MPD2    N111959   0.922   4.338  10.185  1.0145  0.3823 -0.3035
  808MPD2    H711960   0.851   4.409  10.171  0.3157 -0.2057  0.2392
  809MPD2     C11961   1.623   0.674   9.602  0.0145 -0.1897 -0.9098
  809MPD2    C111962   1.581   0.540   9.596  0.3645  0.6950 -0.5818
  809MPD2    C211963   1.501   0.493   9.699  0.0341 -0.1512 -0.1815
  809MPD2    C311964   1.449   0.577   9.795 -0.2376 -0.0312 -0.4069
  809MPD2    C411965   1.491   0.710   9.798  0.3019 -0.7295 -0.8476
  809MPD2    C511966   1.584   0.755   9.704 -0.4555  0.0486 -0.3792
  809MPD2     H11967   1.451   0.398   9.683 -0.7345  0.2606 -0.2180
  809MPD2    H111968   1.460   0.786   9.868  0.9919 -0.0096 -1.3173
  809MPD2    H211969   1.690   0.705   9.523  2.4685 -1.5292  0.6429
  809MPD2    H311970   1.602   0.862   9.700  0.8495 -0.0805  1.6656
  809MPD2     N11971   1.374   0.534   9.909  0.6267 -0.2824 -0.8740
  809MPD2    H511972   1.361   0.602   9.983  1.3048 -2.3442  1.1497
  809MPD2    N111973   1.626   0.448   9.497  0.5112  0.2021 -0.7352
  809MPD2    H711974   1.606   0.349   9.510  0.7291  0.1167 -1.0330
  810MPD2     C11975   0.215   4.243  10.682 -1.1025 -0.0849  0.4260
  810MPD2    C111976   0.183   4.167  10.799 -0.2889  0.0547  0.3798
  810MPD2    C211977   0.154   4.238  10.913  0.0405  0.6600 -0.1559
  810MPD2    C311978   0.177   4.377  10.923  0.2288  0.8318 -0.8835
  810MPD2    C411979   0.226   4.450  10.813 -0.4525 -0.6661 -0.1706
  810MPD2    C511980   0.233   4.381  10.693 -0.2725  0.7898 -0.1139
  810MPD2     H11981   0.120   4.185  11.001  1.0590  1.3397  0.6561
  810MPD2    H111982   0.231   4.558  10.810  0.3345 -0.6052  2.7334
  810MPD2    H211983   0.222   4.201  10.582 -2.8844  0.3831  0.1124
  810MPD2    H311984   0.261   4.442  10.608 -0.7844 -0.1178 -0.9223
  810MPD2     N11985   0.136   4.450  11.029 -0.2474 -0.1601  0.5049
  810MPD2    H511986   0.142   4.551  11.017  0.2828 -0.1930  0.5102
  810MPD2    N111987   0.162   4.026  10.780 -0.0269  0.0778  0.2076
  810MPD2    H711988   0.178   3.996  10.685  2.2461  0.9393  0.3117
  811MPD2     C11989   4.660   3.556  10.218 -0.0119 -0.2572 -0.0517
  811MPD2    C111990   0.019   3.626  10.281  0.7778  0.6951  0.3627
  811MPD2    C211991   0.076   3.734  10.222  0.7198  0.8374  0.0076
  811MPD2    C311992   0.048   3.772  10.092  0.0886  0.2451 -0.7016
  811MPD2    C411993   4.694   3.696  10.026  0.1462  0.4189  0.1942
  811MPD2    C511994   4.621   3.598  10.093 -0.1047  0.9303 -0.6828
  811MPD2     H11995   0.152   3.799  10.264 -0.7271  0.7392  2.7483
  811MPD2    H111996   4.648   3.729   9.934  0.8473 -0.8574 -0.6012
  811MPD2    H211997   4.596   3.482  10.265 -1.6280  0.3762 -1.2461
  811MPD2    H311998   4.531   3.564  10.043  0.0451 -1.1219  0.4878
  811MPD2     N11999   0.102   3.892  10.050  0.8013 -0.4735  0.2518
  811MPD2    H512000   0.179   3.934  10.102 -0.3745 -0.3462  1.9012
  811MPD2    N112001   0.035   3.601  10.420  0.0210 -0.0557 -0.6502
  811MPD2    H712002   4.703   3.544  10.462 -0.3483  0.6249 -0.3644
  812MPD2     C12003   3.495   3.406  12.343 -0.3980  0.5484 -0.3909
  812MPD2    C112004   3.572   3.518  12.333 -0.5167 -0.0369  0.2736
  812MPD2    C212005   3.705   3.507  12.388 -0.0159 -0.3805 -0.1029
  812MPD2    C312006   3.758   3.380  12.430  0.2599 -0.0561  0.8584
  812MPD2    C412007   3.677   3.270  12.424  0.8371 -0.0237 -0.1200
  812MPD2    C512008   3.553   3.284  12.381  0.0616  0.5476  0.0116
  812MPD2     H12009   3.771   3.594  12.387 -2.1481  1.3115  3.1839
  812MPD2    H112010   3.708   3.169  12.447  0.5898 -0.0711  0.0041
  812MPD2    H212011   3.389   3.402  12.322 -0.4664  0.4070 -0.0225
  812MPD2    H312012   3.485   3.200  12.383  0.3237  0.3773  1.3815
  812MPD2     N12013   3.896   3.373  12.466 -0.8562 -0.9232 -0.7706
  812MPD2    H512014   3.940   3.461  12.490 -1.0164 -0.6648 -1.4201
  812MPD2    N112015   3.513   3.637  12.296  0.3635  0.1378 -0.2341
  812MPD2    H712016   3.413   3.642  12.281  0.2756  1.7399  0.8015
  813MPD2     C12017   2.703   0.712  12.911  0.1858 -0.4484 -0.4639
  813MPD2    C112018   2.772   0.835  12.923 -0.6584 -0.0716 -0.1832
  813MPD2    C212019   2.720   0.926  13.017 -1.0979 -0.5561  0.7764
  813MPD2    C312020   2.598   0.902  13.083 -0.3194  0.4462 -0.1892
  813MPD2    C412021   2.533   0.782  13.064  0.0222 -0.7672  0.0259
  813MPD2    C512022   2.590   0.687  12.985  0.7035 -0.3138 -0.5176
  813MPD2     H12023   2.777   1.017  13.029 -0.5843 -1.1238  2.6517
  813MPD2    H112024   2.441   0.754  13.113 -0.2758  1.1076  0.5376
  813MPD2    H212025   2.731   0.633  12.843  1.2710  1.2167 -1.9565
  813MPD2    H312026   2.537   0.594  12.967 -0.6962  0.2354  0.8043
  813MPD2     N12027   2.549   0.998  13.179 -0.2708 -0.2262  0.4014
  813MPD2    H512028   2.608   1.077  13.204  1.2386 -1.4869  0.8277
  813MPD2    N112029   2.891   0.864  12.856  0.2292 -0.2943  0.0421
  813MPD2    H712030   2.927   0.959  12.858 -0.6789  0.0764 -1.4448
  814MPD2     C12031   3.405   2.004  12.431  0.1010  0.3141  0.5810
  814MPD2    C112032   3.480   2.029  12.319 -0.1214 -0.0272  0.4550
  814MPD2    C212033   3.576   2.125  12.332 -0.2813 -0.1210 -0.8539
  814MPD2    C312034   3.592   2.204  12.448  0.0722  0.2914  0.0022
  814MPD2    C412035   3.515   2.183  12.555  0.5034 -0.7245 -0.0765
  814MPD2    C512036   3.423   2.081  12.551 -0.2435  0.7410  0.5307
  814MPD2     H12037   3.641   2.131  12.245  0.5650 -0.3140 -0.2319
  814MPD2    H112038   3.522   2.245  12.644  2.3834 -1.7747  0.5237
  814MPD2    H212039   3.332   1.924  12.436 -0.0314  0.4281  0.4822
  814MPD2    H312040   3.351   2.063  12.629 -2.2295 -1.1366 -1.7213
  814MPD2     N12041   3.694   2.316  12.449 -0.6882 -0.2366 -0.0790
  814MPD2    H512042   3.708   2.356  12.541  1.4050  0.4536 -0.7016
  814MPD2    N112043   3.467   1.956  12.195 -0.1967  0.3187 -0.7970
  814MPD2    H712044   3.522   1.996  12.120  0.9136 -1.2862 -0.8341
  815MPD2     C12045   3.942   1.105  11.876  0.1399 -0.1784  0.2028
  815MPD2    C112046   3.937   0.978  11.912 -0.2551 -0.5299 -0.0508
  815MPD2    C212047   3.846   0.927  11.997 -0.1437 -0.1364 -0.3260
  815MPD2    C312048   3.758   1.015  12.055  0.1233  0.0136  0.3371
  815MPD2    C412049   3.755   1.150  12.016  0.7633 -0.3469  0.3545
  815MPD2    C512050   3.846   1.193  11.918  0.0138 -0.3622 -0.9798
  815MPD2     H12051   3.842   0.826  12.037  0.5064 -0.8452 -2.0598
  815MPD2    H112052   3.684   1.222  12.054  0.0745 -1.5613  1.3908
  815MPD2    H212053   4.022   1.141  11.812 -0.2664  0.3471 -0.0069
  815MPD2    H312054   3.847   1.296  11.884  0.0012 -0.1171 -0.2327
  815MPD2     N12055   3.679   0.963  12.159 -0.0086 -0.1325  0.1008
  815MPD2    H512056   3.693   0.863  12.171 -0.4958 -0.1549  0.5109
  815MPD2    N112057   4.033   0.895  11.852 -0.2069  0.5024 -0.1556
  815MPD2    H712058   4.092   0.926  11.776  0.2856  1.1568  0.4852
  816MPD2     C12059   4.641   4.688  17.423  0.2884 -0.7431 -0.3390
  816MPD2    C112060   4.555   0.011  17.334 -0.2718 -0.1153 -0.4413
  816MPD2    C212061   4.585   4.738  17.200 -0.1528  0.7260  0.3742
  816MPD2    C312062   4.690   4.667  17.147  0.2171  0.6399 -0.4780
  816MPD2    C412063   0.039   4.612  17.232 -0.6232 -0.4596 -0.3073
  816MPD2    C512064   0.004   4.616  17.371 -0.7658  0.0771 -0.2255
  816MPD2     H12065   4.515   0.046  17.134  1.5302  1.5402 -0.8109
  816MPD2    H112066   0.124   4.551  17.203 -0.2535 -0.3072  0.4601
  816MPD2    H212067   4.622   4.685  17.530 -1.5237  0.7934 -0.6173
  816MPD2    H312068   0.057   4.548  17.437 -2.4026  0.1926  1.2133
  816MPD2     N12069   4.702   4.649  17.009 -0.0348  0.0666 -0.4063
  816MPD2    H512070   4.622   4.673  16.950 -0.4289 -0.7923 -0.2271
  816MPD2    N112071   4.463   0.098  17.387 -0.2814 -0.1843 -0.0636
  816MPD2    H712072   4.471   0.117  17.487  1.5003  1.4417 -0.5092
  817MPD2     C12073   3.241   1.222  10.062  0.5280  0.5341  0.3633
  817MPD2    C112074   3.320   1.263   9.962 -0.4689  0.8548 -0.4192
  817MPD2    C212075   3.286   1.363   9.872  0.7259 -0.1603 -0.4457
  817MPD2    C312076   3.166   1.432   9.881 -0.2192 -0.3030 -0.4330
  817MPD2    C412077   3.088   1.395   9.993  0.3134  0.3958 -0.2917
  817MPD2    C512078   3.122   1.287  10.073 -0.2388  0.0350  0.5919
  817MPD2     H12079   3.358   1.387   9.795 -0.5256 -1.0298 -1.8815
  817MPD2    H112080   2.994   1.440  10.023  0.7609  0.1697  1.4692
  817MPD2    H212081   3.256   1.140  10.131  1.9695  0.0597 -0.5240
  817MPD2    H312082   3.058   1.273  10.160 -0.8803 -1.4765 -0.1136
  817MPD2     N12083   3.124   1.521   9.782 -0.1093  0.1115  0.0530
  817MPD2    H512084   3.184   1.512   9.702 -0.7553 -1.3185 -0.2747
  817MPD2    N112085   3.445   1.207   9.935 -0.0479  0.0805  0.3597
  817MPD2    H712086   3.493   1.251   9.857 -0.6018 -0.8811 -0.5330
  818MPD2     C12087   2.540   1.088   9.684  0.6090 -0.1721 -0.1546
  818MPD2    C112088   2.513   1.008   9.788  0.0457  1.1872  0.0152
  818MPD2    C212089   2.571   0.888   9.792  0.0691  0.1218  0.6107
  818MPD2    C312090   2.658   0.841   9.693  0.1593 -1.4951  0.4561
  818MPD2    C412091   2.696   0.929   9.595  0.1201  0.2709  0.0475
  818MPD2    C512092   2.637   1.054   9.586  0.4275 -0.0611 -0.0316
  818MPD2     H12093   2.541   0.824   9.874 -1.3296 -0.0152  0.0039
  818MPD2    H112094   2.767   0.901   9.518  1.9637  2.0061  1.1306
  818MPD2    H212095   2.501   1.189   9.691  2.5730  0.5710  0.2784
  818MPD2    H312096   2.666   1.127   9.512 -2.9248  0.1870 -1.1261
  818MPD2     N12097   2.704   0.703   9.678  0.0591  0.0359  0.0898
  818MPD2    H512098   2.757   0.682   9.594 -0.3599  1.1573 -0.4645
  818MPD2    N112099   2.420   1.030   9.881  0.2992  0.3703 -0.4535
  818MPD2    H712100   2.419   0.971   9.964 -1.1357 -0.5633 -1.1305
  819MPD2     C12101   0.853   2.696  15.550 -1.0244 -0.2280  0.1088
  819MPD2    C112102   0.952   2.708  15.455  0.4165 -0.4393  0.7469
  819MPD2    C212103   1.070   2.772  15.478  0.4602 -0.0136 -0.5533
  819MPD2    C312104   1.090   2.828  15.605 -0.6262  0.1405  0.0271
  819MPD2    C412105   0.980   2.833  15.692  0.2431 -0.5744 -0.6190
  819MPD2    C512106   0.866   2.768  15.670  0.3661  0.8770  1.0753
  819MPD2     H12107   1.140   2.770  15.396  0.8599 -1.1767 -0.1865
  819MPD2    H112108   0.982   2.875  15.792  0.0731 -0.9163 -0.4693
  819MPD2    H212109   0.760   2.650  15.520 -0.1443 -0.4033 -2.3725
  819MPD2    H312110   0.784   2.776  15.741  0.0678  1.6417  0.6435
  819MPD2     N12111   1.214   2.894  15.622  0.4974 -0.9681 -0.4415
  819MPD2    H512112   1.279   2.884  15.546 -2.0511 -2.4688 -2.4299
  819MPD2    N112113   0.911   2.667  15.333  0.2618  0.2441  0.3960
  819MPD2    H712114   0.821   2.625  15.315 -0.1063  1.2959 -0.2488
  820MPD2     C12115   0.244   2.946  14.649 -0.3656  0.2652  0.4737
  820MPD2    C112116   0.340   3.018  14.716  0.6416 -0.8191 -0.0480
  820MPD2    C212117   0.447   2.943  14.765  0.6784 -0.9780 -0.1039
  820MPD2    C312118   0.447   2.801  14.755  0.2254  0.4491 -0.7676
  820MPD2    C412119   0.356   2.741  14.676  0.1875 -0.0072 -0.0350
  820MPD2    C512120   0.253   2.816  14.628  0.1151  0.4139  0.5252
  820MPD2     H12121   0.524   2.997  14.820 -0.4166  0.4680 -0.0035
  820MPD2    H112122   0.350   2.633  14.672 -0.6171 -0.0308  1.5650
  820MPD2    H212123   0.166   2.998  14.595 -1.5951 -2.2051 -0.1427
  820MPD2    H312124   0.165   2.767  14.587 -0.7538  1.3982  1.1946
  820MPD2     N12125   0.543   2.714  14.819  0.1572 -0.1662  0.4379
  820MPD2    H512126   0.528   2.616  14.796  0.3998 -0.4230  1.3571
  820MPD2    N112127   0.320   3.151  14.745 -0.2690  0.0728  0.3549
  820MPD2    H712128   0.245   3.199  14.697  0.7234  0.9738 -0.3139
  821MPD2     C12129   1.059   4.001  12.809 -0.4929  0.4286 -0.2890
  821MPD2    C112130   1.059   4.061  12.933 -0.3356  0.1284 -0.1535
  821MPD2    C212131   1.099   4.196  12.940  0.9045 -0.1383  0.2566
  821MPD2    C312132   1.158   4.256  12.829 -0.1373 -0.3946 -0.3468
  821MPD2    C412133   1.160   4.188  12.712 -0.3429 -0.7160 -0.3354
  821MPD2    C512134   1.111   4.063  12.699 -0.1429 -0.2064 -0.4999
  821MPD2     H12135   1.090   4.243  13.038 -1.7761  0.9214 -0.4910
  821MPD2    H112136   1.203   4.243  12.630  0.0153  0.8641  0.9101
  821MPD2    H212137   1.034   3.896  12.809 -0.6468  0.4683 -1.2085
  821MPD2    H312138   1.127   4.008  12.606 -0.1007  1.4176 -1.4580
  821MPD2     N12139   1.239   4.372  12.852 -0.6466  0.8963  0.0476
  821MPD2    H512140   1.304   4.401  12.779 -3.5889  1.0078 -2.5151
  821MPD2    N112141   1.027   3.999  13.059 -0.5888 -0.2628  0.6778
  821MPD2    H712142   1.038   4.066  13.134  0.5089  0.1938  0.1143
  822MPD2     C12143   2.137   4.178  15.854  0.5855 -0.1197  0.3536
  822MPD2    C112144   2.082   4.163  15.984 -0.1268  0.0565  0.4174
  822MPD2    C212145   1.988   4.248  16.034 -0.3484  0.3814  0.7236
  822MPD2    C312146   1.941   4.350  15.957  0.0039 -0.1224  0.1049
  822MPD2    C412147   1.994   4.374  15.831 -0.2882  0.1035  0.5290
  822MPD2    C512148   2.081   4.278  15.779 -0.3111  0.2586 -0.1733
  822MPD2     H12149   1.944   4.230  16.132  0.1493 -0.5781  0.7638
  822MPD2    H112150   1.952   4.451  15.767 -0.1173  0.3050  0.6567
  822MPD2    H212151   2.203   4.112  15.799 -0.5744 -0.6124 -0.4303
  822MPD2    H312152   2.110   4.294  15.675 -1.2705  0.3047 -0.4341
  822MPD2     N12153   1.850   4.438  16.017 -0.1101  0.4311  0.6803
  822MPD2    H512154   1.796   4.412  16.100  1.6087 -0.0225  1.6510
  822MPD2    N112155   2.135   4.070  16.079  0.1231  0.5810 -0.7925
  822MPD2    H712156   2.092   4.077  16.170 -0.2596 -0.8472 -0.8626
  823MPD2     C12157   1.577   0.020  16.748  0.0872 -0.3480  0.1116
  823MPD2    C112158   1.614   4.664  16.656 -0.3481 -0.0648 -0.7801
  823MPD2    C212159   1.612   4.528  16.694 -0.3319  0.2332  0.2082
  823MPD2    C312160   1.584   4.489  16.830 -0.4831 -0.7987  0.2940
  823MPD2    C412161   1.532   4.591  16.910  0.1832  1.0725  0.1179
  823MPD2    C512162   1.524   4.723  16.864 -0.0564 -0.1959 -0.4832
  823MPD2     H12163   1.642   4.454  16.621 -1.7670  0.6681 -0.8252
  823MPD2    H112164   1.496   4.570  17.010  2.6814 -1.3976  0.5004
  823MPD2    H212165   1.572   0.125  16.723  0.6146 -0.5217 -0.7167
  823MPD2    H312166   1.489   0.056  16.936  0.7160  1.1884 -1.5182
  823MPD2     N12167   1.595   4.358  16.884 -0.3337  0.3050  0.1239
  823MPD2    H512168   1.535   4.335  16.963  0.7179 -1.4136  0.4314
  823MPD2    N112169   1.649   4.706  16.525 -0.2960 -0.5769 -0.4009
  823MPD2    H712170   1.658   0.065  16.512 -1.2155 -0.6955 -1.9830
  824MPD2     C12171   2.723   3.467  16.134 -0.5462  0.0951 -0.4463
  824MPD2    C112172   2.642   3.553  16.062  0.2380  0.6865 -0.2544
  824MPD2    C212173   2.630   3.541  15.924  0.0506  0.0061  0.6426
  824MPD2    C312174   2.683   3.431  15.858 -0.6074 -0.1886 -0.1216
  824MPD2    C412175   2.747   3.339  15.933 -0.7468  0.3659  0.4470
  824MPD2    C512176   2.764   3.355  16.068  0.5343 -0.5145  0.1886
  824MPD2     H12177   2.578   3.622  15.873  0.3173  0.1958  0.6782
  824MPD2    H112178   2.791   3.253  15.884 -1.0968 -1.3380  3.1015
  824MPD2    H212179   2.735   3.471  16.241 -2.6051  1.4874 -0.2622
  824MPD2    H312180   2.826   3.285  16.124 -0.1754 -1.0541  0.2935
  824MPD2     N12181   2.669   3.394  15.725 -0.0659 -0.5520  0.5417
  824MPD2    H512182   2.706   3.303  15.701 -1.0733 -0.6451 -0.6773
  824MPD2    N112183   2.573   3.656  16.116  0.2000 -0.0158 -0.5204
  824MPD2    H712184   2.524   3.717  16.051  0.2630  1.2068  0.5801
  825MPD2     C12185   3.137   3.640  15.055  0.0127  0.4002  0.0277
  825MPD2    C112186   3.008   3.671  15.078  0.2877 -0.0796 -0.1834
  825MPD2    C212187   2.956   3.783  15.009  0.0580  0.0974  0.1421
  825MPD2    C312188   3.035   3.857  14.919  0.5527 -0.1621 -0.1781
  825MPD2    C412189   3.162   3.814  14.889 -0.0616  0.1253 -0.8538
  825MPD2    C512190   3.210   3.707  14.962  0.2190  0.7421  0.5477
  825MPD2     H12191   2.859   3.823  15.036 -0.4523 -0.7283 -0.4737
  825MPD2    H112192   3.225   3.858  14.813 -1.0771  3.9284  0.4952
  825MPD2    H212193   3.184   3.558  15.107 -0.6717  0.1923  0.3267
  825MPD2    H312194   3.308   3.665  14.942 -0.5676  0.0349 -1.7689
  825MPD2     N12195   2.998   3.980  14.860 -0.5227 -0.0343  0.0324
  825MPD2    H512196   3.067   4.012  14.792  1.0254 -0.1203  1.5946
  825MPD2    N112197   2.931   3.604  15.172 -0.1814 -0.1525  0.1275
  825MPD2    H712198   2.977   3.530  15.226  2.0745  1.2579  0.1524
  826MPD2     C12199   2.286   3.306  13.251 -0.3939 -0.6299 -0.6523
  826MPD2    C112200   2.372   3.408  13.267 -0.4870  0.2103 -0.6516
  826MPD2    C212201   2.325   3.524  13.310 -0.2722 -0.5214  0.9312
  826MPD2    C312202   2.193   3.529  13.356 -0.1135  0.0387  0.3679
  826MPD2    C412203   2.112   3.421  13.349  0.8719  0.4673  0.0949
  826MPD2    C512204   2.151   3.308  13.279 -0.0792  0.0631 -0.3009
  826MPD2     H12205   2.394   3.608  13.310  1.2997 -1.8014  1.5214
  826MPD2    H112206   2.008   3.425  13.379  1.2456  3.1997  1.0120
  826MPD2    H212207   2.317   3.221  13.191 -0.8183 -1.8817  0.9220
  826MPD2    H312208   2.086   3.226  13.250  0.0156 -0.9252  2.3055
  826MPD2     N12209   2.138   3.644  13.414  0.0772  0.5616 -0.2677
  826MPD2    H512210   2.041   3.644  13.443  0.0185 -2.5851 -0.4651
  826MPD2    N112211   2.497   3.387  13.201 -0.9559 -0.4935 -0.4287
  826MPD2    H712212   2.518   3.291  13.177  0.3465  0.0398 -1.4502
  827MPD2     C12213   3.055   4.737  10.110 -0.4153  1.0031 -0.8471
  827MPD2    C112214   3.074   4.652  10.219  0.4767  0.4304 -0.7916
  827MPD2    C212215   3.023   4.526  10.204 -0.7306  0.5114 -0.6059
  827MPD2    C312216   2.964   4.480  10.092 -0.2100  0.8222 -0.3356
  827MPD2    C412217   2.952   4.570   9.983 -0.7808  0.2622  0.4479
  827MPD2    C512218   3.003   4.697   9.997  0.2287 -0.0783 -0.9960
  827MPD2     H12219   3.027   4.457  10.287 -0.7235  0.1452 -0.9142
  827MPD2    H112220   2.902   4.550   9.888 -0.1959 -0.8855  0.3825
  827MPD2    H212221   3.076   0.103  10.114  2.9929  0.3033  0.4759
  827MPD2    H312222   2.985   0.016   9.908 -0.8106 -1.5868 -1.7903
  827MPD2     N12223   2.922   4.345  10.086  0.6476  0.1809  0.6746
  827MPD2    H512224   2.944   4.275  10.156  0.5136 -2.3896 -1.8791
  827MPD2    N112225   3.130   4.697  10.342 -0.5973 -0.1216  0.5651
  827MPD2    H712226   3.188   0.039  10.340 -0.5080 -0.2097 -0.4648
  828MPD2     C12227   1.771   4.623  12.188 -0.0673 -0.1228 -0.1070
  828MPD2    C112228   1.732   0.001  12.125  0.5796  0.6742 -0.4139
  828MPD2    C212229   1.781   0.031  12.000 -0.0053 -0.2425 -0.0632
  828MPD2    C312230   1.840   4.679  11.920 -0.3560  0.3426  0.3156
  828MPD2    C412231   1.882   4.566  11.975  0.2279 -0.5243  0.6728
  828MPD2    C512232   1.850   4.544  12.105  0.7704  0.1508  0.1064
  828MPD2     H12233   1.740   0.124  11.962 -0.1510 -0.3540 -0.1802
  828MPD2    H112234   1.938   4.489  11.922 -0.6520 -0.4384 -0.3826
  828MPD2    H212235   1.754   4.596  12.291  2.0501  0.5372  0.4045
  828MPD2    H312236   1.897   4.452  12.140 -1.2326 -1.1424 -0.6254
  828MPD2     N12237   1.849   4.698  11.779  0.1848  0.0174 -0.2433
  828MPD2    H512238   1.891   4.623  11.726 -0.2770 -1.2161  1.1481
  828MPD2    N112239   1.657   0.095  12.194 -0.0048 -0.0356  0.1460
  828MPD2    H712240   1.646   0.187  12.152  2.1141 -0.7226 -1.8884
  829MPD2     C12241   1.077   0.464  11.763 -0.1537 -0.1364 -0.4279
  829MPD2    C112242   1.028   0.432  11.886 -0.0579 -0.3173 -0.2566
  829MPD2    C212243   1.114   0.430  11.998  0.2157  0.3562 -0.3365
  829MPD2    C312244   1.247   0.467  11.988  0.5981 -0.2161 -0.1628
  829MPD2    C412245   1.296   0.496  11.865 -0.0516  0.1157  1.3101
  829MPD2    C512246   1.213   0.490  11.760 -0.0030 -0.2164 -0.1769
  829MPD2     H12247   1.080   0.415  12.100 -0.2882 -0.7096 -0.6550
  829MPD2    H112248   1.404   0.502  11.854 -0.0861 -1.1859  0.2916
  829MPD2    H212249   1.008   0.470  11.680  0.4651  1.3838 -0.8299
  829MPD2    H312250   1.253   0.499  11.660  2.2873  0.4050  0.7918
  829MPD2     N12251   1.334   0.435  12.093  0.1440  0.5740  0.4399
  829MPD2    H512252   1.433   0.440  12.072  0.3089 -0.4088  0.9460
  829MPD2    N112253   0.886   0.406  11.893 -0.2442  0.3860 -0.3938
  829MPD2    H712254   0.829   0.404  11.808 -0.6699  3.1312 -0.1656
  830MPD2     C12255   2.037   2.789  15.650  0.5236  0.6798  0.0157
  830MPD2    C112256   1.939   2.830  15.567 -0.0817  0.2784 -0.0084
  830MPD2    C212257   1.976   2.874  15.444  0.2915 -0.1179  0.3223
  830MPD2    C312258   2.109   2.876  15.402  0.5381 -0.4197 -0.0854
  830MPD2    C412259   2.202   2.821  15.493 -0.3630  0.3050  0.8788
  830MPD2    C512260   2.170   2.776  15.619 -0.7210 -0.2105 -0.3256
  830MPD2     H12261   1.901   2.918  15.380  0.8493 -0.0902 -0.3054
  830MPD2    H112262   2.304   2.811  15.458  0.0186 -1.5642  2.5610
  830MPD2    H212263   2.021   2.752  15.750 -3.4164 -1.0681 -1.2563
  830MPD2    H312264   2.232   2.736  15.698 -1.9063 -0.8489  0.2880
  830MPD2     N12265   2.160   2.941  15.287  0.3883 -1.0120 -0.2083
  830MPD2    H512266   2.259   2.930  15.269  0.5677 -2.4073  1.5937
  830MPD2    N112267   1.807   2.848  15.627 -0.2717 -0.3368 -0.0626
  830MPD2    H712268   1.795   2.820  15.723  0.2423  0.9019  0.3586
  831MPD2     C12269   2.083   4.621  16.390  0.6711  0.7184  0.5927
  831MPD2    C112270   2.122   4.514  16.321 -0.3840 -0.2168  0.4433
  831MPD2    C212271   2.073   4.391  16.358  0.4791 -0.5516 -0.3927
  831MPD2    C312272   1.977   4.374  16.458  0.1568  0.5151 -0.3187
  831MPD2    C412273   1.944   4.484  16.531 -0.4139 -0.9006  0.1937
  831MPD2    C512274   2.003   4.606  16.501 -0.2728 -0.0808 -0.2012
  831MPD2     H12275   2.100   4.295  16.318 -1.4471 -0.9127 -0.8346
  831MPD2    H112276   1.874   4.486  16.614  0.3196 -0.4012  0.7938
  831MPD2    H212277   2.110   4.725  16.370  1.1218  0.0178 -2.4825
  831MPD2    H312278   1.978   4.695  16.558  1.1783  0.1435  0.0771
  831MPD2     N12279   1.894   4.259  16.480 -0.1423 -0.3108 -0.3138
  831MPD2    H512280   1.822   4.265  16.551  0.7817  0.9981  0.4963
  831MPD2    N112281   2.203   4.535  16.205  0.7436 -0.4854  0.2049
  831MPD2    H712282   2.217   4.627  16.165 -0.6164 -0.7126 -0.7918
  832MPD2     C12283   0.323   0.724  16.753 -0.1231  0.0718  0.1273
  832MPD2    C112284   0.296   0.825  16.848  0.5516 -0.3411  0.5338
  832MPD2    C212285   0.190   0.907  16.832 -0.1717  0.2226  0.2960
  832MPD2    C312286   0.105   0.888  16.724  1.1673  0.5619 -0.7141
  832MPD2    C412287   0.134   0.791  16.633 -0.3031 -0.4770  1.3978
  832MPD2    C512288   0.241   0.709  16.649  0.6433  0.2495 -0.3363
  832MPD2     H12289   0.166   0.970  16.917  1.7542 -1.0937  1.8006
  832MPD2    H112290   0.071   0.771  16.547  0.5957 -0.1026  0.6592
  832MPD2    H212291   0.410   0.660  16.758  0.3232  0.4665 -2.3770
  832MPD2    H312292   0.255   0.620  16.590 -0.0985  0.7360 -1.2418
  832MPD2     N12293   4.723   0.953  16.709  0.7339 -0.1169 -0.1930
  832MPD2    H512294   4.668   0.929  16.627 -1.1143  1.2848  0.6220
  832MPD2    N112295   0.379   0.841  16.961  0.1269  0.0625  0.6124
  832MPD2    H712296   0.414   0.754  16.999 -0.3625  0.0396  1.0150
  833MPD2     C12297   2.123   2.457  12.395  0.2030 -0.4526 -0.2771
  833MPD2    C112298   2.122   2.545  12.284  0.1875 -1.1472 -0.0710
  833MPD2    C212299   2.149   2.485  12.161  0.3812 -0.3917 -0.4051
  833MPD2    C312300   2.161   2.344  12.151  0.0130 -0.0263 -0.5800
  833MPD2    C412301   2.164   2.264  12.264  0.3402 -0.2192 -1.1294
  833MPD2    C512302   2.156   2.326  12.387 -0.2484  0.3441  0.8428
  833MPD2     H12303   2.157   2.544  12.071  1.2887 -0.1360 -0.1584
  833MPD2    H112304   2.173   2.156  12.275  1.3027  0.0205  0.5077
  833MPD2    H212305   2.110   2.492  12.497  0.7038 -1.2403  0.0662
  833MPD2    H312306   2.169   2.275  12.482  1.9454 -0.6623 -0.0089
  833MPD2     N12307   2.158   2.272  12.031  0.5497  0.0242  0.0415
  833MPD2    H512308   2.174   2.171  12.034 -0.3469 -0.1235 -0.3120
  833MPD2    N112309   2.105   2.682  12.313  0.1799  0.3346  1.1533
  833MPD2    H712310   2.082   2.707  12.408  3.3225  0.7970  1.7930
  834MPD2     C12311   1.526   1.819  11.464 -0.3294 -0.0829 -0.1495
  834MPD2    C112312   1.630   1.820  11.376  0.1468  0.3778 -0.1480
  834MPD2    C212313   1.747   1.868  11.431 -1.4288  0.4846  0.9969
  834MPD2    C312314   1.750   1.922  11.557  0.4594  0.0851  0.3758
  834MPD2    C412315   1.641   1.912  11.643 -0.2373 -0.4492 -0.8651
  834MPD2    C512316   1.526   1.854  11.596 -0.0766 -0.3235  0.9780
  834MPD2     H12317   1.835   1.874  11.368  0.8345  0.2637  4.1943
  834MPD2    H112318   1.642   1.940  11.747  2.1093 -0.2575 -0.9214
  834MPD2    H212319   1.434   1.764  11.449  0.5307 -1.0658 -1.8777
  834MPD2    H312320   1.446   1.832  11.667  0.2596 -0.8486  1.1913
  834MPD2     N12321   1.866   1.999  11.585 -0.2265  0.3302  0.6380
  834MPD2    H512322   1.947   2.005  11.524 -0.4725  0.6712  0.3498
  834MPD2    N112323   1.619   1.764  11.244 -0.1549  0.0114  0.5790
  834MPD2    H712324   1.524   1.734  11.221  0.1996 -1.1814  0.6806
  835MPD2     C12325   1.909   0.430  10.741  0.3649  0.1766 -0.9442
  835MPD2    C112326   1.841   0.326  10.799 -0.9220  0.4339 -0.2808
  835MPD2    C212327   1.911   0.221  10.860  0.0604  0.2280 -0.6718
  835MPD2    C312328   2.046   0.239  10.874 -0.2610  0.3263 -1.0672
  835MPD2    C412329   2.113   0.334  10.798  0.5590 -0.6660 -0.0283
  835MPD2    C512330   2.042   0.430  10.738  0.3218  0.2933 -0.1812
  835MPD2     H12331   1.855   0.139  10.903  0.6759 -1.5311 -3.2364
  835MPD2    H112332   2.221   0.342  10.806  0.3520  1.2147  0.8600
  835MPD2    H212333   1.862   0.516  10.695 -0.3949  1.1522  1.6980
  835MPD2    H312334   2.107   0.493  10.678 -0.6748  1.1984 -0.3046
  835MPD2     N12335   2.123   0.170  10.976  0.5515  0.4865 -0.5248
  835MPD2    H512336   2.223   0.182  10.985  0.9065 -1.5592 -1.7455
  835MPD2    N112337   1.701   0.322  10.797 -0.3084 -0.9801 -0.2991
  835MPD2    H712338   1.652   0.236  10.817 -0.1024 -0.9023  0.5649
  836MPD2     C12339   1.894   0.500  11.485  0.3060 -0.3514  0.0759
  836MPD2    C112340   1.969   0.407  11.551  0.2704 -0.1541  0.0023
  836MPD2    C212341   1.958   0.400  11.685  0.8643  0.6301 -0.1229
  836MPD2    C312342   1.883   0.497  11.763  1.0125  0.8439 -0.3490
  836MPD2    C412343   1.820   0.593  11.690  0.7487 -0.6218  0.7374
  836MPD2    C512344   1.812   0.592  11.554  0.5397 -0.2680 -0.1331
  836MPD2     H12345   2.019   0.334  11.747  2.6537  0.6150 -1.8957
  836MPD2    H112346   1.771   0.672  11.746  0.6203 -1.1413  1.3609
  836MPD2    H212347   1.895   0.501  11.377 -1.0028 -0.7383  0.0586
  836MPD2    H312348   1.751   0.663  11.499  2.6091  0.1476 -1.8746
  836MPD2     N12349   1.885   0.508  11.900  0.9234 -0.4960 -0.0999
  836MPD2    H512350   1.839   0.586  11.946  1.7959 -0.4011  0.6077
  836MPD2    N112351   2.041   0.317  11.474  0.2340  0.5613  0.2653
  836MPD2    H712352   2.033   0.335  11.374 -0.4968  1.0612  0.4134
  837MPD2     C12353   0.392   4.512  10.360 -0.2124 -0.0373  0.6758
  837MPD2    C112354   0.303   4.550  10.254 -0.2745 -0.0639  0.0732
  837MPD2    C212355   0.241   4.674  10.257 -0.1266 -0.0800  0.7122
  837MPD2    C312356   0.240   0.014  10.364 -0.1218 -0.0362 -0.5525
  837MPD2    C412357   0.332   4.718  10.466  0.0973 -1.0123  0.7061
  837MPD2    C512358   0.405   4.600  10.460  0.5651 -0.7597  0.4476
  837MPD2     H12359   0.179   4.714  10.177  4.3468  2.0850 -1.6633
  837MPD2    H112360   0.338   0.039  10.556  1.7275  0.2524 -0.2559
  837MPD2    H212361   0.459   4.428  10.346  0.0428  0.2003  0.4672
  837MPD2    H312362   0.479   4.594  10.539  2.0574 -2.5036 -1.0715
  837MPD2     N12363   0.175   0.139  10.366 -0.0618 -0.3171 -0.3827
  837MPD2    H512364   0.115   0.171  10.290 -1.3889 -1.6174  0.1226
  837MPD2    N112365   0.285   4.479  10.130 -0.5461 -0.4686  0.2174
  837MPD2    H712366   0.248   4.535  10.054 -2.4275 -0.2481  1.2897
  838MPD2     C12367   3.799   3.069  11.499  0.3429  0.2359 -0.2577
  838MPD2    C112368   3.696   2.984  11.469 -0.3796 -0.2846 -0.0985
  838MPD2    C212369   3.668   2.876  11.554 -0.2280  0.2178 -0.2750
  838MPD2    C312370   3.734   2.864  11.675 -0.2866 -0.4615 -0.3730
  838MPD2    C412371   3.826   2.961  11.701  0.9855  0.4901  0.7540
  838MPD2    C512372   3.865   3.054  11.606 -0.0711 -0.0500  0.9910
  838MPD2     H12373   3.579   2.820  11.531 -0.6655  1.0378 -0.5987
  838MPD2    H112374   3.880   2.963  11.795  0.6986 -2.9254  0.9976
  838MPD2    H212375   3.832   3.150  11.434  0.6015 -1.3283 -2.0711
  838MPD2    H312376   3.948   3.122  11.619  0.0111  0.1850 -0.6764
  838MPD2     N12377   3.707   2.758  11.762 -0.1732 -0.3409 -0.2155
  838MPD2    H512378   3.750   2.770  11.853 -0.1514  0.6681 -0.3661
  838MPD2    N112379   3.618   3.006  11.358  0.1532  0.3063 -0.6408
  838MPD2    H712380   3.544   2.940  11.336 -0.1012 -0.2865  1.9402
  839MPD2     C12381   2.999   2.512  11.182 -0.2229 -0.3013  0.7660
  839MPD2    C112382   3.092   2.478  11.086  0.5244  0.5897  0.4499
  839MPD2    C212383   3.186   2.568  11.049  0.1915  0.5669 -0.3747
  839MPD2    C312384   3.198   2.683  11.123  0.3432 -0.1888 -0.0758
  839MPD2    C412385   3.101   2.724  11.208  0.0465  0.5603  0.1136
  839MPD2    C512386   3.002   2.632  11.238 -0.0743  0.1693 -0.6000
  839MPD2     H12387   3.266   2.540  10.982  0.6932 -1.1807  0.9659
  839MPD2    H112388   3.099   2.819  11.260  1.9017  1.1014 -0.8399
  839MPD2    H212389   2.938   2.433  11.224 -0.5373 -0.4465  0.0421
  839MPD2    H312390   2.940   2.649  11.326 -0.0710  2.5560 -1.0633
  839MPD2     N12391   3.299   2.775  11.098  0.6958  0.2208  0.0991
  839MPD2    H512392   3.313   2.848  11.167  0.4804  1.8825 -1.6240
  839MPD2    N112393   3.101   2.346  11.033  0.4508 -0.1138  0.2170
  839MPD2    H712394   3.183   2.321  10.978  0.4830  3.5009 -1.3539
  840MPD2     C12395   3.649   0.224  10.335  0.4462  0.1002 -0.2247
  840MPD2    C112396   3.633   0.205  10.469 -0.1638 -0.0701  0.1208
  840MPD2    C212397   3.708   0.277  10.559  0.0125 -0.4344 -0.4500
  840MPD2    C312398   3.794   0.381  10.515 -0.0613 -0.6000 -0.6002
  840MPD2    C412399   3.815   0.392  10.379 -0.1417 -0.6765 -0.5659
  840MPD2    C512400   3.743   0.313  10.295  0.4882  0.2526 -1.2328
  840MPD2     H12401   3.690   0.267  10.665  2.8887 -3.1145 -0.2267
  840MPD2    H112402   3.867   0.475  10.332  0.3710 -0.0256  1.1530
  840MPD2    H212403   3.599   0.158  10.264 -0.6045  0.9947 -0.3194
  840MPD2    H312404   3.753   0.318  10.188 -1.1643  3.0364 -1.2459
  840MPD2     N12405   3.873   0.470  10.596 -0.2208 -0.1627  0.6580
  840MPD2    H512406   3.946   0.527  10.553 -1.1942  2.2012  2.1702
  840MPD2    N112407   3.537   0.103  10.504 -0.2874 -0.0872 -0.2884
  840MPD2    H712408   3.470   0.066  10.438  0.8481 -0.8020 -1.0532
  841MPD2     C12409   3.431   0.103  14.917 -0.3918  1.4939  0.7138
  841MPD2    C112410   3.423   0.082  14.780 -0.1108  0.9245 -0.9982
  841MPD2    C212411   3.441   0.189  14.689 -0.6862 -0.2014  1.0612
  841MPD2    C312412   3.471   0.315  14.723  0.1790  0.2966  1.0471
  841MPD2    C412413   3.476   0.336  14.862 -0.0772  0.3974  0.5520
  841MPD2    C512414   3.462   0.232  14.952 -0.3124 -0.1353 -0.1624
  841MPD2     H12415   3.438   0.166  14.583 -0.7322  0.5347  0.8983
  841MPD2    H112416   3.499   0.435  14.898 -0.5677  0.5532  0.4385
  841MPD2    H212417   3.415   0.029  14.995 -1.3624  2.2402  1.2305
  841MPD2    H312418   3.470   0.262  15.055 -0.2616 -0.9193  0.0634
  841MPD2     N12419   3.482   0.417  14.623 -0.8290 -0.6502 -0.1197
  841MPD2    H512420   3.464   0.395  14.526 -1.0736 -1.9258  0.2137
  841MPD2    N112421   3.397   4.691  14.731  0.2296 -0.2301 -0.3598
  841MPD2    H712422   3.387   4.678  14.631  0.3854  1.1862 -0.5619
  842MPD2     C12423   4.430   1.626  16.686 -0.4091 -0.3022  0.0345
  842MPD2    C112424   4.312   1.563  16.650 -0.9892  0.2617 -0.5541
  842MPD2    C212425   4.248   1.482  16.744 -0.8166  0.1683 -0.8146
  842MPD2    C312426   4.293   1.484  16.871 -0.2641  0.0637 -0.2542
  842MPD2    C412427   4.405   1.552  16.902 -0.5764 -0.3439 -0.0202
  842MPD2    C512428   4.479   1.619  16.813  0.0095  0.0172 -0.0364
  842MPD2     H12429   4.149   1.443  16.724 -0.0952 -1.8344 -0.4767
  842MPD2    H112430   4.446   1.543  17.001 -1.6871  2.5380  0.7244
  842MPD2    H212431   4.490   1.680  16.614  0.4534  1.1688  1.8534
  842MPD2    H312432   4.573   1.667  16.839 -1.0561  1.3255  1.4148
  842MPD2     N12433   4.231   1.419  16.985  0.1157 -0.0748  0.6370
  842MPD2    H512434   4.267   1.439  17.077  1.2684  1.5216 -0.1539
  842MPD2    N112435   4.270   1.580  16.518 -0.7871  0.8023 -0.1695
  842MPD2    H712436   4.324   1.646  16.463  1.7812 -2.0581 -1.1031
  843MPD2     C12437   1.846   2.543   0.457  0.4776 -0.2064  0.1208
  843MPD2    C112438   1.789   2.589   0.342  0.2531 -0.6181 -0.0004
  843MPD2    C212439   1.861   2.686   0.271 -0.2478  0.0998 -0.2850
  843MPD2    C312440   1.991   2.718   0.303 -0.0753  0.1180 -0.0364
  843MPD2    C412441   2.047   2.659   0.419 -0.1246 -0.0526  0.9470
  843MPD2    C512442   1.977   2.575   0.494 -0.3212 -0.0553 -0.1555
  843MPD2     H12443   1.811   2.745   0.195  0.2756  1.8616  0.7412
  843MPD2    H112444   2.151   2.666   0.449  0.3574 -3.2581  0.1134
  843MPD2    H212445   1.806   2.464   0.519 -1.0068 -0.6227 -1.3834
  843MPD2    H312446   2.023   2.520   0.575  1.2597  2.1779  0.4500
  843MPD2     N12447   2.071   2.810   0.232  0.3514  0.4738  0.0285
  843MPD2    H512448   2.164   2.830   0.268  0.3723  0.3068  0.0661
  843MPD2    N112449   1.655   2.555   0.316 -0.2076  0.2023 -0.5929
  843MPD2    H712450   1.611   2.495   0.385  0.4550  1.3339  0.7953
  844MPD2     C12451   0.000   1.166  16.205  0.2369  0.4772  0.0334
  844MPD2    C112452   4.724   1.060  16.290  0.5260  0.9927 -0.3193
  844MPD2    C212453   0.084   1.025  16.379 -0.0364  0.2545  0.9799
  844MPD2    C312454   0.197   1.102  16.389 -0.1491  0.2764 -0.1577
  844MPD2    C412455   0.220   1.212  16.306  0.3640 -0.3966 -0.7915
  844MPD2    C512456   0.117   1.242  16.219  0.2678  0.2279  0.2157
  844MPD2     H12457   0.066   0.948  16.454 -0.2662  0.3375  1.0093
  844MPD2    H112458   0.316   1.260  16.292  0.0170  0.0863 -1.4775
  844MPD2    H212459   4.667   1.208  16.137  0.0786 -3.3534 -2.1159
  844MPD2    H312460   0.130   1.330  16.157 -0.5510  0.0403 -0.2264
  844MPD2     N12461   0.280   1.065  16.499  0.0087  0.1032 -0.1067
  844MPD2    H512462   0.257   0.986  16.559 -1.5443  0.1692 -0.6152
  844MPD2    N112463   4.594   1.004  16.298 -0.2700 -0.4273  0.2462
  844MPD2    H712464   4.527   1.037  16.229  0.8014  3.6230  1.1775
  845MPD2     C12465   0.592   1.762  17.093  0.2464 -0.1710 -0.3948
  845MPD2    C112466   0.508   1.737  16.987  0.3164 -0.4365 -0.1119
  845MPD2    C212467   0.501   1.613  16.934  0.3869 -0.1688  0.1114
  845MPD2    C312468   0.585   1.511  16.971 -0.5395  0.2438  0.2891
  845MPD2    C412469   0.680   1.538  17.065 -0.3359  0.3739  1.0655
  845MPD2    C512470   0.678   1.662  17.115 -0.3848 -0.6664  0.2247
  845MPD2     H12471   0.437   1.581  16.852 -0.4519  2.6288 -0.3514
  845MPD2    H112472   0.743   1.460  17.105  3.5384  2.6081 -0.6630
  845MPD2    H212473   0.606   1.853  17.150 -1.5893  1.0073 -1.8503
  845MPD2    H312474   0.756   1.690  17.184 -0.1393  1.4249 -0.9115
  845MPD2     N12475   0.563   1.385  16.897  0.0550 -0.1593  0.1122
  845MPD2    H512476   0.502   1.397  16.818  1.0706  1.0533 -0.5032
  845MPD2    N112477   0.420   1.833  16.934  0.0530  0.2102 -0.1186
  845MPD2    H712478   0.361   1.806  16.856  0.0453 -0.2340  0.0398
  846MPD2     C12479   1.834   1.948  13.574 -0.1295  0.2886 -0.2257
  846MPD2    C112480   1.762   2.068  13.589  0.3464 -0.0132  0.0718
  846MPD2    C212481   1.723   2.110  13.713  0.0006  0.6977  0.5741
  846MPD2    C312482   1.730   2.021  13.822  0.0437  0.2580 -0.1946
  846MPD2    C412483   1.786   1.896  13.802  0.4814 -0.0156 -0.6718
  846MPD2    C512484   1.842   1.869  13.681  0.2654  0.1770 -0.4402
  846MPD2     H12485   1.674   2.206  13.724 -0.3160  0.3992  1.8093
  846MPD2    H112486   1.797   1.819  13.877 -2.3785  1.8785  1.7037
  846MPD2    H212487   1.881   1.902  13.489  2.8503  0.8329  1.1049
  846MPD2    H312488   1.896   1.776  13.667 -0.6811 -0.0889 -2.3647
  846MPD2     N12489   1.668   2.049  13.943 -0.3992  0.1749  0.4179
  846MPD2    H512490   1.611   2.132  13.957  0.6593  1.2065 -1.2985
  846MPD2    N112491   1.749   2.151  13.478 -0.5096 -0.1561  0.4244
  846MPD2    H712492   1.707   2.240  13.503  1.6359  1.7324 -2.8034
  847MPD2     C12493   2.089   3.207  13.641  0.1087  0.0557 -0.2166
  847MPD2    C112494   2.106   3.203  13.775  0.1695 -0.3419 -0.0948
  847MPD2    C212495   2.167   3.092  13.830  0.0017  0.3704 -0.3051
  847MPD2    C312496   2.188   2.975  13.767 -0.2077  0.6203  0.5989
  847MPD2    C412497   2.140   2.964  13.642  0.0409 -0.4025  0.5417
  847MPD2    C512498   2.097   3.081  13.574  0.6903 -0.9716  0.2890
  847MPD2     H12499   2.191   3.089  13.935  1.0652 -2.6816 -0.6355
  847MPD2    H112500   2.151   2.873  13.584  2.2865  0.4474 -0.3572
  847MPD2    H212501   2.054   3.293  13.585  0.6857 -1.0933 -2.3274
  847MPD2    H312502   2.079   3.077  13.467  1.6969 -3.3284  0.2054
  847MPD2     N12503   2.244   2.875  13.855  0.0176 -0.5375 -0.5266
  847MPD2    H512504   2.266   2.893  13.953 -1.8478  2.2418 -0.6227
  847MPD2    N112505   2.073   3.309  13.858  0.3748  0.5595  0.6184
  847MPD2    H712506   2.068   3.293  13.958 -0.4238 -1.5753  0.2395
  848MPD2     C12507   4.204   1.189  16.225  0.3279  0.2102 -0.0444
  848MPD2    C112508   4.320   1.232  16.288 -0.0023 -0.0957  0.2697
  848MPD2    C212509   4.403   1.314  16.216  0.0445  0.2180  0.3358
  848MPD2    C312510   4.385   1.343  16.079 -0.2548  0.7147 -0.3056
  848MPD2    C412511   4.279   1.281  16.018 -0.2138 -0.2249  1.1716
  848MPD2    C512512   4.185   1.208  16.094  0.3683  0.0687  0.3096
  848MPD2     H12513   4.487   1.347  16.277 -0.3193  1.6088  0.0638
  848MPD2    H112514   4.273   1.277  15.910 -0.8444 -2.9003  1.3066
  848MPD2    H212515   4.120   1.139  16.273  0.7995  1.7096  2.3785
  848MPD2    H312516   4.112   1.157  16.034  0.1021 -1.6667  2.0936
  848MPD2     N12517   4.473   1.410  15.996 -0.5528  0.2705  0.3377
  848MPD2    H512518   4.452   1.409  15.897 -1.9896  0.5445  0.6421
  848MPD2    N112519   4.348   1.208  16.424 -0.0579  0.7274 -0.0900
  848MPD2    H712520   4.428   1.254  16.466  0.5492  0.4644 -0.9603
  849MPD2     C12521   3.790   1.140  13.432  0.2864  0.1690  0.2645
  849MPD2    C112522   3.894   1.078  13.505  0.0405  0.2451 -0.6792
  849MPD2    C212523   3.960   1.155  13.599  0.3464  0.6775 -0.5372
  849MPD2    C312524   3.911   1.275  13.645 -0.6499 -1.3670 -0.0752
  849MPD2    C412525   3.804   1.330  13.569 -0.4318 -0.5454 -1.0696
  849MPD2    C512526   3.747   1.263  13.471 -0.4732 -0.0243 -0.0335
  849MPD2     H12527   4.038   1.107  13.656  1.0030  1.3299 -0.8982
  849MPD2    H112528   3.766   1.432  13.577  1.7337  0.2495 -0.9802
  849MPD2    H212529   3.749   1.088  13.346  0.8087 -0.2859  0.2917
  849MPD2    H312530   3.657   1.285  13.415  0.6494  1.4790 -1.2405
  849MPD2     N12531   3.960   1.347  13.761 -0.0767  0.1148 -0.2720
  849MPD2    H512532   3.919   1.437  13.784  0.1844  0.0379  0.5074
  849MPD2    N112533   3.925   0.949  13.463 -0.3099  0.3285  0.8034
  849MPD2    H712534   3.869   0.904  13.391 -0.7337  0.7759  0.8528
  850MPD2     C12535   1.542   3.747  14.592 -0.6543  0.0523  0.3881
  850MPD2    C112536   1.544   3.829  14.700  0.4170 -0.4330 -0.3902
  850MPD2    C212537   1.667   3.856  14.750 -0.0657  0.1134 -0.2839
  850MPD2    C312538   1.778   3.795  14.697 -1.2613 -0.2546  0.5228
  850MPD2    C412539   1.770   3.718  14.586 -0.7353  0.7029  0.8899
  850MPD2    C512540   1.652   3.701  14.529 -0.0587  0.4572 -0.1470
  850MPD2     H12541   1.677   3.927  14.831  3.1894  0.3518 -0.8960
  850MPD2    H112542   1.851   3.668  14.535 -1.2371  0.4507  0.3520
  850MPD2    H212543   1.457   3.714  14.532  0.9918 -1.7404 -0.9538
  850MPD2    H312544   1.641   3.650  14.434  1.1535 -0.3000  0.1125
  850MPD2     N12545   1.904   3.801  14.761  0.8352 -0.1854 -0.2453
  850MPD2    H512546   1.976   3.760  14.702  0.7135 -1.8859  0.7800
  850MPD2    N112547   1.418   3.880  14.744  0.3842  0.4090  0.4457
  850MPD2    H712548   1.345   3.868  14.674  0.7050 -0.0429  0.1892
  851MPD2     C12549   1.984   3.791  15.366  0.0841  0.0595 -0.3333
  851MPD2    C112550   1.912   3.715  15.277 -0.1961  0.3194 -0.2847
  851MPD2    C212551   1.974   3.611  15.208  0.0780 -0.0580  0.4731
  851MPD2    C312552   2.100   3.577  15.245  0.1545  0.9542  0.4715
  851MPD2    C412553   2.165   3.639  15.344  0.2806  0.3460  0.6160
  851MPD2    C512554   2.106   3.747  15.403 -0.4805  0.2067  0.6756
  851MPD2     H12555   1.927   3.543  15.137  0.4242 -0.0190  0.2036
  851MPD2    H112556   2.268   3.614  15.364 -0.0104  0.1239  1.8241
  851MPD2    H212557   1.944   3.884  15.406  3.5377  1.2729  0.3476
  851MPD2    H312558   2.158   3.807  15.476 -2.9124  1.4203  1.4177
  851MPD2     N12559   2.159   3.478  15.165 -0.0931  0.3279 -0.0774
  851MPD2    H512560   2.104   3.450  15.084 -0.5960 -1.4452  0.8756
  851MPD2    N112561   1.782   3.759  15.245  0.2705  0.0539  0.8093
  851MPD2    H712562   1.765   3.853  15.279 -0.2917  1.0238 -2.1520
  852MPD2     C12563   0.676   1.643  10.080 -0.3142 -0.3318  0.4771
  852MPD2    C112564   0.769   1.694  10.176  0.6971 -0.4282  0.0750
  852MPD2    C212565   0.877   1.769  10.141 -0.0877 -0.2220 -0.2110
  852MPD2    C312566   0.888   1.802  10.008 -0.0463  0.3006  0.0250
  852MPD2    C412567   0.797   1.755   9.915  1.5148 -0.5882  0.5920
  852MPD2    C512568   0.698   1.670   9.951 -0.0685  0.4636 -0.4700
  852MPD2     H12569   0.951   1.796  10.216 -0.5503 -1.0679  0.5509
  852MPD2    H112570   0.810   1.785   9.812 -1.0295 -0.3912  0.3228
  852MPD2    H212571   0.589   1.578  10.088 -0.2289 -0.8079 -2.5484
  852MPD2    H312572   0.626   1.634   9.879 -0.4754  2.0734 -0.8459
  852MPD2     N12573   0.992   1.893   9.975 -0.3224  0.2256 -0.0594
  852MPD2    H512574   1.050   1.925  10.052 -1.7401  2.2316  0.1934
  852MPD2    N112575   0.762   1.648  10.310  0.3006 -0.2388 -0.0712
  852MPD2    H712576   0.852   1.655  10.356  0.1559 -0.8546  0.2979
  853MPD2     C12577   2.638   1.134  12.444 -0.1367  0.6726  0.3827
  853MPD2    C112578   2.704   1.251  12.416 -0.2120  0.5384  0.2730
  853MPD2    C212579   2.745   1.263  12.287 -0.1848  0.1505  0.3476
  853MPD2    C312580   2.715   1.164  12.188 -0.5296 -0.0056 -0.0763
  853MPD2    C412581   2.638   1.056  12.225  0.9019  0.2714  0.5330
  853MPD2    C512582   2.606   1.039  12.352 -0.6339 -0.4615  0.1684
  853MPD2     H12583   2.810   1.347  12.265 -1.1739  0.3198 -1.9417
  853MPD2    H112584   2.612   0.978  12.155 -4.2567  2.4078  0.0184
  853MPD2    H212585   2.625   1.121  12.551  4.0548  0.9987  0.9539
  853MPD2    H312586   2.554   0.947  12.376 -2.9414  0.1736 -2.3794
  853MPD2     N12587   2.759   1.178  12.061  0.7293  0.7200 -0.0330
  853MPD2    H512588   2.826   1.252  12.043 -0.3202  0.5355 -4.8030
  853MPD2    N112589   2.745   1.337  12.523  0.4282 -0.4711  0.7813
  853MPD2    H712590   2.714   1.313  12.617  1.0757  1.0298  1.3853
  854MPD2     C12591   0.101   1.946  12.322  0.0011 -0.3868  0.4025
  854MPD2    C112592   0.124   1.834  12.246  0.5877  0.1315 -0.8588
  854MPD2    C212593   0.114   1.706  12.305  0.8917  0.1806 -0.1224
  854MPD2    C312594   0.085   1.695  12.441 -0.1382 -0.4080  0.0016
  854MPD2    C412595   0.061   1.809  12.516 -0.0638 -0.3989 -0.0453
  854MPD2    C512596   0.068   1.930  12.452 -0.1903 -0.6460 -0.0128
  854MPD2     H12597   0.131   1.622  12.238  0.6705  0.1804 -0.1778
  854MPD2    H112598   0.038   1.817  12.622  1.4963  0.7776  0.2052
  854MPD2    H212599   0.102   2.047  12.281 -0.1177 -1.1633 -1.5194
  854MPD2    H312600   0.042   2.022  12.505  0.7512  0.1392 -0.9158
  854MPD2     N12601   0.070   1.573  12.514  0.2399 -0.3741 -0.5247
  854MPD2    H512602   0.059   1.578  12.615  2.9008  1.2863 -0.3164
  854MPD2    N112603   0.160   1.865  12.109  0.4723 -0.0313  0.6217
  854MPD2    H712604   0.144   1.960  12.076 -1.2178 -0.0508  1.3772
  855MPD2     C12605   0.537   1.451  13.201 -0.5691  0.5715  0.3199
  855MPD2    C112606   0.515   1.314  13.176 -0.1747  0.0614 -0.0804
  855MPD2    C212607   0.451   1.281  13.056  0.4196  0.2367 -0.1239
  855MPD2    C312608   0.431   1.386  12.966 -0.3682 -0.3736 -1.0437
  855MPD2    C412609   0.467   1.516  12.993  0.4285  0.1153 -0.0573
  855MPD2    C512610   0.519   1.551  13.114 -0.8195 -0.2132  0.0234
  855MPD2     H12611   0.401   1.187  13.038  3.2155 -1.7309  2.5471
  855MPD2    H112612   0.453   1.598  12.923 -0.5073 -0.1395 -0.1577
  855MPD2    H212613   0.567   1.480  13.301 -0.8749  0.1071  0.5456
  855MPD2    H312614   0.534   1.654  13.146  0.1420  0.0005 -1.1423
  855MPD2     N12615   0.362   1.361  12.842 -0.0664  0.1315  0.7109
  855MPD2    H512616   0.331   1.441  12.788 -2.3829 -1.7145 -0.6987
  855MPD2    N112617   0.543   1.206  13.261  0.4406 -0.1155 -0.3145
  855MPD2    H712618   0.511   1.114  13.231  0.1915  0.5810 -2.2121
  856MPD2     C12619   2.529   2.219  13.878  0.1700 -0.2040  0.0693
  856MPD2    C112620   2.638   2.297  13.899 -0.1150  0.5321  0.2239
  856MPD2    C212621   2.651   2.413  13.823  0.2874  0.8151  0.0898
  856MPD2    C312622   2.562   2.447  13.721  0.0633 -0.4609 -0.4277
  856MPD2    C412623   2.465   2.357  13.693  0.5938  0.8210 -0.0652
  856MPD2    C512624   2.447   2.252  13.776  0.1324  0.4410  0.1617
  856MPD2     H12625   2.737   2.476  13.843  0.2516  0.1800  2.2377
  856MPD2    H112626   2.383   2.384  13.629 -0.0784  1.7274  1.1768
  856MPD2    H212627   2.496   2.133  13.935 -1.1745  0.2390 -0.0490
  856MPD2    H312628   2.367   2.181  13.758  0.9995 -0.2516 -0.8989
  856MPD2     N12629   2.563   2.574  13.656  0.1091 -0.6875  0.5553
  856MPD2    H512630   2.490   2.578  13.585  2.3752 -1.7923 -1.8615
  856MPD2    N112631   2.741   2.268  14.000  0.3063 -0.2708  0.2615
  856MPD2    H712632   2.814   2.339  14.006 -1.4967  1.4800  1.3414
  857MPD2     C12633   4.091   4.562  12.595 -0.2213 -0.5365  0.4225
  857MPD2    C112634   4.074   4.489  12.712  0.0403 -1.2622  0.2154
  857MPD2    C212635   4.030   4.569  12.821 -0.4880 -0.3720 -0.4015
  857MPD2    C312636   4.006   4.705  12.810  0.2559  0.0541  0.2320
  857MPD2    C412637   4.029   0.031  12.691 -0.1747 -0.2719  0.1659
  857MPD2    C512638   4.074   4.700  12.581 -0.8634 -0.0387 -0.5383
  857MPD2     H12639   4.019   4.513  12.913  0.4536 -1.6093 -1.0470
  857MPD2    H112640   4.021   0.138  12.674 -0.0136  0.0450  2.0743
  857MPD2    H212641   4.129   4.512  12.507 -0.0137  1.3602 -0.5648
  857MPD2    H312642   4.069   0.007  12.484  0.6195 -0.8589 -1.0131
  857MPD2     N12643   3.996   0.036  12.930 -0.0688  0.1674 -0.4374
  857MPD2    H512644   4.023   4.725  13.013 -2.1328  2.8925  1.8933
  857MPD2    N112645   4.093   4.350  12.700  0.1723 -0.0148  0.3100
  857MPD2    H712646   4.115   4.315  12.607 -1.7901  0.4067 -0.2990
  858MPD2     C12647   0.449   3.782  15.977 -0.6412 -0.3937 -0.2952
  858MPD2    C112648   0.394   3.691  16.058  0.8767 -0.2095  0.2174
  858MPD2    C212649   0.394   3.723  16.197  0.0448 -0.0560  0.6369
  858MPD2    C312650   0.428   3.851  16.246  0.1867  0.2401  0.3011
  858MPD2    C412651   0.470   3.946  16.162 -0.6432 -0.1807 -0.1094
  858MPD2    C512652   0.478   3.905  16.030 -0.6086 -0.4157  0.5095
  858MPD2     H12653   0.345   3.650  16.261 -1.3192  0.1852 -0.1394
  858MPD2    H112654   0.482   4.050  16.188 -0.3220 -0.4353  0.7337
  858MPD2    H212655   0.450   3.771  15.870 -1.4884 -2.1693 -0.1281
  858MPD2    H312656   0.494   3.985  15.959 -0.9237 -0.4200  0.4304
  858MPD2     N12657   0.432   3.883  16.381  0.4667 -0.3802 -0.3128
  858MPD2    H512658   0.448   3.979  16.411 -1.4556  0.2537 -1.3015
  858MPD2    N112659   0.351   3.560  16.007  0.5373  0.3320 -0.0494
  858MPD2    H712660   0.333   3.556  15.907  0.7601 -1.6833 -0.0140
  859MPD2     C12661   3.800   0.571  15.390  0.3121 -0.2661 -0.1509
  859MPD2    C112662   3.807   0.579  15.252 -0.3839  0.0906  0.6311
  859MPD2    C212663   3.814   0.462  15.179 -0.3043  0.4270  0.0683
  859MPD2    C312664   3.812   0.338  15.243  0.0119  0.5709 -0.2946
  859MPD2    C412665   3.805   0.339  15.382  0.1275  0.7063  0.1483
  859MPD2    C512666   3.803   0.452  15.459  0.1464  0.3556 -0.5956
  859MPD2     H12667   3.844   0.464  15.075  0.4812 -1.6608  0.2510
  859MPD2    H112668   3.790   0.244  15.432 -0.1948  1.2229  1.0206
  859MPD2    H212669   3.791   0.661  15.449 -0.9093 -0.4488 -0.0535
  859MPD2    H312670   3.782   0.458  15.565 -1.8150  2.0976 -1.0842
  859MPD2     N12671   3.808   0.213  15.175 -0.2206 -0.1351  0.6801
  859MPD2    H512672   3.803   0.130  15.232 -0.0351  0.4639  1.5643
  859MPD2    N112673   3.810   0.709  15.200  0.3004  0.1695 -0.3891
  859MPD2    H712674   3.821   0.782  15.270  0.1237 -0.1222 -0.0553
  860MPD2     C12675   1.319   1.244  11.316  0.3594 -0.5238 -0.6997
  860MPD2    C112676   1.295   1.356  11.397 -0.1685 -0.2503 -0.2681
  860MPD2    C212677   1.170   1.386  11.446 -0.0168 -0.4540 -0.6271
  860MPD2    C312678   1.061   1.319  11.393 -0.1156 -0.1213  0.0632
  860MPD2    C412679   1.081   1.219  11.302  0.3756 -0.3938  0.1849
  860MPD2    C512680   1.205   1.178  11.279 -1.3768  0.0452 -0.4015
  860MPD2     H12681   1.156   1.468  11.515 -1.5490 -2.8293  1.8697
  860MPD2    H112682   1.003   1.150  11.271  0.1834 -0.1276  0.0665
  860MPD2    H212683   1.417   1.198  11.308  0.2484 -0.8187 -0.3225
  860MPD2    H312684   1.218   1.089  11.219 -2.7890 -0.6283  0.3007
  860MPD2     N12685   0.941   1.353  11.454 -0.1311  0.3151  0.0261
  860MPD2    H512686   0.947   1.435  11.514 -1.6539  1.4388 -1.3656
  860MPD2    N112687   1.413   1.430  11.447 -0.0418 -0.1890 -0.0702
  860MPD2    H712688   1.394   1.509  11.508  1.3572 -1.1631  1.6158
  861MPD2     C12689   3.976   4.154  11.325 -0.2424  0.5982 -0.1290
  861MPD2    C112690   4.042   4.272  11.353 -0.0862  0.2965 -0.2786
  861MPD2    C212691   4.004   4.378  11.272 -0.2441 -0.0415  0.2823
  861MPD2    C312692   3.918   4.364  11.159  0.0250  0.1886  0.3326
  861MPD2    C412693   3.859   4.244  11.141 -0.5687  0.3069  0.0477
  861MPD2    C512694   3.886   4.143  11.226  0.3440 -0.5096 -0.3420
  861MPD2     H12695   4.054   4.473  11.283 -3.3716  1.4682  1.5314
  861MPD2    H112696   3.787   4.232  11.061 -1.1333  2.7394  0.1989
  861MPD2    H212697   3.983   4.068  11.392 -1.3880 -0.1647 -0.9960
  861MPD2    H312698   3.837   4.047  11.211 -0.1478 -0.2794 -0.2064
  861MPD2     N12699   3.896   4.466  11.065 -0.3189 -1.4581  0.6678
  861MPD2    H512700   3.854   4.444  10.975  1.3244 -0.6570 -0.3131
  861MPD2    N112701   4.135   4.298  11.456  0.0717 -0.3514 -0.0521
  861MPD2    H712702   4.170   4.393  11.467 -0.6549  0.0498 -1.2997
  862MPD2     C12703   3.923   4.689  10.354 -0.7152  0.1660 -0.0280
  862MPD2    C112704   3.941   4.592  10.452 -0.6286  0.9405  0.1618
  862MPD2    C212705   3.929   4.460  10.420 -0.5073  0.1008  1.3032
  862MPD2    C312706   3.912   4.418  10.287 -0.1413 -0.3163  0.2873
  862MPD2    C412707   3.869   4.518  10.205 -0.3934 -0.3422 -0.0379
  862MPD2    C512708   3.885   4.651  10.231  0.9494 -0.0334  0.7454
  862MPD2     H12709   3.945   4.391  10.502 -0.5290  1.1101  2.1559
  862MPD2    H112710   3.851   4.491  10.102  1.6429 -0.7138 -0.2861
  862MPD2    H212711   3.924   0.055  10.374 -1.8837  0.3384 -0.9048
  862MPD2    H312712   3.866   4.735  10.164 -0.4163 -1.0530 -0.1517
  862MPD2     N12713   3.905   4.285  10.254 -0.2613 -0.0220 -0.7320
  862MPD2    H512714   3.847   4.259  10.175  0.4346 -1.0170 -0.9261
  862MPD2    N112715   3.958   4.623  10.586 -0.2056 -0.7609 -0.3207
  862MPD2    H712716   3.962   4.547  10.653 -1.5558  0.2998  0.9400
  863MPD2     C12717   3.248   2.423  16.583 -0.4088  0.0083  0.2239
  863MPD2    C112718   3.321   2.535  16.603  0.3418  0.3953  0.3654
  863MPD2    C212719   3.426   2.529  16.692  0.3674  0.0376 -0.9308
  863MPD2    C312720   3.457   2.412  16.771  0.3568 -0.1412 -0.6345
  863MPD2    C412721   3.360   2.315  16.761  0.5792  0.1183  0.0052
  863MPD2    C512722   3.260   2.315  16.667  0.1492 -0.0556  0.1118
  863MPD2     H12723   3.481   2.620  16.712  0.3010 -0.1692  0.1888
  863MPD2    H112724   3.372   2.219  16.810  0.3749  0.3473  0.5060
  863MPD2    H212725   3.184   2.409  16.496  2.4412 -3.9208 -1.2591
  863MPD2    H312726   3.203   2.225  16.649  0.3375 -0.2896  0.6618
  863MPD2     N12727   3.561   2.395  16.859 -0.3920 -0.4734  0.6106
  863MPD2    H512728   3.559   2.311  16.916  0.6545  0.5474  2.1275
  863MPD2    N112729   3.294   2.642  16.514  0.0633  0.0762  0.2482
  863MPD2    H712730   3.233   2.629  16.433  0.3660 -0.6602  0.1394
  864MPD2     C12731   4.106   3.418  17.272  0.7353 -0.2309  0.3283
  864MPD2    C112732   4.118   3.377  17.141  0.3132  0.1248 -0.0809
  864MPD2    C212733   4.178   3.469  17.053  0.1377 -0.5048  0.4626
  864MPD2    C312734   4.242   3.579  17.099 -0.1220 -0.0046  0.8175
  864MPD2    C412735   4.232   3.615  17.229 -0.6474  0.6088  0.6871
  864MPD2    C512736   4.155   3.539  17.311  1.0774  0.1809 -0.5518
  864MPD2     H12737   4.178   3.458  16.945 -1.8932 -2.1993  0.6322
  864MPD2    H112738   4.274   3.709  17.262 -0.0431 -0.1228  2.0402
  864MPD2    H212739   4.046   3.359  17.340  0.2662 -0.9470 -0.7025
  864MPD2    H312740   4.143   3.567  17.415 -1.1970  1.7408 -1.2134
  864MPD2     N12741   4.328   3.662  17.017 -0.6187  0.3431  0.1272
  864MPD2    H512742   4.370   3.737  17.071 -0.4715  0.6758 -0.4451
  864MPD2    N112743   4.074   3.250  17.104 -0.1762  0.2906  0.3836
  864MPD2    H712744   4.034   3.195  17.180 -0.5513 -0.4940 -0.3831
  865MPD2     C12745   3.942   3.732  16.546  0.0941 -0.2768  0.0480
  865MPD2    C112746   4.066   3.756  16.485  0.0908 -0.5684 -0.4779
  865MPD2    C212747   4.155   3.845  16.550 -0.1235 -0.0755  0.1036
  865MPD2    C312748   4.118   3.898  16.672 -0.4985  0.3706 -0.2495
  865MPD2    C412749   3.996   3.873  16.729 -0.9643  0.0862 -0.1187
  865MPD2    C512750   3.911   3.786  16.665  0.1153 -0.0649 -0.0171
  865MPD2     H12751   4.246   3.878  16.501  0.5477 -1.4173  0.4507
  865MPD2    H112752   3.962   3.915  16.823 -1.7781  0.8027 -0.7382
  865MPD2    H212753   3.872   3.657  16.509  0.7060 -0.3635 -0.9473
  865MPD2    H312754   3.815   3.762  16.711  0.2935 -1.3007 -0.2906
  865MPD2     N12755   4.203   3.978  16.750 -0.2060  0.0529 -0.3531
  865MPD2    H512756   4.174   3.986  16.847 -1.3635  0.9388 -0.7811
  865MPD2    N112757   4.076   3.699  16.358 -0.2914 -0.1465  0.4110
  865MPD2    H712758   4.012   3.623  16.339  0.3166 -0.2560 -1.1445
  866MPD2     C12759   0.284   0.051  11.638  0.4154 -0.0686 -0.2258
  866MPD2    C112760   0.248   0.042  11.502 -0.4119 -0.4340 -0.7477
  866MPD2    C212761   0.124   0.081  11.463 -0.5937  0.6867  0.0127
  866MPD2    C312762   0.026   0.103  11.561  0.4109 -0.0902  0.9246
  866MPD2    C412763   0.064   0.099  11.694  0.6441 -0.0340  0.4817
  866MPD2    C512764   0.193   0.088  11.733  0.5449  0.2025  0.1851
  866MPD2     H12765   0.104   0.074  11.356 -2.0067 -1.1628  0.3973
  866MPD2    H112766   4.720   0.122  11.759 -0.0048  1.0972 -0.7610
  866MPD2    H212767   0.388   0.030  11.661  0.6264 -1.3259 -2.3505
  866MPD2    H312768   0.212   0.086  11.840 -0.6163  0.2537  0.3883
  866MPD2     N12769   4.628   0.131  11.541  0.4127  0.3335  0.3730
  866MPD2    H512770   4.566   0.135  11.622 -1.6978 -0.8177 -1.1943
  866MPD2    N112771   0.356   0.003  11.426  0.2818 -0.4864  0.1052
  866MPD2    H712772   0.443   4.717  11.471  1.7287  1.6150 -1.4376
  867MPD2     C12773   2.687   4.109  16.281 -0.6267 -0.3687 -0.5590
  867MPD2    C112774   2.752   4.044  16.379  0.0136 -0.4263 -0.4522
  867MPD2    C212775   2.710   4.078  16.511  0.2503 -0.5890  0.2910
  867MPD2    C312776   2.627   4.181  16.551  0.2651 -0.1150  0.3706
  867MPD2    C412777   2.559   4.236  16.442 -0.5479  0.2132  0.5256
  867MPD2    C512778   2.594   4.206  16.311  0.0776  0.9240 -0.0178
  867MPD2     H12779   2.759   4.029  16.595 -0.9119 -1.6994  0.3175
  867MPD2    H112780   2.475   4.303  16.460 -1.1973 -0.1213 -1.2343
  867MPD2    H212781   2.706   4.104  16.174  0.0585  0.4594 -0.4757
  867MPD2    H312782   2.531   4.251  16.235 -0.8439  0.9205  0.7339
  867MPD2     N12783   2.600   4.222  16.684 -0.0229 -0.2079  0.5403
  867MPD2    H512784   2.525   4.290  16.692  0.2893  0.1486  0.4393
  867MPD2    N112785   2.860   3.959  16.344 -0.3821 -0.8991 -0.1596
  867MPD2    H712786   2.898   3.960  16.250 -4.6573  4.5994 -1.8330
  868MPD2     C12787   4.097   3.045  13.190  0.1700 -0.2967 -0.1281
  868MPD2    C112788   4.201   3.082  13.265  0.4730 -0.1234 -1.2128
  868MPD2    C212789   4.175   3.144  13.385 -0.0343 -0.1686  0.2335
  868MPD2    C312790   4.046   3.174  13.420  0.6158  0.1520 -0.0463
  868MPD2    C412791   3.946   3.131  13.339 -0.5052 -0.0433 -0.4648
  868MPD2    C512792   3.971   3.063  13.230 -0.0257  0.5932  0.2584
  868MPD2     H12793   4.256   3.177  13.449 -1.0856  2.1958  0.3539
  868MPD2    H112794   3.845   3.141  13.376 -0.7574 -1.0965 -0.8704
  868MPD2    H212795   4.107   3.001  13.091 -1.1938 -1.5823  0.3154
  868MPD2    H312796   3.886   3.029  13.173 -0.6456  1.7661  0.4698
  868MPD2     N12797   4.022   3.239  13.545 -0.2118  0.2283  0.1003
  868MPD2    H512798   4.103   3.253  13.605 -0.4210  0.7436  0.2621
  868MPD2    N112799   4.335   3.066  13.209  0.1894 -0.4199 -0.5133
  868MPD2    H712800   4.340   3.046  13.109 -3.3329  1.6830 -1.1024
  869MPD2     C12801   0.263   2.262   1.418 -0.2634 -0.0009 -0.2499
  869MPD2    C112802   0.341   2.190   1.330  0.0992  0.3308 -0.4243
  869MPD2    C212803   0.475   2.221   1.308  0.6208 -0.4104  0.0270
  869MPD2    C312804   0.524   2.327   1.372  0.0130  0.1760 -0.4838
  869MPD2    C412805   0.441   2.395   1.470  0.8310  0.9763 -0.7164
  869MPD2    C512806   0.305   2.369   1.487 -0.1058  0.4238  1.1126
  869MPD2     H12807   0.533   2.163   1.237 -1.4205 -0.4005 -1.6410
  869MPD2    H112808   0.476   2.477   1.531 -1.4160  1.3401  0.0705
  869MPD2    H212809   0.161   2.225   1.427 -0.7771  1.4296 -0.1826
  869MPD2    H312810   0.239   2.433   1.545 -1.0889 -0.5898  1.1121
  869MPD2     N12811   0.651   2.380   1.351 -0.5160 -0.2651 -0.3044
  869MPD2    H512812   0.664   2.480   1.367  2.7049 -0.7605  0.1505
  869MPD2    N112813   0.263   2.088   1.261  0.3661  0.1514 -0.4852
  869MPD2    H712814   0.165   2.077   1.286  1.2620 -1.9595  1.9835
  870MPD2     C12815   0.999   4.486   1.167 -0.2237 -0.2994  0.5485
  870MPD2    C112816   0.888   4.421   1.213  0.2956  0.6425 -0.0749
  870MPD2    C212817   0.764   4.479   1.182  0.5099  0.5463  0.0750
  870MPD2    C312818   0.759   4.603   1.117 -0.5595  0.2996  0.0206
  870MPD2    C412819   0.872   4.659   1.064 -0.4541  0.1273 -1.0373
  870MPD2    C512820   0.991   4.593   1.081 -0.3582  0.3215 -0.3399
  870MPD2     H12821   0.670   4.438   1.216  1.6112 -1.7675  0.3614
  870MPD2    H112822   0.878   0.014   1.013 -4.4614  0.5909 -0.6666
  870MPD2    H212823   1.098   4.450   1.193 -0.1411  0.1954  0.9292
  870MPD2    H312824   1.088   4.629   1.051 -0.4647 -1.0533 -2.2918
  870MPD2     N12825   0.631   4.668   1.117  0.3530  0.0070 -0.3244
  870MPD2    H512826   0.557   4.617   1.165 -0.8584  1.5888 -0.5144
  870MPD2    N112827   0.910   4.306   1.286 -0.0066 -0.3243  0.3783
  870MPD2    H712828   1.007   4.278   1.296 -0.2129 -0.0886  3.3080
  871MPD2     C12829   1.843   3.749  16.505 -0.4178 -0.8329  0.4395
  871MPD2    C112830   1.877   3.744  16.635  0.0632  0.0985  0.0124
  871MPD2    C212831   1.999   3.689  16.667 -0.5248  0.4470  0.2110
  871MPD2    C312832   2.093   3.650  16.573 -0.1119 -0.5298 -0.2994
  871MPD2    C412833   2.051   3.659  16.443  1.1101 -0.2794 -0.2007
  871MPD2    C512834   1.936   3.711  16.411  0.0997  0.3686  0.5571
  871MPD2     H12835   2.033   3.698  16.770  1.2885  1.1917 -0.4524
  871MPD2    H112836   2.116   3.622  16.364  0.8298 -0.8795 -0.1430
  871MPD2    H212837   1.739   3.766  16.484  0.1577  0.3263 -1.4535
  871MPD2    H312838   1.920   3.713  16.303 -0.9580 -0.0236  0.7107
  871MPD2     N12839   2.218   3.612  16.619  0.3867  0.5174 -0.0273
  871MPD2    H512840   2.243   3.601  16.716 -1.8268  1.7888  0.6710
  871MPD2    N112841   1.779   3.792  16.724 -0.1102 -0.2289 -0.1884
  871MPD2    H712842   1.704   3.849  16.687  3.2419  3.3618 -1.4250
  872MPD2     C12843   2.677   1.315  14.427  0.1271  0.2341  0.4476
  872MPD2    C112844   2.619   1.425  14.370  0.9637 -0.0351 -0.9788
  872MPD2    C212845   2.485   1.437  14.386  0.1054  1.0304  0.0225
  872MPD2    C312846   2.408   1.358  14.472  0.4312  0.2973  0.0094
  872MPD2    C412847   2.473   1.260  14.546  0.3494 -0.0571  0.1383
  872MPD2    C512848   2.606   1.244  14.524 -0.0660 -0.0825  0.1718
  872MPD2     H12849   2.431   1.516  14.334  2.1714  1.8264 -0.9013
  872MPD2    H112850   2.419   1.197  14.616 -1.5092  2.0483  0.6240
  872MPD2    H212851   2.781   1.292  14.404 -0.9940 -2.2596 -2.0827
  872MPD2    H312852   2.659   1.164  14.575  0.6516 -0.0155 -0.4680
  872MPD2     N12853   2.269   1.364  14.492 -0.4199 -0.5095  0.1559
  872MPD2    H512854   2.226   1.295  14.554 -1.3465  1.9104  2.1969
  872MPD2    N112855   2.681   1.512  14.279  0.0387  0.1627  0.2134
  872MPD2    H712856   2.619   1.580  14.234  0.5621 -0.6161 -1.6811
  873MPD2     C12857   4.181   1.812   0.804  0.2525  0.2080  0.0880
  873MPD2    C112858   4.046   1.793   0.780 -0.6299 -0.0795  0.6563
  873MPD2    C212859   4.002   1.671   0.750  0.1814  0.7316 -0.3678
  873MPD2    C312860   4.087   1.564   0.732 -0.0950 -0.0872  0.9850
  873MPD2    C412861   4.223   1.587   0.739  0.6856 -0.0139 -0.5596
  873MPD2    C512862   4.270   1.708   0.789  0.3118  0.9273  0.1715
  873MPD2     H12863   3.895   1.654   0.739 -0.0135  1.6617  0.1063
  873MPD2    H112864   4.286   1.499   0.735 -0.6321 -0.9283 -0.8822
  873MPD2    H212865   4.211   1.910   0.839  0.9944  0.5868 -1.6259
  873MPD2    H312866   4.375   1.732   0.800  0.0091  2.1990  0.1919
  873MPD2     N12867   4.040   1.437   0.694 -0.3292 -0.5949 -0.4592
  873MPD2    H512868   4.109   1.372   0.660  0.0148 -0.8302  0.6903
  873MPD2    N112869   3.952   1.902   0.810  0.0838 -0.2781  0.3465
  873MPD2    H712870   3.995   1.983   0.853  3.7496 -1.3958 -1.2746
  874MPD2     C12871   4.214   2.000  15.809 -0.4369  0.3995 -0.0523
  874MPD2    C112872   4.270   1.883  15.862 -0.6996  0.2844  0.0279
  874MPD2    C212873   4.372   1.813  15.790  0.6315  0.2078 -0.3491
  874MPD2    C312874   4.421   1.865  15.666  0.0260  0.0345  0.1830
  874MPD2    C412875   4.371   1.985  15.624 -0.3352 -0.4897 -0.3621
  874MPD2    C512876   4.265   2.045  15.688 -1.2058 -0.3503 -0.2488
  874MPD2     H12877   4.405   1.717  15.828 -0.3742 -1.0988 -2.7521
  874MPD2    H112878   4.391   2.028  15.527  0.5208 -0.5295 -0.1991
  874MPD2    H212879   4.130   2.060  15.842  1.1054  2.5483  0.0102
  874MPD2    H312880   4.223   2.127  15.632 -0.0080  1.4747  1.5100
  874MPD2     N12881   4.508   1.793  15.574  0.1719  0.5899  0.0560
  874MPD2    H512882   4.509   1.823  15.477  1.2611  1.0374  0.2060
  874MPD2    N112883   4.206   1.832  15.970  0.4156 -0.0732  0.0734
  874MPD2    H712884   4.107   1.847  15.984  0.3472  0.3517 -0.9022
  875MPD2     C12885   0.399   4.626  14.363  0.1779  0.0465 -0.4854
  875MPD2    C112886   0.264   4.643  14.403 -0.6699  0.0415 -0.2868
  875MPD2    C212887   0.241   4.719  14.523 -0.1208 -0.0847 -0.6630
  875MPD2    C312888   0.346   0.003  14.608 -0.9233  0.7416 -0.8889
  875MPD2    C412889   0.472   4.705  14.574 -0.5205  0.1979  0.3821
  875MPD2    C512890   0.503   4.663  14.447  0.1735 -0.8405 -0.7186
  875MPD2     H12891   0.139   0.007  14.548  0.5554  0.7720  1.1211
  875MPD2    H112892   0.550   0.005  14.638  0.3296 -1.9346  0.6774
  875MPD2    H212893   0.418   4.581  14.266 -1.5492 -1.7365  0.0257
  875MPD2    H312894   0.599   4.628  14.412  0.5532 -0.4141 -0.0963
  875MPD2     N12895   0.344   0.072  14.734 -0.2927  0.0268 -0.0296
  875MPD2    H512896   0.427   0.061  14.790  0.6761 -0.6491 -1.5876
  875MPD2    N112897   0.154   4.605  14.326  0.7218  0.1259 -0.3087
  875MPD2    H712898   0.065   4.638  14.364 -0.8629 -3.2141 -1.1723
  876MPD2     C12899   3.663   0.927  15.605  0.0762  0.4398 -0.4789
  876MPD2    C112900   3.760   0.980  15.682 -0.1225 -0.1258  0.5715
  876MPD2    C212901   3.842   0.888  15.763 -0.0474 -0.0718  0.5101
  876MPD2    C312902   3.799   0.756  15.781  1.1016  0.3821  0.6095
  876MPD2    C412903   3.684   0.715  15.724  0.3101 -0.5022 -0.4762
  876MPD2    C512904   3.624   0.799  15.631 -0.2598 -0.3480  0.3147
  876MPD2     H12905   3.940   0.913  15.802  0.6274 -1.1344 -0.5204
  876MPD2    H112906   3.639   0.617  15.733 -1.2035  0.0764 -1.6191
  876MPD2    H212907   3.607   1.000  15.548 -1.3935  0.2823  0.7769
  876MPD2    H312908   3.535   0.756  15.587  0.1010 -1.6934  0.8833
  876MPD2     N12909   3.884   0.674  15.865 -0.0628 -0.4001 -0.1102
  876MPD2    H512910   3.953   0.723  15.921 -0.0350 -0.9640  0.3518
  876MPD2    N112911   3.797   1.110  15.648  0.2314  0.7042 -0.5223
  876MPD2    H712912   3.760   1.162  15.569 -1.9472 -2.0185 -1.2904
  877MPD2     C12913   3.820   1.581  15.097 -0.4742  0.1099 -0.1120
  877MPD2    C112914   3.936   1.614  15.165 -0.6611  0.2802  0.6453
  877MPD2    C212915   4.033   1.682  15.105 -0.1234  0.8023 -0.1789
  877MPD2    C312916   4.014   1.720  14.967 -0.4959 -0.1036  0.3973
  877MPD2    C412917   3.902   1.691  14.897 -0.0356  0.4992 -0.3403
  877MPD2    C512918   3.810   1.623  14.962 -0.0427  0.7750  0.2925
  877MPD2     H12919   4.115   1.703  15.173 -0.8619  1.8907  0.3826
  877MPD2    H112920   3.894   1.710  14.790 -1.2772  1.7532 -0.0320
  877MPD2    H212921   3.735   1.533  15.144  0.5796 -0.9561  0.7066
  877MPD2    H312922   3.717   1.596  14.915  0.9181 -1.2815 -0.4613
  877MPD2     N12923   4.109   1.801  14.892 -0.6014  0.0015 -0.0687
  877MPD2    H512924   4.083   1.838  14.801 -0.8161  1.5322  0.6134
  877MPD2    N112925   3.956   1.586  15.305  0.4187  0.3605  0.2182
  877MPD2    H712926   4.038   1.632  15.344 -0.4345  0.5824  1.7582
  878MPD2     C12927   3.504   0.441  12.902  0.3982 -0.0946  0.3039
  878MPD2    C112928   3.511   0.569  12.931  0.3352  0.1011 -0.6202
  878MPD2    C212929   3.585   0.611  13.045  0.2097 -0.2394 -0.3575
  878MPD2    C312930   3.646   0.516  13.121  0.9142 -0.2167 -0.1378
  878MPD2    C412931   3.640   0.376  13.083  0.0336  0.2815  0.1149
  878MPD2    C512932   3.563   0.342  12.975  0.0856 -0.2251  0.4069
  878MPD2     H12933   3.584   0.714  13.078  3.9975 -0.1350 -0.4798
  878MPD2    H112934   3.669   0.288  13.139  1.7233  1.9182  1.8302
  878MPD2    H212935   3.436   0.411  12.822  3.3296 -3.1025 -1.0383
  878MPD2    H312936   3.544   0.239  12.946 -0.8744  0.0237  0.1468
  878MPD2     N12937   3.721   0.565  13.234  0.6399 -0.5116  0.6577
  878MPD2    H512938   3.709   0.664  13.250  1.0934 -0.1919 -0.9951
  878MPD2    N112939   3.438   0.659  12.846 -0.2307  0.3227  0.3987
  878MPD2    H712940   3.381   0.617  12.773  1.6852  0.3340 -1.1043
  879MPD2     C12941   4.151   2.646  16.549 -0.5395 -0.5492  0.5740
  879MPD2    C112942   4.160   2.541  16.637  0.3083  0.5008  0.6427
  879MPD2    C212943   4.062   2.443  16.620 -0.0718  0.0359 -0.5427
  879MPD2    C312944   3.966   2.440  16.518  0.3515 -0.7840 -0.0660
  879MPD2    C412945   3.966   2.553  16.438  0.9324 -0.8779  0.7486
  879MPD2    C512946   4.053   2.658  16.453 -0.6481 -0.0145 -1.2846
  879MPD2     H12947   4.066   2.352  16.679 -2.6222  0.9314  1.0195
  879MPD2    H112948   3.889   2.564  16.361 -1.7201  0.2367  3.5725
  879MPD2    H212949   4.217   2.732  16.541 -0.4718 -0.5045  1.6269
  879MPD2    H312950   4.043   2.748  16.393  2.8446  2.4271  1.7832
  879MPD2     N12951   3.857   2.352  16.514 -0.9651 -0.5452 -0.0472
  879MPD2    H512952   3.785   2.379  16.448 -0.7221 -1.4604 -0.6819
  879MPD2    N112953   4.277   2.532  16.719  0.2131  0.5962 -0.0751
  879MPD2    H712954   4.359   2.591  16.708  2.3933 -2.0331  1.7543
  880MPD2     C12955   0.295   4.219   0.702 -0.2305 -0.8702 -0.5180
  880MPD2    C112956   0.385   4.170   0.610  0.0997  0.0951 -0.4091
  880MPD2    C212957   0.486   4.083   0.656  0.6434  0.1858  0.2076
  880MPD2    C312958   0.480   4.029   0.778  0.3082  0.0668 -0.4861
  880MPD2    C412959   0.385   4.064   0.866 -0.5895  0.0241  0.5044
  880MPD2    C512960   0.298   4.169   0.828 -0.2905 -0.2900 -0.0860
  880MPD2     H12961   0.566   4.045   0.594  0.2652  1.7741 -1.2538
  880MPD2    H112962   0.366   4.014   0.960  1.3893  1.1272  1.4688
  880MPD2    H212963   0.220   4.295   0.682  0.4020 -0.7498 -2.3391
  880MPD2    H312964   0.230   4.202   0.906  2.9463  1.1127  2.1479
  880MPD2     N12965   0.587   3.947   0.810  0.0439  0.3312  0.2854
  880MPD2    H512966   0.642   3.904   0.736  0.9884 -0.7438  1.6070
  880MPD2    N112967   0.370   4.229   0.486 -0.1255 -0.5897 -0.2761
  880MPD2    H712968   0.296   4.299   0.483 -0.3132 -0.8044 -0.6279
  881MPD2     C12969   0.726   0.201  17.524  0.4660  0.1772  0.0896
  881MPD2    C112970   0.745   0.074  17.499  0.4005  0.3993  0.9181
  881MPD2    C212971   0.712   4.733  17.609  0.2670 -0.8855 -0.2530
  881MPD2    C312972   0.647   0.038  17.722 -0.5233  0.4352  0.4557
  881MPD2    C412973   0.613   0.170  17.733 -0.3078  0.0121 -0.4005
  881MPD2    C512974   0.654   0.253  17.636  0.1845  0.3696 -0.3681
  881MPD2     H12975   0.732   4.627  17.596 -0.9920 -0.8826 -2.2159
  881MPD2    H112976   0.561   0.211   0.059 -1.5600 -3.5186  0.5388
  881MPD2    H212977   0.765   0.279  17.458 -0.0621  1.4060  1.2215
  881MPD2    H312978   0.621   0.356  17.635 -1.7934 -0.2809 -0.5943
  881MPD2     N12979   0.586   4.697   0.059 -0.5417  0.4367 -0.4990
  881MPD2    H512980   0.543   0.008   0.135  3.1532  0.4449  1.6309
  881MPD2    N112981   0.835   0.041  17.390 -0.7089 -0.4224 -0.2357
  881MPD2    H712982   0.856   0.117  17.326  1.1245 -0.8628 -0.1694
  882MPD2     C12983   4.153   1.765  14.177 -0.1091 -0.5539  0.1229
  882MPD2    C112984   4.099   1.797  14.303 -0.3032 -1.0888  0.5030
  882MPD2    C212985   3.966   1.753  14.331 -0.1213  1.1462  0.2731
  882MPD2    C312986   3.893   1.690  14.233 -0.1294 -0.2352  0.1171
  882MPD2    C412987   3.949   1.658  14.112  0.6045 -0.4172  0.3966
  882MPD2    C512988   4.080   1.692  14.087  0.2015  0.1356 -0.4169
  882MPD2     H12989   3.932   1.751  14.433 -1.1922 -0.4184 -0.1134
  882MPD2    H112990   3.904   1.600  14.032  0.5694 -2.5151  1.9312
  882MPD2    H212991   4.256   1.786  14.151 -0.6007 -0.5687 -1.8156
  882MPD2    H312992   4.128   1.667  13.993 -0.0443  1.7169 -0.9559
  882MPD2     N12993   3.759   1.644  14.251  0.3928 -0.7384  0.0383
  882MPD2    H512994   3.718   1.575  14.188 -0.2403  1.2255 -1.7173
  882MPD2    N112995   4.185   1.857  14.390  0.0082  0.3483 -0.2061
  882MPD2    H712996   4.276   1.870  14.348  0.7054  0.3688  1.3165
  883MPD2     C12997   1.540   0.940  16.275 -0.3337  0.2597  0.1821
  883MPD2    C112998   1.600   0.929  16.147 -0.5039  0.9376  1.2225
  883MPD2    C212999   1.734   0.916  16.143  0.2912 -0.3080  0.4491
  883MPD2    C313000   1.818   0.915  16.250  0.0908 -0.6981  0.0960
  883MPD2    C413001   1.756   0.923  16.379  0.6518 -0.2170 -0.1854
  883MPD2    C513002   1.621   0.938  16.387 -0.7889 -0.1866  0.1621
  883MPD2     H13003   1.776   0.911  16.043  0.5243 -0.6772  0.5691
  883MPD2    H113004   1.807   0.904  16.473  0.7039 -0.2973 -0.2295
  883MPD2    H213005   1.442   0.978  16.298  0.3191  1.2793  1.2295
  883MPD2    H313006   1.574   0.942  16.484  0.0870 -0.6575  0.5981
  883MPD2     N13007   1.952   0.925  16.227 -0.0346 -0.5795 -0.1469
  883MPD2    H513008   1.985   0.943  16.132 -0.2674 -1.5769 -0.4173
  883MPD2    N113009   1.541   0.961  16.026  0.1696 -0.4665  0.1215
  883MPD2    H713010   1.589   0.947  15.938 -0.1679 -0.0283 -0.1297
  884MPD2     C13011   2.955   2.118  15.094  0.2772 -0.6549 -0.2262
  884MPD2    C113012   2.940   2.224  14.997  0.0624 -0.1324  0.2613
  884MPD2    C213013   2.821   2.300  15.005  0.9401 -0.3297 -1.0723
  884MPD2    C313014   2.738   2.283  15.110  0.0079  0.7098 -0.8555
  884MPD2    C413015   2.757   2.186  15.203  0.5452 -0.1171 -0.6852
  884MPD2    C513016   2.866   2.105  15.200 -0.2677  0.0643  0.3065
  884MPD2     H13017   2.804   2.386  14.941  1.1465 -1.1821 -2.2606
  884MPD2    H113018   2.685   2.157  15.279 -1.1548  0.7409 -1.9596
  884MPD2    H213019   3.033   2.042  15.086  1.4190  0.3946  0.8575
  884MPD2    H313020   2.863   2.025  15.273 -0.3200 -0.4076 -0.2154
  884MPD2     N13021   2.623   2.361  15.116  0.1102  0.2190  0.0796
  884MPD2    H513022   2.602   2.419  15.035  0.7357  0.3988  0.0427
  884MPD2    N113023   3.035   2.243  14.890  0.0695  0.7735  0.3379
  884MPD2    H713024   3.025   2.327  14.833 -1.9664  0.3533  0.0748
  885MPD2     C13025   1.233   2.866   0.309 -0.4054 -0.7165 -0.0507
  885MPD2    C113026   1.341   2.900   0.229 -0.1774  0.0042 -0.5325
  885MPD2    C213027   1.338   2.890   0.087  0.3161 -0.3136 -0.6670
  885MPD2    C313028   1.225   2.841   0.028  0.0078 -0.4231 -0.6474
  885MPD2    C413029   1.117   2.803   0.109  0.4847 -1.0341 -0.6173
  885MPD2    C513030   1.120   2.818   0.243 -0.2632  0.5751  0.0768
  885MPD2     H13031   1.425   2.917   0.029  0.5758  0.4616  0.0786
  885MPD2    H113032   1.026   2.764   0.064 -0.4612 -0.4451  0.7946
  885MPD2    H213033   1.241   2.886   0.415 -3.2622 -2.5450  0.5303
  885MPD2    H313034   1.035   2.784   0.301 -1.4074  1.4680 -1.0970
  885MPD2     N13035   1.229   2.838  17.643 -0.4017  0.0332  0.2865
  885MPD2    H513036   1.310   2.869  17.591 -0.6427 -1.2313 -0.8282
  885MPD2    N113037   1.446   2.956   0.305 -0.0070  0.1083  0.0267
  885MPD2    H713038   1.423   2.982   0.400 -0.9993 -1.9306  0.3473
  886MPD2     C13039   2.473   0.810  15.063 -0.1713  0.0010 -0.0644
  886MPD2    C113040   2.546   0.859  15.169  0.1422  0.6029  0.7959
  886MPD2    C213041   2.574   1.000  15.169 -0.1181 -0.4556 -0.2186
  886MPD2    C313042   2.514   1.082  15.077  0.2097  0.6637 -0.3972
  886MPD2    C413043   2.438   1.034  14.975  0.9078  0.1064 -0.4070
  886MPD2    C513044   2.425   0.899  14.967  1.0995  0.1593  0.0024
  886MPD2     H13045   2.647   1.030  15.243  0.1135 -1.3891 -0.0734
  886MPD2    H113046   2.389   1.091  14.898  0.6113  0.5327  0.0971
  886MPD2    H213047   2.450   0.704  15.055  0.5179 -0.2925  1.8654
  886MPD2    H313048   2.376   0.862  14.878  0.3184 -1.6847  1.2087
  886MPD2     N13049   2.553   1.217  15.063 -0.8326 -0.5848  0.6275
  886MPD2    H513050   2.498   1.272  14.998  2.5890  0.7536 -1.1174
  886MPD2    N113051   2.642   0.780  15.246  0.3891 -0.8246  0.2970
  886MPD2    H713052   2.710   0.833  15.300 -0.0813  0.2418 -0.1500
  887MPD2     C13053   3.345   0.829  15.312  0.2116  0.3538 -0.7507
  887MPD2    C113054   3.219   0.893  15.332  0.0816 -0.2567  0.0399
  887MPD2    C213055   3.209   1.035  15.325  0.8766  0.2793  0.3454
  887MPD2    C313056   3.323   1.109  15.292 -0.0851  1.1822  0.1947
  887MPD2    C413057   3.439   1.043  15.258  0.3318 -0.1917 -0.1238
  887MPD2    C513058   3.451   0.909  15.279  0.2736  0.4030 -0.4635
  887MPD2     H13059   3.114   1.082  15.343 -0.3527 -1.7749 -0.8090
  887MPD2    H113060   3.524   1.101  15.225 -1.0132  1.7631 -0.1622
  887MPD2    H213061   3.353   0.724  15.287  0.1646  0.0425  0.5262
  887MPD2    H313062   3.544   0.858  15.256  0.4640  0.7598 -0.4776
  887MPD2     N13063   3.308   1.249  15.291 -0.0081 -0.7807  0.5816
  887MPD2    H513064   3.223   1.283  15.335 -0.7300 -0.5435 -1.0140
  887MPD2    N113065   3.106   0.820  15.354  0.0106 -0.0480 -0.3738
  887MPD2    H713066   3.022   0.877  15.358 -2.0856 -3.0936 -0.8086
  888MPD2     C13067   0.201   1.156  14.641  0.7400 -0.1064 -0.1089
  888MPD2    C113068   0.196   1.174  14.775 -0.4711 -0.1171 -0.7155
  888MPD2    C213069   0.276   1.276  14.825 -0.8606  0.1891  0.6228
  888MPD2    C313070   0.361   1.345  14.744 -0.0471 -0.0534  0.1517
  888MPD2    C413071   0.370   1.311  14.612 -0.4938  0.6900 -0.0054
  888MPD2    C513072   0.291   1.220  14.563 -0.4452  0.7298 -0.2175
  888MPD2     H13073   0.271   1.290  14.932 -2.0202  0.0908  0.5786
  888MPD2    H113074   0.444   1.352  14.545  1.2762 -2.9441 -0.2760
  888MPD2    H213075   0.125   1.090  14.600  0.9480 -0.5234  0.1807
  888MPD2    H313076   0.298   1.190  14.459 -2.0617 -1.5294  0.3006
  888MPD2     N13077   0.429   1.450  14.806  0.1299 -0.2674 -0.3837
  888MPD2    H513078   0.402   1.471  14.902 -1.1213 -1.9091 -0.3697
  888MPD2    N113079   0.117   1.112  14.871 -0.1988 -0.6445 -0.2096
  888MPD2    H713080   0.127   1.147  14.966 -0.0842 -1.7093  0.1655
  889MPD2     C13081   3.832   0.793  12.946 -0.0231  0.2087  0.0420
  889MPD2    C113082   3.954   0.767  13.014  0.5047  0.3687  0.1363
  889MPD2    C213083   4.011   0.866  13.090  0.3210 -0.2363 -0.4338
  889MPD2    C313084   3.965   0.993  13.087 -0.4438 -0.0414  0.4352
  889MPD2    C413085   3.849   1.018  13.018 -0.4316  0.0756 -0.0284
  889MPD2    C513086   3.784   0.923  12.955  0.4183 -0.6070  0.0249
  889MPD2     H13087   4.105   0.849  13.140  0.1790 -1.1001 -0.4545
  889MPD2    H113088   3.797   1.112  13.000  0.5901  0.4693 -0.9682
  889MPD2    H213089   3.770   0.713  12.909  1.6908 -0.8008 -0.6705
  889MPD2    H313090   3.689   0.940  12.905  0.7982  2.0202  0.1876
  889MPD2     N13091   4.038   1.095  13.156 -0.1624 -0.4598 -0.3452
  889MPD2    H513092   4.120   1.060  13.205 -0.8735  0.9691  1.8273
  889MPD2    N113093   3.994   0.635  13.015  0.2950  0.3268  0.3865
  889MPD2    H713094   3.927   0.566  12.984 -0.3853  0.4557  1.5383
  890MPD2     C13095   3.768   2.616  14.564  0.4308 -0.9991 -0.2438
  890MPD2    C113096   3.873   2.667  14.628  0.6933 -0.8232 -0.3414
  890MPD2    C213097   3.969   2.586  14.696 -0.3146  0.4220 -0.3982
  890MPD2    C313098   3.943   2.453  14.706  0.3403  0.2809 -0.1559
  890MPD2    C413099   3.824   2.402  14.661 -0.6459  0.3195 -0.0085
  890MPD2    C513100   3.746   2.484  14.585 -0.0984 -0.6701  0.2392
  890MPD2     H13101   4.060   2.628  14.738 -1.3770  1.4148  0.9398
  890MPD2    H113102   3.809   2.295  14.662 -0.1329  0.2214 -2.4195
  890MPD2    H213103   3.684   2.673  14.526  0.1342 -0.9388  0.5122
  890MPD2    H313104   3.658   2.442  14.538  0.7680 -0.5680 -1.4870
  890MPD2     N13105   4.027   2.365  14.778  0.6123  0.5899 -0.6281
  890MPD2    H513106   3.995   2.270  14.796 -1.1717  1.4786  0.9343
  890MPD2    N113107   3.885   2.806  14.604  0.4028 -0.0051  0.2713
  890MPD2    H713108   3.809   2.853  14.557 -1.5619 -2.8826  0.5917
  891MPD2     C13109   2.368   0.644  16.375 -0.7133 -0.3048 -0.6063
  891MPD2    C113110   2.288   0.608  16.482 -0.2072 -0.0829 -0.1946
  891MPD2    C213111   2.346   0.587  16.607 -1.0414  0.3529  0.0959
  891MPD2    C313112   2.485   0.601  16.622  0.1227  0.1835 -0.2707
  891MPD2    C413113   2.557   0.649  16.516 -0.6476 -0.6678 -0.2967
  891MPD2    C513114   2.497   0.676  16.402 -0.2719 -0.0361 -0.3173
  891MPD2     H13115   2.284   0.561  16.692 -1.3636 -2.9768 -1.1428
  891MPD2    H113116   2.663   0.667  16.502 -0.7469 -0.4080 -0.7147
  891MPD2    H213117   2.325   0.650  16.276 -0.2037 -2.2374 -0.9429
  891MPD2    H313118   2.559   0.709  16.319 -0.1850  0.3157 -0.1111
  891MPD2     N13119   2.545   0.566  16.744  0.2544  0.1577  0.1177
  891MPD2    H513120   2.483   0.542  16.820  0.0653 -0.1642 -0.1400
  891MPD2    N113121   2.153   0.595  16.458 -0.6889 -0.1916  0.0883
  891MPD2    H713122   2.131   0.603  16.360 -0.0004 -2.9806 -0.3098
  892MPD2     C13123   3.038   1.784  14.963 -0.1287 -0.0916  0.2851
  892MPD2    C113124   2.993   1.835  14.843 -0.5995 -1.0402  0.5266
  892MPD2    C213125   3.076   1.820  14.731 -0.6971  0.3082 -0.2362
  892MPD2    C313126   3.202   1.759  14.746 -0.9638  0.1321 -0.1589
  892MPD2    C413127   3.244   1.713  14.864  0.3894  0.1130 -0.4687
  892MPD2    C513128   3.159   1.721  14.976  0.5762 -0.2108 -0.0972
  892MPD2     H13129   3.049   1.873  14.640  1.1715 -0.6659 -1.3537
  892MPD2    H113130   3.341   1.666  14.877 -0.1627 -1.2758 -1.3719
  892MPD2    H213131   2.977   1.797  15.052  1.8286  1.2909  1.4304
  892MPD2    H313132   3.197   1.679  15.068 -2.7812 -0.5861  1.1127
  892MPD2     N13133   3.282   1.730  14.634 -0.3097 -0.2139  0.9568
  892MPD2    H513134   3.379   1.707  14.650 -0.4987 -0.6593  1.4466
  892MPD2    N113135   2.872   1.913  14.831 -0.3171  0.4259  0.3071
  892MPD2    H713136   2.860   1.980  14.755 -0.7590 -1.9110 -1.6672
  893MPD2     C13137   3.949   0.654   1.164  0.9245  0.3103 -0.2797
  893MPD2    C113138   4.012   0.684   1.043 -0.1274  0.0597  0.2211
  893MPD2    C213139   3.936   0.692   0.927  0.6079 -0.1197  0.8447
  893MPD2    C313140   3.804   0.660   0.928 -0.8721 -0.8088 -0.8218
  893MPD2    C413141   3.746   0.628   1.044  0.0149  0.2634 -0.5020
  893MPD2    C513142   3.816   0.628   1.161 -0.4263  0.2598  0.1837
  893MPD2     H13143   3.990   0.709   0.834 -2.6995 -0.9399 -1.2285
  893MPD2    H113144   3.640   0.604   1.047  0.1228  0.1268  2.3037
  893MPD2    H213145   4.006   0.665   1.255 -0.2942  1.8143  0.2915
  893MPD2    H313146   3.756   0.618   1.251 -0.3421  1.1508  0.3353
  893MPD2     N13147   3.720   0.655   0.814  0.1559 -0.1758 -0.3977
  893MPD2    H513148   3.621   0.641   0.830 -0.3575  0.4030 -3.1856
  893MPD2    N113149   4.148   0.721   1.046  0.7805  0.4825 -0.5599
  893MPD2    H713150   4.198   0.695   1.131 -2.2501 -0.0250  1.0672
  894MPD2     C13151   2.928   2.877   1.091  0.3528  0.0440 -0.1360
  894MPD2    C113152   2.871   2.978   1.012 -0.6075 -0.0160  0.6101
  894MPD2    C213153   2.934   3.102   1.006 -0.2446  0.4352  0.2865
  894MPD2    C313154   3.023   3.142   1.102  0.7813  0.2431  0.3420
  894MPD2    C413155   3.077   3.052   1.181  0.0504  0.4754 -0.5062
  894MPD2    C513156   3.028   2.922   1.177 -0.9233 -0.4673  0.1913
  894MPD2     H13157   2.896   3.175   0.936  0.3453 -0.9999 -1.5407
  894MPD2    H113158   3.160   3.080   1.244  0.6342 -0.6674 -0.7704
  894MPD2    H213159   2.891   2.774   1.095  0.0455  0.0892 -1.9417
  894MPD2    H313160   3.075   2.857   1.250  0.4436 -0.8303 -1.0125
  894MPD2     N13161   3.068   3.274   1.109 -0.1747  0.3169 -0.5999
  894MPD2    H513162   3.022   3.332   1.039  0.9837  1.7059 -0.2108
  894MPD2    N113163   2.754   2.950   0.928  0.5739 -0.5419  0.7325
  894MPD2    H713164   2.728   3.031   0.873 -0.5071 -1.1610  0.3407
  895MPD2     C13165   1.921   1.363  13.555 -0.2344 -0.3737  0.4139
  895MPD2    C113166   1.835   1.274  13.500  0.1556  0.0824 -0.1159
  895MPD2    C213167   1.893   1.169  13.445  0.1773  0.3800  0.1491
  895MPD2    C313168   2.031   1.138  13.456  0.2150 -0.3002 -0.0291
  895MPD2    C413169   2.116   1.237  13.500 -0.1629  0.1680  0.6603
  895MPD2    C513170   2.051   1.345  13.545  0.8341  0.2655  0.3736
  895MPD2     H13171   1.822   1.099  13.403 -1.1888  0.3950  2.3919
  895MPD2    H113172   2.223   1.230  13.485 -0.1931  1.8161 -0.4304
  895MPD2    H213173   1.881   1.461  13.580 -0.6360 -0.6041  0.6837
  895MPD2    H313174   2.108   1.433  13.572 -0.2430  0.0643  3.3057
  895MPD2     N13175   2.080   1.016  13.405  0.1169 -0.4180 -0.1906
  895MPD2    H513176   2.181   1.005  13.401  0.0966 -0.2911 -0.9211
  895MPD2    N113177   1.693   1.284  13.495 -0.6666 -0.2110 -0.0849
  895MPD2    H713178   1.645   1.209  13.446  0.6669 -0.9505 -0.2773
  896MPD2     C13179   4.290   3.984   1.405  0.2118  0.3225 -0.0905
  896MPD2    C113180   4.296   3.898   1.299 -0.0450  0.2843  0.6922
  896MPD2    C213181   4.185   3.869   1.220  0.3773 -0.1354  0.1271
  896MPD2    C313182   4.070   3.950   1.236  0.6936  0.4569  0.5166
  896MPD2    C413183   4.066   4.031   1.342 -0.8668 -0.0805  0.2602
  896MPD2    C513184   4.172   4.048   1.430  0.0441 -0.4412 -0.3802
  896MPD2     H13185   4.183   3.801   1.136 -2.2659  1.7645 -1.3476
  896MPD2    H113186   3.981   4.094   1.365 -0.1209  1.1188 -0.2496
  896MPD2    H213187   4.374   3.997   1.472 -0.1425  1.9903  0.0167
  896MPD2    H313188   4.164   4.116   1.514 -2.5151  0.5139 -1.3763
  896MPD2     N13189   3.965   3.932   1.148 -0.6040  0.1377 -0.2226
  896MPD2    H513190   3.970   3.854   1.084 -1.3832 -0.2390  0.1819
  896MPD2    N113191   4.421   3.841   1.273  0.1517 -0.3022  0.3360
  896MPD2    H713192   4.494   3.875   1.334 -0.1127  1.5926 -0.3993
  897MPD2     C13193   0.842   0.350  10.704  0.5337 -0.0856  0.4134
  897MPD2    C113194   0.786   0.482  10.687  0.4060 -0.5420 -0.1951
  897MPD2    C213195   0.667   0.506  10.749 -0.2794  0.2691  0.0911
  897MPD2    C313196   0.608   0.409  10.828 -0.0505  0.1903  0.0014
  897MPD2    C413197   0.666   0.286  10.847 -1.0547  0.3941  0.3616
  897MPD2    C513198   0.782   0.256  10.784  0.7801  0.3764  0.0876
  897MPD2     H13199   0.606   0.592  10.725 -0.8083 -0.1612 -0.1211
  897MPD2    H113200   0.621   0.206  10.905  2.0362 -1.6366 -0.0760
  897MPD2    H213201   0.933   0.327  10.650 -0.1308 -1.0041 -0.3045
  897MPD2    H313202   0.832   0.161  10.798  2.8977  1.0422 -2.8614
  897MPD2     N13203   0.486   0.434  10.889  0.3135 -0.8124 -0.4660
  897MPD2    H513204   0.432   0.514  10.858  1.0395  0.0430  0.4810
  897MPD2    N113205   0.848   0.583  10.603 -0.0865 -0.0604  0.0508
  897MPD2    H713206   0.935   0.553  10.560 -0.8622 -0.7872 -1.0191
  898MPD2     C13207   2.325   1.472  17.304  0.1841 -0.3657 -0.3033
  898MPD2    C113208   2.367   1.509  17.433 -0.0770 -0.1264 -0.2723
  898MPD2    C213209   2.394   1.640  17.461  0.2214 -0.5298  0.0819
  898MPD2    C313210   2.386   1.738  17.365 -0.4080  0.3716 -0.7784
  898MPD2    C413211   2.352   1.704  17.241 -0.6922 -0.1492 -0.4359
  898MPD2    C513212   2.318   1.574  17.211  0.0410 -0.7151 -0.5183
  898MPD2     H13213   2.432   1.660  17.561  0.1846  2.5730 -0.5205
  898MPD2    H113214   2.351   1.771  17.155 -0.0010 -0.0135 -0.3435
  898MPD2    H213215   2.277   1.375  17.292 -1.4137  0.5272 -1.1068
  898MPD2    H313216   2.283   1.554  17.111 -1.6895  1.9404 -0.4328
  898MPD2     N13217   2.418   1.869  17.405 -0.1074  0.4086 -0.4536
  898MPD2    H513218   2.456   1.875  17.499 -0.5540  1.1874 -0.3303
  898MPD2    N113219   2.388   1.422  17.539  0.6523  0.4101  0.1035
  898MPD2    H713220   2.412   1.465  17.628 -1.9558  0.0225  0.9685
  899MPD2     C13221   3.564   1.987  17.343 -0.6246  0.2147  0.2350
  899MPD2    C113222   3.600   2.119  17.370  0.1731  0.3859 -0.4921
  899MPD2    C213223   3.554   2.177  17.483  0.3251 -0.0779  0.1140
  899MPD2    C313224   3.472   2.110  17.576  0.0447  0.5392  0.8428
  899MPD2    C413225   3.431   1.984  17.547 -0.8103 -0.3607  0.1540
  899MPD2    C513226   3.480   1.921  17.433  0.1999  0.0436 -0.9159
  899MPD2     H13227   3.566   2.282  17.506 -0.3531  0.1627 -0.6327
  899MPD2    H113228   3.374   1.917  17.611  0.3743 -1.8547 -0.3329
  899MPD2    H213229   3.598   1.943  17.250 -1.1476 -0.5476  0.4105
  899MPD2    H313230   3.446   1.821  17.406  0.3160 -0.6985  1.6525
  899MPD2     N13231   3.435   2.172  17.701  0.9326  0.0875  0.1486
  899MPD2    H513232   3.366   2.117  17.751 -2.0624  2.1891 -1.6070
  899MPD2    N113233   3.679   2.200  17.281 -0.2226 -0.4302 -0.2455
  899MPD2    H713234   3.715   2.168  17.192  1.9701 -0.8236  0.7823
  900MPD2     C13235   3.142   3.543  12.359 -0.1662  0.6189  0.0686
  900MPD2    C113236   3.026   3.480  12.327  0.5401  0.3305 -0.4377
  900MPD2    C213237   2.924   3.547  12.259 -0.1516  0.2615 -0.7575
  900MPD2    C313238   2.950   3.668  12.217  0.4126 -0.3108  0.0596
  900MPD2    C413239   3.065   3.730  12.245 -0.2110 -0.2386 -0.2406
  900MPD2    C513240   3.162   3.671  12.322 -0.0336  0.1640  0.3475
  900MPD2     H13241   2.829   3.500  12.236 -0.5269  1.0920 -0.9161
  900MPD2    H113242   3.093   3.830  12.211  1.6283 -0.3478  0.9480
  900MPD2    H213243   3.225   3.493  12.409 -2.8987 -3.0967  0.9146
  900MPD2    H313244   3.257   3.719  12.343 -0.0153 -0.2127  1.1325
  900MPD2     N13245   2.854   3.720  12.129 -0.6696  0.6095 -0.0520
  900MPD2    H513246   2.799   3.652  12.078  0.2148  0.1105 -0.3487
  900MPD2    N113247   3.023   3.342  12.358 -0.5686 -0.2200 -0.2285
  900MPD2    H713248   3.106   3.311  12.407 -0.2180  1.4481  0.2529
  901MPD2     C13249   2.523   2.355  12.477 -0.7007  0.9981  0.0426
  901MPD2    C113250   2.654   2.332  12.475 -0.0074  0.2758 -0.3039
  901MPD2    C213251   2.740   2.439  12.462 -0.3391  0.2066  0.9848
  901MPD2    C313252   2.698   2.571  12.445 -0.0816 -0.6818  0.1885
  901MPD2    C413253   2.561   2.590  12.436 -0.0314 -0.0314  0.0197
  901MPD2    C513254   2.480   2.484  12.461  0.7734  0.0412 -0.1524
  901MPD2     H13255   2.847   2.425  12.461 -0.5959 -1.6845  1.2763
  901MPD2    H113256   2.514   2.683  12.408 -0.2496  0.0082  0.5103
  901MPD2    H213257   2.457   2.271  12.494 -0.9302  1.5760  2.0785
  901MPD2    H313258   2.375   2.513  12.462  0.0969 -2.4784  1.8218
  901MPD2     N13259   2.800   2.673  12.422  0.8259  0.2499 -0.1031
  901MPD2    H513260   2.895   2.640  12.431  0.6740  0.1600  1.3195
  901MPD2    N113261   2.688   2.199  12.475 -0.6000 -0.3497 -0.0113
  901MPD2    H713262   2.615   2.129  12.474 -1.4528  0.5427 -0.3160
  902MPD2     C13263   1.670   1.208  12.735 -0.7568 -1.1840 -0.2981
  902MPD2    C113264   1.774   1.300  12.724  0.3076 -0.1188 -0.2988
  902MPD2    C213265   1.891   1.260  12.661 -0.0439  0.0414  0.6580
  902MPD2    C313266   1.904   1.128  12.614 -0.4260 -0.4613  0.3094
  902MPD2    C413267   1.801   1.034  12.627 -0.0061  0.4950  0.0181
  902MPD2    C513268   1.690   1.075  12.697  0.6780 -0.0953  0.2871
  902MPD2     H13269   1.965   1.337  12.646 -0.8903  0.8044  0.4066
  902MPD2    H113270   1.808   0.930  12.599 -1.1224  0.8091 -1.4425
  902MPD2    H213271   1.574   1.236  12.776 -1.4636 -1.8022 -1.5331
  902MPD2    H313272   1.617   0.998  12.717  0.2620  0.4629  0.9023
  902MPD2     N13273   2.008   1.080  12.530  0.6723  0.3383  0.1860
  902MPD2    H513274   1.991   0.988  12.491 -0.1630  0.5585  0.0345
  902MPD2    N113275   1.746   1.427  12.763  0.2101  0.5645  0.1897
  902MPD2    H713276   1.650   1.443  12.794  0.3772 -0.5105  1.2721
  903MPD2     C13277   2.397   1.432  11.800  0.7040  0.1611 -0.4285
  903MPD2    C113278   2.282   1.376  11.864  0.9951  0.5705  0.1378
  903MPD2    C213279   2.158   1.424  11.828  0.6465 -0.3311  0.6330
  903MPD2    C313280   2.140   1.497  11.720  0.3240  0.4525  0.6024
  903MPD2    C413281   2.248   1.550  11.654  0.0830  0.3444 -0.0535
  903MPD2    C513282   2.377   1.519  11.702  0.4280  0.4350  0.0835
  903MPD2     H13283   2.073   1.398  11.891 -0.1138 -1.7526 -1.0035
  903MPD2    H113284   2.235   1.620  11.572 -0.4013  0.6501  0.2884
  903MPD2    H213285   2.491   1.412  11.849  0.5940 -1.0875 -0.7229
  903MPD2    H313286   2.459   1.571  11.655 -0.0674 -2.0313 -3.5118
  903MPD2     N13287   2.004   1.515  11.686  0.2842 -0.1718 -0.2367
  903MPD2    H513288   1.933   1.468  11.741 -1.4783 -0.1834 -2.5195
  903MPD2    N113289   2.309   1.289  11.972 -1.1306  0.0281 -0.3271
  903MPD2    H713290   2.398   1.243  11.982 -1.7660 -1.6993 -2.4757
  904MPD2     C13291   1.504   0.607  14.311  0.2475 -0.8078  0.8694
  904MPD2    C113292   1.600   0.699  14.260 -0.5417  1.0259 -0.7587
  904MPD2    C213293   1.731   0.676  14.286  0.3003 -0.5778  0.3665
  904MPD2    C313294   1.772   0.562  14.353  0.1002  0.9182  0.3738
  904MPD2    C413295   1.670   0.478  14.405  0.4317 -0.0267 -0.2108
  904MPD2    C513296   1.539   0.498  14.379 -0.0584  0.3722  0.0500
  904MPD2     H13297   1.806   0.746  14.251 -0.2887 -0.3732 -0.4872
  904MPD2    H113298   1.700   0.387  14.456  1.7585  1.1715  1.1430
  904MPD2    H213299   1.400   0.613  14.280  0.1760  2.4651  1.7266
  904MPD2    H313300   1.473   0.412  14.390  0.7936 -0.0078  2.2201
  904MPD2     N13301   1.902   0.529  14.385 -0.0841  0.6077  0.5492
  904MPD2    H513302   1.909   0.442  14.437  1.0568  0.4179  0.0676
  904MPD2    N113303   1.575   0.807  14.172  0.1049 -0.2459  0.1986
  904MPD2    H713304   1.650   0.868  14.143  0.2962 -0.5483  0.0632
  905MPD2     C13305   1.402   0.673  13.531 -0.6911  0.1785 -0.3132
  905MPD2    C113306   1.501   0.765  13.567 -0.0572  0.3734 -0.4787
  905MPD2    C213307   1.631   0.744  13.516  0.1601 -0.8254  0.2956
  905MPD2    C313308   1.657   0.640  13.431 -0.2900 -0.8244 -0.6635
  905MPD2    C413309   1.558   0.552  13.398  0.5703 -0.0479  0.0869
  905MPD2    C513310   1.429   0.566  13.447 -0.2596 -0.2611  0.0950
  905MPD2     H13311   1.713   0.807  13.548 -0.1322 -1.7204  2.7911
  905MPD2    H113312   1.582   0.479  13.321  0.6138 -1.2193  1.2138
  905MPD2    H213313   1.299   0.688  13.563 -1.4808 -0.2917 -2.6930
  905MPD2    H313314   1.347   0.507  13.407 -1.3348  1.3762 -0.0813
  905MPD2     N13315   1.791   0.637  13.384 -0.9640  0.1447  0.2378
  905MPD2    H513316   1.839   0.726  13.390 -0.7477  0.1033 -0.8999
  905MPD2    N113317   1.457   0.864  13.656 -0.3399  0.2618 -0.1793
  905MPD2    H713318   1.363   0.850  13.692 -0.4414 -0.1925 -0.6211
  906MPD2     C13319   3.873   0.832  11.386  0.6190 -0.3747  0.5287
  906MPD2    C113320   3.871   0.713  11.316  0.1854  0.3473 -0.3429
  906MPD2    C213321   3.835   0.599  11.383 -0.6230  0.1067  0.0601
  906MPD2    C313322   3.841   0.593  11.524 -0.4213  0.9231  1.0187
  906MPD2    C413323   3.836   0.710  11.592 -0.3672  0.1763  0.1110
  906MPD2    C513324   3.847   0.831  11.518 -0.3610  0.2609 -0.2712
  906MPD2     H13325   3.845   0.510  11.322 -1.6346  1.4210 -2.0056
  906MPD2    H113326   3.832   0.720  11.700  1.2617  1.2059  0.0786
  906MPD2    H213327   3.889   0.927  11.335 -0.3023 -0.3361  0.3073
  906MPD2    H313328   3.842   0.928  11.566  1.2505  1.4217 -2.4156
  906MPD2     N13329   3.830   0.472  11.597 -0.2269  0.2756  0.3414
  906MPD2    H513330   3.807   0.460  11.695  0.5428 -1.9000  0.2598
  906MPD2    N113331   3.876   0.698  11.173 -0.0015 -0.0801 -0.4074
  906MPD2    H713332   3.851   0.604  11.146  0.3879  0.0245 -1.1357
  907MPD2     C13333   3.016   4.732  15.030  0.2013  0.0959  0.8074
  907MPD2    C113334   3.047   4.602  15.034  0.1974  0.0515 -0.3541
  907MPD2    C213335   3.146   4.567  15.121 -0.2786 -0.4859 -0.1199
  907MPD2    C313336   3.210   4.658  15.205 -0.0846  0.1847  0.0707
  907MPD2    C413337   3.177   0.041  15.194  0.9469 -0.0761 -0.4084
  907MPD2    C513338   3.079   0.082  15.111 -0.0037  0.3615  0.1610
  907MPD2     H13339   3.172   4.462  15.117  0.9981 -0.1096 -1.4166
  907MPD2    H113340   3.210   0.115  15.266 -0.9021  1.4693 -1.1744
  907MPD2    H213341   2.951   0.039  14.957  1.1296  0.8631  0.4739
  907MPD2    H313342   3.057   0.187  15.094  2.0747  0.4781 -1.7557
  907MPD2     N13343   3.303   4.609  15.307 -0.8791  0.0745 -0.1636
  907MPD2    H513344   3.309   4.508  15.312 -0.6450  0.1516  1.2124
  907MPD2    N113345   2.988   4.503  14.954  0.4421  0.7481  0.3013
  907MPD2    H713346   3.013   4.405  14.968  0.9058  0.8111 -0.1176
  908MPD2     C13347   0.743   0.272   9.805  0.6175 -0.7916  0.5655
  908MPD2    C113348   0.791   0.223   9.923  0.0156  0.0773  0.7934
  908MPD2    C213349   0.816   0.311  10.024 -0.3902 -0.4254 -0.2567
  908MPD2    C313350   0.793   0.451  10.015  1.1804 -1.0195  0.3664
  908MPD2    C413351   0.737   0.496   9.894  0.2070  0.9929 -0.3109
  908MPD2    C513352   0.720   0.406   9.789 -0.5698  0.1647 -0.0226
  908MPD2     H13353   0.849   0.275  10.121  1.3569  0.3539 -0.5576
  908MPD2    H113354   0.712   0.599   9.869 -3.7263  0.1195  0.0932
  908MPD2    H213355   0.731   0.216   9.713  0.7961  0.3592 -0.1556
  908MPD2    H313356   0.684   0.440   9.693  4.1227  0.1339 -1.8247
  908MPD2     N13357   0.810   0.538  10.126 -0.8140 -0.0859  0.6752
  908MPD2    H513358   0.820   0.500  10.219 -1.2868  0.3534  0.9102
  908MPD2    N113359   0.822   0.082   9.927  0.2584 -0.8299 -0.2637
  908MPD2    H713360   0.887   0.052   9.999 -0.1008 -1.6550 -0.2786
  909MPD2     C13361   0.585   3.035  11.457 -0.3210  0.3913 -0.5513
  909MPD2    C113362   0.670   3.135  11.487 -0.1687 -0.1943  0.1914
  909MPD2    C213363   0.639   3.217  11.595  0.6345 -0.0044  0.2190
  909MPD2    C313364   0.531   3.199  11.674  0.0177  0.1751 -0.3399
  909MPD2    C413365   0.443   3.093  11.649  0.1314 -0.7319 -0.0321
  909MPD2    C513366   0.470   3.018  11.535  0.3860  0.1013  0.2790
  909MPD2     H13367   0.706   3.299  11.621 -0.5957  1.1871 -0.3519
  909MPD2    H113368   0.355   3.072  11.708  1.5037 -2.2859  1.4683
  909MPD2    H213369   0.601   2.966  11.375 -1.1967 -1.5722  0.9374
  909MPD2    H313370   0.413   2.928  11.513  0.1500  0.5972 -1.1715
  909MPD2     N13371   0.518   3.286  11.781 -1.0354 -0.0762 -0.3315
  909MPD2    H513372   0.580   3.367  11.785 -1.8106  0.4597  1.1923
  909MPD2    N113373   0.784   3.170  11.406  0.6186  0.6013  0.3689
  909MPD2    H713374   0.854   3.226  11.453  0.4964  1.0905 -0.0191
  910MPD2     C13375   2.440   0.369  15.663  0.0835 -0.6093 -0.4756
  910MPD2    C113376   2.467   0.257  15.596  0.2707 -0.0544  0.1617
  910MPD2    C213377   2.436   0.240  15.465 -0.5761 -0.2123  0.2356
  910MPD2    C313378   2.375   0.344  15.386 -0.2308 -0.0773 -0.1341
  910MPD2    C413379   2.361   0.460  15.454 -0.1771 -0.0025  0.0096
  910MPD2    C513380   2.386   0.477  15.593 -0.0083 -0.0645  0.3591
  910MPD2     H13381   2.481   0.156  15.413 -2.0593 -0.4312 -0.7098
  910MPD2    H113382   2.336   0.555  15.409 -1.0177 -0.1475  0.1751
  910MPD2    H213383   2.459   0.384  15.768  2.5204  3.1065 -1.4321
  910MPD2    H313384   2.368   0.571  15.644  1.3447  0.7011 -0.5529
  910MPD2     N13385   2.357   0.338  15.251 -0.0161 -0.1431  0.1303
  910MPD2    H513386   2.343   0.426  15.204 -2.1327 -1.1340 -1.0748
  910MPD2    N113387   2.534   0.143  15.656 -0.2747 -0.1894  0.3656
  910MPD2    H713388   2.522   0.064  15.594 -1.9876 -0.4519  1.0406
  911MPD2     C13389   0.347   0.824  16.163  0.0333  0.6235 -1.0424
  911MPD2    C113390   0.450   0.911  16.164 -0.1999  0.2215 -0.3154
  911MPD2    C213391   0.439   1.030  16.092  0.2224 -0.2123 -0.1121
  911MPD2    C313392   0.318   1.051  16.019  1.8485 -0.4582 -0.4207
  911MPD2    C413393   0.211   0.965  16.032 -0.5899  0.3132  0.6394
  911MPD2    C513394   0.231   0.848  16.095 -0.3128  0.0029 -0.2584
  911MPD2     H13395   0.525   1.094  16.077  0.7981 -1.2330 -1.1358
  911MPD2    H113396   0.120   0.981  15.976 -1.6921 -3.7979  1.2875
  911MPD2    H213397   0.356   0.735  16.223  2.4280  1.5618 -0.0125
  911MPD2    H313398   0.157   0.770  16.079  0.3302 -0.7290  0.3543
  911MPD2     N13399   0.290   1.165  15.937  0.2385  0.0882  0.2647
  911MPD2    H513400   0.193   1.168  15.909  0.7986  0.0417 -1.6439
  911MPD2    N113401   0.563   0.880  16.240 -0.4456 -0.6267 -0.0484
  911MPD2    H713402   0.565   0.787  16.281 -1.3941  0.0791  1.6419
  912MPD2     C13403   4.386   1.125  15.607  0.6271 -0.1197 -0.0863
  912MPD2    C113404   4.499   1.111  15.687  0.3423 -0.0151  0.4789
  912MPD2    C213405   4.485   1.036  15.802 -0.1819  0.2161 -0.2406
  912MPD2    C313406   4.358   0.977  15.832 -0.7807  0.3851  0.3023
  912MPD2    C413407   4.257   0.976  15.739  0.3295 -0.4197 -0.6333
  912MPD2    C513408   4.272   1.055  15.625 -0.1749  0.4716  0.3257
  912MPD2     H13409   4.565   1.016  15.873  0.0439 -0.0163 -0.5582
  912MPD2    H113410   4.163   0.928  15.763 -0.1099  0.9289  0.3139
  912MPD2    H213411   4.380   1.179  15.513  2.0539  2.5431  1.3364
  912MPD2    H313412   4.192   1.080  15.556 -0.6758  2.6779  1.7158
  912MPD2     N13413   4.353   0.912  15.960  0.4675  0.0011 -0.4721
  912MPD2    H513414   4.437   0.904  16.016  0.9526  1.1191 -1.0215
  912MPD2    N113415   4.624   1.169  15.648 -0.0761  0.2828 -0.2186
  912MPD2    H713416   4.632   1.210  15.555  2.0709  0.1864 -0.0628
  913MPD2     C13417   4.450   2.170  10.487 -0.0001 -0.4684 -0.4441
  913MPD2    C113418   4.576   2.213  10.527  0.2582  0.7758 -0.0876
  913MPD2    C213419   4.650   2.275  10.431  0.2513  0.0258  0.3992
  913MPD2    C313420   4.596   2.297  10.308  0.3288  0.6242  0.1763
  913MPD2    C413421   4.464   2.262  10.273 -0.7510  0.4050 -0.4623
  913MPD2    C513422   4.392   2.186  10.363  0.3009  0.3504 -0.6913
  913MPD2     H13423   0.006   2.313  10.462  0.8481 -0.6398 -0.6574
  913MPD2    H113424   4.417   2.270  10.176  0.1982 -2.0649 -1.1215
  913MPD2    H213425   4.389   2.117  10.558 -1.2661 -0.8548 -1.8148
  913MPD2    H313426   4.296   2.143  10.339  1.2617 -1.6844 -0.9073
  913MPD2     N13427   4.671   2.375  10.214 -0.4866 -0.3186 -0.0377
  913MPD2    H513428   4.623   2.381  10.125 -0.0086 -1.0065 -0.3433
  913MPD2    N113429   4.620   2.184  10.662  0.7296  0.1532  0.0140
  913MPD2    H713430   4.555   2.145  10.729  0.1192 -0.9981 -1.2383
  914MPD2     C13431   3.179   2.094  11.784  0.5804 -0.5259 -0.8427
  914MPD2    C113432   3.222   2.132  11.909  0.0556  0.0435 -0.9625
  914MPD2    C213433   3.165   2.066  12.017 -0.1363  0.2004  0.1970
  914MPD2    C313434   3.055   1.986  11.998  0.1843 -0.2977 -0.7111
  914MPD2    C413435   3.010   1.962  11.871 -0.2105  0.0017 -0.2807
  914MPD2    C513436   3.078   2.003  11.762 -0.2042 -0.0480 -0.2212
  914MPD2     H13437   3.199   2.092  12.117  0.5001  0.5796 -0.1112
  914MPD2    H113438   2.919   1.905  11.855 -0.4873 -0.5121  3.1687
  914MPD2    H213439   3.226   2.127  11.691  0.3500 -1.6226 -1.3437
  914MPD2    H313440   3.049   1.982  11.660 -3.5767  0.0982  0.7306
  914MPD2     N13441   3.006   1.929  12.118  0.1130 -0.0577  0.2092
  914MPD2    H513442   3.062   1.953  12.199 -2.2621 -0.7166  2.0520
  914MPD2    N113443   3.322   2.221  11.941  0.3790 -0.1880  0.4840
  914MPD2    H713444   3.357   2.231  12.036 -0.1056  0.1473  0.6258
  915MPD2     C13445   1.647   2.375  15.246  0.0060  0.6357 -0.3957
  915MPD2    C113446   1.546   2.284  15.257  0.2342  0.0673 -0.2618
  915MPD2    C213447   1.461   2.303  15.356  0.1047  0.2035  0.1641
  915MPD2    C313448   1.478   2.408  15.446  0.8482 -0.4763 -0.4774
  915MPD2    C413449   1.576   2.504  15.431  0.0711  0.4679  0.0632
  915MPD2    C513450   1.662   2.479  15.330 -0.2237  0.9743 -0.0607
  915MPD2     H13451   1.370   2.248  15.376  1.0084 -2.0009 -1.7545
  915MPD2    H113452   1.584   2.597  15.485 -0.5388  0.5196  0.0694
  915MPD2    H213453   1.713   2.363  15.161  0.4352  0.6212 -0.0628
  915MPD2    H313454   1.744   2.548  15.318  1.3211 -1.0009 -0.7892
  915MPD2     N13455   1.384   2.419  15.558  0.1624 -0.0270  0.1099
  915MPD2    H513456   1.329   2.337  15.581  1.7456 -1.1335 -0.0695
  915MPD2    N113457   1.522   2.191  15.152  0.5699  0.0149  0.6036
  915MPD2    H713458   1.596   2.186  15.082  0.7503 -1.2313  0.8745
  916MPD2     C13459   4.508   0.668  15.734  0.1938  0.3104  0.9461
  916MPD2    C113460   4.450   0.549  15.757  0.1061  0.0242  0.3301
  916MPD2    C213461   4.492   0.444  15.674  0.3041 -0.0279 -0.5313
  916MPD2    C313462   4.580   0.457  15.567  0.9669 -0.1400 -0.7804
  916MPD2    C413463   4.632   0.581  15.546 -0.4541  0.7092  1.0248
  916MPD2    C513464   4.601   0.681  15.634 -0.0053 -0.1803 -0.0764
  916MPD2     H13465   4.450   0.347  15.695 -1.4187  1.0211  0.8862
  916MPD2    H113466   4.709   0.604  15.473 -0.8320  0.5648  0.5816
  916MPD2    H213467   4.491   0.751  15.801  1.3734  1.7632 -0.5863
  916MPD2    H313468   4.650   0.777  15.625 -0.2846 -0.2200 -2.0481
  916MPD2     N13469   4.610   0.355  15.477  0.1502  0.1984  0.2282
  916MPD2    H513470   4.564   0.266  15.499 -0.2530  0.4582  0.4482
  916MPD2    N113471   4.357   0.544  15.864 -0.2179  0.0331  0.4747
  916MPD2    H713472   4.330   0.637  15.898 -3.1562 -1.6949  2.9154
  917MPD2     C13473   3.943   2.755  11.192  0.0122  0.1044 -0.2669
  917MPD2    C113474   4.009   2.801  11.300 -0.1795  0.6736  0.0497
  917MPD2    C213475   4.032   2.940  11.298  0.0613 -0.2454  0.0998
  917MPD2    C313476   4.004   3.031  11.191 -0.6076 -0.5844 -0.3331
  917MPD2    C413477   3.943   2.971  11.087 -0.4712 -0.0204 -0.1444
  917MPD2    C513478   3.904   2.842  11.093  0.1794  0.0468  0.2184
  917MPD2     H13479   4.086   2.981  11.382 -2.7000  1.0572  1.2210
  917MPD2    H113480   3.921   3.040  11.006  0.7394  1.7600  1.0481
  917MPD2    H213481   3.912   2.652  11.178 -1.0459  0.4066 -0.1461
  917MPD2    H313482   3.848   2.798  11.012 -0.5796  1.0771  0.1804
  917MPD2     N13483   4.042   3.169  11.187 -0.0018  0.2042  0.2277
  917MPD2    H513484   4.028   3.207  11.094  0.3779  0.2846  0.2014
  917MPD2    N113485   4.036   2.712  11.407 -0.0439 -0.2273 -0.4562
  917MPD2    H713486   3.962   2.643  11.406 -1.4639  1.2103  3.7602
  918MPD2     C13487   3.999   3.232  12.151 -0.2971 -0.3875  0.0955
  918MPD2    C113488   4.129   3.200  12.123 -0.0211 -1.2642  0.3322
  918MPD2    C213489   4.155   3.084  12.069 -0.5062 -0.2620 -0.1345
  918MPD2    C313490   4.060   2.986  12.029 -0.8024 -0.0506 -1.1363
  918MPD2    C413491   3.925   3.021  12.049  0.2185  0.2209  0.2292
  918MPD2    C513492   3.901   3.142  12.108  0.7568  0.7904 -0.0176
  918MPD2     H13493   4.259   3.069  12.043 -0.8314 -1.8952 -0.5185
  918MPD2    H113494   3.840   2.965  12.014 -0.0932  0.6830  0.2409
  918MPD2    H213495   3.966   3.327  12.192  2.6499 -0.0075  1.5529
  918MPD2    H313496   3.794   3.160  12.116  1.2449  4.8320 -2.5873
  918MPD2     N13497   4.102   2.872  11.954  0.0164  0.3479  0.2165
  918MPD2    H513498   4.201   2.850  11.947  0.5279  1.9696  2.1834
  918MPD2    N113499   4.238   3.290  12.153  0.0455  0.2332 -0.3674
  918MPD2    H713500   4.331   3.250  12.156  1.2596  3.1129  1.2000
  919MPD2     C13501   4.634   2.101  11.927 -0.4809 -0.3973  0.2736
  919MPD2    C113502   4.605   1.984  11.864  0.5792 -0.7624  0.9582
  919MPD2    C213503   4.583   1.985  11.722 -0.7183  0.1078  0.9035
  919MPD2    C313504   4.600   2.098  11.655  0.7543  0.7487  0.3410
  919MPD2    C413505   4.657   2.207  11.719  0.7980  0.0600 -0.3515
  919MPD2    C513506   4.673   2.208  11.854 -0.0798 -0.4698 -0.8439
  919MPD2     H13507   4.551   1.890  11.682  0.9929 -0.7977  1.6910
  919MPD2    H113508   4.688   2.300  11.672  1.2517  0.0934  0.0153
  919MPD2    H213509   4.658   2.111  12.032 -0.1260 -0.9572  0.2447
  919MPD2    H313510   4.705   2.294  11.911  0.6059 -1.5496  0.4356
  919MPD2     N13511   4.560   2.104  11.520  0.2123  0.4044  0.0159
  919MPD2    H513512   4.585   2.187  11.468 -0.8233  0.0166 -1.0947
  919MPD2    N113513   4.597   1.861  11.928 -0.4894  0.0148  0.0138
  919MPD2    H713514   4.598   1.782  11.865 -0.1850  0.8238 -1.0039
  920MPD2     C13515   4.437   2.593  10.658  0.4293 -0.5676  0.5142
  920MPD2    C113516   4.338   2.495  10.640  0.1066  0.3554  0.3538
  920MPD2    C213517   4.316   2.404  10.738 -0.5078 -0.1792  0.6202
  920MPD2    C313518   4.388   2.406  10.855  0.5242 -0.1090  0.3407
  920MPD2    C413519   4.489   2.506  10.877 -0.6265  0.1721  0.3248
  920MPD2    C513520   4.510   2.600  10.776 -0.3626  0.3015  0.7008
  920MPD2     H13521   4.235   2.335  10.717 -0.1686  0.1582 -1.8366
  920MPD2    H113522   4.547   2.522  10.967 -0.9305  1.7753  0.2464
  920MPD2    H213523   4.466   2.669  10.586 -0.8939 -0.8446 -0.3172
  920MPD2    H313524   4.594   2.665  10.800  0.2269 -0.8062  1.6687
  920MPD2     N13525   4.368   2.299  10.947 -0.0685  0.7205  0.0460
  920MPD2    H513526   4.283   2.246  10.932  0.5933 -0.3327  0.0377
  920MPD2    N113527   4.265   2.471  10.523 -0.1922  0.1532  0.1188
  920MPD2    H713528   4.205   2.390  10.514  1.4856 -0.6859 -3.6129
  921MPD2     C13529   1.477   0.862  16.809  0.0897  0.2805  0.7476
  921MPD2    C113530   1.472   0.778  16.701  0.0828 -0.3193 -0.9226
  921MPD2    C213531   1.355   0.778  16.623 -0.3704 -0.5014  0.1740
  921MPD2    C313532   1.250   0.869  16.642  0.1588 -0.1140  0.2765
  921MPD2    C413533   1.262   0.961  16.749 -0.4391 -0.7053 -0.5202
  921MPD2    C513534   1.372   0.947  16.826 -0.6012 -0.3678  0.5771
  921MPD2     H13535   1.337   0.696  16.556 -0.8020 -0.3648  0.1271
  921MPD2    H113536   1.181   1.028  16.777 -0.6340 -0.0008 -2.7471
  921MPD2    H213537   1.563   0.871  16.874  2.6389 -0.0169 -2.5762
  921MPD2    H313538   1.389   1.023  16.902 -0.5641 -2.1643  2.3831
  921MPD2     N13539   1.143   0.854  16.556 -0.0790 -0.4524  0.4381
  921MPD2    H513540   1.153   0.786  16.481  0.1305 -0.0684  0.1156
  921MPD2    N113541   1.579   0.703  16.665 -0.5605  0.4196 -0.0939
  921MPD2    H713542   1.666   0.729  16.711 -0.3083 -3.9107  1.9241
  922MPD2     C13543   1.840   3.950  17.395  0.4541 -0.4526 -0.0364
  922MPD2    C113544   1.759   3.919  17.507 -0.4885 -0.1209 -0.5669
  922MPD2    C213545   1.707   3.790  17.501 -0.7185 -0.4317 -1.5593
  922MPD2    C313546   1.741   3.698  17.400 -0.5432 -0.1964 -0.4394
  922MPD2    C413547   1.825   3.733  17.296  0.6641 -0.5453  0.5104
  922MPD2    C513548   1.872   3.861  17.295 -0.0838  0.5464 -0.0150
  922MPD2     H13549   1.633   3.762  17.576  1.5290 -0.3363  0.6721
  922MPD2    H113550   1.843   3.663  17.215 -2.3778  0.6579 -1.2334
  922MPD2    H213551   1.881   4.050  17.386 -0.0981 -0.2150  0.0416
  922MPD2    H313552   1.939   3.900  17.219  1.3149 -1.7304  0.0499
  922MPD2     N13553   1.680   3.570  17.388 -0.3496 -0.1241 -0.6923
  922MPD2    H513554   1.716   3.510  17.315 -0.9724 -2.3900  0.8716
  922MPD2    N113555   1.724   4.012  17.604  0.3626  0.8489 -0.2332
  922MPD2    H713556   1.664   3.977  17.678 -0.1867 -1.1393 -1.6034
  923MPD2     C13557   3.823   0.880   9.262 -0.0553 -0.1864  0.1485
  923MPD2    C113558   3.692   0.875   9.316 -0.3648  0.2998  0.7393
  923MPD2    C213559   3.670   0.798   9.428 -0.0137  0.2462 -0.5352
  923MPD2    C313560   3.776   0.732   9.480 -0.0296  0.2335  1.1741
  923MPD2    C413561   3.894   0.721   9.410  1.1585 -0.3106  0.3999
  923MPD2    C513562   3.920   0.794   9.300 -0.0714  0.2952 -0.2304
  923MPD2     H13563   3.570   0.792   9.470 -0.9074  0.0990 -2.7164
  923MPD2    H113564   3.973   0.663   9.455 -0.7480 -3.2878 -0.1259
  923MPD2    H213565   3.852   0.940   9.176  0.8321 -0.9878 -0.0998
  923MPD2    H313566   4.018   0.811   9.258  0.9385  1.2904  2.4753
  923MPD2     N13567   3.746   0.660   9.598 -0.0038 -0.3875 -0.0995
  923MPD2    H513568   3.651   0.679   9.627 -0.2949 -1.0647 -0.6098
  923MPD2    N113569   3.584   0.956   9.262  0.5705 -0.3718  0.1626
  923MPD2    H713570   3.602   1.001   9.173  3.3291 -1.1099  0.3278
  924MPD2     C13571   3.414   3.870  15.273 -0.2048  0.4009  0.1552
  924MPD2    C113572   3.467   3.885  15.396 -0.4483 -0.6032 -1.2624
  924MPD2    C213573   3.519   4.008  15.428  0.1300  0.1088 -0.7608
  924MPD2    C313574   3.537   4.110  15.335 -0.0017  0.0068  0.7314
  924MPD2    C413575   3.508   4.084  15.203 -1.0304 -0.6610 -0.5443
  924MPD2    C513576   3.443   3.965  15.180 -0.0091  0.1178  0.0603
  924MPD2     H13577   3.553   4.019  15.531  0.1812 -4.2302 -0.3137
  924MPD2    H113578   3.514   4.154  15.121  0.4673  1.3653  1.3041
  924MPD2    H213579   3.373   3.774  15.242 -0.3313  0.7892 -0.8864
  924MPD2    H313580   3.411   3.948  15.077 -1.3818 -2.4582  0.9214
  924MPD2     N13581   3.565   4.240  15.371 -0.0491 -0.0260  0.2977
  924MPD2    H513582   3.557   4.313  15.301  2.1216  0.1970  0.2607
  924MPD2    N113583   3.444   3.783  15.494  0.0765  0.2055 -0.8243
  924MPD2    H713584   3.381   3.708  15.466 -0.7893  0.2376  1.0667
  925MPD2     C13585   1.971   1.444  15.146 -0.0157 -0.0834  0.4825
  925MPD2    C113586   1.898   1.530  15.069 -0.4044  0.2619  0.1923
  925MPD2    C213587   1.852   1.655  15.113  0.2822 -0.3591  0.0627
  925MPD2    C313588   1.886   1.691  15.246  0.7721 -0.0260 -0.7721
  925MPD2    C413589   1.973   1.608  15.319 -0.2536  0.0926  0.4650
  925MPD2    C513590   2.017   1.487  15.270  0.2686 -0.2504  0.4837
  925MPD2     H13591   1.787   1.723  15.058  2.6072  2.7554  1.1598
  925MPD2    H113592   2.011   1.642  15.414 -0.5948  0.0446  0.6161
  925MPD2    H213593   2.007   1.347  15.114 -2.5562 -1.2068  1.0122
  925MPD2    H313594   2.078   1.416  15.324  0.4924  0.6488  1.4131
  925MPD2     N13595   1.854   1.819  15.308 -0.1162  0.2765  0.0615
  925MPD2    H513596   1.879   1.827  15.406  0.1582 -1.0260  0.0959
  925MPD2    N113597   1.889   1.516  14.923  0.0143  0.3819  0.4436
  925MPD2    H713598   1.839   1.593  14.880  3.1889  2.5143  0.6493
  926MPD2     C13599   0.731   4.733  13.449 -0.9716  0.0569 -0.2198
  926MPD2    C113600   0.650   0.098  13.412  0.6312  0.1459 -0.0654
  926MPD2    C213601   0.685   0.176  13.297  0.1181  0.4619 -0.3603
  926MPD2    C313602   0.808   0.155  13.243 -0.3522  0.0349  0.5862
  926MPD2    C413603   0.889   0.057  13.291  0.0180 -0.5197 -0.5048
  926MPD2    C513604   0.854   4.716  13.394 -0.2292  0.2029  0.0787
  926MPD2     H13605   0.617   0.255  13.264  2.2571  1.4579 -2.3819
  926MPD2    H113606   0.986   0.039  13.246  0.4856  0.7231  0.0005
  926MPD2    H213607   0.695   4.662  13.523 -1.1700  0.3802 -0.0036
  926MPD2    H313608   0.923   4.645  13.437  0.0537 -1.2467 -2.8071
  926MPD2     N13609   0.858   0.234  13.136  0.2920  0.2433  0.2097
  926MPD2    H513610   0.956   0.229  13.110  0.0536  1.3665 -0.8704
  926MPD2    N113611   0.526   0.125  13.471 -0.6380 -0.4815  0.0414
  926MPD2    H713612   0.464   0.192  13.428 -0.3276  0.5389  1.1815
  927MPD2     C13613   4.510   2.042  17.607  0.4942  0.0603  0.6166
  927MPD2    C113614   4.605   2.135  17.652  0.5770 -0.1008 -0.7328
  927MPD2    C213615   4.726   2.089  17.703  0.4708 -0.3321  0.4011
  927MPD2    C313616   0.018   1.950  17.713  0.7186  0.3563  0.9834
  927MPD2    C413617   4.664   1.860  17.657  0.4708 -0.5346  0.0470
  927MPD2    C513618   4.540   1.910  17.610  0.2235 -0.3602  0.0130
  927MPD2     H13619   0.066   2.159  17.723 -1.0820  1.4719  0.3225
  927MPD2    H113620   4.678   1.753  17.656 -2.8264 -0.9706 -1.1483
  927MPD2    H213621   4.412   2.074  17.573  0.2584 -1.5200 -0.1967
  927MPD2    H313622   4.475   1.833  17.570 -0.0386 -0.1050 -0.0541
  927MPD2     N13623   0.138   1.923   0.019 -0.4844 -0.2616  0.0986
  927MPD2    H513624   0.197   1.999   0.051  0.6484 -1.5180  0.9913
  927MPD2    N113625   4.566   2.270  17.668  0.8152  0.0308 -0.3705
  927MPD2    H713626   4.465   2.274  17.663  0.7622  0.6940  1.2618
  928MPD2     C13627   2.755   0.771   0.655  0.0639 -0.0581 -0.1922
  928MPD2    C113628   2.701   0.841   0.548 -0.2457 -0.4113 -0.7229
  928MPD2    C213629   2.786   0.888   0.449  0.5080 -0.3077  0.2566
  928MPD2    C313630   2.925   0.861   0.460  0.1538  0.5110 -0.1575
  928MPD2    C413631   2.975   0.807   0.577  0.1674 -0.5382  0.0122
  928MPD2    C513632   2.887   0.764   0.670  0.2395  0.0271 -0.4059
  928MPD2     H13633   2.750   0.939   0.361  1.1211 -0.7019 -0.2244
  928MPD2    H113634   3.079   0.807   0.607  1.0865  0.4469 -3.2922
  928MPD2    H213635   2.692   0.734   0.736  0.0053  2.3466  0.8442
  928MPD2    H313636   2.924   0.738   0.768  2.8450  0.2749 -1.3212
  928MPD2     N13637   3.011   0.915   0.365 -0.0361 -0.0751 -0.6912
  928MPD2    H513638   2.959   0.957   0.289  2.8021 -2.9534 -4.2393
  928MPD2    N113639   2.560   0.858   0.539  0.4629 -0.0059  0.2438
  928MPD2    H713640   2.500   0.822   0.612  0.4035  1.7598  1.0799
  929MPD2     C13641   3.111   0.648   9.648  0.0822 -0.0825  0.6084
  929MPD2    C113642   3.084   0.524   9.697 -0.1373 -0.0160 -0.0604
  929MPD2    C213643   3.025   0.430   9.614 -0.3314  0.9080  0.0326
  929MPD2    C313644   2.970   0.474   9.486  0.2504 -0.3211  0.2979
  929MPD2    C413645   3.000   0.601   9.441  0.3258 -0.6851 -0.6521
  929MPD2    C513646   3.072   0.691   9.519  0.5806  0.3235 -0.2059
  929MPD2     H13647   2.999   0.333   9.654  1.3339  0.0679 -0.9114
  929MPD2    H113648   2.973   0.631   9.340 -0.3832 -2.0562 -0.8749
  929MPD2    H213649   3.147   0.720   9.720  0.0848  0.7157 -0.1906
  929MPD2    H313650   3.086   0.793   9.485  1.0763  0.0640 -0.7554
  929MPD2     N13651   2.897   0.386   9.411  0.2670  0.3694  0.2507
  929MPD2    H513652   2.895   0.399   9.310  0.0591  1.0660  0.3476
  929MPD2    N113653   3.107   0.502   9.840  0.3310  0.3020  0.3797
  929MPD2    H713654   3.139   0.587   9.886  1.0613 -0.2938  0.9717
  930MPD2     C13655   0.489   2.602  14.001  0.7061 -0.2310  0.1791
  930MPD2    C113656   0.615   2.649  13.983 -0.2987  0.1144  0.3407
  930MPD2    C213657   0.674   2.628  13.865 -0.3807  0.2765 -0.4699
  930MPD2    C313658   0.609   2.573  13.765  0.1748  0.1115  0.0747
  930MPD2    C413659   0.486   2.512  13.788 -0.1648 -0.4440 -0.1087
  930MPD2    C513660   0.424   2.529  13.907 -0.7177  0.3617 -0.0766
  930MPD2     H13661   0.774   2.664  13.844  0.3871 -0.2993  2.2131
  930MPD2    H113662   0.429   2.462  13.711 -0.7090 -0.3746  0.2485
  930MPD2    H213663   0.443   2.605  14.099  1.0307 -2.4719  0.4021
  930MPD2    H313664   0.323   2.493  13.920  0.1612 -1.9592  0.5197
  930MPD2     N13665   0.636   2.588  13.628 -0.4792 -0.0563  0.1180
  930MPD2    H513666   0.570   2.548  13.562 -1.0850  0.4324  0.4273
  930MPD2    N113667   0.686   2.718  14.091  0.1130  0.4941 -0.1532
  930MPD2    H713668   0.630   2.753  14.167  1.2240  0.7831  0.5350
  931MPD2     C13669   4.388   2.130   0.459 -0.1389 -0.1006 -0.0165
  931MPD2    C113670   4.443   2.257   0.468  0.4731  0.4734  0.0997
  931MPD2    C213671   4.509   2.294   0.576  0.4794  0.0136 -0.3247
  931MPD2    C313672   4.531   2.203   0.680 -1.0315  0.0714  0.6480
  931MPD2    C413673   4.470   2.077   0.681 -0.2555  0.4824 -1.0230
  931MPD2    C513674   4.395   2.043   0.565 -0.1670  0.4019 -0.0138
  931MPD2     H13675   4.566   2.385   0.567  2.2646 -0.9811  0.8682
  931MPD2    H113676   4.470   2.012   0.768  0.8068  0.1779 -1.2539
  931MPD2    H213677   4.322   2.107   0.376  1.3676 -1.0674 -0.9531
  931MPD2    H313678   4.333   1.955   0.573 -1.4628  1.2242 -1.0782
  931MPD2     N13679   4.606   2.242   0.793 -0.1182  0.4158  0.2337
  931MPD2    H513680   4.607   2.167   0.862 -0.9684 -0.5854 -0.8435
  931MPD2    N113681   4.422   2.336   0.350  0.6725  0.1498 -0.5110
  931MPD2    H713682   4.395   2.290   0.264  0.9419 -2.2015  0.6553
  932MPD2     C13683   1.427   1.071  10.992 -0.1694  0.3235 -0.0552
  932MPD2    C113684   1.521   1.143  11.063  0.0734 -0.0634 -0.1108
  932MPD2    C213685   1.624   1.075  11.126  0.8173  1.1319  0.2150
  932MPD2    C313686   1.639   0.941  11.104  0.7418 -0.5836 -0.5603
  932MPD2    C413687   1.544   0.870  11.031 -0.1945 -0.1416 -0.0765
  932MPD2    C513688   1.435   0.937  10.971  0.4673 -0.1724  0.1636
  932MPD2     H13689   1.692   1.136  11.185  1.1355  1.7318 -0.7715
  932MPD2    H113690   1.564   0.769  10.997 -1.6857 -0.1969 -0.8172
  932MPD2    H213691   1.351   1.121  10.932 -1.1427  0.1820  1.0525
  932MPD2    H313692   1.393   0.876  10.892  0.6194  2.0512 -1.6408
  932MPD2     N13693   1.758   0.877  11.142 -0.0986  0.7240 -0.8125
  932MPD2    H513694   1.760   0.779  11.114  0.2119  0.8222 -1.1269
  932MPD2    N113695   1.530   1.284  11.064 -0.4001 -0.6774  0.2926
  932MPD2    H713696   1.608   1.322  11.116  0.9249 -1.9148 -0.7939
  933MPD2     C13697   2.099   1.090  17.684  0.4076  0.5292  0.0626
  933MPD2    C113698   2.114   1.182   0.017  0.1002 -0.1994 -0.5754
  933MPD2    C213699   2.107   1.310  17.743 -0.3802  1.0842  0.4040
  933MPD2    C313700   2.076   1.348  17.614  0.7380  0.0193 -0.5909
  933MPD2    C413701   2.059   1.255  17.518 -0.4164 -0.4195  0.7203
  933MPD2    C513702   2.063   1.122  17.554  0.3921 -0.1487 -1.1581
  933MPD2     H13703   2.108   1.392   0.056  0.7121  0.7185  0.8147
  933MPD2    H113704   2.046   1.280  17.413  2.9846 -0.1397  0.3560
  933MPD2    H213705   2.110   0.985  17.709 -0.3841  1.5393  4.5840
  933MPD2    H313706   2.041   1.048  17.478  0.6657 -0.5519 -0.8394
  933MPD2     N13707   2.056   1.494  17.594  0.1565  0.6515 -0.4704
  933MPD2    H513708   2.080   1.556  17.670  2.2595  0.8462 -1.3025
  933MPD2    N113709   2.156   1.127   0.146 -0.1266  0.5975  0.3181
  933MPD2    H713710   2.166   1.026   0.149  2.5310  0.9262  2.3011
  934MPD2     C13711   4.649   3.807   1.863 -0.2028  0.4553 -0.0021
  934MPD2    C113712   4.710   3.727   1.769 -0.4892 -0.2068 -0.1619
  934MPD2    C213713   4.634   3.681   1.662 -0.1669  0.2320 -0.4806
  934MPD2    C313714   4.493   3.700   1.661  0.5163  0.6322 -0.4799
  934MPD2    C413715   4.442   3.792   1.753  0.5265  0.2061 -0.0532
  934MPD2    C513716   4.523   3.852   1.849 -0.2599  0.4745 -0.5125
  934MPD2     H13717   4.686   3.624   1.585  1.1658  1.0186 -0.1617
  934MPD2    H113718   4.338   3.819   1.739  0.3745 -1.4932 -2.2115
  934MPD2    H213719   4.703   3.848   1.948  0.3328  0.2498 -0.2435
  934MPD2    H313720   4.481   3.912   1.928 -1.7837 -1.8149  0.4092
  934MPD2     N13721   4.401   3.641   1.577 -0.4801  0.3838  0.1685
  934MPD2    H513722   4.302   3.657   1.586 -0.5678  0.6156 -1.2993
  934MPD2    N113723   0.104   3.677   1.782 -0.3561 -0.6342 -0.1505
  934MPD2    H713724   0.133   3.616   1.707 -1.3471 -0.1429 -0.9319
  935MPD2     C13725   4.531   2.788   1.055 -0.9311  0.0875  0.4881
  935MPD2    C113726   4.395   2.812   1.041 -0.1539 -0.3962 -0.1284
  935MPD2    C213727   4.343   2.922   1.109  0.5034  0.3000  0.5704
  935MPD2    C313728   4.422   3.017   1.181 -0.3575 -0.5941  0.5595
  935MPD2    C413729   4.554   2.988   1.180 -0.0939  0.4536 -0.1417
  935MPD2    C513730   4.609   2.884   1.117 -0.2826 -0.1910  0.8809
  935MPD2     H13731   4.237   2.940   1.112  0.3382 -0.7547  0.8313
  935MPD2    H113732   4.617   3.056   1.236 -0.9798  0.8473  0.3625
  935MPD2    H213733   4.573   2.698   1.011  2.4698  1.7064  0.4060
  935MPD2    H313734   4.715   2.870   1.132 -0.3782 -2.5699 -0.7202
  935MPD2     N13735   4.375   3.139   1.245 -0.0791 -0.0523  0.4346
  935MPD2    H513736   4.442   3.179   1.310  1.0894  2.4348 -2.3365
  935MPD2    N113737   4.303   2.740   0.963 -0.6695 -0.0678  0.2401
  935MPD2    H713738   4.207   2.772   0.974 -1.8505 -2.2430 -3.8970
  936MPD2     C13739   2.158   4.508  12.293  0.0686 -0.6423  0.3672
  936MPD2    C113740   2.257   4.474  12.380  0.3892  0.3287  0.1937
  936MPD2    C213741   2.385   4.524  12.364  0.6072 -0.4980  0.5934
  936MPD2    C313742   2.420   4.612  12.263  0.6305 -0.1479  0.1553
  936MPD2    C413743   2.318   4.651  12.178  0.9472 -0.3211 -0.5553
  936MPD2    C513744   2.186   4.600  12.190  0.3631 -0.1048 -0.6232
  936MPD2     H13745   2.462   4.480  12.426  0.6212 -1.2571  0.0379
  936MPD2    H113746   2.340   4.734  12.112  2.5912 -0.4865 -0.1935
  936MPD2    H213747   2.056   4.475  12.312 -0.1455  0.7396  1.5948
  936MPD2    H313748   2.110   4.634  12.120  1.1363  2.6675 -0.0891
  936MPD2     N13749   2.558   4.647  12.254 -0.2466  0.2572  0.4957
  936MPD2    H513750   2.623   4.604  12.318  1.8810  0.3992 -1.5628
  936MPD2    N113751   2.239   4.391  12.491  0.0975 -0.4722 -0.5826
  936MPD2    H713752   2.298   4.410  12.571  0.7924 -3.5288 -0.3505
  937MPD2     C13753   0.045   1.191  11.804 -0.5115  0.0974 -0.1176
  937MPD2    C113754   0.079   1.325  11.822  0.4122 -0.4361 -0.0937
  937MPD2    C213755   0.123   1.384  11.702 -0.2166  0.5264  0.6024
  937MPD2    C313756   0.166   1.313  11.589 -0.0093 -0.2309 -0.3397
  937MPD2    C413757   0.137   1.176  11.580  0.5841  0.0259 -0.1300
  937MPD2    C513758   0.076   1.122  11.688 -0.3611 -0.1280 -0.4234
  937MPD2     H13759   0.155   1.487  11.710  2.3229 -0.1968 -0.3498
  937MPD2    H113760   0.151   1.116  11.491  3.0843  2.4315 -1.3746
  937MPD2    H213761   4.720   1.144  11.877  2.2603 -0.4568  1.9971
  937MPD2    H313762   0.042   1.019  11.682  0.3158 -0.4426  1.0845
  937MPD2     N13763   0.232   1.390  11.483  0.1331  0.0840 -0.3053
  937MPD2    H513764   0.244   1.491  11.491  1.0168  0.0430 -1.1080
  937MPD2    N113765   0.022   1.409  11.925  0.2242  0.4654  0.2778
  937MPD2    H713766   0.015   1.509  11.910  2.7574  0.5773 -0.2700
  938MPD2     C13767   3.156   3.005  17.728 -0.1747 -0.7904  0.8317
  938MPD2    C113768   3.224   3.042   0.084  0.3897  0.1226 -0.5967
  938MPD2    C213769   3.178   3.006   0.211 -0.0369 -0.3981  0.6937
  938MPD2    C313770   3.070   2.926   0.231 -0.3138  0.3996 -0.1022
  938MPD2    C413771   3.000   2.891   0.117 -0.1588 -0.7346  1.1415
  938MPD2    C513772   3.042   2.925  17.751 -0.1222  0.1395 -0.2183
  938MPD2     H13773   3.221   3.054   0.298  1.6635 -2.0200  0.7523
  938MPD2    H113774   2.910   2.832   0.127 -0.8911  0.4272  1.3324
  938MPD2    H213775   3.175   3.025  17.623 -1.3435 -0.6148  0.6537
  938MPD2    H313776   2.987   2.892  17.664  0.9001  1.0933 -1.2359
  938MPD2     N13777   3.012   2.878   0.348  0.1527  0.7395 -0.5447
  938MPD2    H513778   2.931   2.817   0.343 -0.8665  1.8312  2.7998
  938MPD2    N113779   3.342   3.119   0.074 -1.0285  0.1308 -0.5723
  938MPD2    H713780   3.383   3.158   0.159 -0.5055 -2.4455  0.3460
  939MPD2     C13781   4.456   3.652   0.741 -0.7769  0.3846 -0.2343
  939MPD2    C113782   4.429   3.778   0.694 -0.5338  0.3196  0.1675
  939MPD2    C213783   4.474   3.813   0.565  0.2922  0.0661 -0.2887
  939MPD2    C313784   4.560   3.729   0.493  0.2936  0.2137  0.3440
  939MPD2    C413785   4.585   3.606   0.545 -0.0802  0.5054 -0.3449
  939MPD2    C513786   4.535   3.569   0.669  0.5735  0.4951 -0.4748
  939MPD2     H13787   4.468   3.915   0.528  1.3730  0.4521  0.6208
  939MPD2    H113788   4.655   3.540   0.495 -1.7538 -0.9621 -0.7856
  939MPD2    H213789   4.408   3.614   0.830 -2.6781  2.8867 -0.1787
  939MPD2    H313790   4.558   3.473   0.714  1.8636  1.4634  0.9003
  939MPD2     N13791   4.605   3.776   0.367 -0.3569  0.3244  0.6062
  939MPD2    H513792   4.561   3.858   0.327  3.0557  0.9490 -1.8788
  939MPD2    N113793   4.360   3.867   0.778 -0.1879  0.1526  0.4062
  939MPD2    H713794   4.334   3.837   0.872 -1.7908 -0.6051 -0.2652
  940MPD2     C13795   3.004   0.313  13.146  0.2694 -0.2764 -0.4729
  940MPD2    C113796   3.085   0.202  13.181  0.1908 -0.2784  0.5391
  940MPD2    C213797   3.182   0.150  13.101 -0.1153  0.1064  0.0361
  940MPD2    C313798   3.209   0.219  12.984  0.7469  0.3612  0.5354
  940MPD2    C413799   3.145   0.332  12.959 -1.2127 -0.3902 -0.1415
  940MPD2    C513800   3.050   0.384  13.042  0.0649 -0.2762  0.6843
  940MPD2     H13801   3.232   0.056  13.119 -0.7478 -0.2279  0.0160
  940MPD2    H113802   3.168   0.391  12.870 -1.7885 -0.2407 -0.1909
  940MPD2    H213803   2.925   0.360  13.204 -1.5373  0.4632 -3.5359
  940MPD2    H313804   2.997   0.474  13.013  2.4503  1.5022  1.8815
  940MPD2     N13805   3.286   0.169  12.873  0.4389 -0.0854 -0.0736
  940MPD2    H513806   3.272   0.206  12.780 -2.7544 -3.0158 -0.7890
  940MPD2    N113807   3.056   0.137  13.308  0.3769 -0.2079  0.1012
  940MPD2    H713808   3.114   0.059  13.336  0.0905 -0.7163 -0.7393
  941MPD2     C13809   2.307   3.718   9.304 -0.1024 -0.5375 -0.2236
  941MPD2    C113810   2.325   3.660   9.432  0.2405 -0.1694 -0.2310
  941MPD2    C213811   2.229   3.577   9.486  0.2664 -0.0766  0.6348
  941MPD2    C313812   2.112   3.559   9.413 -0.0734  0.1877 -0.0657
  941MPD2    C413813   2.098   3.610   9.289 -0.2216 -0.0115 -0.0307
  941MPD2    C513814   2.192   3.683   9.234 -0.0116  0.0395  1.0938
  941MPD2     H13815   2.235   3.540   9.588 -0.2249  1.2562  1.1591
  941MPD2    H113816   2.013   3.578   9.230  1.4616 -2.2272 -1.2500
  941MPD2    H213817   2.376   3.761   9.232 -0.8167 -1.0292 -1.2003
  941MPD2    H313818   2.180   3.728   9.136  1.9405 -0.5103  0.6069
  941MPD2     N13819   1.999   3.480   9.457  0.7821 -0.2252 -0.1925
  941MPD2    H513820   1.920   3.459   9.398  1.1313 -2.9124  0.2741
  941MPD2    N113821   2.448   3.680   9.513  0.4625 -0.1389 -0.4093
  941MPD2    H713822   2.440   3.647   9.608 -1.3787  1.6509  0.0765
  942MPD2     C13823   2.282   0.858   9.019 -0.6804 -0.2565 -0.4507
  942MPD2    C113824   2.351   0.750   9.076  0.0481  0.0537  0.4611
  942MPD2    C213825   2.488   0.735   9.032  0.0055 -0.1082 -0.1551
  942MPD2    C313826   2.553   0.832   8.955  0.0455 -0.2466  0.4189
  942MPD2    C413827   2.476   0.932   8.902  0.4284 -0.3508 -0.1776
  942MPD2    C513828   2.344   0.939   8.932 -0.3137 -0.0732  1.1436
  942MPD2     H13829   2.543   0.650   9.069 -1.6449 -0.8181  0.6977
  942MPD2    H113830   2.516   1.010   8.838 -0.3881  3.0871  3.4970
  942MPD2    H213831   2.178   0.877   9.045 -0.8495  0.5285 -1.7168
  942MPD2    H313832   2.287   1.018   8.885  1.7519  0.4442 -0.4899
  942MPD2     N13833   2.695   0.837   8.928 -0.3844 -0.4717 -0.3140
  942MPD2    H513834   2.732   0.913   8.871  0.1208 -0.3631  0.1630
  942MPD2    N113835   2.287   0.658   9.162 -1.4081  0.1320 -0.2973
  942MPD2    H713836   2.330   0.569   9.185 -0.2792  0.4646 -1.1183
  943MPD2     C13837   0.908   4.006  10.515  0.3296  0.9969  0.6808
  943MPD2    C113838   0.827   3.893  10.525  0.2432 -0.4909  0.2436
  943MPD2    C213839   0.741   3.885  10.628 -0.3381  0.0138  0.5543
  943MPD2    C313840   0.738   3.988  10.721  0.0268 -0.1682  0.0377
  943MPD2    C413841   0.809   4.106  10.712  0.2744  0.3815 -0.1932
  943MPD2    C513842   0.904   4.103  10.614  0.6422 -0.2044  0.6496
  943MPD2     H13843   0.688   3.792  10.643  0.5692 -0.4623  0.8068
  943MPD2    H113844   0.812   4.191  10.779  2.9578 -0.9681  1.4304
  943MPD2    H213845   0.987   4.007  10.441  0.2818 -0.1006  0.6059
  943MPD2    H313846   0.957   4.195  10.593 -0.4031  0.5130  1.1512
  943MPD2     N13847   0.655   3.979  10.834 -0.1902 -0.2697 -0.0761
  943MPD2    H513848   0.628   4.067  10.876 -1.1388 -1.2400  1.3569
  943MPD2    N113849   0.831   3.781  10.435  0.4709 -0.3948  0.2458
  943MPD2    H713850   0.915   3.777  10.379  1.4609  0.8012  1.6486
  944MPD2     C13851   0.475   2.637  10.927 -0.3075  0.4321 -0.8362
  944MPD2    C113852   0.530   2.748  10.863 -0.4057  0.1370  0.1792
  944MPD2    C213853   0.509   2.874  10.919 -0.9036 -0.6432 -0.0467
  944MPD2    C313854   0.438   2.896  11.038  0.1389  0.4652 -0.0353
  944MPD2    C413855   0.403   2.779  11.106  0.0328 -0.0054 -0.1434
  944MPD2    C513856   0.394   2.654  11.039  0.3432 -0.2142  0.1861
  944MPD2     H13857   0.553   2.959  10.869 -0.7591 -2.0949 -2.3666
  944MPD2    H113858   0.364   2.786  11.207  1.4303  1.0148  0.3231
  944MPD2    H213859   0.490   2.539  10.882 -2.0021  0.4237 -1.3855
  944MPD2    H313860   0.351   2.574  11.099  0.3313 -0.8000 -0.5912
  944MPD2     N13861   0.415   3.028  11.086  0.0083 -0.4618  0.4129
  944MPD2    H513862   0.443   3.108  11.031 -1.2421 -0.1200  0.2727
  944MPD2    N113863   0.605   2.727  10.748  0.3033 -0.0664 -0.4339
  944MPD2    H713864   0.617   2.635  10.707  1.3983 -0.0068 -0.2414
    1TMC1    C113865   3.571   3.733  13.429 -0.2299 -0.0497  0.2421
    1TMC1    C213866   3.521   3.791  13.318 -0.0348  0.1321 -0.8777
    1TMC1    C313867   3.428   3.722  13.252  0.2007  0.8724 -0.4450
    1TMC1    C413868   3.557   3.600  13.449 -0.7947  0.3921  0.4411
    1TMC1    C513869   3.478   3.523  13.369  0.2107 -0.4141 -0.0060
    1TMC1    C613870   3.409   3.586  13.268 -0.1947 -0.0358  0.1919
    1TMC1     C13871   3.665   3.808  13.512  0.5262  0.0686 -0.2580
    1TMC1     O13872   3.735   3.746  13.594  0.8191 -0.0232 -0.0850
    1TMC1     H13873   3.522   3.898  13.300  0.2346  0.1638 -0.6712
    1TMC1    H113874   3.626   3.558  13.522 -0.0570 -2.0195 -1.6313
    1TMC1    H213875   3.345   3.524  13.206  2.3479 -2.3488 -0.0901
    1TMC1    C713876   3.520   3.390  13.375 -0.1613 -0.1788  1.2643
    1TMC1    C813877   3.409   3.773  13.122  0.2366  1.1186  0.1277
    1TMC1    O113878   3.553   3.326  13.271  0.4864  0.4336  0.0784
    1TMC1    O213879   3.478   3.854  13.065 -0.0282 -0.1482 -0.4722
    1TMC1    O313880   3.473   3.336  13.491  0.4932 -0.6442 -0.9403
    1TMC1    H313881   3.452   3.404  13.559  1.7724  1.4150 -2.5933
    1TMC1    O513882   3.306   3.707  13.063  0.2326 -0.7771  0.2360
    1TMC1    H513883   3.250   3.660  13.129  1.2452  0.0064  1.6153
    2MPD2     C13884   3.799   4.236  13.766  0.2378  0.2804  0.4954
    2MPD2    C113885   3.719   4.268  13.659 -0.3654  0.7617  0.6663
    2MPD2    C213886   3.665   4.171  13.581 -0.4340 -0.0320 -0.0968
    2MPD2    C313887   3.704   4.037  13.591 -0.1184  0.1090 -0.8319
    2MPD2    C413888   3.794   4.008  13.690 -0.6461 -0.9245 -1.0487
    2MPD2    C513889   3.847   4.107  13.775  0.0278  0.6725 -0.0556
    2MPD2     H13890   3.591   4.202  13.508 -0.3431  1.6758  0.5479
    2MPD2    H113891   3.831   3.907  13.709  0.1402 -0.5268 -0.4807
    2MPD2    H213892   3.832   4.313  13.835  2.3181  0.1090 -0.2950
    2MPD2    H313893   3.916   4.074  13.852  0.0614  0.6954 -0.0756
    2MPD2     N13894   3.645   3.947  13.506  0.8321  0.0300  0.0941
    2MPD2    H513895   3.577   3.981  13.440 -0.2365  1.2864  1.8404
    2MPD2    N113896   3.689   4.407  13.648  0.2522  0.4348  0.4601
    2MPD2    H713897   3.746   4.460  13.713  0.9708  1.1063 -0.7061
    3TMC2    C113898   3.593   4.613  13.582 -0.1094 -0.0039 -0.1932
    3TMC2    C213899   3.562   4.701  13.474  0.1180  0.3262  0.2816
    3TMC2    C313900   3.526   0.087  13.514  0.3284 -0.2446 -0.6241
    3TMC2    C413901   3.589   4.653  13.714  0.3933  0.0388 -0.6768
    3TMC2    C513902   3.545   0.043  13.745  0.0146 -0.0982  0.2265
    3TMC2    C613903   3.517   0.131  13.646 -0.0395  0.3709 -0.0141
    3TMC2     C13904   3.604   4.473  13.559 -0.6929  0.3721 -0.6599
    3TMC2     O13905   3.539   4.422  13.470  0.2129 -0.3546 -0.0526
    3TMC2     H13906   3.588   4.667  13.374  0.6481  0.2397  0.4467
    3TMC2    H113907   3.587   4.583  13.796 -2.3133  0.8746 -0.0347
    3TMC2    H213908   3.497   0.237  13.663  1.7071  0.7647 -0.4188
    3TMC2    C713909   3.450   0.046  13.857 -0.4112 -0.1520 -0.7690
    3TMC2    C813910   3.513   0.193  13.415  0.2056 -0.1543 -1.0850
    3TMC2    O113911   3.471   4.720  13.959  0.2826  0.2802 -0.3065
    3TMC2    O213912   3.520   0.312  13.441  0.2005 -0.2034 -0.2033
    3TMC2    O513913   3.451   0.149  13.305  0.0357  0.3614 -0.6734
    3TMC2    H513914   3.409   0.061  13.312  0.8435 -0.2091 -2.9073
    4TMC2    C113915   2.560   0.434  13.690 -0.3626 -0.0010  0.2934
    4TMC2    C213916   2.549   0.532  13.600  0.1614  0.6496  0.5055
    4TMC2    C313917   2.663   0.611  13.594  0.3415 -0.3539 -1.0113
    4TMC2    C413918   2.669   0.403  13.773 -0.7823  0.0931  0.3324
    4TMC2    C513919   2.778   0.484  13.763 -0.0103  0.6757  0.4572
    4TMC2    C613920   2.778   0.581  13.666  0.2746  0.2752 -0.0737
    4TMC2     C13921   2.453   0.335  13.687  0.6237 -0.4830  0.0359
    4TMC2     O13922   2.423   0.275  13.786  0.3025 -0.2301  0.7102
    4TMC2     H13923   2.459   0.550  13.542  0.2317  2.6568  0.9981
    4TMC2    H113924   2.654   0.318  13.839  0.2025 -1.7205 -1.7866
    4TMC2    H213925   2.868   0.641  13.664  1.0685 -0.9767 -1.2264
    4TMC2    C713926   2.909   0.430  13.793  0.2611  0.4952 -0.4088
    4TMC2    C813927   2.673   0.690  13.477 -0.0589 -0.2791 -0.0844
    4TMC2    O113928   3.000   0.471  13.722  0.2960  0.9880 -0.0616
    4TMC2    O213929   2.570   0.738  13.428 -0.6667 -0.4996 -0.0891
    4TMC2    O513930   2.794   0.673  13.427 -1.0255  0.3228 -0.3130
    4TMC2    H513931   2.855   0.613  13.475  0.1770  2.1489  0.4146
    5MPD2     C13932   2.077   0.120  13.424 -0.1899  0.5721  0.1221
    5MPD2    C113933   2.163   0.168  13.325  0.2503 -0.2799  0.0722
    5MPD2    C213934   2.277   0.232  13.371 -1.2445 -0.2188 -0.0823
    5MPD2    C313935   2.296   0.258  13.513  0.5336  0.6959 -0.4871
    5MPD2    C413936   2.203   0.218  13.603  0.4604  0.2862  0.1334
    5MPD2    C513937   2.096   0.148  13.555 -0.0261  0.7747  0.1216
    5MPD2     H13938   2.349   0.262  13.295 -1.5475  2.1529  0.5727
    5MPD2    H113939   2.212   0.234  13.710 -0.8080 -0.0260  0.2837
    5MPD2    H213940   1.984   0.072  13.398  0.8168 -0.7287 -1.0960
    5MPD2    H313941   2.024   0.108  13.626  1.0999 -0.8565  0.3627
    5MPD2     N13942   2.412   0.328  13.553  0.2842  0.2175  0.2945
    5MPD2    H513943   2.474   0.360  13.479 -1.8461  1.2141 -1.0728
    5MPD2    N113944   2.130   0.152  13.187  0.0724 -0.0289  0.0113
    5MPD2    H713945   2.036   0.119  13.167  1.2884 -2.8252 -1.1628
    6MPD1     C13946   2.216   1.686  13.505  0.2987 -0.1583  0.1043
    6MPD1    C113947   2.326   1.622  13.454 -0.2738  0.2343 -0.4495
    6MPD1    C213948   2.302   1.518  13.359 -0.7440 -0.5724 -0.0323
    6MPD1    C313949   2.180   1.522  13.288 -0.9533  0.8753 -0.7101
    6MPD1    C413950   2.075   1.603  13.331 -0.4205  0.2176 -0.5647
    6MPD1    C513951   2.099   1.684  13.437 -0.0927 -0.3350 -0.1957
    6MPD1     H13952   2.380   1.447  13.332  0.4396  1.0254 -0.8028
    6MPD1    H113953   1.978   1.601  13.283 -0.5501  3.3614 -0.4858
    6MPD1    H213954   2.231   1.751  13.591  2.8017  1.0965 -1.2805
    6MPD1    H313955   2.016   1.742  13.476  0.7216  1.2462 -0.7779
    6MPD1     N13956   2.155   1.437  13.179 -0.6766  0.0458 -0.1553
    6MPD1    H513957   2.062   1.447  13.139 -1.4453 -0.7484  1.4518
    6MPD1    N113958   2.444   1.621  13.529  0.8387  0.5120 -0.6326
    6MPD1    H613959   2.523   1.593  13.472  1.8596 -0.2977  1.1444
    6MPD1    H713960   2.467   1.711  13.571  0.5902  0.6160 -0.7229
    7MPD2     C13961   1.694   0.794  13.032 -0.3552  0.6114 -0.2566
    7MPD2    C113962   1.818   0.791  12.968 -0.3540 -0.1522 -0.0949
    7MPD2    C213963   1.864   0.671  12.922  0.7397  0.2416 -0.4536
    7MPD2    C313964   1.796   0.552  12.945  0.8037 -0.5157 -0.3894
    7MPD2    C413965   1.669   0.559  12.998 -0.5189  0.1741  0.0762
    7MPD2    C513966   1.621   0.680  13.053  0.0993 -0.1367  0.0085
    7MPD2     H13967   1.962   0.671  12.876  0.3311 -1.7567 -1.3237
    7MPD2    H113968   1.609   0.469  13.011  0.0426 -0.2021  0.0820
    7MPD2    H213969   1.655   0.890  13.063  1.0249  1.6595 -1.7465
    7MPD2    H313970   1.532   0.688  13.115 -1.3086  1.1649 -2.1761
    7MPD2     N13971   1.841   0.429  12.901  0.2836  0.1844  0.4765
    7MPD2    H513972   1.781   0.352  12.931 -0.7870  0.8790  0.1383
    7MPD2    N113973   1.913   0.898  12.962 -0.2126 -0.2045 -0.1164
    7MPD2    H713974   1.997   0.868  12.913 -1.2941 -0.5278 -1.7518
    8TMC3    C113975   2.009   0.283  12.805 -0.1268  0.4232 -0.5210
    8TMC3    C213976   2.035   0.222  12.926 -0.7812  0.6667 -0.3089
    8TMC3    C313977   2.153   0.171  12.944  0.3617 -0.6910 -0.2521
    8TMC3    C413978   2.110   0.296  12.707  0.1019  0.0478 -0.1370
    8TMC3    C513979   2.228   0.228  12.725  0.1189  0.0818 -0.0404
    8TMC3    C613980   2.249   0.163  12.848  1.1699 -0.1816 -0.0573
    8TMC3     C13981   1.949   0.416  12.816  0.0102 -0.2321 -0.7693
    8TMC3     O13982   2.028   0.494  12.763  0.0842 -0.3581  0.1406
    8TMC3     H13983   1.969   0.236  13.011 -0.1860 -1.9074  0.5767
    8TMC3    H113984   2.099   0.349  12.613 -0.5727  0.0355 -0.0629
    8TMC3    H213985   2.342   0.110  12.867  1.1445 -0.8021 -1.6207
    8TMC3    C713986   2.340   0.309  12.694 -0.0488  0.1592  0.3061
    8TMC3    C813987   2.215   0.175  13.079  0.0407 -0.4007  0.8731
    8TMC3    O113988   2.459   0.271  12.682 -0.2885  0.0305 -0.0592
    8TMC3    O213989   2.323   0.229  13.078 -0.6828  0.8584  0.5211
    9TMC3    C113990   2.186   1.257  13.028 -0.1405  0.1175  0.1236
    9TMC3    C213991   2.274   1.206  12.937 -0.5273  0.7570 -0.3475
    9TMC3    C313992   2.232   1.100  12.865  0.2573  0.1721  0.9534
    9TMC3    C413993   2.061   1.211  13.047 -0.8587  0.7075  0.1822
    9TMC3    C513994   2.025   1.095  12.974  0.1959  0.2252  0.5378
    9TMC3    C613995   2.112   1.046  12.883  0.6396 -0.5645 -0.6109
    9TMC3     C13996   2.243   1.350  13.121 -0.5525  0.2249  0.1591
    9TMC3     O13997   2.363   1.351  13.133 -0.4155  0.0673 -0.1402
    9TMC3     H13998   2.377   1.239  12.928  0.2413 -2.2545 -2.3904
    9TMC3    H113999   1.992   1.230  13.128 -0.1003  1.2598  0.6951
    9TMC3    H214000   2.080   0.968  12.815  0.0443 -0.9716  0.1368
    9TMC3    C714001   1.901   1.024  13.006 -0.5010 -0.4975  0.1988
    9TMC3    C814002   2.340   1.026  12.800  0.4622  0.0555  0.1356
    9TMC3    O114003   1.824   1.074  13.087  0.1375 -0.1048 -0.0185
    9TMC3    O214004   2.424   1.092  12.744 -0.0812 -0.0155  0.0562
   10MPD2     C14005   2.491   0.564  12.632 -0.9041  0.1763  0.2203
   10MPD2    C114006   2.373   0.554  12.700  1.0279 -0.0880 -0.0637
   10MPD2    C214007   2.309   0.666  12.739  0.2413  0.0615  0.6119
   10MPD2    C314008   2.363   0.790  12.728 -0.1457 -0.0742 -0.2695
   10MPD2    C414009   2.485   0.802  12.661  0.5549  0.0837 -1.2134
   10MPD2    C514010   2.545   0.684  12.623 -0.3295 -0.6876  1.0446
   10MPD2     H14011   2.218   0.655  12.797  0.6748 -1.6085  0.9553
   10MPD2    H114012   2.544   0.892  12.652  0.1904  0.3854 -0.6077
   10MPD2    H214013   2.545   0.479  12.593  0.8136  1.0585  0.6426
   10MPD2    H314014   2.641   0.687  12.571 -0.9864 -1.9539 -0.2473
   10MPD2     N14015   2.308   0.891  12.800  0.2234 -0.2045  0.4839
   10MPD2    H514016   2.237   0.873  12.870  0.7100 -0.6634  0.8578
   10MPD2    N114017   2.298   0.436  12.710  0.2902  0.1398  0.1547
   10MPD2    H714018   2.207   0.449  12.754  1.3097 -3.7017  3.3720
   11MPD2     C14019   3.231   0.113  14.053 -0.2035 -0.6826 -0.2589
   11MPD2    C114020   3.238   0.152  13.926  0.0447 -0.2825  0.0844
   11MPD2    C214021   3.145   0.246  13.885 -0.7292  0.1262  0.0039
   11MPD2    C314022   3.033   0.279  13.960 -0.5486 -0.1911 -1.1098
   11MPD2    C414023   3.036   0.240  14.088 -0.1964 -0.2374 -0.2497
   11MPD2    C514024   3.135   0.160  14.135 -0.2628  0.0663 -0.2185
   11MPD2     H14025   3.143   0.281  13.783 -2.6763 -0.0910 -0.0240
   11MPD2    H114026   2.947   0.253  14.147  0.2830  1.9599  0.0167
   11MPD2    H214027   3.298   0.041  14.099 -2.4482 -3.0315 -0.6655
   11MPD2    H314028   3.133   0.135  14.241 -0.9035 -1.3929 -0.5809
   11MPD2     N14029   2.920   0.361  13.914 -0.4315 -0.1837  0.0687
   11MPD2    H514030   2.835   0.355  13.969 -1.5386 -1.3705 -1.7789
   11MPD2    N114031   3.339   0.116  13.831  0.3061  0.3669 -0.0983
   11MPD2    H714032   3.332   0.162  13.741  1.0987 -0.3771 -0.5371
    1MPD1     C14033   2.302   2.357  16.927  0.4096 -0.5612  0.4403
    1MPD1    C114034   2.324   2.431  16.811  0.1257 -0.9139 -0.1476
    1MPD1    C214035   2.281   2.361  16.692  0.3964 -0.0331 -0.0763
    1MPD1    C314036   2.223   2.235  16.697  0.0234  0.7039 -0.0315
    1MPD1    C414037   2.199   2.173  16.814  0.1784  0.2108 -0.9577
    1MPD1    C514038   2.240   2.234  16.925  0.1546  0.1619  0.1480
    1MPD1     H14039   2.306   2.405  16.596 -1.8500  0.1481 -0.5706
    1MPD1    H114040   2.145   2.079  16.823  0.5531  0.0965  0.2212
    1MPD1    H214041   2.326   2.395  17.025 -1.7204 -0.3011  0.8659
    1MPD1    H314042   2.217   2.198  17.025  2.9349 -1.1544  0.3088
    1MPD1     N14043   2.185   2.166  16.581 -0.3888 -0.6087 -0.3143
    1MPD1    H514044   2.143   2.075  16.600 -1.9622  0.1076 -0.3815
    1MPD1    N114045   2.409   2.545  16.816  0.0079  0.4011  0.1776
    1MPD1    H614046   2.374   2.605  16.741  0.4590  0.2142 -0.1841
    1MPD1    H714047   2.400   2.590  16.906  1.2540  1.9598 -0.4786
    2MPD1     C14048   1.813   2.464  15.680 -0.4298  0.3072  0.5344
    2MPD1    C114049   1.780   2.511  15.812 -0.2047 -0.2067 -0.0999
    2MPD1    C214050   1.844   2.445  15.916  0.0721  0.3275  0.3987
    2MPD1    C314051   1.913   2.328  15.900 -0.4554 -0.3512 -0.1006
    2MPD1    C414052   1.938   2.281  15.770  0.0640 -0.3986  0.7910
    2MPD1    C514053   1.885   2.355  15.667 -0.1730 -0.4837 -0.7402
    2MPD1     H14054   1.840   2.502  16.008  0.8429 -0.0592  0.6683
    2MPD1    H114055   1.987   2.187  15.749 -1.0407 -0.5780 -0.9863
    2MPD1    H214056   1.776   2.514  15.591 -0.2166  0.9362  0.7968
    2MPD1    H314057   1.920   2.334  15.567 -0.0236 -1.0238 -0.5743
    2MPD1     N14058   1.961   2.255  16.014  0.1650  0.3082 -0.0372
    2MPD1    H514059   1.960   2.306  16.102  1.1852 -0.0071  0.1594
    2MPD1    N114060   1.711   2.633  15.830  0.9045 -0.1296 -0.2887
    2MPD1    H614061   1.635   2.634  15.763 -1.0320 -0.2539  1.9224
    2MPD1    H714062   1.666   2.634  15.921  0.1249 -3.1243 -0.6252
    3TMC3    C114063   2.042   2.078  16.148 -0.8230  0.8269  0.2688
    3TMC3    C214064   2.017   1.947  16.182 -0.5921  0.6719  0.1110
    3TMC3    C314065   2.075   1.895  16.295 -0.3472 -1.2461 -0.0662
    3TMC3    C414066   2.109   2.164  16.231 -0.5859 -0.7336 -0.1574
    3TMC3    C514067   2.164   2.108  16.345 -0.3136 -0.2208 -0.0697
    3TMC3    C614068   2.136   1.979  16.387  0.8091  0.5153  0.3833
    3TMC3     C14069   2.000   2.123  16.016  0.0660 -0.0992  0.3933
    3TMC3     O14070   1.964   2.042  15.931  1.1727 -0.3680  0.6472
    3TMC3     H14071   1.967   1.887  16.107 -0.7585 -0.7177  1.3329
    3TMC3    H114072   2.133   2.267  16.206 -1.5889 -0.7488 -1.1994
    3TMC3    H214073   2.185   1.930  16.471 -1.4891 -1.4724  0.5583
    3TMC3    C714074   2.201   2.207  16.448 -1.1043 -0.1320 -0.7523
    3TMC3    C814075   2.069   1.749  16.326 -0.0682  0.5112  0.4275
    3TMC3    O114076   2.254   2.308  16.401 -0.7371 -0.2276  0.0950
    3TMC3    O214077   2.136   1.703  16.417 -0.2728 -0.3007 -0.2812
    4MPD1     C14078   1.888   1.280  16.234  0.8202 -0.0732  0.6730
    4MPD1    C114079   1.806   1.373  16.167 -0.1466 -0.8429 -0.2475
    4MPD1    C214080   1.849   1.505  16.177 -0.3296 -0.5413  0.7569
    4MPD1    C314081   1.965   1.539  16.248 -0.2595 -0.7914  0.1400
    4MPD1    C414082   2.044   1.448  16.307 -0.2739  0.2593  0.1216
    4MPD1    C514083   2.004   1.316  16.299  0.2316  0.1879  0.0975
    4MPD1     H14084   1.786   1.582  16.133  1.2622 -0.5724 -1.5966
    4MPD1    H114085   2.125   1.480  16.372 -0.8866 -1.5494  1.7689
    4MPD1    H214086   1.861   1.175  16.226 -0.4598  0.1384  2.4068
    4MPD1    H314087   2.067   1.244  16.349 -0.3646  0.5078  1.3051
    4MPD1     N14088   1.984   1.682  16.246  0.1266 -0.2781  0.2573
    4MPD1    H514089   1.915   1.731  16.190  0.3697  0.5522  0.6850
    4MPD1    N114090   1.678   1.341  16.130 -0.3447 -0.0892  0.5597
    4MPD1    H614091   1.661   1.247  16.096 -0.3607  0.6284 -1.4168
    4MPD1    H714092   1.632   1.412  16.073  1.1868  0.7343  0.3647
    1TCq1    O114093   2.079   1.237  10.757 -0.1335  0.0897  0.0497
    1TCq1    C114094   2.076   1.150  10.865  0.3756 -0.1571  0.2845
    1TCq1    O214095   1.982   1.142  10.946  0.1028  0.6127  0.1027
    1TCq1    C214096   2.212   1.109  10.897  0.2054  0.2174  0.3184
    1TCq1    C314097   2.241   0.992  10.946  0.3097  0.1737 -0.6849
    1TCq1    C414098   2.359   0.976  11.015  0.3994  0.7722  0.0977
    1TCq1    C514099   2.467   1.057  10.988 -0.3239 -0.2857  0.1869
    1TCq1    C614100   2.441   1.167  10.916  0.1903  0.4359  0.3424
    1TCq1    C714101   2.314   1.192  10.866 -0.1950 -0.4532  0.0865
    1TCq1    C814102   2.550   1.226  10.839 -1.0489 -0.6899  0.0406
    1TCq1    O414103   2.522   1.321  10.763  0.4479  0.8873 -0.2985
    1TCq1    C914104   2.383   0.845  11.063  0.0836 -0.7338 -0.1585
    1TCq1    O514105   2.498   0.817  11.109 -0.3430  0.4877  0.8392
    1TCq1    O614106   2.291   0.762  11.040 -0.4521 -0.3882  0.0911
    1TCq1    H114107   2.161   1.243  10.703  1.8100 -0.3425  2.9680
    1TCq1    H214108   2.154   0.934  10.976  0.5289 -0.1602 -0.6908
    1TCq1    H314109   2.561   1.036  11.037 -0.8422 -3.5929 -0.2271
    1TCq1    H414110   2.308   1.286  10.812  0.1206 -0.9200 -0.7719
    2MPD1     C14111   3.053   1.257  10.717  0.3557  0.4519 -0.7163
    2MPD1    C114112   3.035   1.161  10.814 -0.1821 -0.3608  0.5804
    2MPD1    C214113   2.909   1.150  10.867  0.1619  0.1586  0.2989
    2MPD1    C314114   2.793   1.208  10.813 -0.4082  0.2923  0.1466
    2MPD1    C414115   2.818   1.304  10.717 -0.4562  0.5342  0.0627
    2MPD1    C514116   2.947   1.324  10.668 -0.5635  0.0088  0.1784
    2MPD1     H14117   2.901   1.082  10.951  0.8063 -1.7954 -1.2066
    2MPD1    H114118   2.731   1.341  10.664 -2.0994 -1.4513  1.3504
    2MPD1    H214119   3.154   1.277  10.684  0.7762  1.3580  1.1277
    2MPD1    H314120   2.962   1.387  10.582  3.0984  0.1476  0.9569
    2MPD1     N14121   2.672   1.166  10.866  0.8979  0.1706 -0.2285
    2MPD1    H514122   2.677   1.084  10.926  0.2490  0.6879  0.5314
    2MPD1    N114123   3.144   1.111  10.879 -0.2915  0.6353 -0.0384
    2MPD1    H614124   3.224   1.078  10.826 -0.3585  0.5625 -0.0954
    2MPD1    H714125   3.126   1.017  10.912  1.3414  1.3922  2.9209
    1TMC1    C114126   0.610   1.425   0.766 -0.4002  0.5003  0.1791
    1TMC1    C214127   0.518   1.429   0.663  0.0956  0.0520 -0.8466
    1TMC1    C314128   0.456   1.548   0.641 -0.0753 -0.1703  0.9204
    1TMC1    C414129   0.642   1.541   0.839  0.1462 -0.2722 -0.4338
    1TMC1    C514130   0.586   1.653   0.797  0.4215  0.1915 -0.1810
    1TMC1    C614131   0.491   1.666   0.694  0.7067 -0.6328 -0.4701
    1TMC1     C14132   0.661   1.297   0.810 -0.1453  0.6889 -0.1828
    1TMC1     O14133   0.682   1.290   0.932  0.5728 -0.1353  0.2283
    1TMC1     H14134   0.477   1.335   0.628 -1.8720  0.9327 -0.9470
    1TMC1    H114135   0.713   1.543   0.921 -0.8930  0.0177  0.4543
    1TMC1    H214136   0.460   1.765   0.663  2.0179  0.4380  1.6723
    1TMC1    C714137   0.625   1.769   0.878  0.6215  0.0003  0.6005
    1TMC1    C814138   0.316   1.536   0.583  0.3382 -0.3015 -0.4219
    1TMC1    O114139   0.668   1.762   0.990  0.1753 -0.4082 -0.6567
    1TMC1    O214140   0.266   1.437   0.539 -0.3375  0.2314  0.3718
    1TMC1    O314141   0.613   1.889   0.816  0.4693 -0.5542 -0.6535
    1TMC1    H314142   0.585   1.880   0.722  1.3387  0.5806 -1.0192
    1TMC1    O514143   0.253   1.659   0.575  0.2237  0.4096  0.2602
    1TMC1    H514144   0.271   1.730   0.640 -0.7105 -0.0913  1.0579
    2MPD1     C14145   0.879   0.849   0.739 -0.5295  0.5256 -0.3818
    2MPD1    C114146   0.839   0.891   0.614 -0.7389 -0.3693  0.0957
    2MPD1    C214147   0.774   1.018   0.610 -0.1336  0.5157 -0.2726
    2MPD1    C314148   0.765   1.090   0.722 -0.5226  0.2551 -0.3415
    2MPD1    C414149   0.814   1.044   0.843 -0.4007  0.2903 -0.3423
    2MPD1    C514150   0.869   0.923   0.854  0.5662  0.2253 -0.5165
    2MPD1     H14151   0.743   1.068   0.519  2.5354 -1.7588 -2.4068
    2MPD1    H114152   0.804   1.100   0.936  0.5990  0.9258 -0.6211
    2MPD1    H214153   0.931   0.754   0.747  0.5964  1.0923 -0.9307
    2MPD1    H314154   0.893   0.891   0.954 -1.9165  0.2199  0.0876
    2MPD1     N14155   0.695   1.212   0.711 -0.6766  0.0925 -0.3228
    2MPD1    H514156   0.674   1.238   0.615 -0.7689 -0.0998 -0.3563
    2MPD1    N114157   0.886   0.822   0.499 -0.2709  0.0384 -0.4082
    2MPD1    H614158   0.899   0.724   0.526  1.3852  0.1711 -0.7516
    2MPD1    H714159   0.833   0.838   0.413 -2.0027 -1.7487  0.3139
    1MPD1     C14160   3.709   0.155  12.449 -0.3051 -0.0102  0.1060
    1MPD1    C114161   3.758   0.220  12.558  0.5573  0.0008 -0.2697
    1MPD1    C214162   3.835   0.329  12.523  0.2036 -0.1768 -0.2521
    1MPD1    C314163   3.859   0.370  12.389 -0.4939  0.7266  1.0096
    1MPD1    C414164   3.800   0.297  12.284  0.6527  0.1631  0.5557
    1MPD1    C514165   3.714   0.198  12.321  0.6714 -0.6848 -0.1894
    1MPD1     H14166   3.873   0.393  12.601 -0.0709 -1.1436  0.6792
    1MPD1    H114167   3.793   0.330  12.181 -0.0177  1.1678  0.9260
    1MPD1    H214168   3.638   0.074  12.461  1.2805 -1.0471  2.3429
    1MPD1    H314169   3.666   0.133  12.249 -1.2435 -1.6042  1.9109
    1MPD1     N14170   3.949   0.478  12.369 -0.3439 -0.9749  0.0107
    1MPD1    H514171   3.959   0.538  12.450  0.2522  1.3692 -1.8243
    1MPD1    N114172   3.727   0.191  12.687  0.0948 -0.0332  0.3604
    1MPD1    H614173   3.797   0.229  12.750 -0.3066  3.2507 -1.1695
    1MPD1    H714174   3.716   0.092  12.707  0.8766 -0.5071 -1.5393
    2MPD1     C14175   2.785   1.021  11.212  0.5962 -0.2204 -0.2587
    2MPD1    C114176   2.853   0.914  11.167  0.0995  0.7021 -0.0618
    2MPD1    C214177   2.988   0.918  11.159  0.2872  0.2067  0.0627
    2MPD1    C314178   3.056   1.034  11.190 -0.0661  1.1167 -0.6690
    2MPD1    C414179   2.993   1.143  11.233 -0.3511  0.6116  0.5214
    2MPD1    C514180   2.857   1.143  11.232 -0.1269 -0.3041 -0.5518
    2MPD1     H14181   3.041   0.826  11.137  1.7449  1.3834 -1.3930
    2MPD1    H114182   3.039   1.238  11.258  1.5172 -0.1303 -0.1320
    2MPD1    H214183   2.677   1.017  11.227  0.1905 -0.1181 -3.2083
    2MPD1    H314184   2.807   1.231  11.271 -1.4784 -1.4202  0.2198
    2MPD1     N14185   3.199   1.039  11.187 -0.4072 -0.3786 -0.1226
    2MPD1    H514186   3.245   1.120  11.229  0.4738 -1.6927  1.4322
    2MPD1    N114187   2.788   0.792  11.167  0.2730  0.2482 -0.0700
    2MPD1    H614188   2.837   0.728  11.104  0.2243  1.1826 -1.0623
    2MPD1    H714189   2.689   0.801  11.145 -0.2446 -0.2980  2.0581
    3MPD1     C14190   3.668   0.766  10.383  0.4186 -0.3610  0.0688
    3MPD1    C114191   3.583   0.686  10.461  0.5204  0.1404 -0.0524
    3MPD1    C214192   3.584   0.712  10.597  0.2233 -0.3881 -0.3329
    3MPD1    C314193   3.654   0.814  10.659  0.4865  0.0650  0.0205
    3MPD1    C414194   3.725   0.900  10.576  0.2266  0.7140 -0.1568
    3MPD1    C514195   3.727   0.872  10.444 -0.1133 -0.0987 -0.5799
    3MPD1     H14196   3.525   0.651  10.665 -0.0937  1.5809  1.1821
    3MPD1    H114197   3.782   0.984  10.614  0.6006  0.9996 -1.3275
    3MPD1    H214198   3.666   0.765  10.274  0.5707 -1.4570  0.0686
    3MPD1    H314199   3.768   0.943  10.373 -0.9579 -0.2529 -1.2299
    3MPD1     N14200   3.617   0.844  10.796 -0.3856  0.1389  0.0692
    3MPD1    H514201   3.537   0.792  10.832  2.4990 -2.6047  2.5461
    3MPD1    N114202   3.495   0.595  10.403  0.6565 -0.3887  0.3927
    3MPD1    H614203   3.529   0.558  10.314 -2.2093  2.1603 -1.7770
    3MPD1    H714204   3.477   0.515  10.463  0.9649 -0.1167  0.8493
    4MPD2     C14205   3.948   1.236  12.383 -0.1558 -0.1342  0.1410
    4MPD2    C114206   4.045   1.168  12.312 -0.2670  0.6041  0.3276
    4MPD2    C214207   4.112   1.240  12.217 -0.0688 -0.4802  0.0971
    4MPD2    C314208   4.073   1.360  12.174 -0.0840  0.2525 -0.0431
    4MPD2    C414209   3.973   1.422  12.238 -0.7055  0.6728 -0.4139
    4MPD2    C514210   3.911   1.365  12.347 -0.1072 -0.8419 -0.7975
    4MPD2     H14211   4.186   1.193  12.153  0.5247  1.6660 -0.7808
    4MPD2    H114212   3.943   1.524  12.216 -0.4605  0.3029 -2.4889
    4MPD2    H214213   3.901   1.185  12.466  4.0625  1.1922  3.3326
    4MPD2    H314214   3.842   1.426  12.405  1.6231 -1.7030  2.1572
    4MPD2     N14215   4.136   1.431  12.073 -0.7743  0.0086  0.2876
    4MPD2    H514216   4.093   1.518  12.043 -1.0724  0.2626  1.4665
    4MPD2    N114217   4.090   1.035  12.341 -0.1885 -0.4396  0.0479
    4MPD2    H714218   4.179   1.014  12.297 -0.7866  1.9993 -2.3220
    5TMC3    C114219   4.104   0.824  12.418 -0.3479  0.1962  0.3398
    5TMC3    C214220   4.030   0.711  12.370  0.1436 -0.0122 -0.0238
    5TMC3    C314221   4.091   0.630  12.277  0.8176 -0.1800 -1.5253
    5TMC3    C414222   4.236   0.839  12.376 -0.1938 -0.1523  1.5265
    5TMC3    C514223   4.278   0.764  12.269 -0.7747  0.3997  0.5909
    5TMC3    C614224   4.213   0.654  12.225 -0.6730  0.3519  0.3035
    5TMC3     C14225   4.026   0.948  12.411  0.6801 -0.4083 -0.6999
    5TMC3     O14226   3.906   0.944  12.438  0.0712 -0.3910 -0.0997
    5TMC3     H14227   3.922   0.725  12.378 -0.1733 -1.2349 -2.2501
    5TMC3    H114228   4.293   0.920  12.419 -0.6126  0.0958  1.6130
    5TMC3    H214229   4.245   0.598  12.138 -0.0801  0.3789  0.5044
    5TMC3    C714230   4.332   0.853  12.168  0.1668 -1.1379  0.0964
    5TMC3    C814231   4.013   0.509  12.251  0.4268 -0.1786 -0.2853
    5TMC3    O114232   4.330   0.976  12.195 -0.2541 -0.2564  0.1246
    5TMC3    O214233   4.018   0.450  12.140  0.8549 -0.3063 -0.3882
    6TMC3    C114234   3.411   0.970  11.120  0.2483  0.0640  0.4631
    6TMC3    C214235   3.478   0.939  11.006 -0.5120 -1.2470 -0.0722
    6TMC3    C314236   3.612   0.965  10.997  0.1437  0.0182  0.1420
    6TMC3    C414237   3.468   1.044  11.224 -0.5160 -0.3810 -0.5287
    6TMC3    C514238   3.599   1.072  11.209 -0.1131 -0.2461  0.0944
    6TMC3    C614239   3.674   1.029  11.100 -0.1438  0.5710  0.3391
    6TMC3     C14240   3.269   0.948  11.114 -0.5330  0.4653 -0.5458
    6TMC3     O14241   3.225   0.870  11.031  0.3807 -0.4152 -0.0252
    6TMC3     H14242   3.426   0.900  10.920 -1.7656  1.2575 -0.4516
    6TMC3    H114243   3.431   1.031  11.326  0.6712 -0.9709 -0.1670
    6TMC3    H214244   3.782   1.035  11.098 -0.0792 -0.9002 -0.6650
    6TMC3    C714245   3.669   1.171  11.297  0.2228 -0.3505  0.9642
    6TMC3    C814246   3.676   0.941  10.869 -0.1390  0.1641  0.2594
    6TMC3    O114247   3.789   1.163  11.309  0.3454  0.3740 -0.0647
    6TMC3    O214248   3.790   0.988  10.855  0.0981 -0.4912  0.1992
    7MPD2     C14249   4.472   0.941  11.680  0.1242  0.4929  0.1983
    7MPD2    C114250   4.431   1.028  11.776  0.2054  0.4875  0.1809
    7MPD2    C214251   4.406   0.981  11.904 -0.0694  0.2743 -0.0451
    7MPD2    C314252   4.421   0.846  11.937 -0.4070 -0.5829  0.1355
    7MPD2    C414253   4.473   0.761  11.843  0.2552 -0.7196  0.2282
    7MPD2    C514254   4.496   0.809  11.716 -0.6898 -0.4130  0.0353
    7MPD2     H14255   4.382   1.051  11.983  1.3803  1.4788 -0.6752
    7MPD2    H114256   4.478   0.654  11.859  1.2214 -0.6807  0.1686
    7MPD2    H214257   4.496   0.968  11.578 -0.8378 -2.0162 -0.6866
    7MPD2    H314258   4.538   0.745  11.640  0.3018 -0.6537  0.7854
    7MPD2     N14259   4.374   0.789  12.057  0.2739  0.4471  0.0685
    7MPD2    H514260   4.390   0.689  12.063 -3.2345 -0.1195 -0.0882
    7MPD2    N114261   4.406   1.164  11.756 -0.6474 -0.5217 -0.2402
    7MPD2    H714262   4.377   1.219  11.836 -1.5629 -0.2404 -0.7655
    8TMC3    C114263   4.354   1.366  11.675 -0.3416 -0.5173 -0.1094
    8TMC3    C214264   4.248   1.399  11.602  0.3298  0.4574 -0.5511
    8TMC3    C314265   4.147   1.471  11.655 -0.7405 -0.0744  0.4836
    8TMC3    C414266   4.368   1.409  11.809 -0.1326  0.2243  0.0460
    8TMC3    C514267   4.260   1.469  11.871 -0.1563 -0.0030  0.2031
    8TMC3    C614268   4.150   1.495  11.793 -0.1928  0.5390 -0.4261
    8TMC3     C14269   4.407   1.238  11.641  0.0403  0.9559  0.0460
    8TMC3     O14270   4.437   1.204  11.526  0.4601  0.0338 -0.1265
    8TMC3     H14271   4.239   1.361  11.501  0.2510  0.7523 -0.6550
    8TMC3    H114272   4.459   1.383  11.863 -0.5263 -1.9387 -0.3488
    8TMC3    H214273   4.063   1.541  11.839 -1.1541 -1.4598 -0.2347
    8TMC3    C714274   4.238   1.389  11.995 -0.0680 -0.0449 -0.0222
    8TMC3    C814275   4.014   1.425  11.613  0.4964  0.0941 -0.3356
    8TMC3    O114276   4.310   1.290  12.000 -0.5268  0.9058  0.2508
    8TMC3    O214277   4.015   1.313  11.569  0.1590 -0.3646  0.0280
    9MPD2     C14278   3.701   1.606  11.565 -0.4795  0.3884  0.3070
    9MPD2    C114279   3.784   1.492  11.569  0.7513  0.1428  0.3477
    9MPD2    C214280   3.744   1.375  11.505  0.5162 -0.2006  0.4439
    9MPD2    C314281   3.617   1.373  11.438 -1.1167  0.1816  0.2255
    9MPD2    C414282   3.531   1.486  11.452 -0.6588 -0.0572  0.2222
    9MPD2    C514283   3.578   1.600  11.504  0.1819  0.0362 -0.4248
    9MPD2     H14284   3.805   1.286  11.511  1.6081  0.4290 -1.2716
    9MPD2    H114285   3.448   1.492  11.382 -0.6901  0.2522  0.2854
    9MPD2    H214286   3.734   1.701  11.606 -1.2314  0.4575  0.7456
    9MPD2    H314287   3.533   1.697  11.482 -0.4373  0.3386  2.0906
    9MPD2     N14288   3.574   1.250  11.363  0.0086  0.6837  0.0326
    9MPD2    H514289   3.476   1.241  11.339 -0.2057 -0.9915  1.5718
    9MPD2    N114290   3.910   1.518  11.622 -0.2421  0.1953  0.0005
    9MPD2    H714291   3.931   1.615  11.644 -1.5062 -0.0408  2.2350
    1MPD1     C14292   4.176   4.417  15.584  0.8260 -0.0146 -0.2006
    1MPD1    C114293   4.208   4.351  15.459 -0.6778 -0.4872 -0.6680
    1MPD1    C214294   4.126   4.242  15.426  0.0171 -0.0656 -0.2430
    1MPD1    C314295   4.035   4.194  15.512  0.0079 -0.3279  0.3063
    1MPD1    C414296   4.027   4.242  15.639  0.0777  0.9880 -0.3085
    1MPD1    C514297   4.088   4.359  15.670  0.4647  0.9373  0.1142
    1MPD1     H14298   4.124   4.220  15.320  0.8961  1.1206 -0.5141
    1MPD1    H114299   3.956   4.202  15.711  0.0581  2.6778  0.5982
    1MPD1    H214300   4.205   4.518  15.608 -1.7892  0.5969  0.3969
    1MPD1    H314301   4.069   4.425  15.754  0.7703  2.7734 -1.2457
    1MPD1     N14302   3.947   4.092  15.479  0.2069  0.1668 -0.7208
    1MPD1    H514303   3.885   4.055  15.550 -1.4542  4.0841 -0.1264
    1MPD1    N114304   4.294   4.421  15.371 -0.5888 -0.2899 -0.1855
    1MPD1    H614305   4.373   4.450  15.428 -0.9353 -2.5091  1.4507
    1MPD1    H714306   4.322   4.374  15.285  3.2314  0.4996  0.6532
    2TMC2    C114307   3.743   3.768  15.208  1.4162  0.1995 -0.4389
    2TMC2    C214308   3.760   3.675  15.312 -0.0062  0.7686 -0.1279
    2TMC2    C314309   3.811   3.712  15.436 -1.0807 -0.5604  0.0821
    2TMC2    C414310   3.782   3.900  15.226 -0.3624  0.3686 -0.0800
    2TMC2    C514311   3.848   3.929  15.343 -0.3147  0.3819 -0.5983
    2TMC2    C614312   3.857   3.843  15.452  0.3004  0.1013 -0.2567
    2TMC2     C14313   3.670   3.718  15.095  0.4449  0.2417 -0.1414
    2TMC2     O14314   3.609   3.614  15.115  0.6083 -0.2464  0.0085
    2TMC2     H14315   3.749   3.570  15.287  1.7447  0.6278 -0.3208
    2TMC2    H114316   3.770   3.974  15.148 -0.7701 -0.4514 -0.7803
    2TMC2    H214317   3.914   3.864  15.542  0.0597 -2.0128  0.3892
    2TMC2    C714318   3.927   4.054  15.347 -0.4460  0.2942  0.4010
    2TMC2    C814319   3.901   3.618  15.502 -0.3924  0.2739 -0.3524
    2TMC2    O114320   3.939   4.116  15.241 -0.4335  0.3180 -0.7989
    2TMC2    O214321   4.010   3.654  15.543  0.1365 -0.0091 -0.0918
    2TMC2    O514322   3.829   3.513  15.539  0.3267  0.3818  0.1593
    2TMC2    H514323   3.745   3.515  15.489  1.3250 -0.2528 -1.5382
    3MPD1     C14324   3.528   3.753  14.607 -0.3576  0.1113  0.1073
    3MPD1    C114325   3.611   3.860  14.629 -0.3634  0.0950  0.0874
    3MPD1    C214326   3.675   3.860  14.751 -0.0695 -0.4310 -1.0901
    3MPD1    C314327   3.641   3.772  14.855 -0.3426 -0.0917  0.7445
    3MPD1    C414328   3.557   3.666  14.828  0.0128  0.0289 -0.6634
    3MPD1    C514329   3.497   3.661  14.710 -0.1025 -0.5289  0.3449
    3MPD1     H14330   3.758   3.928  14.767  0.6714 -1.5464 -0.0863
    3MPD1    H114331   3.540   3.596  14.909  0.9500  1.0149  0.3881
    3MPD1    H214332   3.479   3.735  14.512 -0.5310 -0.5320  0.3204
    3MPD1    H314333   3.428   3.579  14.692 -0.5628 -0.5295  2.1632
    3MPD1     N14334   3.688   3.800  14.987 -0.1024 -0.0171 -0.3762
    3MPD1    H514335   3.762   3.868  15.001 -0.9820  0.7190  0.6266
    3MPD1    N114336   3.642   3.949  14.522  0.0550  0.1083 -0.0791
    3MPD1    H614337   3.677   4.034  14.567  0.4261  0.4394 -0.9874
    3MPD1    H714338   3.561   3.968  14.462  1.7495 -0.0353 -2.4136
    1TMC1    C114339   2.555   3.849  12.972 -0.4513 -0.0895  0.4458
    1TMC1    C214340   2.458   3.851  13.068  0.2981 -0.0760 -0.3661
    1TMC1    C314341   2.329   3.852  13.033  0.6017  0.0733 -0.2076
    1TMC1    C414342   2.513   3.839  12.843 -0.8261 -0.0306 -0.1662
    1TMC1    C514343   2.382   3.838  12.811 -0.0902 -0.0932  0.3399
    1TMC1    C614344   2.285   3.849  12.908  0.7994 -0.2384 -0.3351
    1TMC1     C14345   2.693   3.886  12.991 -0.1458 -0.2861 -0.2064
    1TMC1     O14346   2.758   3.929  12.896  0.5588  0.6281  0.2337
    1TMC1     H14347   2.486   3.845  13.173  1.1659 -2.8962 -0.7461
    1TMC1    H114348   2.588   3.820  12.767 -0.1887  1.7502  0.0020
    1TMC1    H214349   2.182   3.865  12.878 -0.3115 -1.8086  2.6309
    1TMC1    C714350   2.352   3.904  12.687 -0.5583  0.4631  0.6856
    1TMC1    C814351   2.243   3.927  13.123  0.4126  0.4418  0.3461
    1TMC1    O114352   2.407   3.997  12.633 -0.2296 -0.2498 -0.5202
    1TMC1    O214353   2.125   3.958  13.092 -0.2725  0.2154  0.5057
    1TMC1    O314354   2.229   3.857  12.644 -0.1838  0.0106 -1.2560
    1TMC1    H314355   2.215   3.767  12.680  0.7849 -0.5126 -2.1765
    1TMC1    O514356   2.341   4.013  13.162  0.1000  0.2938 -0.0214
    1TMC1    H514357   2.430   4.002  13.121 -0.5464  0.7163 -1.5073
    2MPD2     C14358   2.911   4.041  13.118 -0.7295 -0.4011 -0.0593
    2MPD2    C114359   2.843   3.941  13.190  0.0794  0.3621 -0.1988
    2MPD2    C214360   2.889   3.907  13.317  0.5345 -0.1949 -0.5449
    2MPD2    C314361   3.004   3.962  13.365 -0.3327 -0.7470 -0.1510
    2MPD2    C414362   3.063   4.069  13.301  0.6782  0.7629 -0.1862
    2MPD2    C514363   3.014   4.111  13.180 -0.1774 -0.5744 -1.0501
    2MPD2     H14364   2.837   3.826  13.368  2.5626 -0.7444  0.6604
    2MPD2    H114365   3.149   4.123  13.340  1.8479 -2.3496  1.5757
    2MPD2    H214366   2.886   4.071  13.017  0.4483  1.3955  0.1832
    2MPD2    H314367   3.063   4.194  13.129  0.0095  0.1384  0.3012
    2MPD2     N14368   3.057   3.906  13.481  0.2624 -0.6480 -0.0934
    2MPD2    H514369   2.996   3.847  13.537  0.7326  0.6546  1.8045
    2MPD2    N114370   2.733   3.868  13.121  0.0012  0.1543  0.5953
    2MPD2    H714371   2.680   3.802  13.176 -1.8891 -0.6680 -2.2233
    3TCq1    O114372   3.428   3.996  13.937 -0.3113 -0.2528 -0.1989
    3TCq1    C114373   3.514   3.921  13.871  0.0386  0.4906 -0.0117
    3TCq1    O214374   3.607   3.864  13.927 -0.0296 -0.0469  0.2986
    3TCq1    C214375   3.429   3.856  13.765  0.7129 -0.4229  0.7510
    3TCq1    C314376   3.417   3.724  13.774  0.7262  0.4499 -0.0589
    3TCq1    C414377   3.308   3.666  13.704  0.3609  0.9163  0.1439
    3TCq1    C514378   3.216   3.741  13.634 -0.1501  0.5380 -0.8320
    3TCq1    C614379   3.235   3.877  13.633 -0.0210  0.2139  0.1873
    3TCq1    C714380   3.345   3.939  13.693 -0.5782  0.0506 -0.6217
    3TCq1    C814381   3.188   3.939  13.516  0.7204 -0.2549  0.1276
    3TCq1    O414382   3.282   3.973  13.447 -0.7663  0.6900  0.7148
    3TCq1    C914383   3.308   3.521  13.695 -0.1448 -0.1013 -0.1165
    3TCq1    O514384   3.211   3.459  13.654 -0.5731 -0.1720 -0.4099
    3TCq1    O614385   3.424   3.472  13.691  0.3086  0.1868  0.0327
    3TCq1    H114386   3.341   4.021  13.898  0.1248  1.0712 -0.3037
    3TCq1    H214387   3.487   3.657  13.822 -2.8203 -2.6671  0.7553
    3TCq1    H314388   3.142   3.702  13.564 -0.1977  0.0595 -0.5160
    3TCq1    H414389   3.365   4.044  13.674  0.2884  0.1919  1.0174
    1MPD2     C14390   1.110   0.059  15.398  0.7665 -0.3968 -0.0123
    1MPD2    C114391   1.176   4.714  15.310  0.4354  0.0872  0.4006
    1MPD2    C214392   1.283   4.646  15.359  0.0318  0.2539  0.1582
    1MPD2    C314393   1.345   4.656  15.485 -0.3804 -0.9378 -0.0487
    1MPD2    C414394   1.277   0.002  15.569  0.1137  0.2198  0.0186
    1MPD2    C514395   1.165   0.065  15.529  0.2608  0.3288  0.0803
    1MPD2     H14396   1.329   4.569  15.298  0.3622  0.1662  0.5169
    1MPD2    H114397   1.312   0.031  15.667 -2.3664  0.2201  0.9076
    1MPD2    H214398   1.021   0.111  15.366  2.5052  2.1436 -0.7501
    1MPD2    H314399   1.108   0.118  15.605  0.0152 -0.6377  0.5718
    1MPD2     N14400   1.467   4.593  15.502 -0.1457 -0.0548 -0.3177
    1MPD2    H514401   1.493   4.543  15.417  1.2933  1.1438 -0.5866
    1MPD2    N114402   1.119   4.682  15.183  0.0105 -0.3903  0.4477
    1MPD2    H714403   1.040   4.738  15.151 -0.0521 -0.3261  0.7139
    2TMC3    C114404   1.086   4.593  14.964 -0.3374  0.0525 -0.9206
    2TMC3    C214405   1.097   4.474  14.893 -0.0415  0.4427 -0.3153
    2TMC3    C314406   1.131   4.469  14.761 -0.5747 -0.5076 -0.2296
    2TMC3    C414407   1.097   4.714  14.904  0.5911 -0.0624 -0.4376
    2TMC3    C514408   1.127   4.703  14.771  0.3213  0.1699 -0.9978
    2TMC3    C614409   1.156   4.590  14.702 -0.4668 -0.6966 -0.5226
    2TMC3     C14410   1.141   4.575  15.098 -0.4319 -0.3500 -0.0406
    2TMC3     O14411   1.224   4.486  15.110 -0.2578  0.2617  0.2312
    2TMC3     H14412   1.088   4.381  14.949  0.0165  1.0085  0.6202
    2TMC3    H114413   1.066   0.066  14.953 -0.1994 -0.6846  0.2515
    2TMC3    H214414   1.200   4.583  14.603 -0.4206 -5.1693 -0.1812
    2TMC3    C714415   1.126   0.087  14.689  0.0070  0.4938  0.2316
    2TMC3    C814416   1.245   4.386  14.735 -0.3651 -0.0483  1.0044
    2TMC3    O114417   1.103   0.082  14.569 -0.1251  0.4891 -0.1214
    2TMC3    O214418   1.272   4.355  14.622  0.3154  0.0733 -0.4450
    3TCq1    O114419   1.768   1.090  15.130  0.1470  0.6941  0.6724
    3TCq1    C114420   1.710   1.089  15.005  0.5044 -0.6669 -0.4777
    3TCq1    O214421   1.625   1.167  14.970  0.2834  0.4431  0.0347
    3TCq1    C214422   1.696   0.948  14.981  0.4794 -0.3021 -0.0700
    3TCq1    C314423   1.803   0.871  15.008  0.3290 -0.5844 -0.1892
    3TCq1    C414424   1.795   0.738  14.979  0.1226 -0.2513  0.0314
    3TCq1    C514425   1.682   0.690  14.923 -0.1082  0.0929 -0.0524
    3TCq1    C614426   1.585   0.773  14.883 -0.2322  0.0461 -0.3661
    3TCq1    C714427   1.588   0.907  14.911 -0.1165  0.1220 -0.2718
    3TCq1    C814428   1.465   0.729  14.813 -0.1070  0.6424  0.1217
    3TCq1    O414429   1.393   0.816  14.765 -0.4735  0.4566 -0.5440
    3TCq1    C914430   1.909   0.654  14.998  0.4816  0.3313 -0.0051
    3TCq1    O514431   2.016   0.706  15.041  0.6475  0.4648 -0.3629
    3TCq1    O614432   1.898   0.541  14.943  0.5643  0.5592  0.7603
    3TCq1    H114433   1.811   1.003  15.149 -0.0158  0.6021  0.6219
    3TCq1    H214434   1.900   0.908  15.040 -1.1183  2.5714  0.5499
    3TCq1    H314435   1.677   0.583  14.910 -1.8241  0.0732  0.6672
    3TCq1    H414436   1.497   0.965  14.901  0.1663  0.7200  0.6594
    4MPD2     C14437   1.276   0.583  14.649  0.1202  0.9226  0.4604
    4MPD2    C114438   1.335   0.526  14.761  0.5804  0.1541 -0.2639
    4MPD2    C214439   1.306   0.395  14.802  0.4313 -0.2716  0.6385
    4MPD2    C314440   1.222   0.326  14.723 -0.6074 -0.0559  0.1614
    4MPD2    C414441   1.175   0.378  14.598 -0.0341 -0.0242  0.5300
    4MPD2    C514442   1.208   0.509  14.562 -0.3504 -0.5615 -0.9026
    4MPD2     H14443   1.354   0.348  14.887  0.5365 -3.1138 -1.0119
    4MPD2    H114444   1.127   0.304  14.535 -0.5154  0.7041  0.0452
    4MPD2    H214445   1.280   0.688  14.621  0.3075 -0.0899 -3.2894
    4MPD2    H314446   1.163   0.557  14.476  2.2447  0.8734 -1.4491
    4MPD2     N14447   1.199   0.187  14.762  0.6054 -0.3717 -0.4483
    4MPD2    H514448   1.260   0.141  14.830 -0.7390 -0.5331  0.6465
    4MPD2    N114449   1.438   0.592  14.828  0.0532 -0.0889  0.3461
    4MPD2    H714450   1.493   0.530  14.886 -1.6083 -0.3083  1.6823
    5TMC2    C114451   1.739   4.441  15.361 -0.4760 -0.6246  0.7078
    5TMC2    C214452   1.773   4.325  15.423 -1.3148 -0.0471 -0.0064
    5TMC2    C314453   1.734   4.316  15.556  0.0056 -0.2518 -1.0735
    5TMC2    C414454   1.710   4.556  15.435  0.6749 -0.3622 -0.0307
    5TMC2    C514455   1.688   4.542  15.568 -0.2080  0.2562 -0.1870
    5TMC2    C614456   1.693   4.423  15.631  0.2468  0.2520  0.0764
    5TMC2     C14457   1.650   4.427  15.246 -0.2911 -0.1356 -0.5697
    5TMC2     O14458   1.546   4.493  15.249 -0.2922 -0.6969 -0.5753
    5TMC2     H14459   1.785   4.239  15.359  1.1383  0.9231 -0.8482
    5TMC2    H114460   1.669   4.643  15.385  0.5471 -1.3920 -1.7179
    5TMC2    H214461   1.661   4.406  15.733  0.4588 -0.5803  0.0019
    5TMC2    C714462   1.563   4.608  15.604  0.2165  1.1276  0.3045
    5TMC2    C814463   1.749   4.196  15.633  0.3512  0.5885  0.2297
    5TMC2    O114464   1.551   4.660  15.711 -0.8556  0.1464 -0.0234
    5TMC2    O214465   1.680   4.169  15.730 -0.3205 -0.6304 -0.1514
    5TMC2    O514466   1.835   4.114  15.573 -0.1005 -0.1077 -0.0067
    5TMC2    H514467   1.900   4.167  15.522 -0.8032 -0.3286 -1.1266
    6MPD2     C14468   1.514   4.265  14.775 -0.0267  0.4766  0.1083
    6MPD2    C114469   1.445   4.343  14.867 -1.1753  0.3101  0.9217
    6MPD2    C214470   1.500   4.357  14.995 -0.3512 -0.1076  1.1311
    6MPD2    C314471   1.626   4.303  15.032  0.3789  0.6789 -0.6141
    6MPD2    C414472   1.690   4.223  14.933 -0.6558  0.1846 -0.4184
    6MPD2    C514473   1.636   4.204  14.806  0.8614 -0.2404  0.9869
    6MPD2     H14474   1.450   4.428  15.060 -1.9635  1.3434 -1.7544
    6MPD2    H114475   1.778   4.168  14.962  0.2423  2.6778  1.5839
    6MPD2    H214476   1.469   4.228  14.684 -0.4318 -0.0756  0.5318
    6MPD2    H314477   1.682   4.130  14.743 -0.6024  0.5257 -0.9653
    6MPD2     N14478   1.691   4.336  15.150 -0.6159  1.4563 -0.3518
    6MPD2    H514479   1.791   4.315  15.147 -1.0234 -0.4913  0.2101
    6MPD2    N114480   1.322   4.398  14.845  0.1180  0.6749 -0.8854
    6MPD2    H714481   1.277   4.447  14.921  1.7630 -1.2033  1.3077
  945NH3     N114482   2.123   0.431   2.380  0.1785 -0.6179  0.1060
  945NH3     H214483   2.034   0.431   2.427  0.1783  2.6071  0.1122
  945NH3     H314484   2.180   0.383   2.450 -2.0930 -0.3218  2.1336
  945NH3     H414485   2.128   0.369   2.300  0.7477  0.5526 -0.7620
  946SOD     NA14486   1.536   1.222  14.559  0.2887  0.1131  0.4170
  947SOD     NA14487   4.160   4.178  12.162  0.2439  0.1650 -0.3238
  948SOD     NA14488   4.226   4.062  16.119 -0.0761 -0.6922 -0.0584
  949SOD     NA14489   0.875   2.336   1.774 -0.4116  0.2784  0.1039
  950SOD     NA14490   1.816   4.709   9.943 -0.3038  0.1956 -0.6808
  951SOD     NA14491   4.592   2.215   4.905 -0.1043  0.6131  0.3027
  952SOD     NA14492   3.028   1.941  16.600  0.1053  0.2600  0.0920
  953SOD     NA14493   1.416   3.313  15.285 -0.4129  0.0920 -0.0588
  954SOL     OW14494   0.645   0.679  11.802 -0.1930  0.0860 -0.2225
  954SOL    HW114495   0.711   0.734  11.761  0.2172 -0.9717 -0.9963
  954SOL    HW214496   0.583   0.653  11.733  0.3618 -1.4616 -0.1524
  955SOL     OW14497   1.811   1.207   5.564 -0.0453 -0.2193  0.0794
  955SOL    HW114498   1.876   1.172   5.503 -0.4399 -0.7945 -0.0049
  955SOL    HW214499   1.865   1.274   5.607 -0.4105  0.5608 -0.6796
  956SOL     OW14500   4.655   0.102   9.210 -0.3812  0.5071  0.4788
  956SOL    HW114501   4.670   0.114   9.116 -0.5174  0.5582  0.4645
  956SOL    HW214502   0.002   0.108   9.248  0.2321  0.0890 -0.8503
  957SOL     OW14503   1.985   3.487   8.219 -0.1358 -0.1870 -0.1295
  957SOL    HW114504   1.966   3.580   8.232 -0.9066 -0.3359 -0.1624
  957SOL    HW214505   2.080   3.494   8.225 -0.0509 -1.3200 -0.2070
  958SOL     OW14506   2.180   3.728  15.936  0.3116 -0.0754 -0.3193
  958SOL    HW114507   2.257   3.709  15.882  1.6516  0.4672  1.4018
  958SOL    HW214508   2.180   3.823  15.932 -1.9132  0.0304  2.3473
  959SOL     OW14509   3.841   4.597   8.724  0.6225 -0.7489  0.1297
  959SOL    HW114510   3.774   4.608   8.791 -3.2683 -1.5691 -3.5922
  959SOL    HW214511   3.918   4.633   8.768  0.5131 -0.4305  0.0613
  960SOL     OW14512   4.383   1.024   4.358  0.3777  0.6677  0.1120
  960SOL    HW114513   4.420   0.936   4.352  1.3803  1.0248  1.0041
  960SOL    HW214514   4.429   1.072   4.289  0.8283 -0.5407 -0.4378
  961SOL     OW14515   3.425   0.695  15.038  0.0422 -0.0951 -0.5076
  961SOL    HW114516   3.456   0.687  14.948  0.0361  0.5187 -0.5688
  961SOL    HW214517   3.470   0.624  15.084  0.9476  0.0608 -1.1459
  962SOL     OW14518   0.263   0.737   8.829 -0.3309  0.0963 -0.7227
  962SOL    HW114519   0.348   0.766   8.862 -0.5386 -0.5026  0.3417
  962SOL    HW214520   0.274   0.765   8.738 -2.5055 -0.6421 -1.2170
  963SOL     OW14521   1.096   0.070   4.178 -0.2834 -0.0481  0.1290
  963SOL    HW114522   1.142   0.151   4.155 -0.2934 -0.2682 -0.6969
  963SOL    HW214523   1.006   0.097   4.160 -0.1847  0.1637 -0.0420
  964SOL     OW14524   1.951   0.510   0.502  0.2594 -0.1464 -0.1382
  964SOL    HW114525   1.967   0.499   0.595  0.1300 -1.5089 -0.2708
  964SOL    HW214526   1.879   0.446   0.496 -2.7128  3.0552  1.4332
  965SOL     OW14527   0.050   1.140   8.616 -0.0378 -0.2872  0.3039
  965SOL    HW114528   0.109   1.163   8.544 -1.0837 -0.2400 -0.5445
  965SOL    HW214529   0.038   1.228   8.651  0.9967  0.2152 -0.6259
  966SOL     OW14530   4.210   4.081   7.350 -0.4560  0.2324 -0.0543
  966SOL    HW114531   4.260   4.145   7.400  1.1436 -0.8981 -0.1909
  966SOL    HW214532   4.163   4.148   7.300 -0.5306  0.4392  0.2914
  967SOL     OW14533   1.063   1.501  11.758  1.2165  1.0666 -0.2498
  967SOL    HW114534   1.069   1.407  11.777  2.3167  1.6637  2.3557
  967SOL    HW214535   1.041   1.533  11.846 -0.2343 -1.0091  0.1615
  968SOL     OW14536   1.346   4.654   6.472 -0.1716 -0.2326  0.1282
  968SOL    HW114537   1.310   4.643   6.384  1.3474 -1.5035 -0.3475
  968SOL    HW214538   1.273   4.639   6.531 -1.5957  1.9981 -1.0791
  969SOL     OW14539   2.296   0.886   4.675  0.4233 -0.3438 -0.5034
  969SOL    HW114540   2.295   0.849   4.763  0.0350 -2.3777 -1.3462
  969SOL    HW214541   2.202   0.905   4.666  0.2416 -1.8299 -1.7703
  970SOL     OW14542   2.412   1.221   4.624  0.5901  0.3123 -0.0832
  970SOL    HW114543   2.419   1.306   4.669 -2.1135  0.7561 -0.5129
  970SOL    HW214544   2.493   1.187   4.662 -1.0114 -0.5746  2.4563
  971SOL     OW14545   3.142   3.693   7.074  0.7200 -0.3420 -0.1117
  971SOL    HW114546   3.176   3.688   7.163  1.1781 -1.0354 -0.3286
  971SOL    HW214547   3.199   3.629   7.031  1.6487  1.0611 -0.9709
  972SOL     OW14548   4.658   0.388   4.095 -0.3803  0.1265  0.7726
  972SOL    HW114549   4.679   0.305   4.053 -0.7842 -1.1078  3.0163
  972SOL    HW214550   4.563   0.379   4.095 -0.2874 -0.7582 -2.1390
  973SOL     OW14551   0.356   3.140  17.035  0.3870 -0.1849  1.0895
  973SOL    HW114552   0.421   3.200  16.997 -0.3119 -0.0033  0.1665
  973SOL    HW214553   0.298   3.155  16.960  2.0813  0.5443 -0.0657
  974SOL     OW14554   3.490   2.152   6.152  0.1161  0.3005  0.1508
  974SOL    HW114555   3.552   2.218   6.183  0.2412  0.4719 -0.4589
  974SOL    HW214556   3.445   2.122   6.231  3.0936 -0.3855  1.5893
  975SOL     OW14557   3.671   4.386   5.092  0.6669 -0.0574 -0.4561
  975SOL    HW114558   3.712   4.342   5.166 -1.1520 -2.7588 -1.0501
  975SOL    HW214559   3.717   4.331   5.028  0.7475  1.3249 -1.5866
  976SOL     OW14560   1.917   3.230   2.928  0.0472 -0.5857  0.1517
  976SOL    HW114561   1.920   3.183   2.844  2.4138 -0.8136  0.3589
  976SOL    HW214562   1.896   3.159   2.989 -3.5235  0.8295  0.5871
  977SOL     OW14563   4.424   0.200   1.579  0.3191 -0.4627 -0.1747
  977SOL    HW114564   4.436   0.294   1.562 -2.6581 -0.7450 -3.6427
  977SOL    HW214565   4.507   0.159   1.558  0.0417 -0.9882 -0.2331
  978SOL     OW14566   4.721   4.391   0.171 -0.5719 -0.0259 -0.0621
  978SOL    HW114567   4.625   4.386   0.170 -0.5370 -0.5615 -0.4713
  978SOL    HW214568   4.737   4.318   0.111 -0.6552 -0.4445  0.4262
  979SOL     OW14569   3.698   1.768   6.807  0.7720  0.0609  0.2404
  979SOL    HW114570   3.688   1.729   6.720  0.5306 -1.5483  0.9763
  979SOL    HW214571   3.791   1.749   6.822  1.0164  0.2819 -1.0160
  980SOL     OW14572   0.332   1.472   1.373  0.0299  0.2730 -0.3086
  980SOL    HW114573   0.417   1.457   1.330 -0.9802  1.3227 -2.6430
  980SOL    HW214574   0.315   1.378   1.381  2.6429 -0.0487  1.4060
  981SOL     OW14575   3.603   0.301   3.703 -0.2497 -0.0004  0.0612
  981SOL    HW114576   3.636   0.375   3.754  0.0416 -0.1969  0.1592
  981SOL    HW214577   3.597   0.339   3.615 -1.0019  2.0411  1.0021
  982SOL     OW14578   3.868   1.535   3.042  0.6291  0.6811  0.2174
  982SOL    HW114579   3.927   1.477   3.091  1.0147  1.4291  0.6603
  982SOL    HW214580   3.782   1.508   3.073  0.3677  0.5088 -0.6707
  983SOL     OW14581   1.930   0.501   8.565  0.2424  0.0773  0.4507
  983SOL    HW114582   1.970   0.586   8.585  0.4879  0.2874 -0.9420
  983SOL    HW214583   1.955   0.496   8.473  1.6787  1.4346  0.7740
  984SOL     OW14584   0.068   4.357   1.199  0.1503 -0.2972 -0.2130
  984SOL    HW114585   0.017   4.435   1.218  1.6884  0.6503  0.0289
  984SOL    HW214586   0.094   4.376   1.109  0.8939  0.2670  0.1180
  985SOL     OW14587   0.026   4.638   5.037 -0.2139 -0.1253 -0.5403
  985SOL    HW114588   0.035   4.555   5.085  0.9680  1.3182  1.7789
  985SOL    HW214589   4.717   4.689   5.101 -1.6581 -3.5156  1.0792
  986SOL     OW14590   4.224   3.942   7.050 -0.3078 -0.2061 -0.3325
  986SOL    HW114591   4.211   4.037   7.041 -3.2202 -0.4779  0.9421
  986SOL    HW214592   4.194   3.929   7.140 -1.7728 -0.0661 -0.8029
  987SOL     OW14593   3.673   3.264   5.626  0.2725  0.3510  0.0871
  987SOL    HW114594   3.741   3.201   5.606  0.0227 -0.5719  2.1441
  987SOL    HW214595   3.604   3.199   5.612  1.5115 -0.9894  0.2487
  988SOL     OW14596   3.529   4.397   3.137  0.0579  0.4459 -0.1780
  988SOL    HW114597   3.614   4.352   3.145 -0.7733 -1.3904 -1.6393
  988SOL    HW214598   3.505   4.397   3.230  1.3250 -0.4715  0.1651
  989SOL     OW14599   2.979   0.968   4.173 -0.2331 -0.1025 -0.2928
  989SOL    HW114600   2.950   1.059   4.175  1.2050  0.3601 -0.5928
  989SOL    HW214601   2.895   0.928   4.197  0.4930 -2.8368 -2.2508
  990SOL     OW14602   2.097   3.426  15.725 -0.2388 -0.2354  1.0520
  990SOL    HW114603   2.147   3.393  15.799  1.4344 -1.2570 -0.5295
  990SOL    HW214604   2.055   3.496  15.774  0.0722  0.2608  0.6159
  991SOL     OW14605   2.341   1.343   1.044 -0.0837  0.4199  0.4152
  991SOL    HW114606   2.379   1.352   0.956  1.6980  0.9158  1.2367
  991SOL    HW214607   2.413   1.319   1.102  0.2960 -1.1670 -0.6990
  992SOL     OW14608   1.305   0.871   7.139 -0.1880  0.2083 -0.4432
  992SOL    HW114609   1.296   0.777   7.155  1.0631  0.0006 -0.9465
  992SOL    HW214610   1.223   0.910   7.168 -1.3483 -0.7271 -2.4328
  993SOL     OW14611   4.234   0.314   8.867 -0.0257 -0.6446  0.4852
  993SOL    HW114612   4.267   0.242   8.813 -1.1961 -0.9839  0.2278
  993SOL    HW214613   4.159   0.338   8.814  0.7533  0.0810 -0.2873
  994SOL     OW14614   1.035   3.964   5.057  0.2602 -0.2525  0.2125
  994SOL    HW114615   1.071   3.898   4.998 -1.4719  0.4618 -1.6405
  994SOL    HW214616   0.949   3.981   5.019  0.4851 -2.1628 -1.1098
  995SOL     OW14617   3.662   2.045   1.346  0.0426  0.1853 -0.0153
  995SOL    HW114618   3.633   2.015   1.260  1.3959 -0.0233 -0.4050
  995SOL    HW214619   3.750   2.081   1.332  0.1428  0.5649  1.5829
  996SOL     OW14620   2.274   2.975   4.107  0.3131 -0.3369 -0.0545
  996SOL    HW114621   2.273   2.906   4.042 -1.7897 -0.7137  0.3881
  996SOL    HW214622   2.247   2.931   4.188 -3.1617  2.4144  0.3060
  997SOL     OW14623   2.275   4.347  16.648  0.1751  0.6374  0.2256
  997SOL    HW114624   2.257   4.370  16.557  0.7384 -2.0025 -0.5670
  997SOL    HW214625   2.266   4.252  16.637  1.0632  0.5002  0.7628
  998SOL     OW14626   3.405   3.223   5.424  0.0296 -0.3058 -0.1400
  998SOL    HW114627   3.441   3.149   5.472  2.2219  1.6638  1.1941
  998SOL    HW214628   3.413   3.190   5.334  0.5189 -1.1324  0.2057
  999SOL     OW14629   3.719   4.323  14.151  0.0351  0.4015 -0.6008
  999SOL    HW114630   3.769   4.319  14.233 -2.2829 -0.8764  0.7396
  999SOL    HW214631   3.717   4.415  14.126  0.1373  1.5840  3.7102
 1000SOL     OW14632   1.395   2.038   6.198 -0.0297 -0.6186 -0.0318
 1000SOL    HW114633   1.432   1.952   6.178 -1.9337 -1.9082  1.8885
 1000SOL    HW214634   1.471   2.087   6.227 -0.0629 -0.9847  0.6967
 1001SOL     OW14635   4.078   1.907  10.474  0.0420  0.4031 -0.3839
 1001SOL    HW114636   4.078   1.833  10.413 -2.5557 -1.1613  1.4862
 1001SOL    HW214637   3.984   1.926  10.466 -0.8793 -2.4269  3.2455
 1002SOL     OW14638   2.486   0.917  17.319 -0.0033  0.7417 -0.3249
 1002SOL    HW114639   2.558   0.975  17.346  0.9271 -0.4992 -0.1591
 1002SOL    HW214640   2.501   0.836  17.367  3.0545  0.7805 -1.1999
 1003SOL     OW14641   3.115   0.778   5.108  0.6195 -0.1421  0.1758
 1003SOL    HW114642   3.095   0.703   5.051  0.8385  0.0285 -0.1228
 1003SOL    HW214643   3.134   0.845   5.042 -2.4584  2.0789  1.5366
 1004SOL     OW14644   4.555   1.657  11.746  0.2704  0.2605  0.2856
 1004SOL    HW114645   4.567   1.601  11.670 -0.4814  0.7933 -0.2247
 1004SOL    HW214646   4.468   1.691  11.724  0.0797 -0.9665 -0.8196
 1005SOL     OW14647   1.330   3.401  11.405 -0.1678  0.7509  0.7188
 1005SOL    HW114648   1.385   3.420  11.481  0.3644  1.0391  0.2619
 1005SOL    HW214649   1.398   3.416  11.339 -0.2992  0.3494  0.4905
 1006SOL     OW14650   3.307   3.992   7.228 -0.1353 -0.5856 -0.3317
 1006SOL    HW114651   3.250   3.988   7.151 -0.2257  1.0184 -0.3418
 1006SOL    HW214652   3.274   3.923   7.286  3.2094 -0.5351  1.6273
 1007SOL     OW14653   3.366   3.460  16.167  0.3742  0.0378  0.3393
 1007SOL    HW114654   3.447   3.421  16.134 -0.3086 -0.6608 -0.5215
 1007SOL    HW214655   3.384   3.553  16.159  0.5205  0.0229  0.5056
 1008SOL     OW14656   3.663   2.626  16.538 -0.1169  0.5095 -0.0975
 1008SOL    HW114657   3.690   2.717  16.552 -0.1854  0.3351  1.1400
 1008SOL    HW214658   3.675   2.594  16.627  1.4739  1.5080  0.0438
 1009SOL     OW14659   3.648   3.845  17.118  0.1785 -0.1495 -0.3208
 1009SOL    HW114660   3.652   3.755  17.150  3.3803 -0.5604 -1.8740
 1009SOL    HW214661   3.592   3.889  17.183  0.6284  2.0913 -1.4466
 1010SOL     OW14662   1.167   4.044  14.245 -0.2397  0.2042  0.1618
 1010SOL    HW114663   1.245   4.081  14.203 -0.1308 -1.4708 -1.1111
 1010SOL    HW214664   1.125   3.989  14.179 -0.1717  2.1499 -1.4994
 1011SOL     OW14665   3.902   0.950   1.408  0.0456  0.6254  0.0912
 1011SOL    HW114666   3.965   0.915   1.472  1.1188  0.1140 -1.2502
 1011SOL    HW214667   3.834   0.886   1.426 -1.7476  2.5348  0.1604
 1012SOL     OW14668   4.170   3.262   9.497 -0.0170 -0.1943 -0.5254
 1012SOL    HW114669   4.115   3.205   9.443 -0.0878 -0.6996  0.0752
 1012SOL    HW214670   4.097   3.309   9.538  0.1201 -0.6859  0.3052
 1013SOL     OW14671   2.154   1.271   5.946  0.3013  0.1939 -0.1213
 1013SOL    HW114672   2.170   1.245   5.855 -0.5479 -0.4768 -0.0812
 1013SOL    HW214673   2.156   1.183   5.985  0.4035 -0.3083 -1.2752
 1014SOL     OW14674   3.754   3.137   9.471 -0.4025  0.3871 -0.0779
 1014SOL    HW114675   3.839   3.143   9.427 -1.5280 -1.5129 -2.5387
 1014SOL    HW214676   3.780   3.165   9.559 -2.1128  0.3723  0.4254
 1015SOL     OW14677   2.535   3.640   4.770 -0.5652 -0.3859  0.3162
 1015SOL    HW114678   2.460   3.606   4.820 -0.7398 -1.7306 -0.8652
 1015SOL    HW214679   2.496   3.723   4.742  2.0429  1.0266  0.8446
 1016SOL     OW14680   2.776   4.432   5.896 -0.3516 -0.0414  0.2177
 1016SOL    HW114681   2.724   4.505   5.864  1.8755  0.9617 -1.1072
 1016SOL    HW214682   2.747   4.366   5.834  0.1196 -0.2972  0.2688
 1017SOL     OW14683   1.527   1.184  16.630 -0.4851 -0.0549 -0.2411
 1017SOL    HW114684   1.487   1.115  16.683 -0.7027  0.8453  0.7484
 1017SOL    HW214685   1.440   1.214  16.604  0.5341  1.5212 -1.7950
 1018SOL     OW14686   4.222   4.650   8.953  0.2089  0.4086  0.1158
 1018SOL    HW114687   4.154   4.596   8.993 -2.0465  4.1532  1.2947
 1018SOL    HW214688   4.202   4.736   8.991  0.1624 -0.2801  1.6461
 1019SOL     OW14689   2.480   0.242   2.067  0.7823 -0.2308 -0.0883
 1019SOL    HW114690   2.519   0.158   2.091 -1.4157 -1.2124  0.0647
 1019SOL    HW214691   2.525   0.245   1.983  0.6087 -0.1062 -0.1766
 1020SOL     OW14692   2.097   1.574  16.785 -0.3008 -0.2320  0.4015
 1020SOL    HW114693   2.069   1.557  16.695 -0.1438  0.5758  0.1937
 1020SOL    HW214694   2.133   1.663  16.782  1.5445 -0.8874  2.8341
 1021SOL     OW14695   1.261   4.660   9.192  0.2652  0.2372  0.0493
 1021SOL    HW114696   1.212   4.606   9.130 -2.7663  0.8170  1.9421
 1021SOL    HW214697   1.342   4.660   9.140 -0.9727  2.2042 -1.8852
 1022SOL     OW14698   0.196   1.952   4.157  0.9063 -0.4518 -0.3566
 1022SOL    HW114699   0.127   1.960   4.091  0.1439  0.0192  0.5080
 1022SOL    HW214700   0.224   1.864   4.131 -0.0006 -0.5615 -0.9844
 1023SOL     OW14701   1.514   1.858   0.986 -0.5915  0.8593  0.2194
 1023SOL    HW114702   1.562   1.904   0.918  1.2142 -0.2527  0.7231
 1023SOL    HW214703   1.573   1.871   1.060  1.0487 -2.0194 -0.5506
 1024SOL     OW14704   3.193   2.430   2.477 -0.2092  0.2043  0.1450
 1024SOL    HW114705   3.176   2.512   2.432 -0.4294 -0.6158 -1.2891
 1024SOL    HW214706   3.278   2.413   2.435  0.6298  2.7234  0.8144
 1025SOL     OW14707   0.125   2.198   5.762 -0.1191 -0.6481 -0.6897
 1025SOL    HW114708   0.172   2.172   5.841 -1.9340 -0.0479  0.6107
 1025SOL    HW214709   0.104   2.113   5.722 -1.8812 -1.1358  1.2753
 1026SOL     OW14710   0.269   0.082   3.399 -0.1432  0.3317  0.3806
 1026SOL    HW114711   0.358   0.054   3.379 -0.2327  0.0433  0.3826
 1026SOL    HW214712   0.213   0.068   3.323 -1.7955  1.5191  1.3792
 1027SOL     OW14713   2.825   3.941   5.731  0.6525  0.5831  0.4280
 1027SOL    HW114714   2.897   3.949   5.794  0.7685  2.7259  0.0207
 1027SOL    HW214715   2.831   3.850   5.704  1.4823  0.0844  2.2759
 1028SOL     OW14716   2.196   3.979   7.627 -0.4888 -0.6042  0.2755
 1028SOL    HW114717   2.260   4.029   7.577  0.9188 -0.8603  1.7972
 1028SOL    HW214718   2.127   4.041   7.648 -1.1472 -0.5959 -1.9749
 1029SOL     OW14719   0.522   1.049   4.072 -0.1778  0.1582  0.6583
 1029SOL    HW114720   0.555   0.959   4.078  2.4156  0.9705 -1.6816
 1029SOL    HW214721   0.459   1.037   4.001  0.5852  0.6373 -0.0913
 1030SOL     OW14722   0.770   3.207   2.275  0.3222 -0.0589 -0.0114
 1030SOL    HW114723   0.706   3.233   2.340 -1.6606 -1.9867 -1.2150
 1030SOL    HW214724   0.738   3.269   2.209 -1.5625 -0.6556  0.3709
 1031SOL     OW14725   3.785   1.329   7.935  0.5817  0.0735 -0.0555
 1031SOL    HW114726   3.813   1.402   7.880  0.2702  0.9899  1.0051
 1031SOL    HW214727   3.691   1.332   7.948  0.6644  2.2196 -0.0049
 1032SOL     OW14728   0.123   2.524  10.911 -0.0084 -0.8873  0.0645
 1032SOL    HW114729   0.102   2.466  10.837  0.7829  1.0355 -1.6643
 1032SOL    HW214730   0.135   2.602  10.857 -2.5428 -0.4253  0.2072
 1033SOL     OW14731   0.806   1.969  16.132 -0.0256 -0.3140  0.3101
 1033SOL    HW114732   0.794   1.936  16.222  1.7736  0.7175  0.9281
 1033SOL    HW214733   0.745   1.909  16.091  0.2963  0.5158 -1.3759
 1034SOL     OW14734   0.388   0.365   7.853 -0.4998 -0.4765 -0.0484
 1034SOL    HW114735   0.298   0.334   7.848 -0.7479  0.1300  0.5422
 1034SOL    HW214736   0.440   0.289   7.878  1.2359  1.3996  2.1828
 1035SOL     OW14737   1.949   3.259  17.525  0.1162 -0.3769  0.6288
 1035SOL    HW114738   1.907   3.178  17.552 -1.0833 -0.0603 -0.2899
 1035SOL    HW214739   1.899   3.320  17.579  1.5500  1.7954 -0.4851
 1036SOL     OW14740   1.119   2.040   2.500 -0.0359 -0.6802  0.5647
 1036SOL    HW114741   1.033   2.041   2.541 -0.7276 -0.0494 -0.9247
 1036SOL    HW214742   1.171   1.974   2.547 -1.2573 -1.7848  0.3492
 1037SOL     OW14743   2.194   0.590  15.198 -0.1451  0.2288 -0.3416
 1037SOL    HW114744   2.247   0.667  15.220  0.8411 -1.0814  1.9692
 1037SOL    HW214745   2.128   0.640  15.150 -0.5342 -0.6087 -0.6687
 1038SOL     OW14746   1.211   2.199   4.647 -0.2695  0.0864  0.6041
 1038SOL    HW114747   1.251   2.189   4.733 -1.0357  0.2331  0.9780
 1038SOL    HW214748   1.265   2.270   4.613  0.8674 -2.2422 -2.4541
 1039SOL     OW14749   1.759   4.523   2.145 -0.4217 -0.0654  0.2117
 1039SOL    HW114750   1.732   4.482   2.063 -1.4194  1.8398 -0.3970
 1039SOL    HW214751   1.684   4.582   2.144  0.8188  1.3977 -4.1655
 1040SOL     OW14752   2.338   2.459   5.974 -0.0237 -0.3817 -0.2264
 1040SOL    HW114753   2.373   2.517   5.907 -0.6684 -1.4636 -1.4901
 1040SOL    HW214754   2.402   2.467   6.046 -0.4523  2.3496 -0.1573
 1041SOL     OW14755   3.951   4.172   1.687  0.0936  0.2137 -0.5754
 1041SOL    HW114756   3.884   4.197   1.623  0.8723 -0.3201 -1.5923
 1041SOL    HW214757   3.930   4.223   1.766  3.5670 -0.0584  0.5155
 1042SOL     OW14758   0.359   0.782  12.570  0.0265 -0.0748 -0.3167
 1042SOL    HW114759   0.445   0.824  12.568  0.8874 -1.7910 -0.2214
 1042SOL    HW214760   0.323   0.830  12.495  0.0579  1.2043  0.4960
 1043SOL     OW14761   4.465   1.234   7.704  0.6311  0.3696  0.2181
 1043SOL    HW114762   4.427   1.160   7.657  0.6923 -0.7863  1.9614
 1043SOL    HW214763   4.555   1.236   7.671  0.5904  1.4873  0.1623
 1044SOL     OW14764   4.276   0.169   3.242 -0.1783  0.2546  0.3993
 1044SOL    HW114765   4.297   0.241   3.302  1.4152 -0.0149  0.1831
 1044SOL    HW214766   4.206   0.206   3.189 -0.7940  0.4736  1.3650
 1045SOL     OW14767   1.592   4.353   8.989  0.1844  0.2521 -0.3528
 1045SOL    HW114768   1.608   4.259   8.982  0.0253  0.1477  0.8072
 1045SOL    HW214769   1.597   4.380   8.897  1.2287  0.2293 -0.2956
 1046SOL     OW14770   1.962   2.102   7.531  0.4057  0.0799  0.1820
 1046SOL    HW114771   1.911   2.107   7.611  0.9402  2.7660  0.3516
 1046SOL    HW214772   2.026   2.174   7.535  0.1900  0.1629  1.8457
 1047SOL     OW14773   2.359   4.154  13.574 -0.1361  0.3004 -0.2699
 1047SOL    HW114774   2.336   4.079  13.629 -0.6252 -0.2485 -1.2315
 1047SOL    HW214775   2.305   4.227  13.604 -0.3197  0.6367 -1.4481
 1048SOL     OW14776   2.763   1.148   6.703  0.5655  0.2526 -0.3368
 1048SOL    HW114777   2.720   1.126   6.620 -0.4909 -0.1268  0.3033
 1048SOL    HW214778   2.740   1.241   6.705 -2.7876 -0.6124  1.2257
 1049SOL     OW14779   0.396   3.272   4.842  0.0434  0.2823  0.0260
 1049SOL    HW114780   0.333   3.241   4.908 -1.7641  0.6100 -1.5497
 1049SOL    HW214781   0.408   3.365   4.862 -1.3450  0.5393 -0.3630
 1050SOL     OW14782   4.338   0.543   5.513  0.0548 -0.1207  0.4851
 1050SOL    HW114783   4.330   0.486   5.437 -0.4500  2.0065 -1.0785
 1050SOL    HW214784   4.419   0.523   5.559  1.0345  0.3533 -1.0189
 1051SOL     OW14785   3.665   2.561   5.387 -0.2461  0.1232  0.3057
 1051SOL    HW114786   3.676   2.472   5.351  0.3455  0.0264  0.7255
 1051SOL    HW214787   3.586   2.538   5.436  1.1856 -0.4569  2.3781
 1052SOL     OW14788   2.518   1.069  10.491  0.1754 -0.4768  0.0010
 1052SOL    HW114789   2.587   1.020  10.537  1.2196 -0.8733 -1.9934
 1052SOL    HW214790   2.459   0.996  10.471 -0.6110  0.0836  0.3217
 1053SOL     OW14791   1.612   2.694  14.728 -0.3707 -0.2166 -0.4352
 1053SOL    HW114792   1.639   2.659  14.813 -0.8781  1.2708  0.3399
 1053SOL    HW214793   1.524   2.658  14.718 -0.3293  0.0894 -1.8959
 1054SOL     OW14794   0.183   2.845  14.072 -0.3469 -0.2937 -0.2997
 1054SOL    HW114795   0.265   2.838  14.024  0.6916  0.2187  1.3872
 1054SOL    HW214796   0.199   2.934  14.106  0.4141  0.2159 -2.0102
 1055SOL     OW14797   4.601   0.362   3.415 -0.5286  0.2584 -0.0426
 1055SOL    HW114798   4.648   0.423   3.471 -0.7647 -1.0914  1.6317
 1055SOL    HW214799   4.646   0.377   3.332  0.2213  0.4418  0.4016
 1056SOL     OW14800   4.342   0.891   7.910 -0.1269  0.1929  0.0707
 1056SOL    HW114801   4.286   0.932   7.976  0.7557  0.3009  0.7548
 1056SOL    HW214802   4.428   0.930   7.929 -0.5938  1.9884 -1.5410
 1057SOL     OW14803   0.855   2.955   6.565  0.6974  0.1817 -0.1097
 1057SOL    HW114804   0.949   2.949   6.547  0.5092  1.3173 -1.4970
 1057SOL    HW214805   0.821   2.868   6.542 -0.0639  0.5728 -0.4417
 1058SOL     OW14806   3.509   1.453  13.742 -0.1063 -0.2578 -0.5048
 1058SOL    HW114807   3.455   1.408  13.677 -1.0111  1.2660 -0.8227
 1058SOL    HW214808   3.442   1.509  13.781  0.0464  0.1457 -0.8225
 1059SOL     OW14809   3.868   2.007   2.542  0.2941  0.1480  0.3212
 1059SOL    HW114810   3.949   2.032   2.589  1.3306 -0.6968 -1.0213
 1059SOL    HW214811   3.815   1.984   2.619  1.8155  0.6607  1.5389
 1060SOL     OW14812   0.570   0.641   6.452  0.2350 -0.0607  0.4353
 1060SOL    HW114813   0.628   0.592   6.511  0.5660 -1.9187 -1.4408
 1060SOL    HW214814   0.632   0.676   6.388 -0.5849 -1.3968 -1.0823
 1061SOL     OW14815   3.712   1.179   1.388 -0.1987 -0.0326  0.7999
 1061SOL    HW114816   3.747   1.090   1.399  0.7206  0.2781  0.3874
 1061SOL    HW214817   3.762   1.220   1.317  3.5058 -2.4822  1.9629
 1062SOL     OW14818   2.207   0.495   1.686  0.7885  0.1352 -0.1337
 1062SOL    HW114819   2.202   0.460   1.775  0.2802 -2.8861 -1.3480
 1062SOL    HW214820   2.243   0.426   1.630 -1.6733 -0.9327 -0.3848
 1063SOL     OW14821   3.798   4.381   9.083 -0.4684 -0.2022  0.0605
 1063SOL    HW114822   3.840   4.324   9.147  1.1720  1.6085  0.6188
 1063SOL    HW214823   3.738   4.317   9.046  1.1495 -1.8221  0.2847
 1064SOL     OW14824   4.614   0.692   5.442 -0.1529 -0.4319  0.1510
 1064SOL    HW114825   4.600   0.637   5.365 -0.9080  0.8993 -0.6622
 1064SOL    HW214826   4.674   0.627   5.479  0.0146 -0.8649 -0.8809
 1065SOL     OW14827   2.803   0.252  16.601 -0.3617 -0.4802  0.2117
 1065SOL    HW114828   2.852   0.180  16.560  1.0564 -0.9982  2.7985
 1065SOL    HW214829   2.817   0.325  16.541 -0.4496  1.2407  2.2943
 1066SOL     OW14830   3.979   4.027   3.992 -0.2099 -0.6689  0.4329
 1066SOL    HW114831   4.016   4.097   4.045 -1.7107 -0.2161  0.8700
 1066SOL    HW214832   3.888   4.013   4.018 -0.7867 -0.8582 -1.6744
 1067SOL     OW14833   0.893   4.245  14.014 -0.3183  0.0616  0.4504
 1067SOL    HW114834   0.822   4.183  13.998 -1.7018  2.3755 -2.4658
 1067SOL    HW214835   0.958   4.189  13.972 -0.7186 -0.5003  0.5791
 1068SOL     OW14836   4.577   1.615   6.914  0.4210  0.3009 -0.2404
 1068SOL    HW114837   4.609   1.664   6.990 -1.7361 -1.6854  1.9376
 1068SOL    HW214838   4.581   1.523   6.939 -1.4615  0.7130  1.6244
 1069SOL     OW14839   2.906   0.906  14.375  0.1115 -0.3905 -0.3539
 1069SOL    HW114840   2.923   0.915  14.281 -2.8868 -0.5187 -0.9096
 1069SOL    HW214841   2.889   0.997  14.397 -0.1548 -0.3192 -0.8410
 1070SOL     OW14842   1.044   0.120   3.137  0.1317 -1.0393 -0.1243
 1070SOL    HW114843   1.091   0.050   3.091 -0.0648 -0.2034 -1.6111
 1070SOL    HW214844   1.037   0.088   3.227  1.1112  1.5177  0.8525
 1071SOL     OW14845   1.699   3.260   7.362 -0.0598 -0.0324  0.2623
 1071SOL    HW114846   1.707   3.188   7.425 -1.0297  0.4088  0.8842
 1071SOL    HW214847   1.763   3.226   7.299  0.4700  1.0052  0.2494
 1072SOL     OW14848   1.443   4.056  10.252 -0.1289  0.1691  0.0714
 1072SOL    HW114849   1.504   4.086  10.185  0.7338 -0.4604  0.5741
 1072SOL    HW214850   1.363   4.046  10.202  0.5464 -1.6064 -0.6425
 1073SOL     OW14851   4.390   0.002   5.642  0.1197 -0.1030 -0.1741
 1073SOL    HW114852   4.392   4.665   5.585  0.3283 -1.7086  2.0284
 1073SOL    HW214853   4.334   0.065   5.596  1.1785  0.1477 -1.1321
 1074SOL     OW14854   3.248   4.514   6.927  0.3390 -0.4858 -0.0898
 1074SOL    HW114855   3.286   4.538   6.843 -0.6245 -0.7290 -0.5916
 1074SOL    HW214856   3.270   4.589   6.983 -0.5281  0.9677 -1.7146
 1075SOL     OW14857   3.327   2.477  11.558 -0.0575 -0.2098  0.1090
 1075SOL    HW114858   3.372   2.407  11.605 -0.0508 -0.8020 -0.7755
 1075SOL    HW214859   3.239   2.442  11.546  0.5516 -1.3665 -0.9319
 1076SOL     OW14860   1.607   3.685  15.532  0.0350 -0.0176  0.8475
 1076SOL    HW114861   1.591   3.776  15.554 -1.3396 -0.0650  0.0645
 1076SOL    HW214862   1.587   3.648  15.618 -1.6959 -0.2284  0.3552
 1077SOL     OW14863   4.467   4.293   9.177 -0.1398 -0.1820 -0.1032
 1077SOL    HW114864   4.498   4.381   9.198  1.0770 -0.3162 -1.3252
 1077SOL    HW214865   4.372   4.296   9.189 -0.1366  3.4457 -1.1619
 1078SOL     OW14866   3.039   3.380   3.124  0.8007  0.2795  0.0698
 1078SOL    HW114867   3.003   3.463   3.156  1.5746  0.2224  1.1038
 1078SOL    HW214868   2.959   3.346   3.085  2.1138  1.5059 -3.7134
 1079SOL     OW14869   2.772   4.194  12.437  0.1538  0.0619 -0.0332
 1079SOL    HW114870   2.824   4.160  12.510 -0.4295  0.8724  0.7572
 1079SOL    HW214871   2.754   4.274  12.486 -0.4096 -1.0083  1.5244
 1080SOL     OW14872   1.864   3.755   5.474 -0.0297  0.3799  0.0403
 1080SOL    HW114873   1.779   3.712   5.464  0.7472 -1.5321  1.7660
 1080SOL    HW214874   1.918   3.733   5.398 -1.1630  0.2835 -0.7340
 1081SOL     OW14875   0.190   1.974   3.807 -0.0239  0.4862  0.1473
 1081SOL    HW114876   0.209   2.049   3.863  1.3821 -1.4328  2.2692
 1081SOL    HW214877   0.116   1.946   3.861  0.6974 -1.0410  0.3405
 1082SOL     OW14878   0.877   3.451  16.542  0.3239 -0.0280  0.4662
 1082SOL    HW114879   0.863   3.491  16.457  0.4740 -0.1673  0.3758
 1082SOL    HW214880   0.874   3.535  16.588  0.2460  0.2166  0.0105
 1083SOL     OW14881   3.426   1.309  13.267  0.1696  0.6127  0.0467
 1083SOL    HW114882   3.387   1.391  13.298  0.1336  0.5819  0.0829
 1083SOL    HW214883   3.398   1.247  13.333  0.2450  1.9655  1.3567
 1084SOL     OW14884   1.965   0.182  14.412  0.1280 -0.8283 -0.4019
 1084SOL    HW114885   1.884   0.140  14.443 -0.2087  0.2473  0.1738
 1084SOL    HW214886   1.974   0.143  14.325 -0.3862  1.3317 -1.4003
 1085SOL     OW14887   0.356   1.644   3.876  0.1873  0.6931  0.3562
 1085SOL    HW114888   0.353   1.558   3.834  0.2739  0.5251  0.6945
 1085SOL    HW214889   0.352   1.699   3.798 -0.7636 -1.1509 -0.8959
 1086SOL     OW14890   1.316   2.522   9.396  0.2133 -0.4554  0.1460
 1086SOL    HW114891   1.366   2.568   9.463 -0.1576  0.0948  0.0396
 1086SOL    HW214892   1.273   2.589   9.343  2.8293  0.9812 -0.1197
 1087SOL     OW14893   2.528   0.475   0.550 -0.0832 -0.3194  0.1759
 1087SOL    HW114894   2.463   0.438   0.490  0.8227  0.3895 -1.2394
 1087SOL    HW214895   2.609   0.452   0.505 -0.6010 -0.5202 -0.6642
 1088SOL     OW14896   3.871   2.313   1.969 -0.2040  0.1480 -0.0274
 1088SOL    HW114897   3.828   2.295   2.052 -0.3382 -1.4911 -0.4442
 1088SOL    HW214898   3.799   2.362   1.929  0.8710  1.1660 -0.7112
 1089SOL     OW14899   1.238   2.523  13.541 -0.2282  0.1677  0.1752
 1089SOL    HW114900   1.210   2.452  13.599  2.4925 -0.9500  0.1447
 1089SOL    HW214901   1.300   2.481  13.481  0.7944  0.5348  0.9730
 1090SOL     OW14902   4.244   1.942   2.234  0.2269  0.8218  0.2949
 1090SOL    HW114903   4.151   1.921   2.225  0.6650 -1.1385  0.4296
 1090SOL    HW214904   4.276   1.927   2.145 -0.2192  0.9791  0.1079
 1091SOL     OW14905   3.648   2.557   4.943  0.0023 -0.2217 -0.2763
 1091SOL    HW114906   3.718   2.594   4.997 -1.9671 -1.4299  3.1180
 1091SOL    HW214907   3.571   2.590   4.990  0.0910 -0.6547  0.1782
 1092SOL     OW14908   3.651   4.661   8.029 -0.2653 -0.2502 -0.2031
 1092SOL    HW114909   3.737   4.662   7.986 -0.1925  1.1538 -0.0410
 1092SOL    HW214910   3.673   4.596   8.095  0.0492 -0.9284 -0.9621
 1093SOL     OW14911   3.173   2.453   5.625 -0.5879 -0.3643 -0.1767
 1093SOL    HW114912   3.201   2.447   5.534  1.1958 -0.2099  0.3640
 1093SOL    HW214913   3.077   2.452   5.622 -0.5204 -1.0777 -2.5516
 1094SOL     OW14914   1.554   1.047   8.551  0.0156  0.3656 -0.0331
 1094SOL    HW114915   1.580   1.000   8.473  1.5957 -2.1448  2.0060
 1094SOL    HW214916   1.622   1.113   8.567  0.5574  0.0168 -0.8881
 1095SOL     OW14917   0.916   1.855  11.705 -0.4698  0.3556  0.2377
 1095SOL    HW114918   0.856   1.851  11.631  0.1659 -1.8489 -0.1520
 1095SOL    HW214919   0.895   1.773  11.750 -1.6942  0.5158 -0.0472
 1096SOL     OW14920   3.125   1.257   6.975  0.2129 -0.1972 -0.2231
 1096SOL    HW114921   3.186   1.271   6.903  0.7444  0.3336  0.3287
 1096SOL    HW214922   3.041   1.275   6.933  1.0557  0.8262 -1.4705
 1097SOL     OW14923   2.094   2.488   8.502 -0.3053 -0.5848 -1.1662
 1097SOL    HW114924   2.095   2.453   8.413  0.0968 -0.8312 -1.0634
 1097SOL    HW214925   2.188   2.484   8.518 -0.4332  0.9694 -0.0255
 1098SOL     OW14926   3.297   1.902  15.132 -0.9807  0.5986 -0.0504
 1098SOL    HW114927   3.247   1.935  15.057  1.1169  2.2957 -0.7041
 1098SOL    HW214928   3.262   1.941  15.211 -2.5570  1.2260 -1.0622
 1099SOL     OW14929   2.975   2.900   3.658 -0.3638 -0.0264 -0.3627
 1099SOL    HW114930   2.901   2.954   3.630 -1.5057  0.1999  3.0877
 1099SOL    HW214931   2.932   2.848   3.726  0.0609  0.8524  0.5741
 1100SOL     OW14932   0.787   0.086   5.559  0.0525  0.2643  0.3700
 1100SOL    HW114933   0.824   4.739   5.563 -0.2129  0.1386  0.1190
 1100SOL    HW214934   0.770   0.102   5.652  0.3543  1.3997  0.2273
 1101SOL     OW14935   1.728   1.901   0.409 -0.3650 -0.0835 -0.0967
 1101SOL    HW114936   1.794   1.840   0.376 -0.7386 -1.8193  2.3555
 1101SOL    HW214937   1.772   1.986   0.414 -0.1042 -0.2609  0.6013
 1102SOL     OW14938   3.500   3.648   9.162 -0.3693  0.0966  0.0534
 1102SOL    HW114939   3.576   3.651   9.103  1.8023 -1.4303  2.7678
 1102SOL    HW214940   3.458   3.565   9.142 -0.3674  0.0771  0.1312
 1103SOL     OW14941   2.216   2.386   4.044  0.1085 -0.2488 -0.2960
 1103SOL    HW114942   2.144   2.448   4.037 -1.6056 -1.8372  3.3046
 1103SOL    HW214943   2.173   2.301   4.038  1.1660 -0.9593  2.1929
 1104SOL     OW14944   4.567   1.059   1.826 -0.2983  0.4425 -0.3154
 1104SOL    HW114945   4.638   1.024   1.772 -1.0185  1.1191 -1.7099
 1104SOL    HW214946   4.507   0.985   1.819 -0.3117  0.1580  2.7867
 1105SOL     OW14947   2.251   3.986  12.387 -0.7246 -0.2432  0.3410
 1105SOL    HW114948   2.310   3.976  12.462 -1.1242 -0.8860  0.5680
 1105SOL    HW214949   2.309   4.043  12.336  2.0838 -2.3045  1.2773
 1106SOL     OW14950   3.668   2.672   1.128 -0.1015  0.4875  0.0759
 1106SOL    HW114951   3.698   2.583   1.111  1.0509  0.7177  0.9251
 1106SOL    HW214952   3.600   2.674   1.060 -0.2828  3.6063  0.3671
 1107SOL     OW14953   1.385   0.198   2.623  0.1215  0.6516 -0.0740
 1107SOL    HW114954   1.362   0.112   2.658  2.0823  0.3429  0.4572
 1107SOL    HW214955   1.449   0.229   2.687  0.6426  0.1238 -0.3405
 1108SOL     OW14956   4.605   4.599   3.042  0.1071 -0.3687 -0.1812
 1108SOL    HW114957   4.617   4.506   3.062 -0.8834 -0.1094  1.5795
 1108SOL    HW214958   4.666   4.604   2.969  0.1969  0.6575 -0.0245
 1109SOL     OW14959   4.577   4.176   5.253  0.2301  0.3181  0.5353
 1109SOL    HW114960   4.546   4.263   5.229  1.2346  0.9360  1.4604
 1109SOL    HW214961   4.557   4.134   5.169 -1.9806 -1.0885  1.7723
 1110SOL     OW14962   1.189   1.528   5.323 -0.0043  0.2160  0.3099
 1110SOL    HW114963   1.252   1.535   5.251 -0.2040 -0.2398  0.0926
 1110SOL    HW214964   1.238   1.473   5.383  1.3955 -0.0145 -1.0490
 1111SOL     OW14965   0.333   1.163   4.631  0.5516  0.0374  0.4143
 1111SOL    HW114966   0.413   1.198   4.592 -0.0733 -0.1243 -0.9774
 1111SOL    HW214967   0.344   1.069   4.618  1.9513  0.5103 -1.7192
 1112SOL     OW14968   0.522   2.950   6.861  0.0863 -0.2144  0.6390
 1112SOL    HW114969   0.615   2.929   6.854  0.1320 -0.4068  1.8263
 1112SOL    HW214970   0.511   3.009   6.786  0.4971  0.3166  1.0064
 1113SOL     OW14971   0.629   0.381  17.244 -0.7733 -0.0677 -0.6049
 1113SOL    HW114972   0.660   0.472  17.242 -0.4879 -0.1215  1.2319
 1113SOL    HW214973   0.551   0.382  17.301 -0.6344  1.6778 -0.4498
 1114SOL     OW14974   3.138   2.406   6.988 -0.1535 -0.2855 -0.2209
 1114SOL    HW114975   3.092   2.458   6.923  0.1838  0.3385  0.0450
 1114SOL    HW214976   3.136   2.319   6.946  0.7515 -1.8486  2.9700
 1115SOL     OW14977   2.473   4.633   8.746 -0.0835 -0.9226  0.6485
 1115SOL    HW114978   2.463   4.658   8.655  0.9621 -0.1671  0.7429
 1115SOL    HW214979   2.397   4.666   8.794 -0.1355  2.2157 -1.6460
 1116SOL     OW14980   4.289   0.613   7.899  0.3729  0.4174  0.3260
 1116SOL    HW114981   4.278   0.703   7.868 -0.5410 -0.8985 -3.2578
 1116SOL    HW214982   4.347   0.625   7.974  2.5691 -1.4527 -1.0664
 1117SOL     OW14983   2.692   1.287  17.318 -0.2915 -0.3949  0.5495
 1117SOL    HW114984   2.713   1.194  17.306 -1.1243 -0.7881  2.2005
 1117SOL    HW214985   2.598   1.271  17.327 -0.2108 -0.2540  1.5801
 1118SOL     OW14986   2.650   1.463   8.142  0.2584 -0.3542  0.2727
 1118SOL    HW114987   2.671   1.422   8.226  0.0287 -1.7089 -0.3230
 1118SOL    HW214988   2.713   1.534   8.132 -2.3639  1.9846  0.6432
 1119SOL     OW14989   1.713   4.461  14.274 -0.3347 -0.2063 -0.2441
 1119SOL    HW114990   1.628   4.453  14.233 -0.4509 -0.7275  0.0971
 1119SOL    HW214991   1.714   4.377  14.321 -0.0252 -0.8431 -1.3650
 1120SOL     OW14992   1.182   3.818   4.844 -0.1102 -0.6625  0.1697
 1120SOL    HW114993   1.242   3.889   4.865  0.2807 -1.3303  1.2993
 1120SOL    HW214994   1.173   3.820   4.748 -0.5140 -1.9330  0.1778
 1121SOL     OW14995   1.704   4.688   9.747  0.5321  0.1303  0.2440
 1121SOL    HW114996   1.738   4.705   9.659  2.3537 -0.1428  0.8859
 1121SOL    HW214997   1.612   4.677   9.725  0.7643 -1.4301  0.0955
 1122SOL     OW14998   3.610   0.380   2.031 -0.1645  0.4282 -0.4884
 1122SOL    HW114999   3.613   0.458   1.976 -1.9384 -0.4795 -1.8982
 1122SOL    HW215000   3.623   0.405   2.122 -0.2227  0.0255 -0.3669
 1123SOL     OW15001   4.147   4.551   7.081 -0.5090 -0.1737  0.8868
 1123SOL    HW115002   4.056   4.531   7.105 -0.5454  0.4387  1.2427
 1123SOL    HW215003   4.156   4.643   7.106 -1.9256  0.0606  0.5619
 1124SOL     OW15004   4.704   1.569   8.803  0.0428  0.0166  0.1528
 1124SOL    HW115005   0.030   1.568   8.871 -0.2387 -1.9207  0.3915
 1124SOL    HW215006   4.725   1.499   8.741 -0.1702  0.5752 -0.5540
 1125SOL     OW15007   2.808   1.451  15.449  0.3697 -0.5540  0.3002
 1125SOL    HW115008   2.742   1.429  15.383  0.8153 -1.0679  0.0185
 1125SOL    HW215009   2.861   1.509  15.395 -2.9796  1.6314 -0.6706
 1126SOL     OW15010   3.811   2.860   5.657  0.4025 -0.2452  0.1750
 1126SOL    HW115011   3.809   2.937   5.601 -2.4722 -0.2780  0.2087
 1126SOL    HW215012   3.902   2.830   5.653  0.0695 -1.4913  1.6570
 1127SOL     OW15013   0.616   3.142   7.116  0.6185 -0.1201 -0.2207
 1127SOL    HW115014   0.551   3.162   7.049  0.1382 -0.1628  0.2299
 1127SOL    HW215015   0.692   3.189   7.082  0.5077  0.9016  0.9516
 1128SOL     OW15016   4.109   4.587   9.204 -0.0102 -0.1100 -0.3781
 1128SOL    HW115017   4.095   4.681   9.209  0.1328 -0.0846 -0.4490
 1128SOL    HW215018   4.023   4.571   9.167 -0.2354 -1.3000  0.6740
 1129SOL     OW15019   2.780   3.467   3.067 -0.1321 -0.4216  0.1182
 1129SOL    HW115020   2.772   3.561   3.086  1.3924 -0.1976 -0.3492
 1129SOL    HW215021   2.747   3.465   2.978 -0.9215  1.5724  0.3483
 1130SOL     OW15022   0.591   0.361  15.047 -1.1204 -0.3772  0.1280
 1130SOL    HW115023   0.621   0.302  15.117 -1.1412 -1.7412 -1.0135
 1130SOL    HW215024   0.651   0.330  14.979 -1.5371 -0.6705 -0.1060
 1131SOL     OW15025   2.363   1.383   9.339  0.4201 -0.3469  0.2076
 1131SOL    HW115026   2.305   1.405   9.412 -1.8917 -1.1611 -1.3975
 1131SOL    HW215027   2.346   1.291   9.318 -1.7817 -0.2148  1.4026
 1132SOL     OW15028   2.623   0.890   6.014 -0.3234 -0.1003 -0.0913
 1132SOL    HW115029   2.692   0.957   6.018 -2.4961  2.0900  1.0233
 1132SOL    HW215030   2.574   0.889   6.097 -1.1323  0.6172 -0.5558
 1133SOL     OW15031   2.999   3.623   7.391  0.3357  0.0593  0.7240
 1133SOL    HW115032   2.984   3.529   7.394  1.7129 -0.1188  1.8975
 1133SOL    HW215033   2.945   3.663   7.459 -0.7585 -0.4953  0.1924
 1134SOL     OW15034   1.194   3.348   4.986 -0.0438  0.2005 -0.2122
 1134SOL    HW115035   1.145   3.300   5.053  0.9404 -1.6816 -0.8507
 1134SOL    HW215036   1.161   3.437   5.001 -2.7257 -1.1038  1.5941
 1135SOL     OW15037   3.600   2.404   3.640 -0.0677  0.4931 -0.0693
 1135SOL    HW115038   3.695   2.402   3.630 -0.0407 -1.2726  0.4227
 1135SOL    HW215039   3.570   2.491   3.615 -0.3731  0.3095 -0.3398
 1136SOL     OW15040   1.908   3.206   7.622 -0.9248  0.2089 -0.5983
 1136SOL    HW115041   1.936   3.131   7.569 -0.2795 -0.9631  1.4176
 1136SOL    HW215042   1.964   3.274   7.584 -2.0395  1.1118 -0.6205
 1137SOL     OW15043   4.346   0.246  13.528 -0.7638 -0.3037  0.2220
 1137SOL    HW115044   4.355   0.227  13.622 -1.1542  0.7367  0.4696
 1137SOL    HW215045   4.440   0.238  13.508 -0.9596 -2.1284  0.0220
 1138SOL     OW15046   0.533   0.926   5.590 -0.1837  0.4123 -0.3484
 1138SOL    HW115047   0.555   1.017   5.612 -1.9420  0.6585  0.3352
 1138SOL    HW215048   0.461   0.951   5.532 -1.7004 -0.0497  1.3468
 1139SOL     OW15049   3.291   3.688   0.882 -0.3648  0.6033 -0.0437
 1139SOL    HW115050   3.332   3.687   0.795 -3.0448  3.0268 -1.3400
 1139SOL    HW215051   3.311   3.600   0.913 -1.2841  0.1759 -0.6646
 1140SOL     OW15052   1.932   1.723  14.272  0.1699  0.0192 -0.3021
 1140SOL    HW115053   2.018   1.681  14.279 -0.5705 -1.6036 -0.9825
 1140SOL    HW215054   1.922   1.765  14.187  1.6052 -1.4710 -1.1986
 1141SOL     OW15055   0.896   2.030  17.182 -0.3355 -0.5078  0.6703
 1141SOL    HW115056   0.900   1.953  17.239  3.4326 -1.9890 -1.5825
 1141SOL    HW215057   0.989   2.050  17.180 -0.4319 -0.0811  0.4991
 1142SOL     OW15058   4.198   4.506   5.450  0.3658 -0.3196  0.0795
 1142SOL    HW115059   4.143   4.443   5.402  1.3885 -2.0285  1.1485
 1142SOL    HW215060   4.146   4.581   5.479 -2.5475 -1.7166 -1.4404
 1143SOL     OW15061   2.010   4.190   6.005  0.2365 -0.1818  0.5430
 1143SOL    HW115062   2.035   4.099   6.022 -1.7981 -0.8718 -0.1193
 1143SOL    HW215063   1.943   4.165   5.941 -0.0079 -2.3259  1.6329
 1144SOL     OW15064   0.719   1.582  17.415 -0.1011  0.0988  0.3460
 1144SOL    HW115065   0.796   1.536  17.447  0.3175 -0.2053 -1.1236
 1144SOL    HW215066   0.669   1.517  17.367 -1.2202 -0.7240  2.6486
 1145SOL     OW15067   1.224   4.154   3.418 -0.2707  0.6432 -0.2781
 1145SOL    HW115068   1.151   4.095   3.403  1.0776 -1.3254  0.9912
 1145SOL    HW215069   1.230   4.166   3.513 -0.2187 -0.1093 -0.1878
 1146SOL     OW15070   0.552   4.138   3.589  0.1598  0.1538 -0.1080
 1146SOL    HW115071   0.604   4.138   3.669  2.1572 -4.0729 -1.3736
 1146SOL    HW215072   0.617   4.104   3.527 -0.6205 -0.0722 -0.8084
 1147SOL     OW15073   3.427   0.217   4.511  0.1769  0.1347  0.3778
 1147SOL    HW115074   3.517   0.227   4.481  0.8769  1.7706  2.9963
 1147SOL    HW215075   3.446   0.244   4.601 -1.5276  0.4897  0.6345
 1148SOL     OW15076   1.739   0.197   2.393  0.1342  0.0478 -0.9115
 1148SOL    HW115077   1.733   0.256   2.318 -0.1390  0.7231 -0.3607
 1148SOL    HW215078   1.657   0.147   2.396 -0.3149  0.9276  1.8577
 1149SOL     OW15079   3.069   3.128   4.683  0.0433 -0.0768 -0.1198
 1149SOL    HW115080   3.043   3.125   4.591 -1.4916 -1.3531  0.3565
 1149SOL    HW215081   2.979   3.150   4.707  0.7564  2.2404  0.4594
 1150SOL     OW15082   0.457   1.505   4.237 -0.1996  0.6585  0.0225
 1150SOL    HW115083   0.530   1.552   4.198 -0.8057  0.4375 -1.3815
 1150SOL    HW215084   0.492   1.416   4.234  1.3458  1.2592  0.2260
 1151SOL     OW15085   4.173   2.593   0.417 -0.1482 -0.8601  0.2557
 1151SOL    HW115086   4.245   2.641   0.458  0.4417 -2.4166  1.0297
 1151SOL    HW215087   4.141   2.657   0.353 -1.7695 -2.2029 -0.2666
 1152SOL     OW15088   2.739   0.069   8.806 -0.2431  0.1230 -0.5454
 1152SOL    HW115089   2.685   4.733   8.790  1.4164 -1.2011  0.1488
 1152SOL    HW215090   2.681   0.138   8.775 -0.1313 -0.1768 -1.4037
 1153SOL     OW15091   0.893   3.618   5.880 -0.5454  0.1811 -0.0129
 1153SOL    HW115092   0.840   3.543   5.909  2.4407 -1.4727  1.2009
 1153SOL    HW215093   0.837   3.690   5.853  0.2028  1.3740  1.6333
 1154SOL     OW15094   2.360   2.136   7.675  0.7931  0.1792 -1.0127
 1154SOL    HW115095   2.324   2.224   7.663 -1.6756 -0.4193  2.0086
 1154SOL    HW215096   2.365   2.099   7.588  3.8332  0.9557 -1.1613
 1155SOL     OW15097   3.209   3.714  10.931 -0.0851  0.0795  0.0380
 1155SOL    HW115098   3.286   3.659  10.918  1.6188  2.8357 -1.6662
 1155SOL    HW215099   3.247   3.796  10.964 -0.0030  0.7670 -1.7170
 1156SOL     OW15100   0.319   0.747   1.680 -0.8940  0.0460  0.4302
 1156SOL    HW115101   0.347   0.656   1.670  1.1511  0.5846  1.2867
 1156SOL    HW215102   0.242   0.736   1.735  0.1764 -0.7651  1.7664
 1157SOL     OW15103   1.705   2.499   1.998  0.3410 -0.1149  0.0678
 1157SOL    HW115104   1.733   2.591   2.003 -1.1736  0.3304  0.5250
 1157SOL    HW215105   1.628   2.494   2.054  0.5009 -0.5089  0.2521
 1158SOL     OW15106   1.629   0.347  14.697  0.5214 -0.2163 -0.6067
 1158SOL    HW115107   1.654   0.262  14.733 -0.0877  1.0292  2.7091
 1158SOL    HW215108   1.553   0.326  14.642  0.7489 -0.4314 -0.8382
 1159SOL     OW15109   3.246   0.565   6.152 -0.0963  0.0736 -0.4687
 1159SOL    HW115110   3.245   0.539   6.059  3.0563 -0.3765 -0.3846
 1159SOL    HW215111   3.296   0.646   6.151  0.3020 -0.1714 -0.2016
 1160SOL     OW15112   3.643   3.534   5.553  0.1822 -0.4527 -0.4173
 1160SOL    HW115113   3.624   3.440   5.550 -2.7479  0.1323  0.5443
 1160SOL    HW215114   3.715   3.539   5.616 -1.0856  1.9507  0.8075
 1161SOL     OW15115   3.400   2.295   7.798  0.1261  0.3302 -0.0157
 1161SOL    HW115116   3.406   2.382   7.837 -1.1052 -0.4880  1.9702
 1161SOL    HW215117   3.329   2.301   7.734 -0.8484 -0.5944  0.9858
 1162SOL     OW15118   1.667   2.691   5.846 -0.8292 -0.8439  0.1588
 1162SOL    HW115119   1.592   2.635   5.866 -0.8188 -1.4168 -1.3623
 1162SOL    HW215120   1.638   2.766   5.794 -2.3201 -1.9653 -0.6523
 1163SOL     OW15121   3.477   2.669   3.111  0.1552 -0.2447 -0.0555
 1163SOL    HW115122   3.454   2.577   3.096 -1.6287  0.2466 -0.3726
 1163SOL    HW215123   3.393   2.707   3.137 -0.4622 -2.5172  1.3141
 1164SOL     OW15124   0.355   3.309  16.822 -0.2798 -0.2164 -0.3621
 1164SOL    HW115125   0.337   3.400  16.848 -0.9361 -0.3606 -0.3248
 1164SOL    HW215126   0.351   3.310  16.726 -0.0419  0.8540 -0.3672
 1165SOL     OW15127   0.616   2.219   3.595 -0.4821 -0.8115  0.6900
 1165SOL    HW115128   0.589   2.309   3.579 -1.4998 -1.3632 -0.7616
 1165SOL    HW215129   0.687   2.212   3.531 -1.5850  0.2579 -0.6402
 1166SOL     OW15130   0.561   1.590   5.656  0.1436 -0.2886  0.1045
 1166SOL    HW115131   0.533   1.510   5.612  2.0240 -1.1322  0.4244
 1166SOL    HW215132   0.566   1.554   5.745  0.1602 -2.4204 -0.7740
 1167SOL     OW15133   4.460   2.844   4.388  0.3525 -0.4738  0.6608
 1167SOL    HW115134   4.495   2.809   4.470  0.4281 -0.4127  0.6539
 1167SOL    HW215135   4.496   2.932   4.395  0.5777 -0.5775  0.8021
 1168SOL     OW15136   3.243   2.033   3.762  0.0210 -0.5360 -0.3128
 1168SOL    HW115137   3.302   1.964   3.734  1.6313  0.7670 -0.1077
 1168SOL    HW215138   3.277   2.108   3.713  1.4516 -0.7486  0.3741
 1169SOL     OW15139   3.207   3.277   8.272 -0.4780  0.3552  0.4538
 1169SOL    HW115140   3.273   3.286   8.341  1.1450 -0.9999 -0.9313
 1169SOL    HW215141   3.140   3.227   8.321  0.2432 -2.3795 -1.3371
 1170SOL     OW15142   1.983   3.123  16.139 -0.8512 -0.5492  0.4774
 1170SOL    HW115143   1.964   3.090  16.226 -2.3071  3.4766  1.6857
 1170SOL    HW215144   1.913   3.082  16.088  0.3529 -2.6039  0.4660
 1171SOL     OW15145   3.508   3.045  14.208 -0.4469 -0.2968  0.3484
 1171SOL    HW115146   3.596   3.081  14.216 -1.9011  3.3063  0.3429
 1171SOL    HW215147   3.517   2.971  14.147  1.3801  1.3834 -1.4174
 1172SOL     OW15148   3.861   3.630   4.325 -0.2645  0.7516  0.1823
 1172SOL    HW115149   3.902   3.686   4.391  0.5070  0.3235  0.0667
 1172SOL    HW215150   3.936   3.573   4.305  1.0204  2.2905  0.6389
 1173SOL     OW15151   1.285   3.270   5.322 -0.6601 -0.2173 -0.0145
 1173SOL    HW115152   1.306   3.178   5.310 -0.8077 -0.1423 -0.8591
 1173SOL    HW215153   1.244   3.269   5.408  0.1494 -0.0928  0.3671
 1174SOL     OW15154   3.029   4.224   6.729 -0.0017 -0.2126  0.1422
 1174SOL    HW115155   2.985   4.188   6.651 -0.6216  0.1548  0.3223
 1174SOL    HW215156   2.980   4.192   6.805 -3.4337 -1.2001 -2.4745
 1175SOL     OW15157   0.077   0.045  16.076 -0.0908 -0.0738 -0.3341
 1175SOL    HW115158   0.162   0.047  16.032 -0.6890 -0.2841 -1.5080
 1175SOL    HW215159   0.047   0.135  16.088  3.7276  1.1363  0.1990
 1176SOL     OW15160   3.712   1.856   3.986  0.2423 -0.5420 -0.1410
 1176SOL    HW115161   3.638   1.896   3.941  0.2592  2.3926  2.4063
 1176SOL    HW215162   3.749   1.794   3.923  0.5214  0.2529 -0.7604
 1177SOL     OW15163   2.170   0.221  12.346  0.0512  0.2528  0.5833
 1177SOL    HW115164   2.174   0.317  12.351  0.5986  0.0470  3.9505
 1177SOL    HW215165   2.216   0.212  12.263  0.1800 -2.0540  0.9063
 1178SOL     OW15166   4.041   4.456   6.817  0.2407 -0.7342  0.0120
 1178SOL    HW115167   4.068   4.533   6.867 -0.5811 -0.6453  0.3221
 1178SOL    HW215168   4.114   4.447   6.755  0.6863 -1.1882  0.6004
 1179SOL     OW15169   4.540   3.116  17.501  0.2993  0.1453 -0.1009
 1179SOL    HW115170   4.509   3.205  17.487 -0.6586 -0.5041 -2.1784
 1179SOL    HW215171   4.623   3.139  17.542  0.0967 -0.7271  0.8064
 1180SOL     OW15172   0.783   2.617  16.964  0.6070 -0.3461  0.2417
 1180SOL    HW115173   0.778   2.525  16.988  0.9125 -0.5910 -0.6408
 1180SOL    HW215174   0.698   2.639  17.002 -0.3697 -0.4931 -1.8544
 1181SOL     OW15175   0.001   0.763   2.770  0.0219  0.3599 -0.2543
 1181SOL    HW115176   0.071   0.701   2.750 -0.7944 -0.8207  0.5877
 1181SOL    HW215177   0.001   0.763   2.866 -0.2746 -1.0032 -0.2453
 1182SOL     OW15178   3.188   4.368   4.516 -0.1902  0.3092 -0.2257
 1182SOL    HW115179   3.151   4.324   4.592  1.2627  2.8169  1.9059
 1182SOL    HW215180   3.268   4.318   4.498 -2.1312 -1.9630 -2.6116
 1183SOL     OW15181   2.533   3.266   3.160  0.2442  0.2854  0.2097
 1183SOL    HW115182   2.550   3.215   3.080 -0.9377  1.1959 -0.6208
 1183SOL    HW215183   2.557   3.206   3.230 -1.6612 -1.8418 -0.9450
 1184SOL     OW15184   3.989   0.381   6.599 -0.2683  0.0977 -0.0209
 1184SOL    HW115185   3.943   0.459   6.569 -1.1370 -0.6793 -0.7237
 1184SOL    HW215186   3.992   0.332   6.517  2.6756  0.3509 -0.0529
 1185SOL     OW15187   1.375   3.953   6.810 -0.3824  0.2037  0.0708
 1185SOL    HW115188   1.315   3.979   6.880  0.8172 -1.4593  1.7138
 1185SOL    HW215189   1.458   3.957   6.858  1.6189 -1.1575 -3.2356
 1186SOL     OW15190   4.623   3.350  14.522 -0.5817  0.0772  0.1293
 1186SOL    HW115191   4.555   3.339  14.456  1.6012 -1.9467 -1.7864
 1186SOL    HW215192   4.637   3.444  14.532  1.3342 -0.2210  0.3682
 1187SOL     OW15193   4.416   0.871   9.985 -0.4735 -0.3929  0.4910
 1187SOL    HW115194   4.359   0.891  10.059 -0.2457 -0.6580  0.7429
 1187SOL    HW215195   4.356   0.826   9.926  0.9271 -0.0488 -1.2038
 1188SOL     OW15196   4.223   2.028   5.799  0.6720 -0.0684  0.0324
 1188SOL    HW115197   4.198   2.074   5.879 -0.1470  0.5421 -0.5810
 1188SOL    HW215198   4.242   1.939   5.832  1.7555  0.1166 -0.0884
 1189SOL     OW15199   4.333   3.471   8.842 -0.2492 -0.2297 -0.4995
 1189SOL    HW115200   4.390   3.411   8.794  1.6134  1.8536 -0.9405
 1189SOL    HW215201   4.281   3.501   8.767 -0.1286  0.4300 -0.3182
 1190SOL     OW15202   0.017   1.974  14.940  0.1949 -0.0905  0.1051
 1190SOL    HW115203   0.100   2.016  14.963 -0.2281  0.6088  0.3407
 1190SOL    HW215204   4.699   2.012  15.004  0.7736 -3.4180  2.6050
 1191SOL     OW15205   0.819   4.723   4.480  0.2108 -0.0692 -0.6053
 1191SOL    HW115206   0.791   4.679   4.400 -0.6039  1.2115 -1.0260
 1191SOL    HW215207   0.867   4.655   4.527 -1.0960 -0.9261 -0.5223
 1192SOL     OW15208   1.720   2.627  10.043 -0.0067  0.1401 -0.3695
 1192SOL    HW115209   1.773   2.564  10.091 -0.3885 -0.2947 -0.5135
 1192SOL    HW215210   1.782   2.699  10.044  2.1459 -1.7298  0.6265
 1193SOL     OW15211   1.565   4.073  11.301 -0.0672 -0.7849  0.5157
 1193SOL    HW115212   1.589   4.165  11.311 -0.9149 -0.4242 -0.8502
 1193SOL    HW215213   1.608   4.041  11.221  1.2011  0.8852  0.5294
 1194SOL     OW15214   3.496   3.862  11.309 -0.1064 -0.2053 -0.8074
 1194SOL    HW115215   3.522   3.774  11.336  0.8409  0.5278  0.6839
 1194SOL    HW215216   3.532   3.904  11.388  0.6050 -0.6110 -0.9224
 1195SOL     OW15217   2.326   1.073   6.447 -0.0995  0.9587 -0.6444
 1195SOL    HW115218   2.331   1.042   6.537 -0.6786  1.5564 -0.4108
 1195SOL    HW215219   2.255   1.018   6.415  1.4381 -0.7886 -1.0959
 1196SOL     OW15220   0.523   1.428  14.049  0.1273  0.1795 -0.7316
 1196SOL    HW115221   0.452   1.371  14.018 -0.9924  0.6659  0.9320
 1196SOL    HW215222   0.492   1.510  14.012  1.9696  1.9117  1.6462
 1197SOL     OW15223   2.477   1.855  17.695 -0.2653  0.3219  0.3784
 1197SOL    HW115224   2.504   1.791   0.001  0.7660  3.1768  2.7613
 1197SOL    HW215225   2.386   1.864  17.725 -1.1007 -1.4366 -1.5917
 1198SOL     OW15226   1.279   4.331  14.363 -0.8346  0.2259  0.8593
 1198SOL    HW115227   1.358   4.278  14.352  0.0318  1.4948  0.9273
 1198SOL    HW215228   1.262   4.332  14.457 -2.8788  1.6062  0.4825
 1199SOL     OW15229   2.867   1.837   1.954 -0.2235 -0.0359  0.2992
 1199SOL    HW115230   2.774   1.849   1.976 -1.1649 -1.4603 -2.9634
 1199SOL    HW215231   2.893   1.916   1.906 -0.4975 -0.7983 -1.0876
 1200SOL     OW15232   3.834   0.943   7.001 -0.0801  0.7692 -0.4931
 1200SOL    HW115233   3.786   0.941   6.918  0.2880  3.3453 -0.7625
 1200SOL    HW215234   3.771   0.985   7.060 -0.2724 -0.2462  0.0346
 1201SOL     OW15235   2.650   1.030   5.583 -0.5583  0.1119  0.6528
 1201SOL    HW115236   2.745   1.042   5.574 -0.0937 -0.8637  4.1535
 1201SOL    HW215237   2.651   0.959   5.646  1.1828 -1.5866 -1.2856
 1202SOL     OW15238   2.501   4.328   0.052  0.4291 -0.1527  0.2649
 1202SOL    HW115239   2.472   4.390  17.744 -0.0587 -1.1055 -0.4097
 1202SOL    HW215240   2.422   4.284   0.082 -0.1646  0.2467 -0.7298
 1203SOL     OW15241   1.057   0.127  16.686  0.1705 -0.0098  0.4533
 1203SOL    HW115242   1.097   0.102  16.769  0.0047  3.0961  1.4521
 1203SOL    HW215243   1.138   0.100  16.642 -0.5232 -3.4671  1.3178
 1204SOL     OW15244   3.620   3.808   9.349  0.6909 -0.2385  0.1318
 1204SOL    HW115245   3.582   3.748   9.285  0.3421 -0.0890  0.1973
 1204SOL    HW215246   3.561   3.808   9.424  2.4028  1.5068  1.4787
 1205SOL     OW15247   3.989   4.105   5.554  0.7173  0.8096 -0.1464
 1205SOL    HW115248   3.915   4.075   5.500  2.1749 -0.8600 -1.2270
 1205SOL    HW215249   4.065   4.066   5.512 -1.1411 -1.4182 -1.4891
 1206SOL     OW15250   3.754   3.022   3.381  1.0640  0.3292  0.1622
 1206SOL    HW115251   3.712   2.958   3.324 -1.3057  0.7084  1.4628
 1206SOL    HW215252   3.784   3.087   3.318  0.0723  0.5431 -0.0927
 1207SOL     OW15253   1.994   3.525   0.952 -0.4094  0.4680 -0.8479
 1207SOL    HW115254   2.081   3.560   0.967 -0.3089  0.2979 -1.0426
 1207SOL    HW215255   2.012   3.447   0.899 -0.0731  1.3118 -1.9602
 1208SOL     OW15256   2.218   4.093   1.780  0.0480 -0.0912  0.0422
 1208SOL    HW115257   2.136   4.097   1.729  0.1932 -0.7615 -0.2598
 1208SOL    HW215258   2.203   4.009   1.824  0.5219 -0.2780 -0.1491
 1209SOL     OW15259   1.612   1.199  11.747  0.7529  0.1896 -0.6121
 1209SOL    HW115260   1.639   1.124  11.801 -1.3361  0.3808  0.6881
 1209SOL    HW215261   1.606   1.158  11.661 -1.4314  1.7692 -1.2069
 1210SOL     OW15262   4.108   3.853  11.197 -0.1169 -0.1357  0.5120
 1210SOL    HW115263   4.096   3.911  11.122  0.7189  0.1782  0.6291
 1210SOL    HW215264   4.188   3.889  11.233  0.7735 -0.2426 -1.3322
 1211SOL     OW15265   4.302   1.427   8.533  0.7248  0.0593 -0.1743
 1211SOL    HW115266   4.307   1.442   8.439 -0.3152 -0.0455 -0.2413
 1211SOL    HW215267   4.311   1.332   8.538 -1.5069 -0.2093 -1.3262
 1212SOL     OW15268   0.967   2.436   1.952  0.0651  0.1890  0.1047
 1212SOL    HW115269   0.981   2.507   2.015  0.6272  0.1630  0.0121
 1212SOL    HW215270   1.043   2.384   1.979 -0.8158 -0.9891  0.3353
 1213SOL     OW15271   1.807   2.773   4.526 -0.4532 -0.0344  0.3438
 1213SOL    HW115272   1.895   2.759   4.559 -0.7941 -2.4418  0.1813
 1213SOL    HW215273   1.822   2.855   4.479 -0.4325  0.8280  1.8553
 1214SOL     OW15274   0.483   4.109   4.080 -0.0191  0.0773 -0.4187
 1214SOL    HW115275   0.496   4.203   4.086  0.8624 -0.0480 -0.3143
 1214SOL    HW215276   0.388   4.106   4.092  0.0351 -0.1939 -0.0499
 1215SOL     OW15277   1.117   3.161   4.189  0.1732 -0.2523  0.1809
 1215SOL    HW115278   1.042   3.173   4.130  0.6657 -0.6289 -0.5148
 1215SOL    HW215279   1.075   3.113   4.261 -1.4688 -1.0054 -1.3021
 1216SOL     OW15280   4.286   1.368  14.644  0.3569 -0.5694 -0.0731
 1216SOL    HW115281   4.297   1.375  14.550  0.2384  2.6402  0.1695
 1216SOL    HW215282   4.329   1.451  14.664 -0.6733 -0.3515  1.2586
 1217SOL     OW15283   1.555   3.226   3.627 -0.2405 -0.1911  0.2875
 1217SOL    HW115284   1.466   3.262   3.630 -0.4035 -0.6538  0.9864
 1217SOL    HW215285   1.572   3.220   3.721 -1.7188 -1.7222  0.4710
 1218SOL     OW15286   4.275   0.133   2.252 -0.1264  0.6290 -0.2449
 1218SOL    HW115287   4.260   0.188   2.328 -1.6540 -1.4168  0.9406
 1218SOL    HW215288   4.185   0.113   2.226  0.4005 -0.3234 -1.3637
 1219SOL     OW15289   1.485   4.496   2.480  0.6748 -0.1354  0.4896
 1219SOL    HW115290   1.530   4.429   2.429 -2.5513 -1.0663 -1.1824
 1219SOL    HW215291   1.549   4.497   2.551  1.1350  1.4311  0.0522
 1220SOL     OW15292   1.915   2.104   3.443  0.0284 -0.3529  0.6110
 1220SOL    HW115293   1.905   2.118   3.537 -0.6186 -0.1609  0.5115
 1220SOL    HW215294   1.984   2.039   3.427  0.7866  0.4020  0.8247
 1221SOL     OW15295   3.913   3.317   5.313 -0.2422 -0.1318 -0.1191
 1221SOL    HW115296   3.990   3.315   5.256 -1.2653  0.6423 -1.5592
 1221SOL    HW215297   3.846   3.310   5.244 -1.8928  0.4896  1.4442
 1222SOL     OW15298   3.723   0.294   3.024  0.3787  0.2697  0.8440
 1222SOL    HW115299   3.767   0.215   3.056  1.0877  0.8550  1.3269
 1222SOL    HW215300   3.643   0.293   3.077  0.6266 -0.4331  1.2101
 1223SOL     OW15301   1.730   4.318   2.365 -0.6627 -0.1913 -0.1133
 1223SOL    HW115302   1.760   4.374   2.293  0.8636 -1.6246 -0.6073
 1223SOL    HW215303   1.807   4.320   2.422 -0.7724  3.0566 -0.0739
 1224SOL     OW15304   3.663   0.791   5.769 -0.1431  0.4852  0.6784
 1224SOL    HW115305   3.614   0.865   5.734 -0.2485 -0.0608 -0.3435
 1224SOL    HW215306   3.746   0.794   5.722  0.1219 -0.9451  1.0482
 1225SOL     OW15307   1.364   0.033   5.808  0.2927  0.7168 -0.0420
 1225SOL    HW115308   1.400   4.720   5.736  0.0898  0.5907 -0.0488
 1225SOL    HW215309   1.445   0.069   5.845 -0.8936  1.8874  1.4253
 1226SOL     OW15310   4.341   3.588  12.593 -0.1784 -0.1299  0.3686
 1226SOL    HW115311   4.293   3.601  12.675  0.5392  2.3902  0.3747
 1226SOL    HW215312   4.416   3.537  12.623  0.1140  1.2301  1.9089
 1227SOL     OW15313   1.174   3.330   6.201  0.0303 -0.2052  0.3883
 1227SOL    HW115314   1.128   3.390   6.259 -2.0521 -3.1683  1.8013
 1227SOL    HW215315   1.101   3.280   6.164 -0.6773  2.0843 -1.3135
 1228SOL     OW15316   3.297   4.512   2.834  0.5891 -0.0978  0.4053
 1228SOL    HW115317   3.219   4.550   2.795 -0.0418 -2.5880 -0.8170
 1228SOL    HW215318   3.306   4.426   2.792 -2.6488  0.4271 -1.3405
 1229SOL     OW15319   1.827   4.732   6.559 -0.0562  0.1786 -0.3794
 1229SOL    HW115320   1.734   0.008   6.573 -0.2989 -0.8800 -0.7357
 1229SOL    HW215321   1.834   4.703   6.468 -2.4084 -0.8727 -0.2485
 1230SOL     OW15322   3.100   2.805   7.634  0.6550  0.3092  0.1339
 1230SOL    HW115323   3.130   2.754   7.709 -0.2283 -1.9429 -1.0216
 1230SOL    HW215324   3.185   2.835   7.601  0.8890 -0.3446  0.1209
 1231SOL     OW15325   1.714   2.727   2.303 -0.2625  0.3048  0.4655
 1231SOL    HW115326   1.702   2.739   2.209  1.9440 -1.3627 -0.0325
 1231SOL    HW215327   1.808   2.706   2.297 -0.5215 -0.5669 -0.4213
 1232SOL     OW15328   0.661   3.978   8.053 -0.4686  0.3421 -0.6856
 1232SOL    HW115329   0.725   4.036   8.012  0.2871  1.3812  1.9306
 1232SOL    HW215330   0.715   3.946   8.126  1.1871  0.9923 -1.6202
 1233SOL     OW15331   2.576   4.436   8.030 -0.1663  0.1092  0.1114
 1233SOL    HW115332   2.605   4.375   8.097 -0.0296 -0.2313 -0.2589
 1233SOL    HW215333   2.517   4.390   7.970  0.2870  1.3197 -1.2716
 1234SOL     OW15334   1.703   0.827  14.583 -0.2760  0.1983  0.3126
 1234SOL    HW115335   1.715   0.772  14.506 -0.0104  0.4466  0.1766
 1234SOL    HW215336   1.741   0.771  14.651 -1.8760 -1.0534  0.1657
 1235SOL     OW15337   0.667   1.960   1.262 -0.0799 -0.5221 -0.0558
 1235SOL    HW115338   0.584   1.954   1.214  0.5467 -2.4612 -0.9065
 1235SOL    HW215339   0.681   2.054   1.272 -2.0314 -0.4834  2.2744
 1236SOL     OW15340   3.660   4.650   5.720  0.3717 -0.3359  0.2368
 1236SOL    HW115341   3.599   4.639   5.793 -1.4798 -0.9450 -1.3990
 1236SOL    HW215342   3.702   4.564   5.717 -3.2870 -2.0721 -1.2324
 1237SOL     OW15343   3.277   0.427   1.986  0.3904 -0.0074  0.1988
 1237SOL    HW115344   3.240   0.384   1.910 -1.8935 -2.4293  2.6790
 1237SOL    HW215345   3.359   0.378   1.990  0.7786  0.5136 -1.7552
 1238SOL     OW15346   1.664   2.484   0.880 -0.5438  0.0569 -0.2501
 1238SOL    HW115347   1.697   2.476   0.969 -0.7798  2.5025  0.0597
 1238SOL    HW215348   1.645   2.577   0.875 -1.1216 -0.1488 -1.8981
 1239SOL     OW15349   2.323   0.776   4.934 -0.1294  0.2865 -0.1300
 1239SOL    HW115350   2.237   0.808   4.961 -1.1555 -0.5526 -2.4157
 1239SOL    HW215351   2.364   0.742   5.014  0.6329 -1.2900 -1.1993
 1240SOL     OW15352   1.146   3.510   3.228 -0.6227 -0.4501  0.3846
 1240SOL    HW115353   1.054   3.497   3.206 -0.8913 -0.4559  1.5378
 1240SOL    HW215354   1.171   3.598   3.202  0.0185 -0.5939  0.5043
 1241SOL     OW15355   4.064   1.202  17.476 -0.1035 -0.3537  0.7095
 1241SOL    HW115356   4.068   1.129  17.415  1.8450  1.0056 -0.7962
 1241SOL    HW215357   3.970   1.214  17.484  0.2988  2.5523  1.2639
 1242SOL     OW15358   4.510   0.619   5.204  0.2279  0.4767  0.0230
 1242SOL    HW115359   4.417   0.643   5.208 -0.0268 -0.9979  2.7137
 1242SOL    HW215360   4.550   0.684   5.146 -2.8087  0.9418 -1.5282
 1243SOL     OW15361   2.786   3.361   5.240  0.2490 -0.0581  0.3525
 1243SOL    HW115362   2.756   3.436   5.189 -1.4766 -1.2484 -0.3780
 1243SOL    HW215363   2.709   3.312   5.269 -0.5916  0.2461 -1.3493
 1244SOL     OW15364   2.543   3.170   3.533 -1.0620 -0.0917 -0.0173
 1244SOL    HW115365   2.490   3.210   3.464 -2.0991  1.3652  1.6320
 1244SOL    HW215366   2.541   3.076   3.513 -1.1614 -0.0677 -0.1248
 1245SOL     OW15367   2.501   1.611   9.185 -0.6671  0.0823 -0.7293
 1245SOL    HW115368   2.438   1.560   9.237  0.3410  0.5808  0.9887
 1245SOL    HW215369   2.537   1.672   9.249  1.6290 -1.7573 -0.2580
 1246SOL     OW15370   0.785   2.939  14.691 -0.6863  0.0479 -0.3387
 1246SOL    HW115371   0.858   2.986  14.730  0.4622 -2.9424  1.1434
 1246SOL    HW215372   0.740   2.909  14.770  0.1431  0.5070  0.3076
 1247SOL     OW15373   3.451   0.595   7.343  0.5329  0.1444 -0.1843
 1247SOL    HW115374   3.526   0.652   7.359 -0.2960  1.1410  0.1593
 1247SOL    HW215375   3.448   0.538   7.420  1.4126  0.1367 -0.1584
 1248SOL     OW15376   3.051   4.174   7.687 -0.2286 -0.0999 -0.0470
 1248SOL    HW115377   3.102   4.181   7.767 -1.7751  1.5569  0.8009
 1248SOL    HW215378   3.045   4.079   7.680 -1.6334  0.0106 -0.3003
 1249SOL     OW15379   4.669   1.304   3.546 -0.7767 -0.3908  0.2890
 1249SOL    HW115380   0.022   1.304   3.524 -0.8117  1.8592  0.1615
 1249SOL    HW215381   4.652   1.212   3.567 -1.0630 -0.7534 -1.4999
 1250SOL     OW15382   0.832   0.806   9.295  0.1527 -1.4110  0.0565
 1250SOL    HW115383   0.811   0.760   9.376  0.3228 -0.6588  0.5278
 1250SOL    HW215384   0.926   0.823   9.305 -0.3818  0.8411  1.1299
 1251SOL     OW15385   3.909   3.171   5.936  0.3229 -0.2443 -0.1899
 1251SOL    HW115386   3.953   3.179   5.851 -3.0607  0.3303 -1.9239
 1251SOL    HW215387   3.979   3.192   5.996 -1.2785  1.0937  1.1937
 1252SOL     OW15388   3.137   1.987   6.207  0.4404  0.3248 -0.1238
 1252SOL    HW115389   3.191   1.928   6.155  0.5578  0.3400 -0.0199
 1252SOL    HW215390   3.125   2.056   6.141  2.2268  0.0534 -0.7307
 1253SOL     OW15391   1.519   4.730  15.116 -0.9852  0.4663  0.3959
 1253SOL    HW115392   1.538   4.639  15.139 -1.3821  1.4585  4.5862
 1253SOL    HW215393   1.606   0.030  15.106  0.1115 -2.1060 -0.5515
 1254SOL     OW15394   2.065   3.983  10.964 -0.1913 -0.0566  0.2111
 1254SOL    HW115395   2.026   3.901  10.936  3.1904 -1.1672 -1.1798
 1254SOL    HW215396   2.157   3.959  10.959 -0.0816  0.5687 -0.9742
 1255SOL     OW15397   4.276   2.190   5.582 -0.1242  0.1758  0.2518
 1255SOL    HW115398   4.279   2.118   5.644 -2.8003  0.0705  0.2402
 1255SOL    HW215399   4.242   2.259   5.639  1.0799  1.2834 -0.3734
 1256SOL     OW15400   1.873   4.116   8.185 -0.3654 -0.1157 -0.0301
 1256SOL    HW115401   1.848   4.124   8.093  2.1466 -0.9335 -0.7900
 1256SOL    HW215402   1.879   4.209   8.205 -1.3316  0.4712 -2.4684
 1257SOL     OW15403   3.846   1.262  16.718  0.0435 -0.0150 -0.1733
 1257SOL    HW115404   3.933   1.253  16.758  0.2354 -1.8673 -1.0171
 1257SOL    HW215405   3.861   1.355  16.698 -1.2885  0.7275  2.3216
 1258SOL     OW15406   3.851   1.904   5.176 -0.2354  0.6702 -0.0747
 1258SOL    HW115407   3.923   1.964   5.156  0.3441  0.0590  0.1632
 1258SOL    HW215408   3.893   1.841   5.235 -0.8190  1.6133  1.3608
 1259SOL     OW15409   3.788   1.231   4.421 -0.0237  0.0614  0.0609
 1259SOL    HW115410   3.745   1.205   4.502  1.9280  0.6967  1.2946
 1259SOL    HW215411   3.860   1.169   4.427 -0.6447 -0.5263  1.3853
 1260SOL     OW15412   3.381   4.372   8.160  0.4552  0.1704 -0.3814
 1260SOL    HW115413   3.460   4.425   8.170  1.0975 -0.8398 -0.0540
 1260SOL    HW215414   3.337   4.426   8.094  0.8424 -0.8986 -1.5096
 1261SOL     OW15415   4.453   0.986   2.206  0.4662  0.1860 -0.1146
 1261SOL    HW115416   4.485   1.069   2.242  0.2502 -0.3397  1.3004
 1261SOL    HW215417   4.389   1.028   2.150  0.5958 -1.1365 -1.2652
 1262SOL     OW15418   3.285   3.256   9.641  0.4293  0.5393  0.1269
 1262SOL    HW115419   3.379   3.271   9.634  0.4218  0.9677  0.8753
 1262SOL    HW215420   3.292   3.160   9.646 -2.2005  0.3630  0.3619
 1263SOL     OW15421   1.557   4.314   3.717  0.3409  0.6316  0.7565
 1263SOL    HW115422   1.595   4.230   3.690 -0.1903  0.1834  1.4111
 1263SOL    HW215423   1.465   4.291   3.704  0.4942  0.7125 -0.5375
 1264SOL     OW15424   0.390   1.474   4.632 -0.1288  0.9002  0.2000
 1264SOL    HW115425   0.484   1.458   4.624 -0.1172  0.3876  1.4933
 1264SOL    HW215426   0.361   1.392   4.671 -0.6770  1.8019  1.7036
 1265SOL     OW15427   4.299   3.725   9.575  0.5547 -0.2687  0.0859
 1265SOL    HW115428   4.287   3.817   9.600  4.2600  0.2802 -0.1446
 1265SOL    HW215429   4.331   3.689   9.658 -1.7076  1.0236  1.5187
 1266SOL     OW15430   2.585   4.714   2.133  0.3104 -0.1193  0.3533
 1266SOL    HW115431   2.666   4.663   2.143  0.9127  0.7470 -0.0436
 1266SOL    HW215432   2.538   4.685   2.211  0.8523 -0.4689  0.5547
 1267SOL     OW15433   1.826   2.793   7.869  0.1683 -0.0873 -0.4689
 1267SOL    HW115434   1.874   2.718   7.835  0.2177 -1.0975  1.8089
 1267SOL    HW215435   1.758   2.750   7.922  1.4614 -0.9309  0.5187
 1268SOL     OW15436   2.438   1.687  15.712 -0.0488 -0.0630 -0.0279
 1268SOL    HW115437   2.383   1.664  15.637  0.2383  0.3687 -0.3715
 1268SOL    HW215438   2.387   1.643  15.780  0.2516 -1.3578 -0.6398
 1269SOL     OW15439   1.962   2.588   4.808  0.2121  0.7678  0.2450
 1269SOL    HW115440   1.880   2.541   4.793  0.5437  0.1491  0.3647
 1269SOL    HW215441   1.933   2.661   4.863  0.7751 -0.2734  1.9208
 1270SOL     OW15442   1.188   3.818   2.904  0.2530 -0.6693 -0.3852
 1270SOL    HW115443   1.279   3.829   2.876  0.1556  0.1424 -0.3909
 1270SOL    HW215444   1.154   3.817   2.814  2.5448  1.2195 -1.2848
 1271SOL     OW15445   0.852   2.538  12.959 -0.2660 -0.1763 -0.1827
 1271SOL    HW115446   0.807   2.537  12.874 -0.9715 -0.3207  0.1961
 1271SOL    HW215447   0.900   2.622  12.957 -0.1443 -0.2281  0.5535
 1272SOL     OW15448   3.608   4.568   2.479 -0.1584  0.2028  0.0753
 1272SOL    HW115449   3.625   4.662   2.489 -2.3906  0.6964 -0.7803
 1272SOL    HW215450   3.618   4.541   2.570  0.4975  0.4090  0.0685
 1273SOL     OW15451   0.323   3.447   5.731 -0.1875 -0.0546 -0.2145
 1273SOL    HW115452   0.390   3.505   5.696 -0.6064  0.9177  0.5930
 1273SOL    HW215453   0.370   3.366   5.751 -0.7141  0.2362  2.1313
 1274SOL     OW15454   4.532   2.991  15.011  0.3207 -0.0950 -0.3039
 1274SOL    HW115455   4.537   2.913  15.067 -1.6699 -0.0585 -0.0576
 1274SOL    HW215456   4.454   3.028  15.053  0.1626 -0.2309 -0.4841
 1275SOL     OW15457   0.165   1.927   4.776 -0.5304  0.3006 -0.0070
 1275SOL    HW115458   0.258   1.905   4.774 -0.4542  0.4674  1.6566
 1275SOL    HW215459   0.143   1.894   4.689 -2.3366  0.6541  0.2954
 1276SOL     OW15460   2.504   0.878   1.496  0.2786  0.2602 -0.5825
 1276SOL    HW115461   2.559   0.829   1.557 -1.4317  0.8087  1.3825
 1276SOL    HW215462   2.462   0.940   1.556  0.3383 -1.3206  1.0764
 1277SOL     OW15463   4.374   0.121   8.707 -0.0319  0.1852 -0.0975
 1277SOL    HW115464   4.326   0.049   8.666  0.8772  0.0388 -0.9141
 1277SOL    HW215465   4.434   0.149   8.637 -0.2616  1.4406  0.2123
 1278SOL     OW15466   3.274   4.273   7.305 -0.1744  0.3587  0.5007
 1278SOL    HW115467   3.365   4.289   7.329 -0.4533  2.2886  0.2613
 1278SOL    HW215468   3.278   4.183   7.272 -2.7224 -0.6176  2.8650
 1279SOL     OW15469   0.197   4.299   5.842  0.0262  0.3039 -0.2765
 1279SOL    HW115470   0.205   4.348   5.760 -2.3145 -0.2974 -0.8493
 1279SOL    HW215471   0.164   4.217   5.805  0.6181  0.3150 -0.8477
 1280SOL     OW15472   4.488   1.132   5.626 -0.0296 -0.4824  0.1352
 1280SOL    HW115473   4.422   1.094   5.685  0.6173  0.6542  1.6177
 1280SOL    HW215474   4.563   1.076   5.644  1.0379  0.5199 -1.2874
 1281SOL     OW15475   1.711   1.357   3.839  0.1749 -0.2602  0.5103
 1281SOL    HW115476   1.681   1.359   3.748 -2.2645 -0.8382  1.3056
 1281SOL    HW215477   1.738   1.265   3.836  0.5974 -0.1115 -0.1620
 1282SOL     OW15478   0.775   4.532   7.801 -0.1801 -0.0219 -0.0409
 1282SOL    HW115479   0.719   4.502   7.872 -0.6870  0.8231 -0.0837
 1282SOL    HW215480   0.836   4.459   7.788 -0.8707 -0.0326 -3.3024
 1283SOL     OW15481   0.963   4.307   5.578 -0.6181  0.3643 -0.1413
 1283SOL    HW115482   1.057   4.292   5.577 -0.6863 -0.0115 -1.8850
 1283SOL    HW215483   0.933   4.241   5.515 -0.3423 -0.9392  1.0866
 1284SOL     OW15484   3.336   1.110   8.176 -0.1798  0.0445 -0.3771
 1284SOL    HW115485   3.248   1.094   8.143  0.4254 -0.1633 -1.9108
 1284SOL    HW215486   3.324   1.180   8.241  0.1207 -0.7803  0.5666
 1285SOL     OW15487   0.635   0.207   9.131  0.2851 -0.1003  0.0930
 1285SOL    HW115488   0.639   0.115   9.158 -1.3470 -0.0142  0.6219
 1285SOL    HW215489   0.654   0.250   9.214 -2.5330 -2.2341  1.8661
 1286SOL     OW15490   3.884   0.526   7.050 -0.0512  0.5191  0.7490
 1286SOL    HW115491   3.936   0.451   7.021  2.3097  1.6903  1.9042
 1286SOL    HW215492   3.831   0.562   6.980  1.7647 -0.1385 -0.9742
 1287SOL     OW15493   2.409   3.061   7.640  0.2625 -0.2914 -0.3403
 1287SOL    HW115494   2.326   3.017   7.621  0.2297 -0.3539 -0.0473
 1287SOL    HW215495   2.421   3.061   7.735  0.2905 -3.0750 -0.3501
 1288SOL     OW15496   2.186   1.666   4.424  0.2625  0.1801 -0.0324
 1288SOL    HW115497   2.219   1.576   4.419  0.5915  0.3150 -0.3159
 1288SOL    HW215498   2.212   1.687   4.513  1.7651  1.1951 -0.7186
 1289SOL     OW15499   2.518   1.615  12.542  0.0884 -0.0572 -0.4674
 1289SOL    HW115500   2.499   1.531  12.584 -1.1331 -0.0169 -0.9282
 1289SOL    HW215501   2.455   1.609  12.469 -0.6730  1.1404  0.0858
 1290SOL     OW15502   3.676   4.248   1.827 -0.7660  0.3633 -0.1467
 1290SOL    HW115503   3.630   4.170   1.797  1.2280 -0.6572 -0.5329
 1290SOL    HW215504   3.603   4.308   1.816 -1.2256 -0.1995 -0.1443
 1291SOL     OW15505   3.729   2.638   8.271  0.1600 -0.5431 -0.1593
 1291SOL    HW115506   3.794   2.629   8.341 -2.0688  0.8132  2.1115
 1291SOL    HW215507   3.736   2.733   8.263  1.2263 -0.5219  0.9926
 1292SOL     OW15508   1.628   1.496   2.313  0.5161 -0.0305 -0.1058
 1292SOL    HW115509   1.670   1.433   2.255 -1.9277 -1.2404 -0.5166
 1292SOL    HW215510   1.654   1.572   2.261  3.1123  0.1009  1.3513
 1293SOL     OW15511   4.404   1.925   0.221 -0.0864  0.2447 -0.5864
 1293SOL    HW115512   4.421   1.896   0.311  0.5283 -2.3717 -1.5255
 1293SOL    HW215513   4.394   1.841   0.176  2.3956  0.0618 -0.8288
 1294SOL     OW15514   2.963   3.111   2.797  0.3697 -0.0859 -0.4215
 1294SOL    HW115515   2.929   3.134   2.710 -0.3795  0.3621 -0.0085
 1294SOL    HW215516   2.983   3.019   2.781  0.3867  0.3630 -2.9732
 1295SOL     OW15517   1.907   4.355   2.570  0.2097 -0.3715  0.3412
 1295SOL    HW115518   1.905   4.298   2.647  0.9578  0.5765  1.0768
 1295SOL    HW215519   2.002   4.370   2.571  0.2044 -0.1888 -3.2932
 1296SOL     OW15520   0.036   2.888   0.841 -0.3415  0.4903 -0.0418
 1296SOL    HW115521   4.726   2.807   0.844 -1.5977  1.2502 -0.2120
 1296SOL    HW215522   4.718   2.958   0.810 -1.4721  0.1060  1.1910
 1297SOL     OW15523   0.645   3.539  16.076 -0.1581  0.1385  0.0132
 1297SOL    HW115524   0.580   3.609  16.072 -0.9733 -0.7368 -1.5620
 1297SOL    HW215525   0.658   3.512  16.167  3.2802 -0.3749 -0.6350
 1298SOL     OW15526   2.657   3.474   7.775  0.0545 -0.2268 -0.0874
 1298SOL    HW115527   2.572   3.446   7.809 -0.4963  0.2207 -1.0710
 1298SOL    HW215528   2.630   3.538   7.709 -0.3775 -1.5222 -1.1664
 1299SOL     OW15529   0.780   3.762   7.349  0.5426 -0.1297 -0.4388
 1299SOL    HW115530   0.720   3.693   7.323 -1.7870  1.5624  0.4018
 1299SOL    HW215531   0.863   3.726   7.320  0.7785  1.5774 -1.8669
 1300SOL     OW15532   4.418   1.697   7.260 -0.5035 -0.1335 -0.2414
 1300SOL    HW115533   4.362   1.666   7.332 -0.1980 -3.0499 -1.2702
 1300SOL    HW215534   4.411   1.792   7.267 -0.6764 -0.1776  0.2001
 1301SOL     OW15535   2.852   1.136   3.282  0.1290  0.2717  0.3542
 1301SOL    HW115536   2.780   1.149   3.220  0.2497  0.8033  0.3293
 1301SOL    HW215537   2.881   1.226   3.293 -0.2665  0.1549  2.4221
 1302SOL     OW15538   0.132   0.633   3.833  0.3674 -0.0271  0.1212
 1302SOL    HW115539   0.141   0.544   3.867  0.8278 -0.8777 -2.2199
 1302SOL    HW215540   0.139   0.687   3.912 -2.3039  0.6149 -0.0910
 1303SOL     OW15541   0.289   1.792  17.207  0.3557  0.1518  0.1450
 1303SOL    HW115542   0.361   1.836  17.161  1.2359 -0.1161  1.2635
 1303SOL    HW215543   0.318   1.829  17.291 -0.8656 -0.5153  0.8640
 1304SOL     OW15544   3.831   2.729   7.637  0.2033 -0.4820 -0.3628
 1304SOL    HW115545   3.784   2.667   7.693  2.0468 -0.3671  1.3194
 1304SOL    HW215546   3.911   2.733   7.690 -1.4308 -0.3385  2.1170
 1305SOL     OW15547   2.308   1.585   8.573  0.0021 -0.0474  0.4580
 1305SOL    HW115548   2.297   1.665   8.522  0.9159 -0.8751 -1.0359
 1305SOL    HW215549   2.244   1.604   8.642  1.2290  3.4558  0.6272
 1306SOL     OW15550   1.690   0.267   7.181 -0.0824  0.1585 -0.3601
 1306SOL    HW115551   1.740   0.278   7.262  1.0165  0.0597 -1.0228
 1306SOL    HW215552   1.675   0.358   7.157  0.8820  0.5515  0.5292
 1307SOL     OW15553   1.068   1.207  15.329  0.2586 -0.1321 -0.3525
 1307SOL    HW115554   1.112   1.122  15.331 -0.8750 -0.7354 -1.5542
 1307SOL    HW215555   1.109   1.244  15.251  1.7620 -0.2586  0.3733
 1308SOL     OW15556   0.587   0.671   2.383  0.1496 -0.8477  0.6235
 1308SOL    HW115557   0.641   0.601   2.346  1.3823  0.1987  0.4678
 1308SOL    HW215558   0.649   0.734   2.418  0.3426 -0.8187  0.2264
 1309SOL     OW15559   0.470   4.131   7.771  0.0121 -0.4153  0.1920
 1309SOL    HW115560   0.471   4.107   7.678 -0.7702 -2.1401  0.6124
 1309SOL    HW215561   0.433   4.049   7.804  2.1928 -2.3387 -2.1316
 1310SOL     OW15562   2.653   0.619   7.467 -0.0466 -0.6544 -0.1219
 1310SOL    HW115563   2.629   0.649   7.380 -3.9666  0.1194  1.2374
 1310SOL    HW215564   2.698   0.698   7.496 -1.9257 -0.7716  3.1621
 1311SOL     OW15565   2.934   0.164   4.881  0.4372 -0.0202 -0.6721
 1311SOL    HW115566   2.955   0.219   4.956 -1.5587 -2.4811  1.6885
 1311SOL    HW215567   2.840   0.146   4.891  0.3444 -0.4210 -2.1738
 1312SOL     OW15568   4.734   0.964   3.106  0.1781  0.3434 -0.2594
 1312SOL    HW115569   0.062   0.980   3.172 -0.2969  0.1833  0.2705
 1312SOL    HW215570   0.003   1.038   3.046 -0.0921  1.3003  0.8805
 1313SOL     OW15571   0.951   4.708   5.822 -0.0657  0.4450 -0.7894
 1313SOL    HW115572   0.875   0.025   5.818  0.6374  1.4595  0.3272
 1313SOL    HW215573   0.907   4.627   5.848 -2.0626  1.2813 -1.6241
 1314SOL     OW15574   4.420   2.143   2.832 -0.7636 -0.0996  0.4936
 1314SOL    HW115575   4.479   2.084   2.878  0.5635  3.0826  2.8249
 1314SOL    HW215576   4.466   2.227   2.829 -0.7122 -0.1627 -0.7685
 1315SOL     OW15577   3.117   0.489  14.514 -0.1509  0.0368 -0.0687
 1315SOL    HW115578   3.133   0.543  14.591 -1.2581 -0.3359  0.4263
 1315SOL    HW215579   3.041   0.435  14.536  0.7600 -1.3966 -0.4249
 1316SOL     OW15580   0.569   4.227   1.108  0.7981 -0.0775  0.1549
 1316SOL    HW115581   0.601   4.224   1.198  0.6953  0.8648  0.2236
 1316SOL    HW215582   0.592   4.139   1.080  0.6427  0.6498 -2.2707
 1317SOL     OW15583   2.690   3.073   7.175  0.0005  0.2764  0.1855
 1317SOL    HW115584   2.780   3.084   7.144  0.0929  0.7940  0.6239
 1317SOL    HW215585   2.680   3.129   7.252  0.2135  1.0948 -0.3734
 1318SOL     OW15586   1.759   3.409   1.394  0.5778  0.3282  0.3487
 1318SOL    HW115587   1.682   3.429   1.341 -0.5564 -1.6262  1.2953
 1318SOL    HW215588   1.747   3.482   1.455 -1.5463 -0.9246  1.3900
 1319SOL     OW15589   2.406   3.645   4.060 -0.1156 -0.7173 -0.6383
 1319SOL    HW115590   2.453   3.697   4.125 -3.3512  1.2728  0.1224
 1319SOL    HW215591   2.362   3.714   4.010 -0.6213 -1.2768 -0.9707
 1320SOL     OW15592   2.116   0.776   2.745 -0.6513 -0.2440 -0.0411
 1320SOL    HW115593   2.206   0.784   2.776 -1.3386 -2.3503  2.5336
 1320SOL    HW215594   2.120   0.776   2.649  1.4351  1.3364  0.0579
 1321SOL     OW15595   3.448   3.991   8.469  0.1058  0.5505 -0.0666
 1321SOL    HW115596   3.364   3.967   8.429  0.8936 -0.3444 -1.1640
 1321SOL    HW215597   3.419   4.063   8.525  1.0441  1.6231 -0.9449
 1322SOL     OW15598   3.323   4.032   3.331  0.3226  0.0040  0.4666
 1322SOL    HW115599   3.384   3.958   3.336 -2.4023 -2.3610 -0.9542
 1322SOL    HW215600   3.298   4.041   3.423  1.2245  0.8008  0.6358
 1323SOL     OW15601   1.388   1.622   7.641  0.3215  0.2314  0.0532
 1323SOL    HW115602   1.329   1.615   7.566 -0.2711  1.2362  0.4254
 1323SOL    HW215603   1.470   1.606   7.596 -0.5164 -1.0318 -1.0102
 1324SOL     OW15604   1.879   1.908   4.225  0.0095  0.0409  0.2479
 1324SOL    HW115605   1.971   1.934   4.228  0.2700 -0.8540  0.1543
 1324SOL    HW215606   1.883   1.820   4.264 -0.4013 -1.1841 -2.4725
 1325SOL     OW15607   0.785   2.999   6.809  0.3476 -0.7155  0.2123
 1325SOL    HW115608   0.819   3.089   6.810  1.7660 -1.2572  0.7956
 1325SOL    HW215609   0.815   2.978   6.720 -1.5445  3.0313 -1.3083
 1326SOL     OW15610   0.019   1.343  10.158 -0.4554  0.1221 -0.2083
 1326SOL    HW115611   4.674   1.380  10.138 -0.1967  0.5518 -0.5203
 1326SOL    HW215612   0.004   1.249  10.171  1.7437 -0.3245 -0.7584
 1327SOL     OW15613   3.744   2.494   7.357  0.2537  0.2227  0.1861
 1327SOL    HW115614   3.822   2.484   7.411 -2.0921 -1.3507  3.3090
 1327SOL    HW215615   3.788   2.539   7.285 -1.1330  0.0547 -0.7769
 1328SOL     OW15616   1.958   3.071  15.830 -0.3799  0.2615  0.3531
 1328SOL    HW115617   2.006   3.096  15.909 -0.1207 -1.3860  0.7115
 1328SOL    HW215618   2.017   3.006  15.791  0.0684  0.8158  0.1122
 1329SOL     OW15619   0.426   1.762   1.382  0.2378 -0.2838 -0.5202
 1329SOL    HW115620   0.381   1.686   1.420  1.6329 -0.4526  0.8139
 1329SOL    HW215621   0.489   1.723   1.322  1.9206 -0.5395  1.3801
 1330SOL     OW15622   3.326   2.410   3.372  0.7353 -0.4752  0.6678
 1330SOL    HW115623   3.263   2.346   3.405 -0.5166  0.9485  1.0780
 1330SOL    HW215624   3.308   2.402   3.278 -0.0397  1.0645  0.6744
 1331SOL     OW15625   2.893   1.305   8.210  0.4128  0.1252 -0.1163
 1331SOL    HW115626   2.934   1.387   8.237  0.2479  0.2894 -0.3676
 1331SOL    HW215627   2.926   1.300   8.121  0.0107  0.4276 -0.2826
 1332SOL     OW15628   1.023   0.621   4.235  0.4977 -0.5700  0.3016
 1332SOL    HW115629   1.076   0.554   4.278 -0.0621  0.7327  3.0306
 1332SOL    HW215630   1.024   0.698   4.292 -0.9817 -0.5685  0.3383
 1333SOL     OW15631   3.026   0.855  11.504  0.1413 -0.2632  0.4014
 1333SOL    HW115632   3.071   0.938  11.484  0.6654 -0.9271 -1.1556
 1333SOL    HW215633   3.074   0.823  11.581 -0.4632  0.1162  0.9409
 1334SOL     OW15634   3.114   0.724   6.332 -0.6915  0.1306  0.2608
 1334SOL    HW115635   3.113   0.656   6.265  0.2290  1.5443 -1.1877
 1334SOL    HW215636   3.139   0.675   6.410 -0.6953 -0.4679 -0.1155
 1335SOL     OW15637   1.561   3.984   2.500 -0.0219  0.0420 -0.2279
 1335SOL    HW115638   1.573   4.031   2.418  1.0974  0.8272  0.3862
 1335SOL    HW215639   1.634   3.923   2.486 -0.2474 -0.3828  0.4385
 1336SOL     OW15640   4.256   1.615  10.248 -0.0315 -0.2413 -0.2718
 1336SOL    HW115641   4.279   1.700  10.285 -0.5104 -0.3722  0.3128
 1336SOL    HW215642   4.223   1.645  10.164  0.0214 -0.3337 -0.3255
 1337SOL     OW15643   2.985   3.367   5.423 -0.3778 -0.3981 -0.0058
 1337SOL    HW115644   2.918   3.362   5.355  0.4379 -1.1078 -0.7617
 1337SOL    HW215645   2.978   3.454   5.460  0.1739 -0.5140  0.3685
 1338SOL     OW15646   1.479   0.688   7.543 -0.4147 -0.6154  0.8804
 1338SOL    HW115647   1.415   0.739   7.592  0.1937 -0.6876  1.7509
 1338SOL    HW215648   1.437   0.674   7.458 -1.6021  3.2134  0.8290
 1339SOL     OW15649   3.273   2.973   9.683 -0.2776 -0.0840  0.0686
 1339SOL    HW115650   3.246   2.957   9.773 -1.4881 -1.3397 -0.5140
 1339SOL    HW215651   3.258   2.888   9.640  0.1435  0.4741 -1.1979
 1340SOL     OW15652   0.997   2.507   8.719  0.2951  0.0869 -0.2789
 1340SOL    HW115653   1.021   2.572   8.654  1.0444  1.0502  0.9494
 1340SOL    HW215654   0.901   2.513   8.714  0.2590 -2.1038 -2.0410
 1341SOL     OW15655   1.702   3.600   7.546 -0.2348  0.4423 -0.4770
 1341SOL    HW115656   1.741   3.686   7.531  0.6584  0.4449  1.8989
 1341SOL    HW215657   1.764   3.562   7.608 -0.8625  0.0459 -0.0965
 1342SOL     OW15658   3.723   1.595  11.164  0.2284  0.2799  0.5438
 1342SOL    HW115659   3.708   1.578  11.257  0.9558 -3.7855 -0.0769
 1342SOL    HW215660   3.808   1.560  11.140 -0.6164 -0.1976 -1.8028
 1343SOL     OW15661   4.549   2.797   5.665 -0.7350 -0.5171 -0.0371
 1343SOL    HW115662   4.490   2.823   5.735 -0.4083  2.6196 -0.9321
 1343SOL    HW215663   4.540   2.875   5.611 -0.3444 -0.3430  0.1486
 1344SOL     OW15664   0.724   3.939   7.707  0.6657 -0.2217  0.1103
 1344SOL    HW115665   0.791   3.965   7.643  0.2264  2.5784  0.7920
 1344SOL    HW215666   0.644   3.952   7.656 -0.0286 -1.2122  0.9572
 1345SOL     OW15667   0.426   4.633   8.435 -0.1773  0.1449 -0.0798
 1345SOL    HW115668   0.442   4.689   8.512 -0.1859 -2.3430  1.7182
 1345SOL    HW215669   0.494   4.567   8.448  0.6665  1.1615  0.6908
 1346SOL     OW15670   3.576   1.574  14.681 -0.3204  0.9741  0.2222
 1346SOL    HW115671   3.668   1.547  14.676 -0.4366  0.6761 -0.3063
 1346SOL    HW215672   3.538   1.489  14.699  2.4720 -0.5506 -0.9995
 1347SOL     OW15673   0.623   0.739  14.316 -0.3815 -0.2210  0.2689
 1347SOL    HW115674   0.698   0.798  14.317  0.7917 -1.6895 -0.8231
 1347SOL    HW215675   0.551   0.768  14.260 -0.0165  1.8100  0.8577
 1348SOL     OW15676   0.389   3.795  15.353 -0.0736  0.0206  1.1633
 1348SOL    HW115677   0.422   3.724  15.297  0.4052  1.0745  0.1078
 1348SOL    HW215678   0.347   3.735  15.414 -1.7940  1.3194  1.2564
 1349SOL     OW15679   1.412   3.521   5.319  0.4111  0.1958  0.2019
 1349SOL    HW115680   1.391   3.429   5.335 -0.9912  0.1797 -1.6818
 1349SOL    HW215681   1.325   3.554   5.295  1.4017  1.6701 -1.3211
 1350SOL     OW15682   0.252   2.420   2.868  0.6884 -0.2885 -0.4852
 1350SOL    HW115683   0.204   2.498   2.840 -0.4263 -0.6475  0.4143
 1350SOL    HW215684   0.212   2.399   2.952 -0.4724  0.0689 -0.9419
 1351SOL     OW15685   1.187   0.952   4.144 -0.3050 -0.2106 -0.7915
 1351SOL    HW115686   1.153   0.933   4.231 -0.6264 -0.4085 -0.9623
 1351SOL    HW215687   1.221   1.041   4.151  0.0187 -0.4241  0.4128
 1352SOL     OW15688   2.975   3.503   1.933  0.0824  0.4833 -0.0675
 1352SOL    HW115689   3.013   3.461   1.856  1.4012  1.0249  0.2875
 1352SOL    HW215690   2.884   3.473   1.927  0.6852 -1.0160 -1.7650
 1353SOL     OW15691   1.104   3.739  10.330 -0.2132 -0.4105  0.3275
 1353SOL    HW115692   1.158   3.759  10.407 -0.7864  2.0975  0.0930
 1353SOL    HW215693   1.160   3.732  10.254 -0.5098 -1.9355  0.2455
 1354SOL     OW15694   0.273   4.456   4.934  0.0212 -0.1303 -0.5340
 1354SOL    HW115695   0.337   4.523   4.912  1.0831 -1.1126 -0.4086
 1354SOL    HW215696   0.252   4.472   5.027 -0.9382 -2.4781 -0.3298
 1355SOL     OW15697   0.277   1.805   1.734  0.6102 -0.8687  0.2251
 1355SOL    HW115698   0.370   1.784   1.746  0.9959 -0.7395 -2.6218
 1355SOL    HW215699   0.231   1.742   1.789 -0.8864 -0.3713 -0.4836
 1356SOL     OW15700   4.594   3.527   9.658 -0.7747  0.2311 -0.4570
 1356SOL    HW115701   4.665   3.464   9.670 -0.6563  0.1662 -1.4641
 1356SOL    HW215702   4.643   3.609   9.660  2.2242 -1.6144  1.6925
 1357SOL     OW15703   1.384   0.933   5.498  0.3783 -0.4810  1.1501
 1357SOL    HW115704   1.468   0.929   5.452  1.2211 -1.1177  2.7493
 1357SOL    HW215705   1.401   1.009   5.554 -1.2397  2.1810 -1.9831
 1358SOL     OW15706   3.169   0.084   6.216 -0.2625 -0.0427  0.0496
 1358SOL    HW115707   3.148   0.169   6.253  0.5654 -0.7024  2.0160
 1358SOL    HW215708   3.160   0.018   6.285 -1.9051 -0.7643 -0.8427
 1359SOL     OW15709   4.595   1.967   4.964 -0.7896 -0.6416  0.0879
 1359SOL    HW115710   4.614   1.878   4.932 -2.8264 -1.5144  1.2985
 1359SOL    HW215711   4.501   1.959   4.944 -0.6651 -1.2088 -0.3009
 1360SOL     OW15712   2.441   1.207   4.957 -0.6600  0.0480  0.2505
 1360SOL    HW115713   2.506   1.174   4.895  1.1166  3.3320  0.3920
 1360SOL    HW215714   2.468   1.298   4.970  0.8957 -1.0215  4.4968
 1361SOL     OW15715   4.107   3.897   3.645 -0.2232  0.4526 -0.1197
 1361SOL    HW115716   4.171   3.922   3.712 -1.8365  1.0609  1.2105
 1361SOL    HW215717   4.149   3.817   3.614 -0.9712 -0.6162  1.6025
 1362SOL     OW15718   4.707   1.021   8.298 -0.4658  0.0808  0.6595
 1362SOL    HW115719   0.002   0.932   8.307 -0.9851 -0.1269  0.6579
 1362SOL    HW215720   0.046   1.065   8.268  0.6733 -0.3215  2.9871
 1363SOL     OW15721   3.897   0.101  17.038 -0.6724 -0.2879 -0.0825
 1363SOL    HW115722   3.946   0.042  16.981  3.5045  2.2384  0.9177
 1363SOL    HW215723   3.810   0.092  16.997 -0.5784  0.2572 -0.4046
 1364SOL     OW15724   1.341   2.521   2.759  0.3515 -0.2090  0.1979
 1364SOL    HW115725   1.399   2.592   2.731 -1.0376  1.8320  2.4304
 1364SOL    HW215726   1.364   2.452   2.698 -2.0630  1.3054 -2.4663
 1365SOL     OW15727   2.131   2.681   4.273 -0.3075  0.0429 -0.4245
 1365SOL    HW115728   2.120   2.605   4.329 -3.0725  3.0299  3.1269
 1365SOL    HW215729   2.220   2.707   4.293 -1.8052  2.4258  3.1808
 1366SOL     OW15730   4.206   0.404   1.315  0.1346 -0.1806 -0.2127
 1366SOL    HW115731   4.122   0.404   1.361  1.0759 -1.2198  1.5222
 1366SOL    HW215732   4.213   0.310   1.303 -0.1420 -0.1832 -0.3468
 1367SOL     OW15733   3.440   2.393   1.467 -0.1353 -0.3990 -0.0337
 1367SOL    HW115734   3.439   2.297   1.475  1.8377 -0.6212 -2.6681
 1367SOL    HW215735   3.358   2.403   1.517  0.9694 -0.6143  1.8276
 1368SOL     OW15736   0.753   0.884   3.372 -0.1249  0.2193  0.0751
 1368SOL    HW115737   0.668   0.841   3.361 -0.1097  0.6717 -1.7500
 1368SOL    HW215738   0.787   0.851   3.455 -0.7173  0.1867  0.3100
 1369SOL     OW15739   4.013   3.558   2.895  0.0799  0.2582 -0.2713
 1369SOL    HW115740   3.971   3.627   2.843  0.9911  2.4149  1.8610
 1369SOL    HW215741   3.981   3.476   2.857  3.0997 -0.8163 -0.4532
 1370SOL     OW15742   0.609   4.348   0.864 -0.1283 -0.1600 -0.0188
 1370SOL    HW115743   0.609   4.337   0.959 -0.1237 -0.1556 -0.0183
 1370SOL    HW215744   0.579   4.261   0.838 -2.7586  0.7977 -0.2628
 1371SOL     OW15745   0.787   0.686   7.363  0.0181 -0.1171 -0.4140
 1371SOL    HW115746   0.739   0.608   7.391 -1.2539  0.7875 -0.0862
 1371SOL    HW215747   0.878   0.668   7.387 -0.0532  0.9323  0.6119
 1372SOL     OW15748   1.256   0.479   0.612 -0.4600 -0.0424  0.7947
 1372SOL    HW115749   1.195   0.553   0.618 -0.5892 -0.1545  0.8519
 1372SOL    HW215750   1.205   0.398   0.615  2.3714 -1.8276  0.3693
 1373SOL     OW15751   4.123   4.223   4.658 -0.4650  0.5315  0.1941
 1373SOL    HW115752   4.147   4.315   4.658  0.3712  0.3188 -0.1257
 1373SOL    HW215753   4.131   4.205   4.564 -1.2889 -0.3160  0.2775
 1374SOL     OW15754   0.276   4.249  15.808  0.1126 -0.8056 -0.6702
 1374SOL    HW115755   0.203   4.307  15.786 -0.3288 -1.8647 -2.0034
 1374SOL    HW215756   0.234   4.165  15.791  1.0099 -1.8308  2.1218
 1375SOL     OW15757   4.285   3.160   2.929  0.1801  0.0331 -0.3423
 1375SOL    HW115758   4.205   3.113   2.950  0.9521 -0.7741  0.7766
 1375SOL    HW215759   4.269   3.246   2.968 -1.6140  0.2905 -1.6609
 1376SOL     OW15760   4.004   3.097   9.360 -0.1081  0.1627  0.4579
 1376SOL    HW115761   4.040   3.152   9.290  0.1529 -1.7895 -0.9652
 1376SOL    HW215762   3.968   3.026   9.307 -0.3422 -1.6526  3.0581
 1377SOL     OW15763   4.710   3.042  14.351 -0.7383 -0.2572 -0.5756
 1377SOL    HW115764   4.731   2.957  14.313  1.4509 -0.7419  1.7026
 1377SOL    HW215765   4.740   3.106  14.287 -0.0435 -2.0095 -2.0097
 1378SOL     OW15766   2.703   4.620  11.034 -0.5298  0.4222 -0.2145
 1378SOL    HW115767   2.672   4.645  10.947  0.3908 -2.0930 -1.2685
 1378SOL    HW215768   2.661   4.693  11.079  0.3953  0.3972  0.7019
 1379SOL     OW15769   3.382   1.792  10.450 -0.1275  0.3088 -0.1662
 1379SOL    HW115770   3.393   1.854  10.522 -2.1944  0.0016  0.4238
 1379SOL    HW215771   3.349   1.708  10.484 -3.6515  0.9954 -1.8373
 1380SOL     OW15772   3.158   0.761   4.127  0.0430  0.4561  0.0946
 1380SOL    HW115773   3.108   0.843   4.133  1.3096  1.1226  1.3355
 1380SOL    HW215774   3.157   0.756   4.031 -0.7676 -0.4881  0.1529
 1381SOL     OW15775   4.248   1.870  10.721  0.5194 -0.0417 -0.2339
 1381SOL    HW115776   4.200   1.891  10.641 -0.7077  0.6010  0.6649
 1381SOL    HW215777   4.194   1.891  10.798 -1.0594  0.9794 -1.6220
 1382SOL     OW15778   1.118   2.783  13.551  0.1812 -0.2237  0.6591
 1382SOL    HW115779   1.110   2.791  13.646 -0.4012 -1.7796  0.7458
 1382SOL    HW215780   1.160   2.698  13.540  2.7527  0.8651  2.1619
 1383SOL     OW15781   0.828   0.309   4.327  0.3455  0.1587 -0.1441
 1383SOL    HW115782   0.793   0.229   4.288 -0.4379 -0.2462  1.3676
 1383SOL    HW215783   0.842   0.359   4.247 -2.9192  0.6878 -0.3845
 1384SOL     OW15784   2.493   1.381   2.473 -0.0302  0.5794  0.4688
 1384SOL    HW115785   2.540   1.441   2.529  1.0848  0.5270 -0.4074
 1384SOL    HW215786   2.547   1.302   2.463 -1.2410  0.1575 -2.7269
 1385SOL     OW15787   1.540   3.558   1.330  0.0957 -0.2296  0.4285
 1385SOL    HW115788   1.454   3.530   1.299  0.0417  1.2311 -0.7362
 1385SOL    HW215789   1.529   3.537   1.423 -0.9713 -2.1085 -0.1326
 1386SOL     OW15790   3.928   3.173   2.363  0.0725  0.7150  0.4275
 1386SOL    HW115791   3.880   3.151   2.443  1.0362 -1.1216  0.4835
 1386SOL    HW215792   3.857   3.212   2.311  0.2159  0.1424 -0.2036
 1387SOL     OW15793   1.454   0.593   8.027  0.7252 -0.1715 -0.4389
 1387SOL    HW115794   1.476   0.568   7.938  4.3035  1.9838 -0.1549
 1387SOL    HW215795   1.499   0.520   8.069 -0.3192 -1.4377 -1.5511
 1388SOL     OW15796   1.467   4.012   4.489  0.8655  0.2224  0.3606
 1388SOL    HW115797   1.535   3.952   4.520  0.6813 -0.1105  0.1323
 1388SOL    HW215798   1.478   4.006   4.394 -3.3470 -0.1553 -0.1021
 1389SOL     OW15799   1.716   2.543   2.603 -0.1757  0.0077 -0.0101
 1389SOL    HW115800   1.648   2.597   2.642  1.0845 -0.0889  2.3247
 1389SOL    HW215801   1.784   2.609   2.584  0.2284 -0.4596 -0.1931
 1390SOL     OW15802   0.413   4.051  12.307 -0.2663 -0.3649 -0.1019
 1390SOL    HW115803   0.493   4.033  12.257 -0.2025  0.2587 -0.2329
 1390SOL    HW215804   0.353   3.993  12.261  1.8839 -3.1636  0.5985
 1391SOL     OW15805   4.466   2.534   5.132 -0.2134 -0.1532  0.4223
 1391SOL    HW115806   4.534   2.481   5.090 -0.3802 -1.2374  1.5355
 1391SOL    HW215807   4.461   2.611   5.075 -0.7651  1.3917  2.5854
 1392SOL     OW15808   1.407   0.489   3.292 -0.0477  0.7674 -0.9046
 1392SOL    HW115809   1.480   0.484   3.353 -2.4967  1.2774  2.0718
 1392SOL    HW215810   1.418   0.408   3.242  0.2127  0.2249  0.0214
 1393SOL     OW15811   3.106   0.639   4.579  0.1173 -0.1559  0.8639
 1393SOL    HW115812   3.169   0.656   4.509  1.2470  0.5526  2.0446
 1393SOL    HW215813   3.135   0.561   4.626  1.7326  0.4367  0.8471
 1394SOL     OW15814   1.936   0.065   7.310  0.2658 -0.0853  0.2282
 1394SOL    HW115815   1.948   0.042   7.403 -1.0072 -1.7817 -0.0227
 1394SOL    HW215816   1.999   0.136   7.299 -0.2207  0.5801  1.6240
 1395SOL     OW15817   3.348   3.957   8.886  0.1143  0.5752  0.7582
 1395SOL    HW115818   3.336   3.868   8.855 -0.2874  1.4995 -1.7823
 1395SOL    HW215819   3.441   3.972   8.872 -0.2227  1.5334 -0.4452
 1396SOL     OW15820   2.937   1.152   4.378 -0.1305 -0.3234 -0.2326
 1396SOL    HW115821   2.931   1.248   4.385  1.3255 -0.0472 -2.8174
 1396SOL    HW215822   2.861   1.130   4.432 -0.9549 -0.8032 -1.5901
 1397SOL     OW15823   3.534   1.155   5.876 -0.2002  0.1648  0.5607
 1397SOL    HW115824   3.494   1.089   5.933 -0.1808 -2.8679 -2.9687
 1397SOL    HW215825   3.610   1.189   5.923  1.7097 -0.4935 -2.0746
 1398SOL     OW15826   1.540   0.707   8.662 -0.2155 -0.7018 -0.4708
 1398SOL    HW115827   1.558   0.744   8.576  1.8827 -0.4689  0.0556
 1398SOL    HW215828   1.616   0.751   8.702  0.9563 -0.6878 -2.6975
 1399SOL     OW15829   0.548   3.180   8.653 -0.7476 -0.0957 -0.7989
 1399SOL    HW115830   0.519   3.089   8.657  0.7361 -0.6032 -1.3480
 1399SOL    HW215831   0.628   3.169   8.601 -0.5925 -0.0892 -0.5589
 1400SOL     OW15832   3.793   1.703   9.408 -0.2281 -0.2970 -0.1072
 1400SOL    HW115833   3.773   1.764   9.479  0.0422 -0.7530  0.3523
 1400SOL    HW215834   3.860   1.644   9.443  1.1501  1.4595  0.2115
 1401SOL     OW15835   2.207   2.835   1.248 -0.1264 -0.3466  0.4291
 1401SOL    HW115836   2.169   2.866   1.331 -0.3860 -1.3753  0.6918
 1401SOL    HW215837   2.156   2.894   1.192 -0.8567 -1.4575 -0.0744
 1402SOL     OW15838   1.028   3.982   3.356  0.3238  0.5749 -0.2035
 1402SOL    HW115839   0.986   3.902   3.390  0.5257  0.2349 -0.7547
 1402SOL    HW215840   1.073   3.952   3.277 -0.4472 -1.2656  0.0413
 1403SOL     OW15841   0.261   1.206   7.465 -0.4878  0.2097 -0.2490
 1403SOL    HW115842   0.193   1.186   7.400 -1.3486 -1.3620  1.1165
 1403SOL    HW215843   0.322   1.254   7.410  0.6761 -0.2648  0.6415
 1404SOL     OW15844   2.098   4.560  11.688 -0.3519 -0.4594  0.2640
 1404SOL    HW115845   2.184   4.599  11.699 -1.4796  2.3187 -0.6646
 1404SOL    HW215846   2.104   4.491  11.754  1.2736 -0.7778 -0.2140
 1405SOL     OW15847   4.073   4.451  14.791  0.0777  0.0332 -0.2597
 1405SOL    HW115848   4.161   4.445  14.755 -0.1399  1.0970 -0.9541
 1405SOL    HW215849   4.059   4.542  14.817 -2.2518 -0.0928 -1.1003
 1406SOL     OW15850   2.076   0.869   3.452 -0.1907  0.5817  0.8511
 1406SOL    HW115851   2.151   0.928   3.446 -0.4492  0.7512 -0.7853
 1406SOL    HW215852   2.077   0.833   3.363  0.1834  0.1340  1.0348
 1407SOL     OW15853   4.570   0.782   6.007 -0.6633 -0.1055 -0.4200
 1407SOL    HW115854   4.591   0.805   6.098 -1.6974 -0.1738 -0.1674
 1407SOL    HW215855   4.538   0.867   5.977  1.1077  1.2309  1.4296
 1408SOL     OW15856   4.738   0.533  16.038 -1.2278 -0.1290 -0.4406
 1408SOL    HW115857   0.028   0.520  15.948  1.8904  0.8307  0.4892
 1408SOL    HW215858   4.725   0.441  16.060  1.4879 -0.4735 -0.3113
 1409SOL     OW15859   3.822   1.250   5.716 -0.1383  0.4148  1.1026
 1409SOL    HW115860   3.814   1.210   5.803 -1.4679 -1.1036  0.2756
 1409SOL    HW215861   3.831   1.341   5.744 -1.2269  0.4221  1.4325
 1410SOL     OW15862   0.246   0.127   4.106  0.0808 -0.0216 -0.1625
 1410SOL    HW115863   0.199   0.136   4.022  1.7886  0.1295 -1.0974
 1410SOL    HW215864   0.321   0.078   4.072 -0.8540 -1.2606 -0.4513
 1411SOL     OW15865   0.591   3.478   7.248  0.6132  0.3066  0.1201
 1411SOL    HW115866   0.533   3.405   7.270  2.0941 -0.4987  1.3600
 1411SOL    HW215867   0.676   3.434   7.238  0.6870  0.3936  0.3751
 1412SOL     OW15868   2.439   3.314   1.876 -0.4474 -0.2696 -0.2729
 1412SOL    HW115869   2.396   3.229   1.862  0.4106 -0.7700  0.0933
 1412SOL    HW215870   2.402   3.347   1.958 -1.2957 -0.8205 -0.4389
 1413SOL     OW15871   2.224   0.553  10.418 -0.3825 -0.3695  0.5383
 1413SOL    HW115872   2.244   0.606  10.341 -1.3123 -1.7215 -0.6357
 1413SOL    HW215873   2.290   0.596  10.473 -0.8178 -0.7707  1.3737
 1414SOL     OW15874   1.302   3.860   7.261  0.9733 -0.0325 -0.2645
 1414SOL    HW115875   1.270   3.774   7.288  2.8742  0.0278  2.1607
 1414SOL    HW215876   1.387   3.839   7.224  0.5604  0.0883 -1.2865
 1415SOL     OW15877   3.152   0.122  14.482 -0.3077  0.2073 -0.1962
 1415SOL    HW115878   3.159   0.145  14.574 -0.7443 -0.2552 -0.0502
 1415SOL    HW215879   3.064   0.085  14.490 -0.0088 -0.1852  1.1806
 1416SOL     OW15880   4.417   1.033  12.923  0.0742  0.0763 -0.3756
 1416SOL    HW115881   4.386   0.944  12.901  2.7094 -0.6022 -1.2921
 1416SOL    HW215882   4.509   1.017  12.943  0.1617  1.8229  0.6027
 1417SOL     OW15883   2.439   0.897   2.388 -0.7751  0.2970 -0.4443
 1417SOL    HW115884   2.364   0.839   2.403  1.2760 -2.1869  0.1368
 1417SOL    HW215885   2.453   0.926   2.479 -1.9099  2.4635 -0.9522
 1418SOL     OW15886   1.982   3.254   3.801 -0.8913 -0.8068 -0.5494
 1418SOL    HW115887   1.991   3.166   3.765 -0.2199 -0.2007 -1.8764
 1418SOL    HW215888   2.034   3.253   3.882  1.3557 -1.7146 -1.9973
 1419SOL     OW15889   2.251   1.258  15.210  0.4463  0.1822  0.2693
 1419SOL    HW115890   2.193   1.182  15.207 -0.8889  1.2239  0.2289
 1419SOL    HW215891   2.253   1.286  15.118  2.3735  1.3686  0.6701
 1420SOL     OW15892   3.632   4.654  13.113  0.2793  0.0861 -0.0397
 1420SOL    HW115893   3.544   4.681  13.087  1.3983  3.0184 -0.7456
 1420SOL    HW215894   3.666   4.724  13.168 -1.2092  1.2711 -0.6340
 1421SOL     OW15895   3.399   3.865  11.056  0.9922 -0.2623  0.0922
 1421SOL    HW115896   3.428   3.850  11.146  1.2212  1.1102  0.2483
 1421SOL    HW215897   3.484   3.861  11.013  0.6304 -2.5601 -0.4036
 1422SOL     OW15898   2.339   2.465  14.559  0.1063  0.2139 -0.0128
 1422SOL    HW115899   2.339   2.389  14.617 -1.3802 -1.2913 -1.9873
 1422SOL    HW215900   2.369   2.436  14.473  2.0373  0.8953  0.4331
 1423SOL     OW15901   0.485   3.708   6.159  0.7495 -0.0088 -0.3603
 1423SOL    HW115902   0.517   3.799   6.157  0.2260  0.1460 -1.6837
 1423SOL    HW215903   0.506   3.683   6.069  0.2431  0.5526 -0.6394
 1424SOL     OW15904   2.201   1.911  17.007  0.1591  0.2787  0.1732
 1424SOL    HW115905   2.273   1.950  17.056  0.1084  1.7327 -0.8917
 1424SOL    HW215906   2.131   1.922  17.071 -1.6328  2.1189 -2.1075
 1425SOL     OW15907   4.089   2.710   4.921  0.7787 -0.0321 -0.3952
 1425SOL    HW115908   4.140   2.642   4.964  1.1380  0.4130 -0.1137
 1425SOL    HW215909   4.005   2.693   4.963  1.5418  0.3018  1.2780
 1426SOL     OW15910   0.671   0.506   7.876  0.6038 -0.3698  0.3118
 1426SOL    HW115911   0.633   0.543   7.956  1.0266 -0.5842  0.6131
 1426SOL    HW215912   0.616   0.551   7.812 -1.0133 -0.2356  1.7885
 1427SOL     OW15913   3.552   2.300   3.275  0.4917  0.1157  0.1745
 1427SOL    HW115914   3.593   2.360   3.212 -0.8885  2.3470  1.3981
 1427SOL    HW215915   3.487   2.350   3.323 -1.6143 -0.6327 -1.8722
 1428SOL     OW15916   1.174   2.199   3.302 -0.2352  0.4543  0.6422
 1428SOL    HW115917   1.257   2.182   3.346 -1.5726 -0.8917  2.5982
 1428SOL    HW215918   1.198   2.266   3.237  0.0323 -0.0902  0.1825
 1429SOL     OW15919   0.441   1.352   4.926 -0.0458  0.1690  0.0472
 1429SOL    HW115920   0.477   1.264   4.936  0.3781  0.4234  0.7500
 1429SOL    HW215921   0.353   1.341   4.961 -0.2397  2.3287  0.2454
 1430SOL     OW15922   2.769   4.000   3.866  0.3997 -0.3899 -0.3807
 1430SOL    HW115923   2.821   3.972   3.942  0.4646 -1.7604 -0.9284
 1430SOL    HW215924   2.716   3.921   3.856 -0.4628  0.2348 -0.6560
 1431SOL     OW15925   4.679   2.159   1.335  0.8762  0.3816  0.1033
 1431SOL    HW115926   4.604   2.112   1.299  0.4661  2.8308 -2.1742
 1431SOL    HW215927   4.644   2.177   1.423 -1.3787 -2.2549 -0.2585
 1432SOL     OW15928   1.099   1.171   2.329 -0.1427  0.3540 -0.8703
 1432SOL    HW115929   1.190   1.169   2.301 -0.1455  1.5171 -0.9650
 1432SOL    HW215930   1.063   1.246   2.280  1.1088  1.1509 -0.5690
 1433SOL     OW15931   0.543   2.852   5.523 -0.3422 -0.5581  0.4114
 1433SOL    HW115932   0.633   2.823   5.539  0.1542 -0.0719 -1.4388
 1433SOL    HW215933   0.493   2.771   5.516 -0.7696 -0.5813  3.5268
 1434SOL     OW15934   1.294   2.030   8.105 -0.5348 -0.0864 -0.0446
 1434SOL    HW115935   1.291   1.945   8.062  0.5707  1.1094 -2.4370
 1434SOL    HW215936   1.244   2.014   8.185  0.3346 -1.9088  0.1431
 1435SOL     OW15937   2.340   3.847   8.255 -0.1418  0.3084 -0.2687
 1435SOL    HW115938   2.417   3.905   8.252  0.2761 -0.2541 -0.4783
 1435SOL    HW215939   2.302   3.875   8.338 -0.8387  0.1779 -0.5505
 1436SOL     OW15940   0.548   1.230   6.512  0.2258  0.3119 -0.1352
 1436SOL    HW115941   0.507   1.233   6.425  0.5399  0.7089 -0.2706
 1436SOL    HW215942   0.511   1.157   6.561  1.2170  0.5326  0.9395
 1437SOL     OW15943   3.468   4.652   7.435 -0.8500 -0.2253  0.3232
 1437SOL    HW115944   3.439   4.608   7.515  3.2959  2.3090  3.2267
 1437SOL    HW215945   3.503   4.577   7.387 -0.4770 -0.1866  0.5346
 1438SOL     OW15946   1.750   4.367   1.933 -0.6619 -0.5237 -0.5811
 1438SOL    HW115947   1.727   4.289   1.983 -2.4162  0.6255  0.4089
 1438SOL    HW215948   1.822   4.333   1.881  0.8534  0.4136  0.9224
 1439SOL     OW15949   2.639   4.180   9.680 -0.8660  0.0917  0.1609
 1439SOL    HW115950   2.582   4.253   9.657 -0.7940  0.1683  0.2279
 1439SOL    HW215951   2.720   4.230   9.691 -0.1144 -0.5470 -2.5559
 1440SOL     OW15952   1.621   0.394   6.421 -0.8430  0.5892  0.7062
 1440SOL    HW115953   1.588   0.413   6.333 -1.3046 -2.6829  0.1674
 1440SOL    HW215954   1.567   0.319   6.444  0.2161 -0.0685  1.0360
 1441SOL     OW15955   2.349   0.922   1.302 -0.0413 -0.0980 -0.2610
 1441SOL    HW115956   2.283   0.890   1.364 -0.9526  1.4127 -0.4390
 1441SOL    HW215957   2.428   0.918   1.355 -2.5944  0.0080  3.6211
 1442SOL     OW15958   4.035   0.909   3.268 -0.6971 -0.7073  0.2927
 1442SOL    HW115959   4.031   0.968   3.192 -0.5641 -0.0644  0.7857
 1442SOL    HW215960   4.093   0.961   3.324 -0.4237  1.0029 -1.5841
 1443SOL     OW15961   2.631   2.394   2.030 -0.4214  0.1014 -0.1331
 1443SOL    HW115962   2.635   2.441   1.947  1.7934  0.3663  0.1080
 1443SOL    HW215963   2.687   2.323   2.000  0.2727  0.1353  1.0986
 1444SOL     OW15964   2.449   0.729   5.825 -0.4757  0.5133 -0.1524
 1444SOL    HW115965   2.480   0.653   5.875  0.3365  1.9042  1.4571
 1444SOL    HW215966   2.485   0.799   5.881 -1.1550 -0.2157  1.1895
 1445SOL     OW15967   2.115   2.608  14.541 -0.3855  0.0442  0.1709
 1445SOL    HW115968   2.188   2.547  14.545 -0.7353 -0.2587  1.8873
 1445SOL    HW215969   2.072   2.564  14.468  1.0329 -0.6541 -0.2283
 1446SOL     OW15970   3.871   0.147   4.347  0.5392 -0.1316 -0.7357
 1446SOL    HW115971   3.819   0.216   4.388  2.4442  1.2524 -0.6281
 1446SOL    HW215972   3.864   0.070   4.403 -0.3237  1.4320  1.3078
 1447SOL     OW15973   4.313   3.096  15.140 -0.7421 -0.4283 -0.0477
 1447SOL    HW115974   4.243   3.158  15.161 -0.3218  0.3601 -1.0012
 1447SOL    HW215975   4.336   3.068  15.229  2.2669  3.6725  0.4561
 1448SOL     OW15976   4.443   2.083  12.688  0.4860  0.4508  0.1407
 1448SOL    HW115977   4.402   2.015  12.634  0.9173  2.7095 -3.0266
 1448SOL    HW215978   4.408   2.162  12.646 -1.3767 -0.2959  0.2751
 1449SOL     OW15979   1.116   3.918   5.680 -0.1133 -0.1985  0.1939
 1449SOL    HW115980   1.033   3.897   5.722 -1.0011  3.2145  0.1467
 1449SOL    HW215981   1.137   4.004   5.716 -0.8477  0.0191  0.1103
 1450SOL     OW15982   0.848   1.952   6.297  0.1043 -0.0337 -0.1507
 1450SOL    HW115983   0.846   1.873   6.244 -1.9396 -0.9699  1.3059
 1450SOL    HW215984   0.838   2.024   6.235 -0.3837 -2.6093 -3.0496
 1451SOL     OW15985   0.799   2.891  16.674 -0.5872  0.6781 -0.4718
 1451SOL    HW115986   0.841   2.972  16.646  0.8641 -0.2369 -0.9457
 1451SOL    HW215987   0.866   2.865  16.737  1.6608 -0.1293 -3.2493
 1452SOL     OW15988   4.481   4.014   9.829 -0.6017 -0.2955 -0.4131
 1452SOL    HW115989   4.419   3.942   9.834 -1.1471  0.2478  0.5713
 1452SOL    HW215990   4.565   3.970   9.811 -0.7808 -0.8433  0.0828
 1453SOL     OW15991   1.960   2.125   0.920 -0.3294  0.1075 -0.1981
 1453SOL    HW115992   1.897   2.163   0.858  2.7436  3.7293 -1.0898
 1453SOL    HW215993   1.909   2.129   1.001 -0.6994 -3.0183 -0.2822
 1454SOL     OW15994   2.525   2.142   6.464  0.1757 -0.0200 -0.2223
 1454SOL    HW115995   2.498   2.107   6.549  0.0630 -3.6054 -1.7344
 1454SOL    HW215996   2.463   2.215   6.461  0.5878  0.3046 -0.9168
 1455SOL     OW15997   3.576   4.031   2.224  0.5507 -0.5872  0.3702
 1455SOL    HW115998   3.571   3.976   2.302  2.0833 -0.4561  0.5625
 1455SOL    HW215999   3.579   3.956   2.165  1.2484 -1.5329  1.6157
 1456SOL     OW16000   3.557   0.348  16.685  0.1212 -0.4375  0.1983
 1456SOL    HW116001   3.489   0.289  16.652 -1.0426  1.7051 -1.2355
 1456SOL    HW216002   3.528   0.429  16.643  1.9796  0.7328  1.1696
 1457SOL     OW16003   0.552   0.227  13.986  0.2846  0.1715  0.0394
 1457SOL    HW116004   0.635   0.234  14.032  1.2091 -1.2003 -1.4124
 1457SOL    HW216005   0.560   0.137  13.954  0.0268  0.1908 -0.0803
 1458SOL     OW16006   4.634   3.485   8.113  0.6073  0.1687 -0.6766
 1458SOL    HW116007   4.551   3.515   8.151  0.5353  0.0880 -0.7686
 1458SOL    HW216008   4.659   3.565   8.068  1.6269 -0.1926 -0.7379
 1459SOL     OW16009   3.715   1.916  11.186  0.3537 -0.3284  0.8150
 1459SOL    HW116010   3.741   1.824  11.182 -1.9710 -0.9474 -0.1054
 1459SOL    HW216011   3.619   1.918  11.188  0.3048 -1.2061 -0.5111
 1460SOL     OW16012   2.891   2.746   6.340 -0.5572 -0.4581  0.1204
 1460SOL    HW116013   2.915   2.731   6.431  0.6522  1.8840  0.1672
 1460SOL    HW216014   2.869   2.839   6.342 -2.3891 -0.9001  0.7989
 1461SOL     OW16015   0.911   1.607   7.235 -0.5247  0.0001 -0.3697
 1461SOL    HW116016   0.887   1.590   7.144 -0.4619 -0.3048 -0.3286
 1461SOL    HW216017   0.969   1.532   7.249 -0.3836  0.4777  1.5977
 1462SOL     OW16018   3.785   2.713  13.908 -0.0052  0.3715 -0.0524
 1462SOL    HW116019   3.826   2.643  13.858 -0.4548  0.8896 -1.1385
 1462SOL    HW216020   3.796   2.679  13.997  1.7672 -0.0654 -0.4469
 1463SOL     OW16021   0.949   3.437   6.612 -0.1777  1.4576 -1.0296
 1463SOL    HW116022   0.910   3.522   6.631  2.4357  2.1901  0.8731
 1463SOL    HW216023   1.041   3.447   6.635 -0.8824  1.9941  1.4724
 1464SOL     OW16024   1.378   0.356   1.941 -0.1530  0.0923  0.0520
 1464SOL    HW116025   1.415   0.285   1.995 -1.3252 -0.7207 -0.2130
 1464SOL    HW216026   1.303   0.380   1.996  0.5551  1.1501  0.5439
 1465SOL     OW16027   0.570   2.695  12.094 -0.2986 -0.0474 -0.3913
 1465SOL    HW116028   0.480   2.713  12.066 -0.3619  0.7097  0.3038
 1465SOL    HW216029   0.579   2.616  12.042  0.6920  0.0631 -0.3856
 1466SOL     OW16030   2.738   2.962   1.353 -0.2291 -0.6679 -0.0024
 1466SOL    HW116031   2.771   2.955   1.264  1.0068  1.6711  0.2681
 1466SOL    HW216032   2.818   2.956   1.406  0.2261 -0.1401 -0.6470
 1467SOL     OW16033   2.355   1.632   2.446  0.2215 -0.1876 -0.2487
 1467SOL    HW116034   2.385   1.541   2.454  1.3790  0.2112 -0.1426
 1467SOL    HW216035   2.402   1.686   2.509  0.0345 -1.0698  0.6456
 1468SOL     OW16036   3.982   2.567   3.439  0.4332  0.5847 -0.2115
 1468SOL    HW116037   4.066   2.572   3.394  1.1822 -1.3833  0.9600
 1468SOL    HW216038   3.952   2.479   3.419  2.7005 -0.1988 -0.1693
 1469SOL     OW16039   3.489   0.928   1.969 -0.1307 -0.1892  0.0110
 1469SOL    HW116040   3.424   0.996   1.951  0.8630  1.2641  1.9562
 1469SOL    HW216041   3.571   0.966   2.002  1.6238 -2.9473 -1.1189
 1470SOL     OW16042   0.902   2.591   3.230  0.4901  0.3354  0.4372
 1470SOL    HW116043   0.816   2.572   3.192  0.0128 -1.5561  2.4629
 1470SOL    HW216044   0.899   2.686   3.240 -1.9705  0.2434  0.6499
 1471SOL     OW16045   3.074   1.820   7.487 -1.2151 -0.2116 -0.8541
 1471SOL    HW116046   3.161   1.837   7.449 -0.1345  1.8403  2.5290
 1471SOL    HW216047   3.023   1.861   7.418  1.1293 -0.5546 -2.7853
 1472SOL     OW16048   0.544   2.126   6.580  0.1797  0.1020  0.1956
 1472SOL    HW116049   0.638   2.143   6.571 -0.1264  2.4736  1.4002
 1472SOL    HW216050   0.515   2.211   6.546 -0.1460  0.2314  0.8039
 1473SOL     OW16051   3.188   3.379  11.210 -0.1693 -0.3292 -0.8876
 1473SOL    HW116052   3.220   3.467  11.228 -0.6984 -0.2601 -0.2651
 1473SOL    HW216053   3.219   3.350  11.296  1.2974  2.1731 -0.5768
 1474SOL     OW16054   3.788   0.265  17.699  0.5502 -0.0999 -0.3163
 1474SOL    HW116055   3.817   0.209  17.627  0.1623 -1.2946  0.4680
 1474SOL    HW216056   3.722   0.326  17.664 -0.0345 -0.6854 -0.2177
 1475SOL     OW16057   3.288   4.738   1.977  0.5927  0.2421  0.0336
 1475SOL    HW116058   3.288   0.080   1.928  1.1194 -0.0683 -0.4919
 1475SOL    HW216059   3.303   0.034   2.064 -1.0066 -0.9604  0.8085
 1476SOL     OW16060   1.823   0.528   8.263  0.1160 -0.0182  0.1837
 1476SOL    HW116061   1.903   0.483   8.237  0.4391 -0.5690  2.1473
 1476SOL    HW216062   1.843   0.614   8.227 -0.5502 -0.0984 -0.3874
 1477SOL     OW16063   1.065   0.804   8.659 -0.3653 -0.3300 -0.8576
 1477SOL    HW116064   1.066   0.773   8.569 -0.3530 -1.5477 -0.4332
 1477SOL    HW216065   1.156   0.793   8.688 -0.7169 -1.0355 -0.0191
 1478SOL     OW16066   4.211   3.765  12.052 -0.0699 -0.0537  0.7103
 1478SOL    HW116067   4.168   3.680  12.058  0.4600 -0.3392  0.5012
 1478SOL    HW216068   4.144   3.814  12.004  0.3408 -1.4028 -1.2086
 1479SOL     OW16069   2.489   0.827  11.406  0.3352 -0.1960  0.1846
 1479SOL    HW116070   2.487   0.733  11.389 -2.1881  0.1171 -1.2577
 1479SOL    HW216071   2.495   0.856  11.315 -3.7344 -1.3058 -0.4473
 1480SOL     OW16072   0.808   2.271   4.541 -0.1291 -0.1499  0.0141
 1480SOL    HW116073   0.759   2.190   4.528 -0.4192  0.1645 -0.9155
 1480SOL    HW216074   0.852   2.252   4.623  1.1526 -2.5754 -1.2498
 1481SOL     OW16075   2.813   3.932   5.431 -0.3319  0.7136  0.4331
 1481SOL    HW116076   2.847   3.852   5.473 -2.0350  0.1493  0.7150
 1481SOL    HW216077   2.886   3.987   5.459  1.5883 -1.0894 -1.0263
 1482SOL     OW16078   0.001   4.148   4.702 -0.0368 -0.1854  0.1996
 1482SOL    HW116079   0.072   4.212   4.710 -0.2353 -0.0682  1.0252
 1482SOL    HW216080   0.054   4.070   4.719  0.5411 -0.0636 -1.0457
 1483SOL     OW16081   4.248   1.142  10.082 -0.2347  0.0137  0.2263
 1483SOL    HW116082   4.201   1.186  10.153 -2.0206 -0.2914 -0.7443
 1483SOL    HW216083   4.319   1.095  10.126 -0.7072  0.0659  1.0428
 1484SOL     OW16084   3.500   3.032   5.618  0.3773  0.7386 -0.0983
 1484SOL    HW116085   3.544   2.954   5.584  0.1348  0.0498  1.1722
 1484SOL    HW216086   3.434   2.989   5.672 -2.1050  2.7583 -1.5104
 1485SOL     OW16087   2.445   2.728   6.134  0.3363  0.4815 -0.3512
 1485SOL    HW116088   2.444   2.633   6.128  0.3932  0.5221 -1.0341
 1485SOL    HW216089   2.539   2.749   6.138  0.2752  0.7203 -0.2005
 1486SOL     OW16090   3.845   1.105  16.077  0.3666 -0.0229  0.6201
 1486SOL    HW116091   3.868   1.121  15.985 -0.2035 -0.0684  0.4659
 1486SOL    HW216092   3.843   1.199  16.095 -0.0771  0.3001 -1.0978
 1487SOL     OW16093   0.828   3.920   6.916 -0.1555  0.2430 -0.2017
 1487SOL    HW116094   0.873   3.961   6.989 -1.5816  3.5971 -1.2217
 1487SOL    HW216095   0.757   3.883   6.969  0.1832 -0.3237 -0.1449
 1488SOL     OW16096   3.233   0.148   2.260 -0.4338 -0.3207  0.0798
 1488SOL    HW116097   3.273   0.066   2.289  2.3686  0.6365 -1.0480
 1488SOL    HW216098   3.285   0.215   2.305 -0.6726  0.6444 -1.0797
 1489SOL     OW16099   0.476   4.544   0.580  0.7309  0.4197  0.4219
 1489SOL    HW116100   0.431   4.609   0.526  1.4457 -1.1973 -2.0749
 1489SOL    HW216101   0.567   4.551   0.551  1.3336  0.6835  2.3940
 1490SOL     OW16102   2.404   2.385   7.149  0.2931  0.2200  0.1361
 1490SOL    HW116103   2.434   2.431   7.227  1.9810  0.1540 -0.4605
 1490SOL    HW216104   2.322   2.429   7.129 -0.8547 -1.5376  0.9967
 1491SOL     OW16105   0.817   2.138  16.935  0.0996 -0.6831 -0.1786
 1491SOL    HW116106   0.862   2.112  17.015 -1.4965 -1.9038  0.3140
 1491SOL    HW216107   0.780   2.056  16.903 -0.1241 -0.8472  0.5081
 1492SOL     OW16108   0.638   3.291   9.214  0.3909 -0.4595  0.4908
 1492SOL    HW116109   0.708   3.355   9.231 -0.7799  0.9487  0.0739
 1492SOL    HW216110   0.652   3.260   9.125  0.3700 -0.6032  0.5380
 1493SOL     OW16111   1.429   1.875   3.674 -0.1351  0.9242 -0.3648
 1493SOL    HW116112   1.365   1.919   3.729 -1.6467 -1.0971 -0.4901
 1493SOL    HW216113   1.388   1.869   3.588  4.0720  0.7930 -2.3858
 1494SOL     OW16114   1.023   2.345  17.344  0.2509 -0.3258 -0.9885
 1494SOL    HW116115   1.011   2.437  17.318  1.3088  0.3145  0.8212
 1494SOL    HW216116   1.016   2.347  17.439  1.6212 -1.8946 -0.8543
 1495SOL     OW16117   0.278   2.779   3.035  0.0020 -0.0783 -0.2437
 1495SOL    HW116118   0.208   2.794   2.971 -0.5877  2.1270  0.9198
 1495SOL    HW216119   0.235   2.737   3.109  0.9880  1.5904  1.2560
 1496SOL     OW16120   3.298   2.670   1.787 -0.7068 -0.4782  0.3355
 1496SOL    HW116121   3.355   2.690   1.862 -1.3670 -2.5228  1.3797
 1496SOL    HW216122   3.301   2.759   1.753 -1.9322 -0.1406  1.1206
 1497SOL     OW16123   4.226   4.344   9.231  0.6790 -0.1404  0.2780
 1497SOL    HW116124   4.235   4.323   9.324  1.2376  0.6235  0.3930
 1497SOL    HW216125   4.208   4.437   9.247 -2.6955 -0.3493 -2.3370
 1498SOL     OW16126   3.117   1.552   1.592 -0.4817 -0.4793  0.1930
 1498SOL    HW116127   3.123   1.648   1.588 -3.0590 -0.3573 -0.6018
 1498SOL    HW216128   3.089   1.534   1.682  0.4116  0.5448  0.6930
 1499SOL     OW16129   0.628   4.583   3.937 -0.2370  0.5431 -0.4217
 1499SOL    HW116130   0.638   4.488   3.947  1.5973  1.0247  2.5001
 1499SOL    HW216131   0.708   4.626   3.967 -0.7348  1.1483  0.0340
 1500SOL     OW16132   0.358   0.084   6.242  0.2054  0.3439  0.2148
 1500SOL    HW116133   0.313   0.039   6.313  1.7280  0.8002  1.4713
 1500SOL    HW216134   0.443   0.086   6.287  0.1536  1.0650  0.2759
 1501SOL     OW16135   2.646   2.156   7.776  0.0047  0.4500 -0.3116
 1501SOL    HW116136   2.569   2.111   7.741 -0.9498 -0.6104  3.2251
 1501SOL    HW216137   2.612   2.240   7.809  0.3923  0.7077 -0.5705
 1502SOL     OW16138   2.985   2.556  13.836  0.0524 -0.4633 -0.1143
 1502SOL    HW116139   2.899   2.594  13.817 -0.2191 -1.1146 -0.1660
 1502SOL    HW216140   2.982   2.567  13.932  2.0416  1.6531 -0.2942
 1503SOL     OW16141   0.544   3.950   6.059 -0.1697  0.2046  0.2440
 1503SOL    HW116142   0.465   4.003   6.066  1.0933  2.1534 -0.4910
 1503SOL    HW216143   0.526   3.927   5.968  1.4690 -0.6009  0.1215
 1504SOL     OW16144   1.562   1.156   9.824 -0.4220  0.1696  0.5942
 1504SOL    HW116145   1.595   1.234   9.780 -2.0189  0.7942  0.5161
 1504SOL    HW216146   1.468   1.167   9.834 -0.4121  0.6770  0.0987
 1505SOL     OW16147   0.501   2.862   8.049 -0.5191 -0.2058  0.1378
 1505SOL    HW116148   0.442   2.933   8.024  3.3953  1.7932 -3.3585
 1505SOL    HW216149   0.439   2.791   8.030 -0.1394  0.1588 -2.3970
 1506SOL     OW16150   4.373   2.865  11.997 -0.0792  0.2537  0.3610
 1506SOL    HW116151   4.428   2.861  11.919 -0.1238 -1.2706  0.4125
 1506SOL    HW216152   4.438   2.883  12.065 -0.2261 -3.2582  1.4332
 1507SOL     OW16153   1.771   2.436   1.756 -0.5091  0.0196 -0.2468
 1507SOL    HW116154   1.838   2.501   1.731 -1.6880  0.6171 -1.8830
 1507SOL    HW216155   1.754   2.452   1.849 -0.8239  0.7250 -0.4225
 1508SOL     OW16156   3.777   1.500   6.381  0.1653  0.1167 -0.6260
 1508SOL    HW116157   3.847   1.469   6.322 -0.2471  1.0029 -1.5803
 1508SOL    HW216158   3.703   1.493   6.321 -0.0631 -1.3306 -0.1754
 1509SOL     OW16159   4.235   3.177   3.790  0.1404  0.3417  0.8132
 1509SOL    HW116160   4.142   3.156   3.799  0.3874 -1.1753 -0.1717
 1509SOL    HW216161   4.259   3.145   3.703 -0.2032  1.3654  0.3468
 1510SOL     OW16162   1.609   3.739   2.286  0.0707  0.3774  0.2553
 1510SOL    HW116163   1.649   3.789   2.356  0.2949 -0.6813  0.8745
 1510SOL    HW216164   1.515   3.751   2.302  0.2711  2.0409  0.2429
 1511SOL     OW16165   4.631   2.629   1.994  0.0817 -0.0266 -0.6052
 1511SOL    HW116166   4.656   2.653   1.905 -1.7009  2.6179 -0.4144
 1511SOL    HW216167   4.690   2.679   2.051  0.4597  0.3064 -1.2990
 1512SOL     OW16168   4.489   2.943   2.855  0.1912 -0.0349 -0.0202
 1512SOL    HW116169   4.570   2.992   2.864  0.1583 -0.2761  1.5556
 1512SOL    HW216170   4.422   3.005   2.828  0.8787  0.7926  0.1824
 1513SOL     OW16171   1.213   3.308  16.882 -0.3666  0.3309 -0.3007
 1513SOL    HW116172   1.228   3.214  16.890 -1.4066  0.2429  0.6148
 1513SOL    HW216173   1.168   3.311  16.797  0.5538 -0.7864 -0.8358
 1514SOL     OW16174   2.037   0.303  15.922 -0.4833  0.1261  0.0883
 1514SOL    HW116175   2.071   0.325  15.836 -0.1269 -0.3761  0.0993
 1514SOL    HW216176   2.008   0.389  15.951 -1.3725  0.5261 -2.0697
 1515SOL     OW16177   0.910   2.901   7.758  0.4869 -0.1272  0.7648
 1515SOL    HW116178   0.982   2.957   7.786  0.0929  1.8954 -2.3335
 1515SOL    HW216179   0.878   2.872   7.844  2.6894  0.1365  1.6865
 1516SOL     OW16180   1.528   1.222  12.402  1.0632 -0.1250  0.2143
 1516SOL    HW116181   1.617   1.205  12.371  1.6456  1.8752  0.8394
 1516SOL    HW216182   1.535   1.231  12.497  1.6458 -4.0072  0.5593
 1517SOL     OW16183   0.774   3.929   6.667  0.1295  0.0529  0.2137
 1517SOL    HW116184   0.870   3.927   6.661 -0.0550 -2.0819 -2.3829
 1517SOL    HW216185   0.757   3.946   6.759 -0.3987 -0.4129  0.2064
 1518SOL     OW16186   0.274   4.359  11.392 -0.1422 -0.3111  0.0082
 1518SOL    HW116187   0.368   4.346  11.379  0.6960  2.6482  3.0487
 1518SOL    HW216188   0.244   4.303  11.320  1.0811 -2.8075  1.4393
 1519SOL     OW16189   4.135   0.466   4.374 -0.5152 -0.5396  0.2513
 1519SOL    HW116190   4.155   0.372   4.376  1.2812 -0.1492  0.5074
 1519SOL    HW216191   4.061   0.457   4.434  0.0378 -0.6336  0.9211
 1520SOL     OW16192   4.534   1.951   6.868 -0.2739 -0.0717 -0.0990
 1520SOL    HW116193   4.607   1.934   6.928 -0.9119 -0.1257  0.6616
 1520SOL    HW216194   4.510   2.038   6.900  0.8118 -1.2595  3.9374
 1521SOL     OW16195   2.109   2.528   2.944 -0.3557  0.1277  0.3186
 1521SOL    HW116196   2.090   2.508   2.852 -0.1680  2.7772 -0.2813
 1521SOL    HW216197   2.125   2.438   2.973 -1.8203 -0.6356 -1.2437
 1522SOL     OW16198   3.355   0.201   2.764 -0.1800  0.5830  0.4341
 1522SOL    HW116199   3.299   0.145   2.711 -0.7121  1.8936 -0.4039
 1522SOL    HW216200   3.443   0.175   2.737  0.4882  2.2421  1.0004
 1523SOL     OW16201   1.398   3.225   6.008 -0.1819  0.1319 -0.2119
 1523SOL    HW116202   1.413   3.131   5.995 -0.7485  0.0248 -0.1149
 1523SOL    HW216203   1.359   3.224   6.095  1.2176  1.6018  0.4245
 1524SOL     OW16204   4.692   1.820   8.444 -0.3051  0.6542 -0.0923
 1524SOL    HW116205   4.597   1.811   8.450 -0.1858 -0.5869 -0.0458
 1524SOL    HW216206   4.702   1.913   8.425  2.0921  0.7822  1.7519
 1525SOL     OW16207   2.092   0.644  16.914  0.3244 -0.5630 -0.2756
 1525SOL    HW116208   2.127   0.598  16.838  0.9586 -1.9288  0.8254
 1525SOL    HW216209   2.005   0.604  16.919  0.0150 -0.0145 -1.2771
 1526SOL     OW16210   2.799   2.976   6.423 -0.0118  0.5845 -0.2720
 1526SOL    HW116211   2.831   3.030   6.496 -2.0343  1.7092 -0.2460
 1526SOL    HW216212   2.720   3.025   6.402  0.6570  2.1890  0.9795
 1527SOL     OW16213   3.842   4.558   8.390 -0.1987 -0.0666 -0.1182
 1527SOL    HW116214   3.785   4.515   8.455  2.1383 -3.7343 -0.4993
 1527SOL    HW216215   3.820   4.515   8.307  2.3474  0.6962 -1.1720
 1528SOL     OW16216   3.884   2.274   9.511 -0.1318 -0.4625 -0.2169
 1528SOL    HW116217   3.889   2.275   9.607  0.1679 -1.0701 -0.2286
 1528SOL    HW216218   3.936   2.196   9.490  0.8912  0.7623 -2.2304
 1529SOL     OW16219   0.239   1.634  10.344 -0.7376  0.4222  0.2778
 1529SOL    HW116220   0.318   1.581  10.355  0.1300  1.3202 -1.6264
 1529SOL    HW216221   0.266   1.711  10.394 -0.3880 -0.9417  2.1801
 1530SOL     OW16222   3.364   4.542   4.076  0.3027 -0.1882 -0.1488
 1530SOL    HW116223   3.304   4.536   4.151  3.2646 -1.0840  2.1595
 1530SOL    HW216224   3.327   4.616   4.027  1.3088  1.6927  1.9047
 1531SOL     OW16225   1.502   3.621   2.593  0.2676  0.1972  0.8073
 1531SOL    HW116226   1.452   3.596   2.671 -0.1958 -1.0803  0.1107
 1531SOL    HW216227   1.427   3.646   2.538  1.9147 -1.8293 -2.3242
 1532SOL     OW16228   3.619   3.622   4.163 -0.2873 -0.3226 -0.1671
 1532SOL    HW116229   3.692   3.630   4.225 -1.0754  3.0766  0.3479
 1532SOL    HW216230   3.609   3.711   4.128 -0.2848 -0.3693 -0.2836
 1533SOL     OW16231   0.058   4.444   8.812  0.4289  0.3134 -0.4640
 1533SOL    HW116232   0.084   4.352   8.805  1.4975  0.6679 -1.1143
 1533SOL    HW216233   4.716   4.438   8.764 -0.1312 -0.3048  0.5699
 1534SOL     OW16234   2.045   0.526   8.920  0.1710  0.2333 -0.5079
 1534SOL    HW116235   1.952   0.540   8.936 -0.0201  1.5480 -2.7609
 1534SOL    HW216236   2.077   0.598   8.866 -0.0819  0.5449 -0.2426
 1535SOL     OW16237   4.447   3.278   7.783 -0.3931 -0.1591  0.0311
 1535SOL    HW116238   4.411   3.271   7.695  1.1278  0.9632 -0.6847
 1535SOL    HW216239   4.523   3.223   7.767  0.2283  0.4357  0.9181
 1536SOL     OW16240   0.881   1.730  16.856 -0.2283 -0.3675  0.6593
 1536SOL    HW116241   0.873   1.635  16.857  1.8580 -0.5494 -1.2980
 1536SOL    HW216242   0.949   1.745  16.922 -1.8718  0.4017  2.2193
 1537SOL     OW16243   3.061   0.574   2.933  0.0024 -0.4836 -0.2803
 1537SOL    HW116244   3.123   0.501   2.935 -0.1926 -0.6539 -0.4808
 1537SOL    HW216245   3.048   0.578   2.838  0.6524 -2.1019 -0.4296
 1538SOL     OW16246   4.323   0.811  14.723 -0.0703 -0.5434 -0.1257
 1538SOL    HW116247   4.237   0.783  14.691 -0.7480  0.6031  0.6953
 1538SOL    HW216248   4.365   0.735  14.763  1.6055  0.3410 -0.2172
 1539SOL     OW16249   2.493   4.715  17.415 -0.0939 -0.0028 -0.0187
 1539SOL    HW116250   2.581   0.002  17.388 -0.4312 -1.6182 -2.7877
 1539SOL    HW216251   2.447   4.727  17.332  0.3920  0.5919 -0.2078
 1540SOL     OW16252   0.514   4.344   1.520  0.5710 -0.0396 -0.4633
 1540SOL    HW116253   0.523   4.435   1.491  1.3246  0.6523  1.8995
 1540SOL    HW216254   0.563   4.300   1.451  1.3011 -2.1215  1.3681
 1541SOL     OW16255   1.741   4.308   5.301 -0.0884 -0.3809 -0.1117
 1541SOL    HW116256   1.793   4.291   5.223 -1.0877  1.1073 -1.1022
 1541SOL    HW216257   1.713   4.399   5.291  0.0231 -0.4256 -0.8221
 1542SOL     OW16258   0.912   0.131  15.109 -0.2497  0.1821  0.2653
 1542SOL    HW116259   0.934   0.222  15.130  1.5720  0.2246 -1.8557
 1542SOL    HW216260   0.830   0.138  15.061 -1.6999 -1.4760  2.5027
 1543SOL     OW16261   2.342   1.804   3.140 -0.2771 -0.1723 -0.1317
 1543SOL    HW116262   2.370   1.751   3.215  2.0357  0.0581 -0.8173
 1543SOL    HW216263   2.257   1.811   3.183  0.1668 -0.1971  0.7601
 1544SOL     OW16264   2.946   3.133   7.110  0.0467 -0.2978  0.6815
 1544SOL    HW116265   2.960   3.223   7.083  0.2366 -0.1187  1.3750
 1544SOL    HW216266   3.036   3.106   7.126 -0.0980 -1.6851 -0.8378
 1545SOL     OW16267   1.959   2.665  15.021  0.8140  0.1121  0.4738
 1545SOL    HW116268   1.928   2.735  14.963 -0.0764 -1.8312 -1.3992
 1545SOL    HW216269   1.888   2.670  15.085 -0.0610  2.7241 -0.6939
 1546SOL     OW16270   0.322   2.170   4.222  0.3645  0.1709 -0.0098
 1546SOL    HW116271   0.349   2.204   4.137 -0.9083  0.5809 -0.2515
 1546SOL    HW216272   0.283   2.086   4.199 -0.4742  0.6297 -0.2366
 1547SOL     OW16273   1.464   1.933   4.300 -0.2436 -0.1154 -0.0203
 1547SOL    HW116274   1.526   1.921   4.228 -0.5431  2.4316 -0.6917
 1547SOL    HW216275   1.380   1.934   4.255 -0.7416 -0.2462  0.8971
 1548SOL     OW16276   3.872   4.503  15.498 -0.2159 -0.0680 -0.4041
 1548SOL    HW116277   3.933   4.430  15.507  0.2033  0.2637 -0.5715
 1548SOL    HW216278   3.840   4.483  15.410 -1.3659  2.0310 -0.4806
 1549SOL     OW16279   1.932   0.211   0.745  0.1347 -0.1593  0.1822
 1549SOL    HW116280   2.002   0.160   0.786 -1.2804 -0.5192  2.1244
 1549SOL    HW216281   1.973   0.297   0.733  0.7418 -0.5483 -0.5740
 1550SOL     OW16282   1.012   3.113   2.305 -0.7625 -0.1444 -0.0045
 1550SOL    HW116283   0.926   3.157   2.303  0.3553  2.0761  0.2585
 1550SOL    HW216284   0.992   3.022   2.323 -1.6443 -0.1421 -0.9854
 1551SOL     OW16285   3.650   0.494   2.865 -0.1549  0.1406 -0.2360
 1551SOL    HW116286   3.670   0.446   2.785  1.3561 -0.9171  0.7644
 1551SOL    HW216287   3.684   0.425   2.922 -0.2500 -1.3236 -1.9525
 1552SOL     OW16288   1.681   4.495   2.671  0.2992 -0.4059 -0.0286
 1552SOL    HW116289   1.752   4.441   2.636  2.6163  2.2254  0.6439
 1552SOL    HW216290   1.723   4.579   2.688 -1.8778  1.2788 -2.8347
 1553SOL     OW16291   0.822   3.987   9.563  0.3500 -0.2270 -0.6011
 1553SOL    HW116292   0.849   3.896   9.577  1.2608 -0.5439 -4.5693
 1553SOL    HW216293   0.791   3.988   9.473  0.0886  0.1626 -0.5066
 1554SOL     OW16294   2.387   1.450   6.524 -0.3938 -0.4423 -0.1087
 1554SOL    HW116295   2.361   1.408   6.606  0.0020 -0.7825 -0.1615
 1554SOL    HW216296   2.352   1.384   6.464  2.4465 -1.4722 -0.6067
 1555SOL     OW16297   4.553   4.544   9.163 -0.1644  0.1801  0.2782
 1555SOL    HW116298   4.523   4.576   9.078 -1.8020 -2.1903 -0.0256
 1555SOL    HW216299   4.537   4.627   9.207  0.0685 -0.5514  1.7398
 1556SOL     OW16300   0.908   0.409   2.748 -0.1802  0.3522  0.6252
 1556SOL    HW116301   0.895   0.392   2.655 -1.2463  2.1848  0.4268
 1556SOL    HW216302   0.879   0.323   2.779  1.8912 -0.8826 -0.8653
 1557SOL     OW16303   0.468   0.386   3.761  0.4145  0.1174 -0.4345
 1557SOL    HW116304   0.544   0.443   3.756 -0.0232  0.7642  0.3855
 1557SOL    HW216305   0.517   0.304   3.754 -2.1427 -1.5780  1.3062
 1558SOL     OW16306   3.239   1.441   2.338 -0.3813 -0.2272  0.1221
 1558SOL    HW116307   3.181   1.378   2.380 -1.7270  0.9304 -0.0213
 1558SOL    HW216308   3.320   1.389   2.332 -0.6446 -0.3383 -2.2292
 1559SOL     OW16309   0.875   0.083   2.493 -1.1597 -0.1510 -0.0553
 1559SOL    HW116310   0.940   0.084   2.422 -1.3900 -0.6530 -0.2749
 1559SOL    HW216311   0.916   0.022   2.555  1.7063  0.9973 -0.8349
 1560SOL     OW16312   4.353   2.180   9.151  0.2474 -0.0846  0.2600
 1560SOL    HW116313   4.295   2.106   9.166 -1.2428  1.3349  1.4799
 1560SOL    HW216314   4.360   2.218   9.239 -0.1239  0.8397 -0.1179
 1561SOL     OW16315   4.415   1.369   5.155  0.2942 -0.3995 -0.1231
 1561SOL    HW116316   4.378   1.419   5.228 -2.2713  0.3817 -1.9427
 1561SOL    HW216317   4.477   1.315   5.203  0.4681 -1.9079 -2.0413
 1562SOL     OW16318   2.922   0.384   3.669 -0.1005 -0.0191  0.0808
 1562SOL    HW116319   2.893   0.328   3.741  1.3781 -1.2785 -0.3310
 1562SOL    HW216320   2.850   0.446   3.653  1.1129  1.2246 -0.4968
 1563SOL     OW16321   2.804   4.678   2.926  0.7892 -0.1340 -0.2118
 1563SOL    HW116322   2.741   0.008   2.909 -0.5334 -0.9249  1.3952
 1563SOL    HW216323   2.779   4.651   3.015  2.2322 -0.4618  0.0905
 1564SOL     OW16324   3.542   4.436   4.652 -0.2582 -0.1530 -0.2281
 1564SOL    HW116325   3.463   4.490   4.641  0.9279  1.4853 -0.5707
 1564SOL    HW216326   3.512   4.371   4.716  1.2742 -1.8048 -1.1905
 1565SOL     OW16327   0.416   4.335   7.396  0.1805  0.8545 -0.3446
 1565SOL    HW116328   0.436   4.293   7.313 -0.2350  2.1510 -1.1028
 1565SOL    HW216329   0.330   4.304   7.425  0.8225  0.4167  1.1194
 1566SOL     OW16330   2.211   0.844   0.101 -0.1630 -0.7178 -0.1957
 1566SOL    HW116331   2.126   0.802   0.115 -0.5353  0.5162  1.2772
 1566SOL    HW216332   2.265   0.773   0.135  0.5846 -0.9843 -1.9874
 1567SOL     OW16333   1.889   0.760   6.306 -0.6328  0.6393 -0.2339
 1567SOL    HW116334   1.915   0.729   6.393  0.4403  1.6487 -0.1997
 1567SOL    HW216335   1.797   0.786   6.301 -0.5828  0.9126  0.2241
 1568SOL     OW16336   2.053   4.219  15.441  0.6091  0.4424  0.2518
 1568SOL    HW116337   2.088   4.162  15.373 -0.6737  0.1808 -0.1989
 1568SOL    HW216338   2.107   4.297  15.426  0.5025  0.4724  0.0154
 1569SOL     OW16339   1.770   2.136  10.947 -0.1291 -0.1234 -0.2569
 1569SOL    HW116340   1.865   2.133  10.937 -0.2818 -3.4859 -0.6546
 1569SOL    HW216341   1.769   2.130  11.043  0.4134  0.7843 -0.1973
 1570SOL     OW16342   0.693   0.914   7.450  0.2031 -0.0466  0.4974
 1570SOL    HW116343   0.739   0.836   7.420 -0.2589  0.7236 -2.1600
 1570SOL    HW216344   0.607   0.877   7.428  1.8469 -3.0617 -0.7375
 1571SOL     OW16345   2.610   0.685   3.053  0.2461  0.3616  0.0328
 1571SOL    HW116346   2.659   0.766   3.058  0.0467  0.4364  0.7236
 1571SOL    HW216347   2.673   0.639   2.997 -1.1451 -2.8286  1.0913
 1572SOL     OW16348   0.573   1.469   2.917 -0.0721  0.2723  0.3005
 1572SOL    HW116349   0.616   1.523   2.984 -0.8047 -0.9969  1.7898
 1572SOL    HW216350   0.561   1.529   2.843  0.3925  2.1914  1.7927
 1573SOL     OW16351   2.675   4.430   7.227  0.6791 -0.5978 -0.2724
 1573SOL    HW116352   2.761   4.394   7.247 -0.2239 -0.2588  4.2188
 1573SOL    HW216353   2.613   4.387   7.285 -1.6887  2.8405 -0.2386
 1574SOL     OW16354   0.892   2.885   7.050 -0.1937  0.1513  0.4744
 1574SOL    HW116355   0.803   2.856   7.072 -0.5295  0.5106 -0.4051
 1574SOL    HW216356   0.874   2.933   6.969 -3.3709 -0.4734  0.8194
 1575SOL     OW16357   2.109   1.972  11.441 -1.0435  0.1921  0.4641
 1575SOL    HW116358   2.114   1.891  11.391 -1.6541  0.5368 -0.1608
 1575SOL    HW216359   2.192   2.017  11.425  0.1141 -1.4089  2.0026
 1576SOL     OW16360   1.215   1.926  17.378 -0.0942  1.0559  0.3665
 1576SOL    HW116361   1.174   2.010  17.355 -0.8482  0.7247  0.5221
 1576SOL    HW216362   1.273   1.920  17.302  0.5039  0.0942  0.9082
 1577SOL     OW16363   3.750   2.689  15.555  0.2053 -0.0069 -0.3309
 1577SOL    HW116364   3.747   2.772  15.508 -3.3203  0.7991  1.3085
 1577SOL    HW216365   3.843   2.671  15.542  0.4272 -0.5179  1.9856
 1578SOL     OW16366   1.769   4.418   6.389 -0.6180  0.1072  0.3249
 1578SOL    HW116367   1.814   4.408   6.473 -0.3704  1.2540  0.3238
 1578SOL    HW216368   1.727   4.332   6.374 -1.4848  0.9674 -2.2114
 1579SOL     OW16369   4.599   2.428  14.624  0.0017  0.1673  0.6609
 1579SOL    HW116370   4.689   2.402  14.640  0.1272 -0.0623 -0.4290
 1579SOL    HW216371   4.618   2.503  14.567 -1.1475 -0.9625 -1.1936
 1580SOL     OW16372   4.436   3.979   5.087 -0.7286 -0.3168 -0.0435
 1580SOL    HW116373   4.458   4.006   4.997  1.5387 -0.5073  0.4459
 1580SOL    HW216374   4.509   3.919   5.104 -1.2207 -1.2474 -1.2519
 1581SOL     OW16375   0.875   3.142   5.462  0.2706  0.1266 -0.1219
 1581SOL    HW116376   0.843   3.143   5.552  1.2856 -0.5923  0.2415
 1581SOL    HW216377   0.951   3.200   5.461  1.4432 -1.4357 -0.6898
 1582SOL     OW16378   1.146   1.330   3.976 -0.2751  0.2285  0.0291
 1582SOL    HW116379   1.233   1.295   3.997 -0.6648 -0.0431  1.1581
 1582SOL    HW216380   1.164   1.395   3.908 -0.8386  0.6931  0.3211
 1583SOL     OW16381   0.680   4.106   5.760  0.1775 -0.4673  0.3223
 1583SOL    HW116382   0.611   4.157   5.802  0.0957  1.2543 -1.9222
 1583SOL    HW216383   0.747   4.169   5.735 -1.0523  0.1458 -1.3769
 1584SOL     OW16384   2.280   1.789   7.263 -0.1649  0.5787  0.1016
 1584SOL    HW116385   2.257   1.747   7.346  0.5470 -0.3549 -0.1698
 1584SOL    HW216386   2.193   1.789   7.222 -0.0596  0.5612 -0.1228
 1585SOL     OW16387   0.841   4.605   9.230  0.3098  0.0737 -0.2951
 1585SOL    HW116388   0.760   4.648   9.257  0.8496  0.5011  0.6355
 1585SOL    HW216389   0.865   4.551   9.305  0.2367 -0.3986 -0.6115
 1586SOL     OW16390   2.745   2.985  16.811  0.3111 -0.0942 -0.1548
 1586SOL    HW116391   2.787   3.041  16.876 -0.5480  0.5201 -0.1334
 1586SOL    HW216392   2.819   2.944  16.766  1.9194  1.0026  1.4974
 1587SOL     OW16393   4.288   2.274  13.326 -0.0160 -0.6314 -0.2483
 1587SOL    HW116394   4.292   2.365  13.354 -1.3397 -0.4920 -0.4872
 1587SOL    HW216395   4.382   2.258  13.326  0.3838  1.8134  0.4853
 1588SOL     OW16396   0.107   2.426  16.012  0.6008  0.6330 -0.4052
 1588SOL    HW116397   0.016   2.443  15.987  0.2543 -0.0965  0.3397
 1588SOL    HW216398   0.141   2.359  15.953  0.1609 -1.7398  2.0656
 1589SOL     OW16399   3.364   3.323   3.704  0.3572  0.8650  0.3223
 1589SOL    HW116400   3.276   3.306   3.738  0.8103 -1.2467  0.4307
 1589SOL    HW216401   3.352   3.279   3.620 -3.2939  0.9086  0.8236
 1590SOL     OW16402   2.640   2.712  10.076 -0.1484  0.0844  0.3842
 1590SOL    HW116403   2.653   2.649  10.006 -0.9238 -2.0120  2.1491
 1590SOL    HW216404   2.551   2.742  10.055 -0.2472 -0.8910 -0.5877
 1591SOL     OW16405   0.410   2.316   0.980 -0.0075  0.1675 -0.5027
 1591SOL    HW116406   0.444   2.396   0.942 -0.9567  0.6739 -0.2992
 1591SOL    HW216407   0.360   2.352   1.053 -0.6835  0.8862 -1.3148
 1592SOL     OW16408   2.225   0.404  13.986  0.0028  0.1757 -0.7705
 1592SOL    HW116409   2.214   0.499  13.991  0.9397  0.3410 -1.7612
 1592SOL    HW216410   2.292   0.407  13.918 -0.1083 -3.4942 -1.0077
 1593SOL     OW16411   3.314   3.878  16.393 -0.1121  0.1474 -0.5158
 1593SOL    HW116412   3.355   3.834  16.467  0.3926 -3.2868 -2.8312
 1593SOL    HW216413   3.350   3.964  16.415  2.9507 -1.6343  1.3915
 1594SOL     OW16414   3.869   3.196   4.809 -0.1956 -0.3495  0.4749
 1594SOL    HW116415   3.927   3.120   4.810 -1.2202 -1.1141  0.6996
 1594SOL    HW216416   3.939   3.258   4.830 -0.2787 -0.6559  1.6150
 1595SOL     OW16417   2.656   0.127   4.867 -0.1576 -0.2627  0.2820
 1595SOL    HW116418   2.587   0.066   4.894 -0.6346 -0.3128 -1.0405
 1595SOL    HW216419   2.636   0.140   4.774 -2.0425  2.4893  1.0526
 1596SOL     OW16420   4.018   0.686   7.211  0.3230  0.4886  0.6203
 1596SOL    HW116421   4.027   0.603   7.258  1.3869 -0.4687 -1.2499
 1596SOL    HW216422   3.972   0.645   7.137  0.5863 -0.7033  1.1107
 1597SOL     OW16423   1.373   1.471   2.405  0.1441  0.4845 -0.1919
 1597SOL    HW116424   1.339   1.419   2.333 -2.0561 -2.1099  2.7817
 1597SOL    HW216425   1.463   1.478   2.371 -0.3244  0.7354 -1.3719
 1598SOL     OW16426   0.242   4.250   4.763 -0.0462 -0.0939 -0.3388
 1598SOL    HW116427   0.336   4.238   4.757  0.1053  1.1451 -0.2333
 1598SOL    HW216428   0.242   4.326   4.820 -1.2144 -0.3025 -0.0420
 1599SOL     OW16429   4.666   1.469   5.400 -0.2014  0.3571 -0.4171
 1599SOL    HW116430   4.667   1.470   5.495 -2.3489 -0.4775 -0.3737
 1599SOL    HW216431   4.628   1.388   5.365 -0.8184  0.6037 -0.3355
 1600SOL     OW16432   2.032   1.423   4.686 -0.3515  0.2778 -0.3195
 1600SOL    HW116433   2.063   1.337   4.656  1.7135  0.2054  2.0091
 1600SOL    HW216434   1.937   1.419   4.677 -0.5136 -3.4233  2.4542
 1601SOL     OW16435   4.576   1.021   7.952 -0.0383 -0.7031 -0.2018
 1601SOL    HW116436   4.657   0.988   7.913  0.2016 -1.0951  0.6197
 1601SOL    HW216437   4.590   1.115   7.945 -1.1349 -0.3557  2.4252
 1602SOL     OW16438   0.075   2.640   6.962 -0.1369  0.3087 -0.3028
 1602SOL    HW116439   0.052   2.679   7.046 -0.3709 -1.1698  0.3232
 1602SOL    HW216440   0.147   2.699   6.938  0.5646 -0.2304  0.4446
 1603SOL     OW16441   1.209   1.671  17.454  0.0879 -0.1940 -0.2506
 1603SOL    HW116442   1.284   1.671  17.396  0.6729  1.3285  0.4962
 1603SOL    HW216443   1.175   1.758  17.433  0.3606 -0.2854 -1.0364
 1604SOL     OW16444   2.022   0.890   8.748  0.1376 -0.6273 -0.0088
 1604SOL    HW116445   2.011   0.967   8.691  1.1772 -1.4326 -1.2953
 1604SOL    HW216446   2.054   0.822   8.689 -1.3718 -0.5282 -0.9417
 1605SOL     OW16447   3.388   1.418   0.063 -0.0007  0.3231 -0.1988
 1605SOL    HW116448   3.363   1.462   0.144 -1.4483 -0.5005 -0.2095
 1605SOL    HW216449   3.484   1.414   0.054 -0.0524  0.5800 -0.8682
 1606SOL     OW16450   2.577   3.308   0.974  0.3321 -0.6421 -0.4664
 1606SOL    HW116451   2.646   3.317   1.040 -0.7366  2.5011  0.2310
 1606SOL    HW216452   2.612   3.348   0.895 -0.1479  2.2156  0.7886
 1607SOL     OW16453   0.127   1.933   4.459  0.5333 -0.5856 -0.3822
 1607SOL    HW116454   0.139   1.938   4.364  1.4184  1.3288 -0.1676
 1607SOL    HW216455   0.153   1.842   4.476 -3.3916 -1.6976 -0.3381
 1608SOL     OW16456   2.384   3.727  15.761 -0.0016  1.2110  0.4996
 1608SOL    HW116457   2.370   3.807  15.711  2.3319  1.5246  0.3754
 1608SOL    HW216458   2.445   3.673  15.712 -1.2120 -0.0878  0.4167
 1609SOL     OW16459   0.482   0.718   3.798  0.2287 -0.2562 -0.1908
 1609SOL    HW116460   0.521   0.698   3.713 -1.9388 -1.3824 -0.9466
 1609SOL    HW216461   0.386   0.712   3.792  0.1568 -0.8156  1.3621
 1610SOL     OW16462   4.184   2.051   4.679  0.0025  0.1894 -0.2631
 1610SOL    HW116463   4.170   2.016   4.767 -3.5601  0.1660 -0.8396
 1610SOL    HW216464   4.197   1.968   4.632  0.0259  0.0654 -0.0389
 1611SOL     OW16465   2.515   4.375   3.384  0.2565  0.2883 -0.3658
 1611SOL    HW116466   2.550   4.361   3.472  0.3895  0.6769 -0.3554
 1611SOL    HW216467   2.574   4.440   3.346 -2.0861  1.9046 -1.2878
 1612SOL     OW16468   2.432   4.289   6.093  0.2588 -0.1076  0.7755
 1612SOL    HW116469   2.495   4.352   6.127 -1.7080  1.6522  1.1323
 1612SOL    HW216470   2.347   4.327   6.116 -0.2633 -1.2126  0.6926
 1613SOL     OW16471   4.626   0.909   8.969 -0.4977  0.6402 -0.0683
 1613SOL    HW116472   4.651   0.817   8.961  0.6673  0.8463  1.1032
 1613SOL    HW216473   4.631   0.933   8.877 -0.9877 -2.6224 -0.9498
 1614SOL     OW16474   3.687   2.278   5.337  0.2182 -0.2805 -0.3076
 1614SOL    HW116475   3.727   2.244   5.257  4.1561 -0.4985  1.7332
 1614SOL    HW216476   3.739   2.237   5.406 -0.2270 -0.3760 -0.0349
 1615SOL     OW16477   2.322   4.122   3.413  0.4576  0.0683 -0.0816
 1615SOL    HW116478   2.361   4.036   3.427  1.1351  0.3513 -0.2134
 1615SOL    HW216479   2.368   4.147   3.332  0.0009 -2.5681 -1.1567
 1616SOL     OW16480   4.148   3.411  16.642 -0.0705  0.4499  0.3283
 1616SOL    HW116481   4.206   3.463  16.697 -0.5920  2.8383 -1.4064
 1616SOL    HW216482   4.150   3.334  16.699  3.6207 -0.0271 -0.4133
 1617SOL     OW16483   1.006   3.426  10.362 -0.4313 -0.2869  0.0463
 1617SOL    HW116484   1.071   3.366  10.399  0.3130  0.0018 -0.7944
 1617SOL    HW216485   0.986   3.475  10.441  2.3752  1.7962 -0.5335
 1618SOL     OW16486   1.455   3.514   8.455 -0.2514  0.2151 -0.6921
 1618SOL    HW116487   1.522   3.468   8.406 -0.1400 -0.2648 -0.0860
 1618SOL    HW216488   1.385   3.464   8.413  0.5052 -0.5699 -1.0142
 1619SOL     OW16489   2.882   0.578   3.406 -0.0374  0.0875  0.0604
 1619SOL    HW116490   2.893   0.670   3.431 -0.9423 -0.5037  2.6079
 1619SOL    HW216491   2.800   0.557   3.449 -0.7065  3.3613  0.3999
 1620SOL     OW16492   0.796   1.195   2.499  0.5035  0.4702 -0.0672
 1620SOL    HW116493   0.856   1.152   2.559 -0.5041  1.4692  1.6316
 1620SOL    HW216494   0.779   1.269   2.556  2.8134  1.6343 -0.8678
 1621SOL     OW16495   3.581   2.912   3.200 -0.4354  0.3970  0.3769
 1621SOL    HW116496   3.552   2.823   3.180  0.6030  0.0479  0.4203
 1621SOL    HW216497   3.526   2.957   3.136  0.5090  1.3833  0.2561
 1622SOL     OW16498   3.897   3.188   7.139 -0.1845 -0.4633  0.2639
 1622SOL    HW116499   3.895   3.284   7.134 -0.8495 -0.4681  0.4018
 1622SOL    HW216500   3.972   3.174   7.196 -0.5863 -1.1583  0.6257
 1623SOL     OW16501   2.763   1.389   0.950  0.5188  0.1708 -0.0700
 1623SOL    HW116502   2.768   1.381   1.045 -0.0277  1.7980  0.0928
 1623SOL    HW216503   2.732   1.304   0.919 -0.8355  1.0182 -1.0394
 1624SOL     OW16504   2.556   4.612   7.600  0.1935  0.3393 -0.3930
 1624SOL    HW116505   2.596   4.613   7.687 -0.8731 -0.6210  0.1185
 1624SOL    HW216506   2.593   4.681   7.546  1.3568  0.3710  0.4452
 1625SOL     OW16507   1.597   0.674   5.683 -0.1895 -0.2277 -0.3789
 1625SOL    HW116508   1.534   0.673   5.755 -0.2819 -0.8832 -0.4609
 1625SOL    HW216509   1.653   0.606   5.721  0.6353  0.7716  0.1819
 1626SOL     OW16510   4.588   3.520  12.727  0.0732  0.0740 -0.2437
 1626SOL    HW116511   4.598   3.491  12.637 -0.2680 -1.3005  0.1659
 1626SOL    HW216512   4.633   3.450  12.774 -2.1601 -0.7421  0.6387
 1627SOL     OW16513   0.271   4.347  16.183 -0.2328  0.2616 -0.1934
 1627SOL    HW116514   0.186   4.302  16.179 -0.3388  0.7012 -2.7193
 1627SOL    HW216515   0.248   4.424  16.235 -3.8695 -2.0903  1.7272
 1628SOL     OW16516   1.337   1.337  16.924 -0.3857  0.3864 -0.3642
 1628SOL    HW116517   1.287   1.294  16.993  2.0647 -0.8622  0.6209
 1628SOL    HW216518   1.427   1.311  16.943 -0.0888  2.5815  1.3544
 1629SOL     OW16519   2.570   0.771  10.401 -0.1144 -0.2564  0.1254
 1629SOL    HW116520   2.530   0.693  10.440 -0.2255 -0.9540 -1.3714
 1629SOL    HW216521   2.621   0.803  10.475 -1.2855  0.1606  0.7536
 1630SOL     OW16522   0.232   0.745   8.179  0.2001 -0.5051  0.4152
 1630SOL    HW116523   0.165   0.786   8.232 -1.6075 -1.0009 -1.4792
 1630SOL    HW216524   0.266   0.685   8.246  0.1508  0.9210  1.7114
 1631SOL     OW16525   2.733   2.211  11.298  0.3225 -0.0032  0.8955
 1631SOL    HW116526   2.727   2.295  11.344  0.5547  0.6795 -0.3320
 1631SOL    HW216527   2.779   2.230  11.217 -1.1000 -0.4804 -0.0299
 1632SOL     OW16528   1.159   4.621   4.467 -0.5297  0.8808  0.1754
 1632SOL    HW116529   1.171   4.713   4.488 -1.2481  1.2219 -0.8570
 1632SOL    HW216530   1.189   4.608   4.377 -0.0074 -0.1423  0.4929
 1633SOL     OW16531   2.912   3.958   1.829 -0.2110 -0.4491 -0.2078
 1633SOL    HW116532   2.966   3.989   1.902  0.2435  0.7120 -1.0431
 1633SOL    HW216533   2.852   3.900   1.876 -2.9198  0.8853 -1.9836
 1634SOL     OW16534   1.586   3.471   6.444  0.0753  0.1194  0.4198
 1634SOL    HW116535   1.525   3.417   6.493 -0.8240  1.0361  0.3061
 1634SOL    HW216536   1.640   3.398   6.413 -0.6063 -0.5721  0.8697
 1635SOL     OW16537   0.995   2.549   8.311  0.4822  0.6066 -0.0466
 1635SOL    HW116538   0.916   2.545   8.365  1.0283  2.0773  0.8627
 1635SOL    HW216539   1.037   2.471   8.348 -1.6899 -0.3646  0.4123
 1636SOL     OW16540   2.330   1.159  17.114  0.3008  0.4434 -0.4459
 1636SOL    HW116541   2.246   1.120  17.135  0.2220  1.1150  0.5172
 1636SOL    HW216542   2.374   1.143  17.197 -0.6776  1.6886  0.3180
 1637SOL     OW16543   3.129   2.661  11.778 -0.5301 -0.6993 -0.8271
 1637SOL    HW116544   3.093   2.680  11.865 -2.9976  0.2169 -2.0278
 1637SOL    HW216545   3.082   2.580  11.759  0.1728 -0.8006 -2.0631
 1638SOL     OW16546   2.113   3.542  10.301 -0.0309  0.3215 -0.1044
 1638SOL    HW116547   2.120   3.556  10.396 -3.4980  0.0857  0.1783
 1638SOL    HW216548   2.202   3.566  10.272 -1.5846  3.7929 -2.0419
 1639SOL     OW16549   2.766   2.774   2.658 -0.6648  0.2215  0.0121
 1639SOL    HW116550   2.773   2.733   2.571  1.7139 -0.3692  0.4627
 1639SOL    HW216551   2.673   2.793   2.657 -0.6714  0.3088  2.1251
 1640SOL     OW16552   3.000   0.549   2.658  0.5515  0.2955  0.1869
 1640SOL    HW116553   3.056   0.525   2.584  0.6264 -0.4683  0.4965
 1640SOL    HW216554   2.964   0.464   2.682  1.3860 -0.7031 -2.0934
 1641SOL     OW16555   2.690   0.646   7.174 -0.3495 -0.0934 -0.1652
 1641SOL    HW116556   2.722   0.625   7.087 -0.6231  2.1504 -0.8195
 1641SOL    HW216557   2.641   0.726   7.155 -0.9313 -0.2338  0.7021
 1642SOL     OW16558   3.678   4.699   3.337  0.1249  0.1318  0.2829
 1642SOL    HW116559   3.584   4.690   3.317  0.5719 -1.3081 -1.1947
 1642SOL    HW216560   3.715   0.036   3.295  1.1030  0.2318  1.3384
 1643SOL     OW16561   2.578   0.177   2.597  0.1175  0.4285  0.1848
 1643SOL    HW116562   2.639   0.204   2.528  0.4471 -0.9664 -0.0688
 1643SOL    HW216563   2.546   0.100   2.550 -1.1159  0.6153  0.7196
 1644SOL     OW16564   0.686   0.431   7.071  0.4486 -0.1139 -0.0511
 1644SOL    HW116565   0.715   0.459   6.984 -0.7856 -3.8413 -1.6831
 1644SOL    HW216566   0.670   0.340   7.046  0.4300  0.0585 -0.6902
 1645SOL     OW16567   2.924   3.684   8.982 -0.5760 -0.5661 -0.5670
 1645SOL    HW116568   2.869   3.755   8.950  0.1680 -0.4365 -1.5541
 1645SOL    HW216569   2.922   3.700   9.076  2.0858  1.8349 -0.9310
 1646SOL     OW16570   2.736   2.796   1.740  0.1708  0.1410  0.0510
 1646SOL    HW116571   2.807   2.809   1.678  0.3066  1.0694  0.3914
 1646SOL    HW216572   2.768   2.839   1.819  0.0814 -0.7333  0.5609
 1647SOL     OW16573   2.061   3.114   5.092 -1.0269  0.3602  0.2500
 1647SOL    HW116574   2.139   3.147   5.048 -0.7910 -0.7112 -0.1580
 1647SOL    HW216575   2.002   3.130   5.018 -0.5997 -0.2952 -0.2392
 1648SOL     OW16576   2.711   3.207   4.339  0.0792  0.1057  0.5986
 1648SOL    HW116577   2.649   3.279   4.324 -1.6257 -1.3665  0.6503
 1648SOL    HW216578   2.678   3.128   4.297  1.5990  0.0041 -0.4106
 1649SOL     OW16579   1.767   3.992   9.691 -0.2397  0.1095  0.4586
 1649SOL    HW116580   1.794   3.958   9.606 -1.2175 -1.6031  0.8432
 1649SOL    HW216581   1.673   3.976   9.686 -0.2367  0.1730  0.2266
 1650SOL     OW16582   1.560   3.514   2.119  0.8621  0.3246  0.6015
 1650SOL    HW116583   1.473   3.478   2.133 -0.5766  3.2152 -0.9174
 1650SOL    HW216584   1.569   3.591   2.175  2.1332 -0.0451  0.9098
 1651SOL     OW16585   1.414   2.773   1.716  0.4574  0.2778 -0.4792
 1651SOL    HW116586   1.498   2.795   1.757 -0.2807 -0.9551  1.6911
 1651SOL    HW216587   1.411   2.680   1.737  0.1612  0.3957  0.0144
 1652SOL     OW16588   0.161   3.429   1.558 -0.5902  0.3613  0.2295
 1652SOL    HW116589   0.114   3.416   1.476 -1.5216  0.8627  0.6940
 1652SOL    HW216590   0.104   3.390   1.625  1.1902 -1.4973  0.6748
 1653SOL     OW16591   1.049   4.550   8.646  0.2577  0.2861 -0.2009
 1653SOL    HW116592   1.044   4.523   8.738  0.1503  0.5801 -0.1194
 1653SOL    HW216593   0.964   4.592   8.628 -1.1661 -2.2379  0.6231
 1654SOL     OW16594   1.578   3.340  15.072 -0.0187 -0.1437 -0.0183
 1654SOL    HW116595   1.620   3.422  15.099 -0.8129  0.0699  0.5831
 1654SOL    HW216596   1.646   3.276  15.089 -0.9047 -0.9479  0.4936
 1655SOL     OW16597   1.319   3.391  10.203  0.5421 -0.1138  0.0615
 1655SOL    HW116598   1.230   3.398  10.168  0.6071 -0.5255 -0.1839
 1655SOL    HW216599   1.351   3.308  10.166 -1.5424 -0.4288 -1.0478
 1656SOL     OW16600   0.506   2.751   4.536  0.4733  0.4801  0.6792
 1656SOL    HW116601   0.582   2.794   4.575  1.0346 -1.0341  1.2354
 1656SOL    HW216602   0.551   2.669   4.513 -1.9766 -0.2528 -1.6247
 1657SOL     OW16603   0.199   1.276   8.848 -0.5701  0.2386  0.0895
 1657SOL    HW116604   0.115   1.248   8.884 -0.2659 -1.9722 -0.8848
 1657SOL    HW216605   0.179   1.330   8.772  1.9472  1.1148  0.0510
 1658SOL     OW16606   2.484   2.715   9.091 -0.1108 -0.4283  0.1168
 1658SOL    HW116607   2.507   2.635   9.138  1.6738 -0.5755 -0.9826
 1658SOL    HW216608   2.406   2.693   9.040 -0.0090  1.3764 -0.8325
 1659SOL     OW16609   0.988   3.546  14.319  0.1222  0.2284  0.1685
 1659SOL    HW116610   0.893   3.549  14.302  0.0329  1.2708  0.8223
 1659SOL    HW216611   1.014   3.613  14.256 -2.8806  0.8542 -0.4079
 1660SOL     OW16612   2.387   2.696   3.163  0.8546  0.0646 -0.0650
 1660SOL    HW116613   2.463   2.688   3.221  0.3648  1.1547  0.7280
 1660SOL    HW216614   2.330   2.656   3.229  0.0204 -0.0124 -0.8398
 1661SOL     OW16615   3.801   2.998   3.637 -0.2218 -0.6186  0.0887
 1661SOL    HW116616   3.862   2.926   3.619 -0.1627 -0.7856  0.9941
 1661SOL    HW216617   3.770   3.011   3.547  1.6689  3.3644  0.0199
 1662SOL     OW16618   4.507   0.267   1.207 -0.2355  0.4039 -0.7026
 1662SOL    HW116619   4.473   0.353   1.231 -0.1594 -0.0588  1.0576
 1662SOL    HW216620   4.551   0.252   1.291 -2.3779  1.4374  0.5872
 1663SOL     OW16621   1.198   1.138   6.686 -0.1124 -0.3552 -1.0448
 1663SOL    HW116622   1.151   1.195   6.747 -0.0939 -0.4764 -0.9192
 1663SOL    HW216623   1.197   1.049   6.720  1.9223  1.0122  2.6306
 1664SOL     OW16624   0.522   2.767   7.682  0.4842  0.0639 -0.7164
 1664SOL    HW116625   0.454   2.833   7.692 -0.8717 -1.7735  2.1128
 1664SOL    HW216626   0.593   2.825   7.708 -0.0270  1.1047 -1.6297
 1665SOL     OW16627   1.594   1.158   8.213  0.1281  0.2611 -0.5018
 1665SOL    HW116628   1.517   1.162   8.156 -1.1562 -0.3615  1.2162
 1665SOL    HW216629   1.595   1.067   8.241 -1.9858  0.3133 -0.2744
 1666SOL     OW16630   3.095   0.064   5.184  0.2755  0.7531  0.8340
 1666SOL    HW116631   3.025   0.044   5.246 -1.2144 -0.5964 -1.2727
 1666SOL    HW216632   3.069   0.144   5.138  0.2846 -0.3138 -1.0189
 1667SOL     OW16633   1.908   3.852  12.611  0.3161  0.3735 -0.1741
 1667SOL    HW116634   1.875   3.941  12.608 -0.2263  0.2276  1.5666
 1667SOL    HW216635   1.973   3.853  12.541 -0.1721  1.5462 -0.6057
 1668SOL     OW16636   3.125   0.107   7.851  0.1561 -0.7040  0.2307
 1668SOL    HW116637   3.067   0.039   7.817  0.5113 -2.1127  2.4463
 1668SOL    HW216638   3.215   0.081   7.828 -0.3540 -1.8256 -0.4733
 1669SOL     OW16639   3.680   2.201   2.247 -0.0021  0.1663  0.6196
 1669SOL    HW116640   3.644   2.127   2.296 -1.7261 -0.5272 -1.6607
 1669SOL    HW216641   3.625   2.196   2.169  2.2820 -2.4347 -0.8447
 1670SOL     OW16642   1.852   1.055   8.584 -0.4135 -0.3576 -0.2633
 1670SOL    HW116643   1.884   1.145   8.598 -1.5391  0.1930 -1.2224
 1670SOL    HW216644   1.913   1.017   8.520 -1.1911  0.2404 -1.3724
 1671SOL     OW16645   3.316   4.534  11.952  0.4107 -0.9076 -0.1163
 1671SOL    HW116646   3.322   4.594  12.027 -0.7413  0.5386 -1.1721
 1671SOL    HW216647   3.221   4.545  11.944  0.3843 -1.3545 -0.4081
 1672SOL     OW16648   3.484   2.273  15.698 -0.2599  0.0892  0.3226
 1672SOL    HW116649   3.448   2.360  15.679  0.1432 -0.0490 -1.0431
 1672SOL    HW216650   3.457   2.261  15.789 -0.8318  4.4412  0.7490
 1673SOL     OW16651   0.989   0.386   8.507  0.4481  0.6443  0.7992
 1673SOL    HW116652   0.981   0.466   8.454 -0.2223  0.4986  0.6875
 1673SOL    HW216653   0.980   0.324   8.434  0.7747  2.0210 -0.4331
 1674SOL     OW16654   1.772   2.918  14.842  0.6418  0.2183  0.3691
 1674SOL    HW116655   1.718   2.994  14.864  2.8148  1.9621 -0.3432
 1674SOL    HW216656   1.701   2.864  14.810  0.3288  0.0140  1.4016
 1675SOL     OW16657   0.042   0.958   1.729 -0.3034 -0.7880 -0.3438
 1675SOL    HW116658   0.053   0.863   1.737 -3.2283 -1.2173 -1.4503
 1675SOL    HW216659   0.091   0.980   1.650 -0.7329  0.7356 -0.2010
 1676SOL     OW16660   3.388   2.319  14.403  0.6563  0.4402 -0.5361
 1676SOL    HW116661   3.407   2.278  14.319 -3.2319 -0.7974 -0.8337
 1676SOL    HW216662   3.420   2.253  14.465  0.5739 -1.6320 -2.7031
 1677SOL     OW16663   1.657   2.704   5.043  0.1068  0.4721  0.1375
 1677SOL    HW116664   1.661   2.778   5.104 -0.8209  1.4577 -0.9822
 1677SOL    HW216665   1.716   2.639   5.081  0.4375  1.1462  0.7886
 1678SOL     OW16666   1.466   2.225  10.931  0.4153 -0.5503  0.2060
 1678SOL    HW116667   1.474   2.317  10.955 -4.4888 -0.2429  0.6129
 1678SOL    HW216668   1.551   2.191  10.959  0.5139 -0.6444 -0.2064
 1679SOL     OW16669   3.399   3.629   1.637  0.2757 -0.5341  0.0294
 1679SOL    HW116670   3.462   3.594   1.573  0.3294  0.4399 -0.4513
 1679SOL    HW216671   3.343   3.679   1.577  1.8817  1.5863  0.2917
 1680SOL     OW16672   0.228   4.095   4.093  0.2350  0.6768  0.4142
 1680SOL    HW116673   0.168   4.118   4.164 -2.0528  2.1427 -2.0144
 1680SOL    HW216674   0.194   4.146   4.020  1.5168  0.8788 -0.0446
 1681SOL     OW16675   1.598   0.887   5.039  0.6927 -0.2429  0.2628
 1681SOL    HW116676   1.615   0.922   4.952 -1.0981 -0.8506 -0.3327
 1681SOL    HW216677   1.658   0.936   5.095  0.4455  0.2442  0.0978
 1682SOL     OW16678   0.434   0.744   6.180 -0.1720 -0.2614  0.0204
 1682SOL    HW116679   0.432   0.728   6.086 -0.1572  0.7643 -0.1511
 1682SOL    HW216680   0.528   0.759   6.190  0.0801 -2.5228  1.2285
 1683SOL     OW16681   3.142   2.425  16.930 -0.5250 -0.0495 -0.6217
 1683SOL    HW116682   3.153   2.516  16.902  0.6360 -0.1412 -0.4643
 1683SOL    HW216683   3.195   2.376  16.867 -0.5144 -1.0267  0.1658
 1684SOL     OW16684   1.946   4.285   4.004 -0.2785  0.0508  0.0990
 1684SOL    HW116685   1.853   4.295   3.985 -0.1770  0.1071 -0.3647
 1684SOL    HW216686   1.977   4.374   3.988 -2.7471  0.6207 -1.6055
 1685SOL     OW16687   1.684   2.853   3.237 -0.0088  0.5865 -0.0350
 1685SOL    HW116688   1.689   2.839   3.331 -0.1925  0.3060 -0.0682
 1685SOL    HW216689   1.639   2.775   3.205 -0.1172  1.6423 -2.5180
 1686SOL     OW16690   2.078   1.497   2.566 -0.9280 -0.7261  0.2276
 1686SOL    HW116691   2.077   1.541   2.481  0.3836  2.6835  1.9619
 1686SOL    HW216692   2.069   1.574   2.623 -1.2595 -0.4045 -0.2525
 1687SOL     OW16693   0.380   0.227  15.871 -0.4101 -0.5458  0.0354
 1687SOL    HW116694   0.351   0.307  15.914  1.2369  0.5669 -0.9687
 1687SOL    HW216695   0.379   0.243  15.777  1.6798 -0.1659  0.0767
 1688SOL     OW16696   4.084   3.942   8.259  0.6435  0.0158  0.3726
 1688SOL    HW116697   4.066   3.849   8.271  0.4349  0.2583  1.9069
 1688SOL    HW216698   4.160   3.934   8.202 -1.0736 -1.1904 -1.7388
 1689SOL     OW16699   2.815   1.411   3.533 -0.6850 -0.7494 -0.2480
 1689SOL    HW116700   2.804   1.401   3.627 -3.1932 -0.3405 -0.5006
 1689SOL    HW216701   2.910   1.399   3.530 -0.4022  1.5423 -0.5311
 1690SOL     OW16702   2.230   2.146   2.549 -0.1629  0.4481 -0.0980
 1690SOL    HW116703   2.266   2.141   2.461  2.3403  1.5003  0.8932
 1690SOL    HW216704   2.235   2.237   2.577 -0.2934  0.8507 -1.3981
 1691SOL     OW16705   3.969   2.417   5.636  0.3651  0.3798 -0.5591
 1691SOL    HW116706   3.958   2.455   5.549  0.6634 -0.6537 -1.0459
 1691SOL    HW216707   3.887   2.447   5.676 -0.3006 -1.3074 -0.6243
 1692SOL     OW16708   0.806   1.116   5.832  0.3308 -0.6737  0.0325
 1692SOL    HW116709   0.747   1.155   5.767  0.7853 -1.2496 -0.7343
 1692SOL    HW216710   0.884   1.169   5.814 -0.2674 -0.3311 -1.5440
 1693SOL     OW16711   1.579   2.197  10.511 -0.0148 -0.1646  0.0027
 1693SOL    HW116712   1.557   2.246  10.432 -0.8152 -0.7046 -0.1144
 1693SOL    HW216713   1.531   2.115  10.499 -1.6302  1.1179 -2.3205
 1694SOL     OW16714   1.152   0.714   3.914 -0.5421  0.0166  0.0773
 1694SOL    HW116715   1.124   0.737   3.826 -0.4237 -0.4302 -0.0768
 1694SOL    HW216716   1.109   0.781   3.967  1.3433  2.1208 -1.1114
 1695SOL     OW16717   4.169   2.862  17.534  0.0226 -0.2248  0.2506
 1695SOL    HW116718   4.259   2.854  17.564 -0.7186 -1.7181  2.1373
 1695SOL    HW216719   4.120   2.901  17.607 -0.4732  0.4073 -0.4234
 1696SOL     OW16720   0.777   1.173  11.997  0.1827  0.2737 -0.1253
 1696SOL    HW116721   0.752   1.087  11.965 -0.8229  0.2533  0.7467
 1696SOL    HW216722   0.861   1.150  12.038  0.3055  0.5535 -0.2184
 1697SOL     OW16723   3.116   1.538   3.086 -0.3561 -0.2931 -1.0343
 1697SOL    HW116724   3.131   1.589   3.007 -2.1542  4.0998  1.4567
 1697SOL    HW216725   3.126   1.449   3.052 -0.5733 -0.2373 -1.2435
 1698SOL     OW16726   1.880   3.207   8.507 -0.1451  0.1417  0.2291
 1698SOL    HW116727   1.815   3.276   8.519  1.1579  0.7540  3.5428
 1698SOL    HW216728   1.844   3.157   8.433  1.6015 -1.3298  0.3691
 1699SOL     OW16729   4.724   1.973   0.314  0.1785 -0.1005  0.1634
 1699SOL    HW116730   4.736   2.064   0.286  1.1828  0.3294  2.0131
 1699SOL    HW216731   4.632   1.963   0.288 -0.2283  3.0384  0.4450
 1700SOL     OW16732   1.738   0.940   4.539 -0.2959  0.4969  0.3512
 1700SOL    HW116733   1.792   0.885   4.483 -0.3785 -0.5629  1.3196
 1700SOL    HW216734   1.673   0.959   4.471 -1.0619  1.3648  1.3307
 1701SOL     OW16735   0.693   3.977  12.128 -0.1536 -0.1954 -0.2460
 1701SOL    HW116736   0.743   4.043  12.079  0.2323 -0.2036  0.1442
 1701SOL    HW216737   0.690   3.896  12.078 -0.2022 -1.1007  1.2336
 1702SOL     OW16738   1.536   1.508   8.446  0.1309  0.0932 -0.3760
 1702SOL    HW116739   1.601   1.438   8.438 -0.6141 -0.9041  2.3739
 1702SOL    HW216740   1.590   1.577   8.483  1.0507 -1.6180  1.4717
 1703SOL     OW16741   2.180   1.216   4.910 -0.0103 -0.0954 -0.2242
 1703SOL    HW116742   2.154   1.299   4.950 -2.1253  0.0955 -1.9737
 1703SOL    HW216743   2.269   1.196   4.940 -0.2145  1.9331  1.7060
 1704SOL     OW16744   4.014   1.704   7.558  0.6230 -0.3387 -0.3394
 1704SOL    HW116745   3.920   1.720   7.572  0.3679 -1.9124 -0.2215
 1704SOL    HW216746   4.015   1.632   7.495  0.2482  0.0771 -0.8238
 1705SOL     OW16747   3.315   1.871   5.737  0.2601  0.0051  0.6986
 1705SOL    HW116748   3.301   1.964   5.756  0.1084  0.2405 -0.6227
 1705SOL    HW216749   3.233   1.845   5.695  1.2127 -0.8656 -0.6232
 1706SOL     OW16750   3.961   3.127   2.704  0.5575  0.6052  0.2554
 1706SOL    HW116751   3.877   3.110   2.661  0.3259  1.0915  0.5281
 1706SOL    HW216752   4.011   3.061   2.654  2.6496  1.3681  1.3312
 1707SOL     OW16753   3.877   0.318  16.662  0.0397  0.3700  0.6068
 1707SOL    HW116754   3.784   0.332  16.678  0.1398  0.5712  0.9875
 1707SOL    HW216755   3.870   0.225  16.639  0.7973  0.6063 -0.5769
 1708SOL     OW16756   2.149   1.167   1.547  0.2683  0.4053 -0.1741
 1708SOL    HW116757   2.220   1.159   1.610 -1.5859 -1.4345  1.6770
 1708SOL    HW216758   2.146   1.080   1.506 -2.3619  0.0744  0.7512
 1709SOL     OW16759   2.624   2.083  10.269  0.4694  0.1938  0.4996
 1709SOL    HW116760   2.600   2.168  10.232 -0.6034 -0.5137 -0.4256
 1709SOL    HW216761   2.668   2.108  10.350 -1.2167  2.5746  0.7055
 1710SOL     OW16762   4.331   3.382   4.583  0.0613  0.5840  0.8537
 1710SOL    HW116763   4.312   3.323   4.510 -0.2518 -0.0938  1.4846
 1710SOL    HW216764   4.246   3.387   4.626  0.2066 -0.8490  1.3198
 1711SOL     OW16765   3.571   1.206   1.024 -0.3367  0.4532  0.3005
 1711SOL    HW116766   3.482   1.218   1.057 -0.5206  0.8509 -0.3409
 1711SOL    HW216767   3.571   1.110   1.024 -0.6117  0.4605 -1.5877
 1712SOL     OW16768   2.223   1.435   5.494  0.7132 -0.3581  0.3921
 1712SOL    HW116769   2.219   1.393   5.408 -1.7816 -1.5083  1.0699
 1712SOL    HW216770   2.196   1.524   5.467 -0.6630 -1.1431 -0.8616
 1713SOL     OW16771   0.744   2.699  17.311 -0.0948 -0.1766  0.8325
 1713SOL    HW116772   0.674   2.666  17.255  2.0073  0.2068 -2.0368
 1713SOL    HW216773   0.778   2.771  17.257 -1.2227 -1.2787 -1.3326
 1714SOL     OW16774   1.527   0.492   0.584  0.1000  0.5464 -0.6782
 1714SOL    HW116775   1.565   0.580   0.591  2.2617 -0.5713  1.7501
 1714SOL    HW216776   1.435   0.505   0.607 -0.1193 -0.2024 -1.1482
 1715SOL     OW16777   1.640   1.022  13.277 -0.4243 -0.4636 -0.2693
 1715SOL    HW116778   1.692   1.043  13.200 -0.4342  0.3121 -0.0683
 1715SOL    HW216779   1.697   0.953  13.309 -0.2329  0.5351  1.5621
 1716SOL     OW16780   4.644   3.993   7.990 -0.1961 -0.2268  0.3220
 1716SOL    HW116781   4.720   4.046   7.965 -0.4277 -0.3337 -0.6142
 1716SOL    HW216782   4.635   4.008   8.084  0.4409  0.2935  0.3003
 1717SOL     OW16783   0.114   3.809   9.279  0.3324 -0.1455 -0.2743
 1717SOL    HW116784   0.093   3.869   9.350 -0.6845 -0.9351  0.0765
 1717SOL    HW216785   0.205   3.790   9.301  0.8418  0.7287 -1.6096
 1718SOL     OW16786   4.178   2.831   3.097  0.5267 -0.0055 -0.6475
 1718SOL    HW116787   4.118   2.892   3.053 -1.7715 -1.4656  0.4532
 1718SOL    HW216788   4.232   2.898   3.139 -1.0264  1.6534 -1.2856
 1719SOL     OW16789   0.753   3.506  11.775 -0.2644  0.2411 -0.0474
 1719SOL    HW116790   0.792   3.559  11.705  0.5469 -1.4587 -0.8769
 1719SOL    HW216791   0.834   3.470  11.811  0.1341  0.9390 -0.2328
 1720SOL     OW16792   1.679   1.930   0.776 -0.5379  0.1887  0.9798
 1720SOL    HW116793   1.730   1.998   0.733 -1.5662 -0.5636 -1.4046
 1720SOL    HW216794   1.729   1.857   0.739  0.2453  1.1728  0.0916
 1721SOL     OW16795   3.590   4.190  14.862 -0.3419 -0.5234  0.0814
 1721SOL    HW116796   3.657   4.193  14.931 -0.7057  1.4691  0.3453
 1721SOL    HW216797   3.654   4.203  14.792 -0.3352  0.4056  0.2668
 1722SOL     OW16798   1.712   4.237  14.401 -1.1709 -0.5501  0.0976
 1722SOL    HW116799   1.719   4.157  14.350  2.0524  1.1134 -2.0972
 1722SOL    HW216800   1.724   4.197  14.488 -0.8397 -0.3624  0.1405
 1723SOL     OW16801   3.594   0.333   1.116 -0.3361 -0.3337  0.5294
 1723SOL    HW116802   3.534   0.315   1.188  0.4465  1.4449  1.6094
 1723SOL    HW216803   3.536   0.347   1.041 -0.3895  0.3452  0.6986
 1724SOL     OW16804   0.865   2.148   2.935 -0.0501  0.8768 -0.3579
 1724SOL    HW116805   0.879   2.141   2.840  0.3483  0.6130 -0.2804
 1724SOL    HW216806   0.952   2.181   2.957 -0.7121  1.2886  1.5832
 1725SOL     OW16807   1.533   1.175   0.462 -0.8088  0.1510 -0.6373
 1725SOL    HW116808   1.439   1.187   0.474 -0.5437  0.2239  1.3099
 1725SOL    HW216809   1.544   1.091   0.505 -0.7493 -1.3673 -3.6348
 1726SOL     OW16810   4.358   1.810  13.876  0.3387  0.2489 -0.8922
 1726SOL    HW116811   4.328   1.807  13.785  0.8663 -0.1974 -1.0511
 1726SOL    HW216812   4.301   1.883  13.904 -0.0182 -0.3045 -0.1945
 1727SOL     OW16813   3.137   2.892  10.574  0.2822 -0.0644 -0.1721
 1727SOL    HW116814   3.049   2.865  10.551 -0.3010  0.3259  1.6296
 1727SOL    HW216815   3.110   2.937  10.654 -2.0294 -1.4069 -0.2244
 1728SOL     OW16816   1.525   1.268   0.170 -0.6024 -0.2727  0.1625
 1728SOL    HW116817   1.563   1.204   0.230  1.7499  1.9780  1.0963
 1728SOL    HW216818   1.508   1.350   0.216 -2.9524 -0.0665 -1.0692
 1729SOL     OW16819   1.950   4.561   8.073 -0.5231  0.4097 -0.2418
 1729SOL    HW116820   1.950   4.594   8.162  1.0288  0.2930 -0.2007
 1729SOL    HW216821   2.027   4.504   8.067 -2.0864 -1.6571 -0.5981
 1730SOL     OW16822   4.609   0.995   7.314  0.3841 -0.1605 -0.0136
 1730SOL    HW116823   4.564   1.072   7.281 -0.0393 -0.8610 -1.0945
 1730SOL    HW216824   4.534   0.947   7.350  0.7313 -1.4896 -1.0413
 1731SOL     OW16825   1.862   0.077  13.164 -0.0958 -0.3180 -0.2571
 1731SOL    HW116826   1.842   4.725  13.150 -0.3565  0.0720 -2.5207
 1731SOL    HW216827   1.787   0.104  13.217  0.5925  2.2239 -0.5807
 1732SOL     OW16828   3.775   4.649  17.678  0.1490 -0.1356  0.3262
 1732SOL    HW116829   3.805   4.725  17.727  1.2514 -0.2749 -0.1211
 1732SOL    HW216830   3.704   4.700  17.640  1.9024  0.8662 -1.6647
 1733SOL     OW16831   1.373   3.027   7.570  0.1295 -0.1326  0.1186
 1733SOL    HW116832   1.457   2.981   7.566  1.2386  2.0672 -1.8153
 1733SOL    HW216833   1.378   3.077   7.489  2.3586 -0.1945  0.2184
 1734SOL     OW16834   3.462   0.257  17.390  0.0896 -0.5100 -0.4142
 1734SOL    HW116835   3.494   0.179  17.436  1.3562 -0.7991 -1.7696
 1734SOL    HW216836   3.547   0.290  17.359  0.4243 -0.7878  0.1980
 1735SOL     OW16837   4.458   3.633   7.512 -0.3490 -0.7310  0.0563
 1735SOL    HW116838   4.458   3.540   7.536  2.2848 -1.1612 -1.5787
 1735SOL    HW216839   4.504   3.668   7.588  1.2964  0.7887 -1.6555
 1736SOL     OW16840   2.251   2.665   8.999  0.0206  0.3606  0.0185
 1736SOL    HW116841   2.188   2.712   8.944 -1.7630 -1.9227  0.1015
 1736SOL    HW216842   2.187   2.616   9.050  1.3419 -0.7037  0.6560
 1737SOL     OW16843   3.303   1.888   7.347  0.3675  0.7262 -0.1187
 1737SOL    HW116844   3.374   1.877   7.410 -0.0784  1.0339  0.4269
 1737SOL    HW216845   3.357   1.904   7.269  0.4036  0.7456 -0.0895
 1738SOL     OW16846   1.035   3.528   6.353  0.6783  0.5202 -0.0309
 1738SOL    HW116847   0.990   3.468   6.412  0.2594  0.1147 -0.7546
 1738SOL    HW216848   0.970   3.579   6.304 -0.3627 -0.8669 -0.1022
 1739SOL     OW16849   3.179   4.139   3.129  0.7386 -0.4813  0.2910
 1739SOL    HW116850   3.242   4.099   3.189 -0.2547 -0.9909  0.9946
 1739SOL    HW216851   3.215   4.226   3.114  1.8528 -1.0584 -0.3955
 1740SOL     OW16852   4.103   0.212   4.060  0.1584  0.4011  0.1352
 1740SOL    HW116853   4.061   0.290   4.022  1.0568  0.4621 -0.7317
 1740SOL    HW216854   4.130   0.164   3.982 -1.3465 -2.4358  1.3771
 1741SOL     OW16855   1.787   4.421   4.822  0.6865  0.0134  0.2271
 1741SOL    HW116856   1.693   4.436   4.828  0.4626 -0.7895 -1.3863
 1741SOL    HW216857   1.788   4.378   4.736  0.0122 -2.1106  1.3048
 1742SOL     OW16858   3.263   1.360   0.366  0.1699 -0.2177  0.5803
 1742SOL    HW116859   3.169   1.357   0.352  0.4570 -0.9334 -1.1393
 1742SOL    HW216860   3.275   1.455   0.378 -1.7270 -0.1565  1.9199
 1743SOL     OW16861   1.553   4.068   3.498  0.3773 -0.3192  0.3165
 1743SOL    HW116862   1.531   4.048   3.407  0.7115 -0.0104  0.1685
 1743SOL    HW216863   1.648   4.065   3.508  0.3568  3.1346  1.3798
 1744SOL     OW16864   3.706   0.192   2.299 -0.7604 -0.1403 -0.0989
 1744SOL    HW116865   3.786   0.205   2.248 -1.2182 -1.7915 -1.2350
 1744SOL    HW216866   3.739   0.139   2.372 -1.2281 -0.2090  0.0597
 1745SOL     OW16867   2.424   1.601  13.803  0.6058 -0.6794 -0.1461
 1745SOL    HW116868   2.515   1.608  13.772  1.2306 -0.2114  1.7316
 1745SOL    HW216869   2.382   1.568  13.724  0.7559 -0.7879 -0.1808
 1746SOL     OW16870   1.542   3.079  14.908  0.2721  0.3230 -0.2519
 1746SOL    HW116871   1.449   3.060  14.925  0.8674 -3.3730 -1.1351
 1746SOL    HW216872   1.544   3.175  14.904  0.9579  0.3979  2.1737
 1747SOL     OW16873   0.853   2.866   5.976 -0.3631 -0.0797 -0.4673
 1747SOL    HW116874   0.942   2.832   5.968 -0.0956  0.3431  0.6630
 1747SOL    HW216875   0.846   2.860   6.072 -1.3959 -1.1030 -0.6004
 1748SOL     OW16876   0.506   4.006   5.285 -0.4802  0.5599 -0.4634
 1748SOL    HW116877   0.506   3.935   5.349  0.2787  1.0042  0.0330
 1748SOL    HW216878   0.464   4.081   5.327 -0.5235  1.2366 -1.6896
 1749SOL     OW16879   0.195   3.035  15.002 -0.4131  0.5632  0.0827
 1749SOL    HW116880   0.265   3.046  14.938  0.3809 -0.5934  0.7430
 1749SOL    HW216881   0.116   3.062  14.956  0.0181 -1.7043 -1.9978
 1750SOL     OW16882   4.382   4.432  13.027 -0.0571 -0.1168 -0.7324
 1750SOL    HW116883   4.398   4.497  13.096 -0.3028 -1.8829  0.9909
 1750SOL    HW216884   4.342   4.356  13.069 -1.1521  1.0264  0.3464
 1751SOL     OW16885   3.873   1.601   1.788  0.5397 -0.3290  0.2512
 1751SOL    HW116886   3.936   1.535   1.758 -0.2460  0.3736 -2.9810
 1751SOL    HW216887   3.933   1.676   1.796  1.5990 -1.2232  0.6521
 1752SOL     OW16888   2.613   1.824   7.750 -0.9018  0.9308 -0.3801
 1752SOL    HW116889   2.673   1.784   7.688 -0.2071 -0.5404  1.2311
 1752SOL    HW216890   2.669   1.824   7.828 -1.8498 -2.3302  0.3176
 1753SOL     OW16891   3.372   2.534   7.037  0.2022 -0.1156  0.0558
 1753SOL    HW116892   3.307   2.464   7.048  0.9239 -0.2938  3.0211
 1753SOL    HW216893   3.326   2.606   7.079 -1.5636 -1.2046 -0.0003
 1754SOL     OW16894   0.912   1.775   8.900 -0.0158  0.2436 -0.4334
 1754SOL    HW116895   0.870   1.732   8.974 -1.5698  2.0871 -0.2605
 1754SOL    HW216896   0.891   1.717   8.826  1.8939  1.6087 -2.0396
 1755SOL     OW16897   4.019   3.487   0.914 -0.1720  0.3744  0.1487
 1755SOL    HW116898   4.036   3.404   0.958 -0.1843  0.6681  0.7083
 1755SOL    HW216899   3.931   3.505   0.949  0.9427  1.6716  2.2487
 1756SOL     OW16900   3.079   1.659   2.513 -0.7256 -0.3796  0.1617
 1756SOL    HW116901   3.143   1.634   2.447  0.4995  4.9928 -0.6333
 1756SOL    HW216902   3.113   1.612   2.590 -0.8850 -3.3107 -1.5576
 1757SOL     OW16903   2.937   1.136   4.717  0.3846 -0.1982  0.5518
 1757SOL    HW116904   2.979   1.208   4.671  0.4441 -0.0007  0.9171
 1757SOL    HW216905   2.980   1.058   4.681 -0.7920  0.8197 -2.9816
 1758SOL     OW16906   1.766   3.304  16.221 -0.0520  0.2322  0.1566
 1758SOL    HW116907   1.788   3.211  16.223  1.0144  0.4856  0.2140
 1758SOL    HW216908   1.848   3.332  16.261  0.8656 -2.4039  0.0898
 1759SOL     OW16909   0.495   3.424   5.445 -0.0715  0.1516 -0.7194
 1759SOL    HW116910   0.408   3.391   5.464 -0.8078  1.9181 -1.0249
 1759SOL    HW216911   0.546   3.366   5.388  1.6208  0.2127  0.7225
 1760SOL     OW16912   4.115   3.717   1.661 -0.5673 -0.0864 -0.6677
 1760SOL    HW116913   4.081   3.794   1.706 -2.6005 -2.8251  2.5664
 1760SOL    HW216914   4.058   3.643   1.682 -1.7140  1.2784  1.0795
 1761SOL     OW16915   2.715   3.817   1.982  0.0875 -0.0275  0.2316
 1761SOL    HW116916   2.665   3.783   1.908  0.9847 -3.6007  1.2676
 1761SOL    HW216917   2.695   3.758   2.055  1.8766  1.5289  1.9711
 1762SOL     OW16918   0.633   3.433  15.824  0.2377 -0.4638  0.0806
 1762SOL    HW116919   0.633   3.483  15.906 -0.4319 -0.0293 -0.1824
 1762SOL    HW216920   0.641   3.343  15.856  1.5158 -0.6168 -0.6935
 1763SOL     OW16921   3.844   4.171  15.943  0.0855  0.3839 -0.7622
 1763SOL    HW116922   3.761   4.156  15.989 -0.4980 -0.7126 -2.1754
 1763SOL    HW216923   3.844   4.099  15.880 -0.1342  0.7435 -1.1750
 1764SOL     OW16924   3.261   0.264  10.785 -0.2571  0.3610 -0.0515
 1764SOL    HW116925   3.351   0.258  10.818  0.7213 -1.9493 -3.0797
 1764SOL    HW216926   3.211   0.285  10.863  0.1480  2.1461 -0.2753
 1765SOL     OW16927   0.559   3.085   6.609 -0.2758  0.0922 -0.2855
 1765SOL    HW116928   0.491   3.095   6.543 -1.4685 -0.8649  0.7951
 1765SOL    HW216929   0.627   3.041   6.558 -1.5749 -0.3933 -1.5693
 1766SOL     OW16930   2.422   3.207   8.368 -0.5778  0.4665 -0.0032
 1766SOL    HW116931   2.513   3.232   8.381 -0.1351 -0.4918 -1.3565
 1766SOL    HW216932   2.377   3.291   8.363 -0.5376  0.5807  1.3486
 1767SOL     OW16933   1.764   3.968   8.757  0.0442  0.1472 -0.5392
 1767SOL    HW116934   1.844   4.019   8.741 -0.4234  0.8188 -0.7080
 1767SOL    HW216935   1.796   3.913   8.829 -0.6985 -0.1815 -0.4666
 1768SOL     OW16936   1.036   4.691  10.800 -0.6513 -0.0092 -0.0941
 1768SOL    HW116937   0.999   4.632  10.735  0.0752 -1.2296  0.6159
 1768SOL    HW216938   1.070   0.026  10.750 -0.7341  0.7808  1.0507
 1769SOL     OW16939   4.140   3.096  17.385  0.6290 -0.0712  0.2905
 1769SOL    HW116940   4.046   3.079  17.391  0.2408  1.1871 -2.2009
 1769SOL    HW216941   4.170   3.023  17.439 -1.2183  0.4602  2.0607
 1770SOL     OW16942   0.803   3.279   9.710  0.4798  0.2256  0.2833
 1770SOL    HW116943   0.744   3.227   9.764 -0.6624  1.8423  0.6045
 1770SOL    HW216944   0.885   3.260   9.756 -0.0310 -0.5919  0.8464
 1771SOL     OW16945   4.509   3.257  13.564  0.0851  0.0935 -0.8447
 1771SOL    HW116946   4.510   3.191  13.494  2.9580 -1.5459  0.7709
 1771SOL    HW216947   4.484   3.197  13.634  0.8216 -0.4846 -1.0775
 1772SOL     OW16948   1.170   1.625   4.065 -0.2246  0.8687  0.0595
 1772SOL    HW116949   1.234   1.571   4.019 -0.9536 -1.6968  2.0381
 1772SOL    HW216950   1.089   1.596   4.023 -0.7148  0.4522  1.2983
 1773SOL     OW16951   3.715   2.786   6.688  0.3115 -0.0269 -0.4763
 1773SOL    HW116952   3.713   2.880   6.673 -0.6324 -0.1007 -0.8174
 1773SOL    HW216953   3.786   2.750   6.634  0.7801  0.3300 -0.0902
 1774SOL     OW16954   1.358   1.764  17.687 -0.3170  0.1764 -0.2663
 1774SOL    HW116955   1.281   1.728  17.643 -0.1547 -1.0382  0.4570
 1774SOL    HW216956   1.432   1.718  17.648 -0.5571 -0.7653  0.4002
 1775SOL     OW16957   3.449   1.974  15.749 -0.5611  0.1503 -0.0213
 1775SOL    HW116958   3.476   1.950  15.661 -1.0520  0.7677 -0.3397
 1775SOL    HW216959   3.459   2.069  15.742 -0.3326  0.0443 -1.1046
 1776SOL     OW16960   3.536   3.943   6.103 -1.0460 -0.2668  0.3359
 1776SOL    HW116961   3.517   3.955   6.196  0.9189 -1.5246  0.9047
 1776SOL    HW216962   3.470   3.878   6.077  0.2997 -2.0153  1.2712
 1777SOL     OW16963   3.921   1.916  11.441  0.3600  0.8049 -0.0283
 1777SOL    HW116964   3.829   1.917  11.418  0.5386  2.5401 -0.7090
 1777SOL    HW216965   3.942   2.002  11.403 -0.4517 -0.1564 -2.6377
 1778SOL     OW16966   2.094   3.481   7.302 -0.0263 -0.0862  0.5293
 1778SOL    HW116967   2.182   3.473   7.265 -0.0713  1.8334 -0.0330
 1778SOL    HW216968   2.042   3.445   7.230  0.0329 -0.4497  0.6695
 1779SOL     OW16969   2.927   2.822   4.451 -0.8676 -0.1008  0.3763
 1779SOL    HW116970   2.859   2.783   4.396  0.6903 -1.3476 -0.6682
 1779SOL    HW216971   3.000   2.789   4.398 -2.4680 -0.9347 -1.3045
 1780SOL     OW16972   4.579   4.308   3.104 -0.3596 -0.1545 -0.1262
 1780SOL    HW116973   4.626   4.306   3.187 -0.7046 -2.5117  0.0283
 1780SOL    HW216974   4.507   4.250   3.127 -0.5104  0.2578  0.4214
 1781SOL     OW16975   1.646   2.903   2.530  0.0138 -0.0922 -0.1524
 1781SOL    HW116976   1.690   2.888   2.446  0.7809 -2.8624  0.7256
 1781SOL    HW216977   1.710   2.909   2.601 -0.2962  1.2643  0.0011
 1782SOL     OW16978   3.105   4.104   3.839 -0.3932  0.3111  0.5565
 1782SOL    HW116979   3.085   4.095   3.932 -1.4655 -0.7570  0.2234
 1782SOL    HW216980   3.094   4.199   3.830 -2.0506 -0.0404 -1.1150
 1783SOL     OW16981   4.393   0.633   1.940  0.0877 -0.3426  0.1306
 1783SOL    HW116982   4.328   0.608   2.006 -1.1769 -2.6038 -1.9435
 1783SOL    HW216983   4.452   0.681   1.998  2.1265  0.3288 -2.5257
 1784SOL     OW16984   4.703   0.866   6.996  0.0467  0.6879  0.4031
 1784SOL    HW116985   4.692   0.783   6.949 -1.5879  0.8333  0.5465
 1784SOL    HW216986   4.615   0.896   7.019  0.8644  2.6759  0.9447
 1785SOL     OW16987   1.479   0.431   6.190  0.1320 -0.3875  0.3301
 1785SOL    HW116988   1.428   0.350   6.195 -2.2358  1.0642 -0.8288
 1785SOL    HW216989   1.417   0.480   6.136 -0.7052 -2.3009 -0.4451
 1786SOL     OW16990   1.581   1.877  12.993  0.4374  0.4782 -0.0850
 1786SOL    HW116991   1.544   1.801  12.947  0.8699  0.1628  0.0910
 1786SOL    HW216992   1.592   1.943  12.924 -0.7146  1.8613  1.0617
 1787SOL     OW16993   2.680   0.596   3.681 -0.3657  0.3051 -0.3793
 1787SOL    HW116994   2.627   0.578   3.604 -0.1823 -0.2984 -0.3677
 1787SOL    HW216995   2.629   0.543   3.742  0.6012  0.4428  0.5575
 1788SOL     OW16996   1.954   2.463   6.671 -0.1152  0.1908 -0.4291
 1788SOL    HW116997   1.896   2.524   6.624 -2.2243 -0.5588  1.2085
 1788SOL    HW216998   1.964   2.390   6.609 -1.1429  0.8228 -1.3569
 1789SOL     OW16999   1.719   3.680   6.534 -0.3064  0.1667 -0.2947
 1789SOL    HW117000   1.645   3.624   6.510 -2.1685  1.6392  1.9076
 1789SOL    HW217001   1.786   3.666   6.468 -0.4665  0.4560 -0.5199
 1790SOL     OW17002   3.820   4.715   6.694 -0.2740 -0.0899 -0.2676
 1790SOL    HW117003   3.906   4.738   6.727 -0.2722  1.4333 -1.3595
 1790SOL    HW217004   3.842   4.732   6.603  1.6478 -2.3182 -0.2188
 1791SOL     OW17005   2.736   3.509  11.961  0.4745 -0.3831  0.0574
 1791SOL    HW117006   2.678   3.536  11.889 -0.9729  2.6599  2.3201
 1791SOL    HW217007   2.691   3.429  11.988  0.7403  0.1665  2.1289
 1792SOL     OW17008   0.124   3.605   6.300 -0.3174 -0.5205  0.9134
 1792SOL    HW117009   0.070   3.563   6.233  1.7005 -0.1814 -0.9274
 1792SOL    HW217010   0.215   3.615   6.271 -0.3540  0.6906  1.2247
 1793SOL     OW17011   0.473   0.391   4.097  0.8426 -0.0678  0.2257
 1793SOL    HW117012   0.547   0.347   4.056  1.7713  1.2659  0.4820
 1793SOL    HW217013   0.511   0.432   4.174  0.5076  0.1832  0.2554
 1794SOL     OW17014   0.903   2.496   7.666 -0.5875  0.6622 -0.5472
 1794SOL    HW117015   0.860   2.505   7.751 -0.3255 -1.8908 -0.1369
 1794SOL    HW217016   0.993   2.517   7.693 -0.5547 -0.2876  0.0981
 1795SOL     OW17017   1.044   3.670   2.655 -0.4187 -0.0534  0.1006
 1795SOL    HW117018   1.104   3.674   2.581 -0.3184  0.2998  0.1984
 1795SOL    HW217019   1.060   3.580   2.681  0.3147 -0.3429 -1.3457
 1796SOL     OW17020   4.478   0.186  11.786  0.3043  0.0163  0.0949
 1796SOL    HW117021   4.484   0.093  11.804  1.8555  0.4989  2.0105
 1796SOL    HW217022   4.384   0.196  11.801  0.3640  0.5295  0.1537
 1797SOL     OW17023   1.303   2.773   8.686  0.3819  0.3524  0.0016
 1797SOL    HW117024   1.213   2.805   8.690  0.6157  1.0785 -0.5437
 1797SOL    HW217025   1.311   2.715   8.762  0.4876  0.6097  0.1869
 1798SOL     OW17026   2.491   4.151   2.576 -0.0250  0.0738 -0.6250
 1798SOL    HW117027   2.441   4.088   2.628 -2.1093  1.9155 -0.3787
 1798SOL    HW217028   2.500   4.098   2.497  4.2333 -0.8561  0.4900
 1799SOL     OW17029   4.207   2.101   3.171 -0.0442  0.5025  0.3518
 1799SOL    HW117030   4.196   2.120   3.078 -0.0477 -0.9387  0.0426
 1799SOL    HW217031   4.193   2.006   3.173  1.4351  0.2753  0.3719
 1800SOL     OW17032   2.686   1.380  16.529  0.5364  0.3502  0.2184
 1800SOL    HW117033   2.687   1.323  16.606 -0.5765  1.4757  1.0608
 1800SOL    HW217034   2.740   1.450  16.566  0.6234  1.0216 -1.1662
 1801SOL     OW17035   4.087   0.240   4.665 -0.3157 -0.0234  0.3551
 1801SOL    HW117036   4.178   0.250   4.694  0.6928 -2.1733 -2.0704
 1801SOL    HW217037   4.051   0.328   4.669 -0.0541  0.1813 -1.6989
 1802SOL     OW17038   0.926   0.631   6.654  0.1635  0.0693 -0.1068
 1802SOL    HW117039   0.858   0.593   6.710 -1.5189  1.6703 -1.0444
 1802SOL    HW217040   0.917   0.571   6.581  0.6996  0.2928 -0.3564
 1803SOL     OW17041   2.780   2.063   4.746  0.4432  0.0164  0.2081
 1803SOL    HW117042   2.761   2.086   4.837 -2.0190  0.3211 -0.4088
 1803SOL    HW217043   2.853   2.003   4.763 -0.1248 -1.0056 -1.0270
 1804SOL     OW17044   1.362   1.599   6.353  0.5308 -0.3203  0.2476
 1804SOL    HW117045   1.373   1.506   6.332 -0.7280 -0.4731  0.2552
 1804SOL    HW217046   1.409   1.588   6.435  0.7637 -0.5500  0.0832
 1805SOL     OW17047   0.242   4.667  12.224 -0.0665 -0.0621  0.4789
 1805SOL    HW117048   0.318   4.617  12.192 -0.4326 -0.3867  0.1248
 1805SOL    HW217049   0.290   0.004  12.254  1.2587 -1.1461  1.2096
 1806SOL     OW17050   1.758   3.029  13.095  0.3069  0.2899 -0.6229
 1806SOL    HW117051   1.676   3.026  13.144 -0.5903  0.6169 -2.1246
 1806SOL    HW217052   1.795   2.944  13.120  1.3165  0.5058 -1.3818
 1807SOL     OW17053   2.067   2.221   6.581  0.4740  0.6822 -0.0692
 1807SOL    HW117054   2.142   2.162   6.577 -0.6045 -0.7309  0.6429
 1807SOL    HW217055   2.044   2.201   6.672 -0.8071 -1.2569 -0.8018
 1808SOL     OW17056   2.216   1.003   5.506  0.2588  0.2746  0.3757
 1808SOL    HW117057   2.200   1.030   5.597 -0.0402  1.8633 -0.1398
 1808SOL    HW217058   2.311   1.016   5.508  0.0204  2.2295 -0.4284
 1809SOL     OW17059   1.817   3.781   4.446 -0.2137  0.5524 -0.6557
 1809SOL    HW117060   1.873   3.710   4.477  2.0098  2.3239 -0.5756
 1809SOL    HW217061   1.817   3.772   4.351 -0.7766 -1.3126 -0.4652
 1810SOL     OW17062   0.102   0.019   3.171  0.0147  0.2081 -0.0101
 1810SOL    HW117063   0.050   0.078   3.116  0.8414 -0.0739 -1.0912
 1810SOL    HW217064   0.129   4.698   3.102  0.3420 -0.3183  0.5845
 1811SOL     OW17065   3.790   0.492  14.763 -0.9093 -0.5255 -0.2996
 1811SOL    HW117066   3.773   0.425  14.829  0.2772  0.7233  1.2748
 1811SOL    HW217067   3.744   0.568  14.799  1.0985 -0.0212  1.1515
 1812SOL     OW17068   2.795   4.222   6.308  0.0785  0.4778  0.1315
 1812SOL    HW117069   2.794   4.302   6.254  1.0921 -0.9571 -2.0012
 1812SOL    HW217070   2.756   4.260   6.386 -0.6519 -1.2081  0.5823
 1813SOL     OW17071   4.204   0.656   6.965  0.7040 -0.4466  0.0233
 1813SOL    HW117072   4.203   0.579   7.021 -2.2148  0.1348  0.7681
 1813SOL    HW217073   4.164   0.719   7.025 -0.5368 -2.2249  1.0301
 1814SOL     OW17074   1.192   1.042   8.059  0.6099  0.3965 -0.4265
 1814SOL    HW117075   1.133   0.991   8.003 -0.1574 -0.2805  0.9898
 1814SOL    HW217076   1.239   0.968   8.097  0.1507  0.1753 -0.2859
 1815SOL     OW17077   1.979   4.286  11.786  0.2467 -0.1630  0.1560
 1815SOL    HW117078   2.071   4.270  11.810  0.8229  1.2448 -1.1292
 1815SOL    HW217079   1.977   4.250  11.698  0.1276 -0.2977  0.2152
 1816SOL     OW17080   1.611   2.656   4.166  0.3765  0.0170 -0.4848
 1816SOL    HW117081   1.685   2.709   4.135 -0.6058  0.9741 -1.1776
 1816SOL    HW217082   1.595   2.597   4.092 -1.7720  0.8591 -0.6870
 1817SOL     OW17083   1.405   3.336  15.637 -0.1572 -0.3535 -0.1285
 1817SOL    HW117084   1.325   3.324  15.585 -1.7366 -0.7698  2.3409
 1817SOL    HW217085   1.467   3.309  15.570 -0.2763  0.3642 -0.5291
 1818SOL     OW17086   0.070   0.982   6.458 -0.2681  0.2358 -0.2720
 1818SOL    HW117087   0.036   1.027   6.535 -0.0493 -1.9515  1.1067
 1818SOL    HW217088   0.112   1.059   6.421  0.2482  0.6651  1.2285
 1819SOL     OW17089   3.997   1.290   9.976  0.5595  0.3272 -0.8894
 1819SOL    HW117090   4.071   1.350   9.988  0.6180  0.1282 -0.2292
 1819SOL    HW217091   4.053   1.214   9.958  3.4136  2.5317 -1.3321
 1820SOL     OW17092   1.996   1.556   5.315  0.0917 -0.2495  0.0313
 1820SOL    HW117093   2.056   1.529   5.245 -0.3355 -2.5052  0.5329
 1820SOL    HW217094   2.045   1.633   5.345  1.2477 -0.5314 -1.1295
 1821SOL     OW17095   1.750   3.844   6.785 -0.1859  0.0132 -0.0970
 1821SOL    HW117096   1.707   3.805   6.709 -2.1339  2.5565 -0.2714
 1821SOL    HW217097   1.836   3.865   6.749  0.6365 -1.4853  0.9850
 1822SOL     OW17098   3.772   3.705  11.650  0.1950 -0.0705 -0.0381
 1822SOL    HW117099   3.820   3.683  11.570  0.7654  0.3489  0.1797
 1822SOL    HW217100   3.730   3.622  11.673  1.9768 -0.7246  0.8558
 1823SOL     OW17101   2.406   2.549  13.101  0.1290 -0.2495 -0.2821
 1823SOL    HW117102   2.332   2.601  13.133  1.7556  2.2631 -0.6103
 1823SOL    HW217103   2.481   2.607  13.088 -0.8782  1.5301  1.9037
 1824SOL     OW17104   0.506   0.343   2.578  0.3086  0.2341  0.3895
 1824SOL    HW117105   0.600   0.355   2.566  0.1389 -0.6776 -1.7298
 1824SOL    HW217106   0.484   0.321   2.488 -1.9622 -2.6523  1.6732
 1825SOL     OW17107   3.000   4.415   6.438 -0.3616 -0.6096 -0.0414
 1825SOL    HW117108   2.924   4.389   6.490 -0.1345  2.8859  1.9935
 1825SOL    HW217109   2.956   4.394   6.355  1.1124  0.9473 -1.2274
 1826SOL     OW17110   1.750   0.829   8.781  0.3758 -0.1607 -0.6982
 1826SOL    HW117111   1.792   0.778   8.850  1.7324  1.5317 -0.2699
 1826SOL    HW217112   1.829   0.858   8.735  0.5821 -1.3105 -1.0785
 1827SOL     OW17113   0.226   2.214   3.939 -0.4371  0.0062  0.0750
 1827SOL    HW117114   0.138   2.249   3.956 -0.5948 -0.3886  0.0529
 1827SOL    HW217115   0.291   2.283   3.952 -0.2638 -0.4444  1.6185
 1828SOL     OW17116   0.843   0.959  12.967 -0.2770  0.0689 -0.0985
 1828SOL    HW117117   0.759   0.955  12.921  0.0607  0.8484 -0.7895
 1828SOL    HW217118   0.806   0.922  13.047  2.3973 -0.5267  0.8536
 1829SOL     OW17119   4.578   2.677   0.662  0.4284  0.1726  0.3046
 1829SOL    HW117120   4.574   2.620   0.739 -0.3243  1.7570  1.4435
 1829SOL    HW217121   4.545   2.626   0.588  0.6578  2.5010 -1.4137
 1830SOL     OW17122   1.227   1.900   3.186 -0.9727 -0.4202  0.5436
 1830SOL    HW117123   1.207   1.990   3.212 -2.3997 -0.3230 -0.9026
 1830SOL    HW217124   1.221   1.903   3.090  0.2633  1.4754  0.5308
 1831SOL     OW17125   1.637   4.610   8.410  0.3802  0.5667  0.6697
 1831SOL    HW117126   1.718   4.660   8.415  0.8367 -0.2395  1.2110
 1831SOL    HW217127   1.627   4.589   8.502  0.3973 -0.3238  0.4691
 1832SOL     OW17128   3.311   4.126   1.620 -0.0695  0.2076 -0.1039
 1832SOL    HW117129   3.247   4.057   1.636 -1.6601  0.9038 -3.4638
 1832SOL    HW217130   3.269   4.164   1.543 -0.0696 -2.6153 -1.4931
 1833SOL     OW17131   0.042   0.090   5.605  0.1098  0.0399 -0.2307
 1833SOL    HW117132   4.704   0.135   5.575  0.5505  0.7429 -0.3254
 1833SOL    HW217133   0.009   0.046   5.684  1.3908  1.0767  0.8814
 1834SOL     OW17134   1.014   1.113   7.010 -0.5389 -0.0372  0.7417
 1834SOL    HW117135   1.069   1.169   6.955  1.2466 -0.9320  1.6504
 1834SOL    HW217136   0.987   1.044   6.950  0.3365 -1.0345  1.5037
 1835SOL     OW17137   4.074   4.357   0.645 -0.2323  0.4060 -0.2921
 1835SOL    HW117138   4.130   4.367   0.722  0.6008 -1.3756 -0.6502
 1835SOL    HW217139   4.121   4.404   0.576  0.8110 -0.2156 -0.0097
 1836SOL     OW17140   0.282   1.706   9.252  0.0104  0.1311 -0.3406
 1836SOL    HW117141   0.349   1.774   9.265  0.6588 -0.8736  1.6310
 1836SOL    HW217142   0.326   1.621   9.257 -1.7352 -0.7183  0.5025
 1837SOL     OW17143   1.227   4.302   6.560  0.3866 -0.3442 -0.2897
 1837SOL    HW117144   1.304   4.302   6.504 -0.8007 -1.1714 -1.9421
 1837SOL    HW217145   1.229   4.209   6.581  0.9859 -0.4896 -0.9785
 1838SOL     OW17146   0.319   2.960   5.627  0.0304  0.1030 -0.0421
 1838SOL    HW117147   0.329   2.948   5.722 -1.0879  1.2394  0.2152
 1838SOL    HW217148   0.400   2.945   5.578 -0.1335 -0.2929 -0.1898
 1839SOL     OW17149   4.457   2.503   2.498 -0.4504  0.1426  0.0129
 1839SOL    HW117150   4.460   2.414   2.461 -0.4414 -0.3437  1.1928
 1839SOL    HW217151   4.372   2.532   2.464 -1.3399 -0.5868  1.6384
 1840SOL     OW17152   3.196   3.077  11.173 -0.7740 -0.0873  0.0449
 1840SOL    HW117153   3.170   3.066  11.264 -0.9371 -0.7659 -0.0874
 1840SOL    HW217154   3.184   3.172  11.176 -1.3674 -0.2406  2.1751
 1841SOL     OW17155   2.397   2.834  10.040 -0.0001  0.0963  0.1032
 1841SOL    HW117156   2.314   2.801  10.004  2.4925 -2.5424 -3.2866
 1841SOL    HW217157   2.361   2.914  10.079  1.6744  2.0570 -2.4197
 1842SOL     OW17158   2.000   4.025   4.049  0.1658  0.0078  0.2063
 1842SOL    HW117159   2.026   4.036   4.141  0.9438 -1.7359  0.1936
 1842SOL    HW217160   1.977   4.115   4.025  1.3442  1.1244  3.2072
 1843SOL     OW17161   1.872   3.945   6.269  0.1651  0.0068 -0.2676
 1843SOL    HW117162   1.929   3.965   6.195  2.3952  0.5140  1.6030
 1843SOL    HW217163   1.794   3.911   6.226 -0.8258  1.4390  0.4137
 1844SOL     OW17164   3.092   3.474   5.889  0.1063 -0.1202 -0.0130
 1844SOL    HW117165   3.140   3.490   5.971  0.8114 -0.2954 -0.3903
 1844SOL    HW217166   3.003   3.472   5.925 -0.1552 -1.5183 -0.7377
 1845SOL     OW17167   2.225   3.062   3.436 -0.3626  0.0605  0.0686
 1845SOL    HW117168   2.261   3.072   3.524 -1.4499 -0.5372  0.5813
 1845SOL    HW217169   2.253   3.144   3.395  0.5178 -0.6175 -0.6907
 1846SOL     OW17170   2.173   1.636   3.989  0.0388 -0.9453 -0.0626
 1846SOL    HW117171   2.109   1.568   3.966  0.9978 -2.3296  1.3360
 1846SOL    HW217172   2.168   1.649   4.083 -2.7263 -2.4067 -0.0169
 1847SOL     OW17173   4.038   1.623  10.411  0.0703  0.2877 -0.3882
 1847SOL    HW117174   4.120   1.586  10.381 -1.6935 -3.8610 -0.0916
 1847SOL    HW217175   4.029   1.572  10.491 -1.4361  0.9524 -0.1173
 1848SOL     OW17176   4.560   0.205  17.652  0.8875  0.3822 -0.5668
 1848SOL    HW117177   4.534   0.179  17.740 -1.1635 -3.2254 -2.2278
 1848SOL    HW217178   4.651   0.176  17.644  0.7443 -0.1141 -0.3900
 1849SOL     OW17179   1.440   1.242   6.704 -0.3444  0.5200  0.2582
 1849SOL    HW117180   1.360   1.190   6.697  0.3537 -0.6368  1.0902
 1849SOL    HW217181   1.420   1.307   6.636 -0.9619  0.3614  0.2815
 1850SOL     OW17182   2.353   2.087  11.416  0.2712  0.2938 -0.0331
 1850SOL    HW117183   2.424   2.056  11.361  0.2064 -1.7182  1.0477
 1850SOL    HW217184   2.376   2.176  11.442 -0.4862 -0.1507  2.1281
 1851SOL     OW17185   2.476   0.422   7.097 -0.2342 -0.4188 -0.2781
 1851SOL    HW117186   2.428   0.449   7.018  0.7495  0.3896 -0.5967
 1851SOL    HW217187   2.531   0.499   7.109 -1.3724  0.2136  0.8577
 1852SOL     OW17188   1.987   3.307   0.769  0.0005 -0.3306 -0.8937
 1852SOL    HW117189   1.997   3.341   0.680 -1.0178  0.7857 -0.5825
 1852SOL    HW217190   2.067   3.254   0.778 -0.9163 -1.2040  2.1837
 1853SOL     OW17191   1.062   0.938  10.858 -0.2952  0.2614 -0.0698
 1853SOL    HW117192   1.085   1.031  10.858 -0.3688  0.2792 -0.1772
 1853SOL    HW217193   1.054   0.938  10.954 -1.1544 -1.0960 -0.1487
 1854SOL     OW17194   4.033   2.967   4.863 -0.3266  0.4155 -0.1433
 1854SOL    HW117195   4.066   2.878   4.871  0.0073  0.6361  0.9835
 1854SOL    HW217196   3.975   2.975   4.938 -1.3453  3.4380 -1.2587
 1855SOL     OW17197   0.343   2.361   4.744  0.6452 -0.1347  0.3356
 1855SOL    HW117198   0.341   2.427   4.814  4.8620 -0.2508  0.5857
 1855SOL    HW217199   0.259   2.364   4.698 -0.8216 -1.3323  2.9247
 1856SOL     OW17200   0.900   1.028   8.722 -0.0148 -0.3634  0.2244
 1856SOL    HW117201   0.924   1.056   8.634 -0.4219 -1.9891 -0.4127
 1856SOL    HW217202   0.945   0.943   8.723  0.0344 -0.3627 -1.5234
 1857SOL     OW17203   1.963   4.518  11.097  0.0549  0.9434  0.5287
 1857SOL    HW117204   2.057   4.513  11.115  0.1731  2.2020  0.2718
 1857SOL    HW217205   1.964   4.559  11.010  1.0740 -0.2556 -0.0239
 1858SOL     OW17206   1.153   0.596   0.241  0.0819 -0.5332  0.2604
 1858SOL    HW117207   1.169   0.671   0.182  1.0549 -0.0269  1.1666
 1858SOL    HW217208   1.242   0.575   0.270 -0.7024 -1.1988  2.0868
 1859SOL     OW17209   2.634   2.275   5.444 -0.0618  0.0983 -0.0350
 1859SOL    HW117210   2.594   2.189   5.435 -0.6521  0.4114 -0.3738
 1859SOL    HW217211   2.638   2.304   5.353  3.0848 -0.3958 -0.0708
 1860SOL     OW17212   1.855   4.218   1.602  0.0541 -0.2445  0.0255
 1860SOL    HW117213   1.767   4.184   1.586 -0.8400  1.4614  1.3654
 1860SOL    HW217214   1.904   4.138   1.623  1.2671  0.6184  0.5240
 1861SOL     OW17215   3.082   0.895   5.358  0.4064  0.0228 -0.0929
 1861SOL    HW117216   3.059   0.831   5.425 -1.7121 -0.0124 -0.8479
 1861SOL    HW217217   3.107   0.837   5.286 -1.0283 -2.1286  1.1706
 1862SOL     OW17218   2.215   2.962  15.890 -0.7671 -0.6611 -0.0587
 1862SOL    HW117219   2.196   2.894  15.954 -0.0454 -0.5950  0.2232
 1862SOL    HW217220   2.305   2.947  15.861  0.0934  1.9330  1.2157
 1863SOL     OW17221   4.085   2.560   6.810  0.1266  0.5956  0.0848
 1863SOL    HW117222   4.109   2.582   6.900 -1.6249 -0.9062  0.9255
 1863SOL    HW217223   4.015   2.499   6.835 -0.9452  2.0412  0.5761
 1864SOL     OW17224   1.012   1.357   7.214 -0.6089 -0.0199  0.6588
 1864SOL    HW117225   0.967   1.314   7.141 -0.0275  1.1699 -0.4229
 1864SOL    HW217226   1.023   1.287   7.278  0.4280  0.4754  1.0168
 1865SOL     OW17227   0.890   4.294  12.439 -0.0767  0.3611 -0.5108
 1865SOL    HW117228   0.953   4.227  12.410  1.4559 -0.2409  4.1784
 1865SOL    HW217229   0.936   4.377  12.426  2.2091 -0.4317  2.5103
 1866SOL     OW17230   1.694   3.758   3.670  0.8019 -0.1328 -0.4160
 1866SOL    HW117231   1.631   3.692   3.642 -0.9958  0.8159  1.3826
 1866SOL    HW217232   1.748   3.713   3.736  0.6461 -1.2894 -1.0905
 1867SOL     OW17233   2.686   0.068  14.937  0.1288 -0.1151 -0.0730
 1867SOL    HW117234   2.696   0.013  15.015  2.0195  1.2010  0.6093
 1867SOL    HW217235   2.749   0.024  14.881 -0.5966 -0.0964 -0.8993
 1868SOL     OW17236   2.594   4.526   1.073 -1.2381  0.0535  0.3426
 1868SOL    HW117237   2.637   4.612   1.069 -0.3430 -0.3895  0.3013
 1868SOL    HW217238   2.663   4.472   1.111 -0.4005  0.2187 -0.9167
 1869SOL     OW17239   4.618   1.353   0.204 -0.7596  0.3210  0.3268
 1869SOL    HW117240   4.565   1.348   0.124 -0.0262  0.9057 -0.2004
 1869SOL    HW217241   4.680   1.419   0.172  1.3736 -1.3844  0.9452
 1870SOL     OW17242   4.294   3.455   3.216 -0.1510 -0.7002  0.1218
 1870SOL    HW117243   4.386   3.446   3.189  0.1771 -0.9737  1.3310
 1870SOL    HW217244   4.308   3.534   3.267 -1.8202 -0.4637  0.2201
 1871SOL     OW17245   1.418   4.574   6.052  0.1745 -0.3796  0.2202
 1871SOL    HW117246   1.346   4.630   6.022 -0.5509 -2.4525 -1.9799
 1871SOL    HW217247   1.369   4.530   6.122 -1.0811  2.5546  1.1962
 1872SOL     OW17248   1.842   4.436   5.844 -0.0832  0.2660  0.1327
 1872SOL    HW117249   1.926   4.458   5.884 -0.2977  0.7861  0.3025
 1872SOL    HW217250   1.869   4.417   5.754  0.2836  1.0460  0.0789
 1873SOL     OW17251   1.569   2.721   6.640 -0.1550  0.2278  0.7619
 1873SOL    HW117252   1.487   2.752   6.601 -0.4901 -0.7928  0.6368
 1873SOL    HW217253   1.621   2.799   6.658 -0.2670  0.5085 -0.1284
 1874SOL     OW17254   0.746   1.181   4.824 -0.2776 -0.1428  0.4306
 1874SOL    HW117255   0.679   1.115   4.841  1.5809 -2.0823  0.2856
 1874SOL    HW217256   0.705   1.267   4.829  0.5573  0.3573 -1.2810
 1875SOL     OW17257   3.485   2.916   4.653  0.6379  0.6364 -0.0514
 1875SOL    HW117258   3.520   2.830   4.631 -0.1296  0.2248  0.3741
 1875SOL    HW217259   3.536   2.972   4.594 -0.1193  1.5745  0.1856
 1876SOL     OW17260   4.231   2.771   8.466  0.6710  0.2452  0.2915
 1876SOL    HW117261   4.252   2.723   8.546 -1.0677 -0.2811  0.4216
 1876SOL    HW217262   4.159   2.719   8.431  0.5568 -1.4438  3.0279
 1877SOL     OW17263   3.686   1.623   4.516 -1.1537  0.1783  0.2468
 1877SOL    HW117264   3.645   1.695   4.565  0.2658  0.7577  0.5621
 1877SOL    HW217265   3.709   1.566   4.589  1.4433 -0.1637 -0.8632
 1878SOL     OW17266   4.244   2.548  13.914  0.3136  0.4950 -0.0479
 1878SOL    HW117267   4.338   2.532  13.911  0.5567  1.8820  0.2790
 1878SOL    HW217268   4.230   2.519  14.004 -1.4896 -0.4431 -0.6297
 1879SOL     OW17269   0.735   3.965  12.423 -0.4927 -1.0663  0.4828
 1879SOL    HW117270   0.743   3.950  12.328  0.2555 -2.5571  0.7716
 1879SOL    HW217271   0.818   4.009  12.441 -2.4027  2.8680 -0.4466
 1880SOL     OW17272   0.840   2.725   7.531  0.2579 -0.0278 -0.0840
 1880SOL    HW117273   0.854   2.636   7.562  3.9410  0.5006 -0.1813
 1880SOL    HW217274   0.871   2.773   7.608  1.8273 -0.4996 -0.4230
 1881SOL     OW17275   3.273   0.938   7.564 -0.2452 -0.0372  0.0807
 1881SOL    HW117276   3.183   0.968   7.552 -1.0638 -1.1372  3.3880
 1881SOL    HW217277   3.312   1.020   7.596  1.4352 -1.2894  1.2688
 1882SOL     OW17278   1.395   1.304  11.958 -0.1685  0.5974 -0.7581
 1882SOL    HW117279   1.463   1.262  11.906  0.4148  0.7344 -0.1000
 1882SOL    HW217280   1.442   1.386  11.970  1.2333 -0.4866  1.2157
 1883SOL     OW17281   1.600   2.929   5.718 -0.0236  0.2568 -0.3871
 1883SOL    HW117282   1.689   2.939   5.686  0.5410  2.5345  1.8742
 1883SOL    HW217283   1.551   2.987   5.660 -0.3597  0.2586 -0.1078
 1884SOL     OW17284   0.139   0.896   2.107 -0.2684 -0.3851  0.3146
 1884SOL    HW117285   0.071   0.954   2.072  0.2838 -0.2699 -0.5653
 1884SOL    HW217286   0.219   0.925   2.064 -0.6184  1.3261  0.7889
 1885SOL     OW17287   4.718   4.391   5.991 -0.0260  0.2263 -0.2584
 1885SOL    HW117288   0.058   4.355   5.954 -1.8928 -2.1353 -2.0780
 1885SOL    HW217289   4.740   4.484   5.984 -0.3969  0.2976 -0.4985
 1886SOL     OW17290   3.589   4.618   1.329 -0.1690 -0.6115 -0.2749
 1886SOL    HW117291   3.678   4.655   1.329 -0.2775 -0.3540  0.1596
 1886SOL    HW217292   3.588   4.567   1.248 -3.5761  1.1037 -1.3148
 1887SOL     OW17293   3.165   2.310   3.968 -0.2290 -0.6444 -0.4726
 1887SOL    HW117294   3.249   2.337   3.933 -0.6068  1.3263  0.1721
 1887SOL    HW217295   3.128   2.386   4.013 -0.8318 -0.8983 -0.5407
 1888SOL     OW17296   2.602   2.672   3.316 -0.3897 -0.0437  0.4237
 1888SOL    HW117297   2.683   2.674   3.264  0.5665  1.8255  1.9811
 1888SOL    HW217298   2.621   2.601   3.379 -1.8116 -0.6766  0.1249
 1889SOL     OW17299   2.247   1.495   3.129  0.4325  0.3457  0.5308
 1889SOL    HW117300   2.263   1.585   3.156  0.7102  0.8008 -1.2213
 1889SOL    HW217301   2.225   1.463   3.217  0.2440 -0.0877  0.3253
 1890SOL     OW17302   0.968   4.187   4.824  0.6773 -0.3703  0.1417
 1890SOL    HW117303   0.919   4.107   4.838  2.1244 -1.2400  0.2999
 1890SOL    HW217304   0.917   4.226   4.753  1.3900 -1.1843 -0.8106
 1891SOL     OW17305   1.205   2.768   7.363  0.0871  0.7721  0.0631
 1891SOL    HW117306   1.120   2.808   7.350 -0.2940  1.0370  3.2858
 1891SOL    HW217307   1.264   2.838   7.335  1.6753 -0.8150 -0.6260
 1892SOL     OW17308   4.091   3.512   4.047  0.5297 -0.1762  0.4487
 1892SOL    HW117309   4.075   3.599   4.011  1.0093  0.5903  2.0914
 1892SOL    HW217310   4.117   3.539   4.135  1.5722 -0.4864  0.2359
 1893SOL     OW17311   4.280   2.612  12.685  0.3816  0.3946 -0.2703
 1893SOL    HW117312   4.231   2.585  12.763  0.0449 -1.7382 -1.2092
 1893SOL    HW217313   4.341   2.540  12.669 -1.2982 -0.5109 -2.5374
 1894SOL     OW17314   3.085   1.292   1.490 -0.1029 -0.3036 -0.6438
 1894SOL    HW117315   3.108   1.377   1.529  0.5398 -0.2027 -1.2490
 1894SOL    HW217316   3.167   1.269   1.447 -0.6041 -0.3136 -1.5891
 1895SOL     OW17317   0.949   4.326   7.736  0.1315  0.3557  0.0923
 1895SOL    HW117318   1.028   4.373   7.760 -0.7154  2.2170 -0.7367
 1895SOL    HW217319   0.989   4.267   7.673  1.0985  1.6510 -0.5115
 1896SOL     OW17320   1.200   0.805   5.046  0.6545  0.4133  0.1030
 1896SOL    HW117321   1.249   0.880   5.081 -1.7704  1.4303  1.3075
 1896SOL    HW217322   1.244   0.742   5.103  0.5242  1.1850  1.0666
 1897SOL     OW17323   2.081   4.411   4.872  0.0131 -0.8480  0.2846
 1897SOL    HW117324   1.987   4.430   4.875  0.3511  0.8732  0.1965
 1897SOL    HW217325   2.117   4.487   4.918 -0.5951 -0.3847 -0.0038
 1898SOL     OW17326   0.859   4.543   5.578  0.0207  0.4210  0.7153
 1898SOL    HW117327   0.938   4.586   5.545  0.6206 -0.3750  1.1285
 1898SOL    HW217328   0.889   4.453   5.590 -0.8836  0.2561  1.7688
 1899SOL     OW17329   3.233   3.456   7.294  0.2316 -0.4047  0.1636
 1899SOL    HW117330   3.167   3.431   7.359 -0.3552  1.3625  0.2619
 1899SOL    HW217331   3.313   3.476   7.342  0.4932 -0.9106 -0.0692
 1900SOL     OW17332   3.320   1.797   6.066  0.1522  0.2563 -0.0468
 1900SOL    HW117333   3.330   1.808   5.971 -0.2895  2.8685  0.1933
 1900SOL    HW217334   3.355   1.708   6.064 -0.3293  0.0226  1.5745
 1901SOL     OW17335   2.361   1.334   2.183  0.3070 -0.1036  0.0996
 1901SOL    HW117336   2.409   1.362   2.260  1.2433 -2.3957  0.3367
 1901SOL    HW217337   2.364   1.240   2.197  0.9398 -0.3394 -1.5959
 1902SOL     OW17338   1.856   0.113   5.178  0.2629  0.1137  0.0653
 1902SOL    HW117339   1.816   0.167   5.109  1.8925  0.8544 -0.2966
 1902SOL    HW217340   1.855   0.172   5.254  2.5304 -0.9497  0.9281
 1903SOL     OW17341   4.529   0.589   9.699  0.2904  0.5668 -0.0918
 1903SOL    HW117342   4.520   0.567   9.792 -2.0170 -1.3138 -0.7664
 1903SOL    HW217343   4.553   0.682   9.697  1.1478  0.3608  0.6758
 1904SOL     OW17344   3.391   0.028   1.215  0.0566 -0.8427  0.0203
 1904SOL    HW117345   3.449   4.728   1.279  0.3961 -0.3490  0.0219
 1904SOL    HW217346   3.405   0.118   1.244 -0.1508 -0.4717 -1.0121
 1905SOL     OW17347   2.082   4.414   1.858  0.0554  0.0871 -0.3600
 1905SOL    HW117348   2.168   4.425   1.818 -0.6555  0.4639 -1.7655
 1905SOL    HW217349   2.023   4.430   1.785  0.4474  1.0371 -0.4757
 1906SOL     OW17350   2.034   2.313   1.817 -0.1347 -0.0420 -0.3283
 1906SOL    HW117351   1.946   2.350   1.819  0.4236  1.2140  0.9272
 1906SOL    HW217352   2.023   2.218   1.821  1.1985 -0.2044 -0.3948
 1907SOL     OW17353   0.024   1.777   6.121 -0.4180 -0.2084 -0.4891
 1907SOL    HW117354   4.688   1.745   6.169  1.2466 -2.6608  0.4768
 1907SOL    HW217355   4.736   1.866   6.099  3.5036  0.5481 -2.3652
 1908SOL     OW17356   1.275   3.951  16.097  0.0741 -0.4429 -0.3761
 1908SOL    HW117357   1.324   3.890  16.041 -2.7262 -0.3345 -2.9608
 1908SOL    HW217358   1.231   4.010  16.036  2.5987  0.8963 -0.8893
 1909SOL     OW17359   2.176   0.738   2.465 -0.1016  0.0111  0.0365
 1909SOL    HW117360   2.104   0.768   2.409 -0.5772 -0.6772  0.2825
 1909SOL    HW217361   2.202   0.659   2.420 -0.0021 -0.3036  0.6411
 1910SOL     OW17362   1.358   3.506   8.700  0.3525 -0.2891  0.0509
 1910SOL    HW117363   1.405   3.510   8.617  1.0298 -0.5174  0.4206
 1910SOL    HW217364   1.408   3.564   8.758 -0.0911 -0.6449  0.7896
 1911SOL     OW17365   2.944   0.292   6.568 -0.4074  0.3003  0.0444
 1911SOL    HW117366   2.855   0.272   6.539 -0.2771  1.3274 -1.0345
 1911SOL    HW217367   2.993   0.313   6.488 -0.2326  0.0853  0.0940
 1912SOL     OW17368   3.836   0.252  15.703 -0.5298 -0.5542 -0.4806
 1912SOL    HW117369   3.747   0.217  15.690 -0.7857 -0.7218  1.7983
 1912SOL    HW217370   3.814   0.329  15.756  1.4438 -0.4557  0.1743
 1913SOL     OW17371   2.056   1.110  15.026 -0.3769 -0.0703  0.0694
 1913SOL    HW117372   2.093   1.042  14.970 -0.8418 -0.9786  0.8469
 1913SOL    HW217373   2.026   1.181  14.970 -1.5943 -1.9648 -1.6792
 1914SOL     OW17374   0.180   4.096   1.156  0.2834 -0.4446  0.1368
 1914SOL    HW117375   0.253   4.082   1.217  1.1523 -1.8518 -1.2429
 1914SOL    HW217376   0.130   4.162   1.205  0.2503 -1.3240  1.2873
 1915SOL     OW17377   2.682   0.147   6.404 -0.1006  0.0456  0.2961
 1915SOL    HW117378   2.628   0.076   6.367 -0.7655  0.0750  1.1976
 1915SOL    HW217379   2.628   0.168   6.481 -0.9634 -0.6573 -0.1138
 1916SOL     OW17380   4.005   4.076  14.523  0.7097 -0.5479  0.2513
 1916SOL    HW117381   3.992   4.140  14.453  0.0582  1.4374  2.2034
 1916SOL    HW217382   3.954   4.002  14.492  1.7891 -0.0655 -2.6712
 1917SOL     OW17383   0.273   3.632  15.745 -0.0136  0.1823 -0.4198
 1917SOL    HW117384   0.335   3.605  15.677  0.1440 -1.5638  0.4073
 1917SOL    HW217385   0.282   3.726  15.729  1.3503  0.2629  0.8429
 1918SOL     OW17386   3.084   2.558  16.337  0.5139 -0.4408 -0.3034
 1918SOL    HW117387   3.037   2.512  16.267  0.0353  0.1225 -0.3565
 1918SOL    HW217388   3.008   2.605  16.373  1.0721  0.8787 -0.8341
 1919SOL     OW17389   3.525   3.528  11.649 -0.4695  0.1151  0.2904
 1919SOL    HW117390   3.546   3.435  11.641  1.7940  0.7639 -1.0939
 1919SOL    HW217391   3.520   3.548  11.556 -0.7487 -0.1854  0.2370
 1920SOL     OW17392   3.931   0.092   0.418  0.3851  0.5404  0.4925
 1920SOL    HW117393   3.938   0.044   0.336  0.6421  1.2162  0.1171
 1920SOL    HW217394   3.919   0.181   0.384  0.8314  1.3964  2.5751
 1921SOL     OW17395   0.436   1.490  16.636 -0.0712  0.2820 -0.5106
 1921SOL    HW117396   0.427   1.422  16.569 -1.0869 -0.9533  0.8914
 1921SOL    HW217397   0.509   1.541  16.600  0.2837  0.3769  0.3347
 1922SOL     OW17398   1.223   2.728   5.028  0.1969  0.1874  0.7695
 1922SOL    HW117399   1.131   2.727   5.052  0.3845 -0.2188  1.4475
 1922SOL    HW217400   1.234   2.819   5.001  2.5479 -0.0366  0.9568
 1923SOL     OW17401   4.324   2.541   7.764  0.0094 -0.6049 -0.8979
 1923SOL    HW117402   4.307   2.636   7.763  0.8496 -0.4552 -0.8315
 1923SOL    HW217403   4.399   2.539   7.823 -0.9964 -3.7817  0.2494
 1924SOL     OW17404   0.954   2.640  12.307 -0.1525 -0.4161  0.2073
 1924SOL    HW117405   0.886   2.696  12.345 -1.3011 -1.2270 -0.6704
 1924SOL    HW217406   0.969   2.687  12.225  0.6390 -0.4853  0.3098
 1925SOL     OW17407   4.479   3.026   6.245  0.6042 -0.2455 -0.3146
 1925SOL    HW117408   4.425   3.072   6.309  2.1342 -0.2911  1.0133
 1925SOL    HW217409   4.422   3.032   6.168  0.5935  1.1777 -0.1966
 1926SOL     OW17410   2.720   2.592   7.120 -0.4046 -0.0297  0.2776
 1926SOL    HW117411   2.667   2.648   7.177 -1.0348 -0.7389  0.3827
 1926SOL    HW217412   2.736   2.523   7.185 -0.1992 -0.3315 -0.0929
 1927SOL     OW17413   4.172   2.596  13.215 -0.1314 -0.3874 -0.1841
 1927SOL    HW117414   4.143   2.512  13.180 -4.0477  0.3870  1.1186
 1927SOL    HW217415   4.083   2.631  13.230 -0.5924 -1.3459 -0.6954
 1928SOL     OW17416   1.748   2.807  14.132  0.7260  0.1771 -0.8633
 1928SOL    HW117417   1.709   2.738  14.185 -0.1969 -0.8112 -2.8604
 1928SOL    HW217418   1.687   2.811  14.059  0.0910  2.5748 -0.1998
 1929SOL     OW17419   3.003   0.129   8.722  0.0978 -0.6499 -0.1043
 1929SOL    HW117420   2.911   0.111   8.739 -0.0301  0.6340  0.5099
 1929SOL    HW217421   3.036   0.141   8.811 -3.3167  0.3239  0.9923
 1930SOL     OW17422   1.353   2.320   8.831  0.0551 -0.5246  1.0849
 1930SOL    HW117423   1.435   2.360   8.803 -0.4077 -1.6852 -2.0367
 1930SOL    HW217424   1.367   2.302   8.924  1.7178 -0.4500  0.8548
 1931SOL     OW17425   4.149   3.449   3.777 -0.6691  0.0978 -0.4886
 1931SOL    HW117426   4.127   3.464   3.869 -0.1117 -1.8510 -0.0324
 1931SOL    HW217427   4.209   3.376   3.794 -1.7737 -1.2650 -2.3900
 1932SOL     OW17428   1.804   0.693   7.849  0.2439 -0.1840  0.0042
 1932SOL    HW117429   1.774   0.605   7.828 -0.2880  0.1957 -0.8725
 1932SOL    HW217430   1.855   0.724   7.774  0.4172 -0.2501  0.0978
 1933SOL     OW17431   4.184   4.475   6.275  0.3878  0.0301 -0.3980
 1933SOL    HW117432   4.136   4.532   6.335 -4.0745 -0.9764 -3.0349
 1933SOL    HW217433   4.273   4.502   6.299  0.1674  0.2605  0.1610
 1934SOL     OW17434   0.711   2.019   4.452 -0.1474  0.0160  0.8388
 1934SOL    HW117435   0.722   1.942   4.508  0.4030  0.5758  1.4988
 1934SOL    HW217436   0.634   1.992   4.402  0.7117  0.0139 -0.4662
 1935SOL     OW17437   3.900   3.697  10.880  0.4496 -0.7886 -0.2748
 1935SOL    HW117438   3.930   3.690  10.790 -0.5669 -1.5878 -0.5554
 1935SOL    HW217439   3.944   3.618  10.912  2.0676  1.0403  1.9547
 1936SOL     OW17440   0.177   4.202   2.510  0.6249 -0.2875 -0.2637
 1936SOL    HW117441   0.142   4.282   2.471 -0.1773  0.7559  2.5603
 1936SOL    HW217442   0.125   4.128   2.477  0.5306 -1.0760  1.6715
 1937SOL     OW17443   1.442   2.368   2.989  0.3916 -0.0029  0.5337
 1937SOL    HW117444   1.408   2.405   2.908  2.0781 -0.5585 -0.4375
 1937SOL    HW217445   1.462   2.280   2.958 -0.4138  0.1747 -0.4927
 1938SOL     OW17446   0.038   4.180   2.048  0.1525  0.1129  0.3730
 1938SOL    HW117447   4.684   4.185   2.032 -0.0144 -0.8024  1.0772
 1938SOL    HW217448   0.073   4.259   2.006 -0.4391  0.5800  0.7699
 1939SOL     OW17449   0.294   4.045   6.034 -0.0170 -0.9764 -0.2588
 1939SOL    HW117450   0.211   4.012   6.067 -0.8421  0.1816 -1.1457
 1939SOL    HW217451   0.265   4.047   5.943 -0.0292 -0.1797 -0.2396
 1940SOL     OW17452   2.022   1.977   8.862 -0.3154  0.3351 -0.3258
 1940SOL    HW117453   2.070   1.894   8.869 -1.8876 -0.3838  1.9202
 1940SOL    HW217454   1.958   1.961   8.792 -0.4824 -1.1239  0.1508
 1941SOL     OW17455   3.014   1.919   4.511  0.0413  0.2203  0.0566
 1941SOL    HW117456   3.094   1.970   4.522  0.3818 -0.2015 -0.4762
 1941SOL    HW217457   3.002   1.877   4.596 -0.4277  1.8158  0.7790
 1942SOL     OW17458   0.738   2.193  13.576  0.1097  0.1000  0.8111
 1942SOL    HW117459   0.674   2.196  13.504  0.6682 -1.6041  0.2504
 1942SOL    HW217460   0.734   2.098  13.585  0.3731  0.0165  0.0943
 1943SOL     OW17461   0.058   0.567   5.978  0.0188  0.2093 -0.3074
 1943SOL    HW117462   0.118   0.572   6.052 -0.0365  1.9012 -0.3929
 1943SOL    HW217463   0.006   0.647   5.981 -1.5487 -0.7111 -2.5725
 1944SOL     OW17464   1.250   4.397   4.247 -0.0106  0.1136  0.4827
 1944SOL    HW117465   1.240   4.330   4.314 -1.1546  1.4472  1.6254
 1944SOL    HW217466   1.343   4.415   4.261 -0.1742 -0.5342  2.3047
 1945SOL     OW17467   0.291   4.483  11.655 -0.4685  0.0651  0.3958
 1945SOL    HW117468   0.384   4.495  11.669 -0.6347  2.0018 -0.2043
 1945SOL    HW217469   0.293   4.436  11.571 -1.7929 -0.7262  0.7947
 1946SOL     OW17470   1.938   3.857   8.936 -0.1154  0.2272  0.2387
 1946SOL    HW117471   1.896   3.802   9.002 -1.0255  0.8488  0.1772
 1946SOL    HW217472   1.987   3.793   8.884 -1.5344 -0.6137 -0.0512
 1947SOL     OW17473   2.035   4.653   2.969  0.2315 -0.2349 -0.2683
 1947SOL    HW117474   1.942   4.651   2.989  0.0347 -2.7309 -1.4827
 1947SOL    HW217475   2.068   4.635   3.057 -0.3535  2.2157  0.4347
 1948SOL     OW17476   1.822   0.005   8.543 -0.4321 -0.6038 -0.0957
 1948SOL    HW117477   1.852   4.711   8.627 -0.8972 -1.3410 -0.2270
 1948SOL    HW217478   1.812   0.098   8.562 -2.3202 -1.0690  1.1333
 1949SOL     OW17479   2.612   0.480   5.293 -0.2299  0.2118 -0.1768
 1949SOL    HW117480   2.523   0.497   5.262 -0.3813  0.1962  0.2595
 1949SOL    HW217481   2.661   0.533   5.230 -1.1999  1.1508 -0.1461
 1950SOL     OW17482   0.150   0.205   3.647  0.5765 -0.2133  0.2010
 1950SOL    HW117483   0.223   0.169   3.697  1.2261  1.4122  0.4170
 1950SOL    HW217484   0.171   0.163   3.564  2.0249  1.5168 -0.3097
 1951SOL     OW17485   2.316   1.316  14.929  0.1746  0.0354 -0.2779
 1951SOL    HW117486   2.236   1.303  14.878  0.4959 -1.1593 -0.4710
 1951SOL    HW217487   2.324   1.411  14.925 -1.3941  0.1699 -0.2923
 1952SOL     OW17488   3.934   2.237   7.566  0.7482 -0.3806  0.1916
 1952SOL    HW117489   3.946   2.191   7.483 -1.5757 -2.5135  1.0222
 1952SOL    HW217490   3.839   2.240   7.576  0.7067 -0.0710 -0.3097
 1953SOL     OW17491   0.565   2.196   5.107 -0.2117  0.2955 -0.0896
 1953SOL    HW117492   0.622   2.194   5.030  3.9751 -0.5601  2.9780
 1953SOL    HW217493   0.544   2.289   5.115  0.9503  0.4545  1.1806
 1954SOL     OW17494   2.164   4.670   1.693 -0.0934 -0.4729 -0.3938
 1954SOL    HW117495   2.100   4.664   1.764  0.2294  0.1066 -0.0562
 1954SOL    HW217496   2.126   4.637   1.612 -2.7428 -1.6425  1.3256
 1955SOL     OW17497   1.619   0.477   2.647  0.3233  0.0418  0.7277
 1955SOL    HW117498   1.656   0.559   2.614 -3.5763  1.4331 -0.1578
 1955SOL    HW217499   1.525   0.496   2.650  0.0971 -1.1405  1.3270
 1956SOL     OW17500   4.394   2.560   4.269  0.0500 -0.2949 -0.0341
 1956SOL    HW117501   4.466   2.622   4.281  0.5376 -1.0730  1.1021
 1956SOL    HW217502   4.321   2.616   4.242 -0.6938 -0.5845  1.3832
 1957SOL     OW17503   0.573   2.460   2.726  0.3303 -0.2461  0.2819
 1957SOL    HW117504   0.565   2.436   2.634 -0.0701  0.3119  0.1744
 1957SOL    HW217505   0.565   2.372   2.763  2.2890 -0.7440 -0.4873
 1958SOL     OW17506   3.554   0.149   9.146 -0.1034  0.0728 -0.0262
 1958SOL    HW117507   3.571   0.243   9.141 -2.3116  0.3926 -1.3434
 1958SOL    HW217508   3.645   0.120   9.153 -0.0988  0.2158  0.5090
 1959SOL     OW17509   4.037   4.475   8.050 -0.2669 -0.8791  0.9814
 1959SOL    HW117510   4.064   4.447   7.963 -0.9710  0.8545  0.2041
 1959SOL    HW217511   3.983   4.399   8.072 -1.5604 -0.3907 -0.5410
 1960SOL     OW17512   2.579   3.795  13.425 -0.4158 -0.4398 -0.3445
 1960SOL    HW117513   2.484   3.791  13.410 -0.5324 -0.7146  0.4423
 1960SOL    HW217514   2.591   3.890  13.431 -2.5772 -0.2595  1.3856
 1961SOL     OW17515   1.566   0.310  11.962 -0.0117 -0.0547 -0.4305
 1961SOL    HW117516   1.602   0.391  11.997  0.2674 -0.4068  0.0836
 1961SOL    HW217517   1.611   0.309  11.877  2.7104  1.5775  1.0289
 1962SOL     OW17518   0.746   3.403   6.266 -0.2383 -0.2200 -0.4733
 1962SOL    HW117519   0.760   3.494   6.239  0.2806 -0.8793 -2.4607
 1962SOL    HW217520   0.709   3.419   6.353  2.0189  1.0094  0.2694
 1963SOL     OW17521   1.164   0.003   5.996 -0.4765  0.9449  0.7345
 1963SOL    HW117522   1.093   4.729   5.935 -0.1569 -0.8311  0.7790
 1963SOL    HW217523   1.239   0.018   5.939 -1.1883 -1.6496 -0.8513
 1964SOL     OW17524   3.022   4.099   1.206  0.0032  0.7728 -0.0683
 1964SOL    HW117525   2.971   4.068   1.281 -0.0922  1.9800  0.3806
 1964SOL    HW217526   3.115   4.089   1.224  0.2456  2.1222 -0.5236
 1965SOL     OW17527   2.631   0.914  16.731 -0.2274 -0.0619  0.4516
 1965SOL    HW117528   2.564   0.866  16.779 -1.8519  1.4851 -0.2706
 1965SOL    HW217529   2.593   0.908  16.644  0.0212 -1.8512  0.4756
 1966SOL     OW17530   0.140   0.680   9.818  0.3662  0.1474 -0.4698
 1966SOL    HW117531   0.086   0.648   9.746 -0.6741  0.4705  0.1724
 1966SOL    HW217532   0.088   0.754   9.847  1.4489  0.7546 -0.0748
 1967SOL     OW17533   0.112   4.652   6.257 -0.3034  0.3536 -0.1023
 1967SOL    HW117534   0.143   4.596   6.186 -0.6605 -1.0095  0.8206
 1967SOL    HW217535   0.025   4.682   6.230  0.6555  1.9253 -1.4108
 1968SOL     OW17536   1.217   4.356  17.426 -0.3308 -0.0848  0.2967
 1968SOL    HW117537   1.224   4.335  17.333  0.9459  0.3803  0.2836
 1968SOL    HW217538   1.303   4.326  17.456  0.0256  1.5881  0.9817
 1969SOL     OW17539   4.248   1.914   6.852 -0.6428 -0.0981  0.0556
 1969SOL    HW117540   4.267   1.820   6.852  1.7883  0.3796  1.4376
 1969SOL    HW217541   4.338   1.946   6.865 -1.5668  2.3586  0.2865
 1970SOL     OW17542   3.915   1.969   7.015  0.3747 -0.0655 -0.1270
 1970SOL    HW117543   3.977   2.032   6.977  0.1749  0.0216 -0.3089
 1970SOL    HW217544   3.916   1.896   6.953  0.9674  1.5342 -2.0165
 1971SOL     OW17545   1.196   3.412   1.553  0.4695 -0.0070 -0.6242
 1971SOL    HW117546   1.172   3.319   1.552 -0.5523  0.2565  0.1576
 1971SOL    HW217547   1.132   3.432   1.621  1.2300  1.2565 -0.2831
 1972SOL     OW17548   2.646   1.854   8.757  0.4292  0.0542  0.3904
 1972SOL    HW117549   2.644   1.891   8.846 -0.6927 -0.5487  0.6158
 1972SOL    HW217550   2.562   1.888   8.725  0.0483 -1.6999 -0.4914
 1973SOL     OW17551   4.425   4.684  14.728  0.0297  0.2111  0.0601
 1973SOL    HW117552   4.417   0.032  14.692 -0.2206  0.3711  0.4967
 1973SOL    HW217553   4.384   4.685  14.815  0.7606 -0.9180  0.4080
 1974SOL     OW17554   1.060   2.129   7.317 -0.0535  0.2794 -0.4186
 1974SOL    HW117555   0.986   2.186   7.338 -1.1566 -1.0873 -0.5732
 1974SOL    HW217556   1.137   2.182   7.335 -0.4769  0.9013 -0.4563
 1975SOL     OW17557   3.155   4.639   3.824  0.1635  0.5342 -0.0753
 1975SOL    HW117558   3.226   4.686   3.780 -1.0716  2.9994  0.5150
 1975SOL    HW217559   3.122   4.709   3.882  0.1075 -1.3625  2.1911
 1976SOL     OW17560   0.173   1.467  13.121 -0.1702 -0.1728 -0.6353
 1976SOL    HW117561   0.258   1.423  13.116 -0.0674 -0.0335 -0.0254
 1976SOL    HW217562   0.126   1.421  13.191 -1.4419  2.9061  0.5099
 1977SOL     OW17563   1.277   4.371   7.240  0.1114 -0.3382 -0.6914
 1977SOL    HW117564   1.304   4.458   7.212 -3.4437  0.1448 -2.7335
 1977SOL    HW217565   1.312   4.319   7.167 -0.9275  0.1118 -1.5175
 1978SOL     OW17566   3.553   1.001  16.899  0.1172 -0.1339  0.3181
 1978SOL    HW117567   3.587   1.064  16.836  0.0673 -0.8502 -0.4218
 1978SOL    HW217568   3.636   0.984  16.942 -0.4451  1.4005  1.9976
 1979SOL     OW17569   3.337   2.332  12.336  0.5514  0.0122 -0.6851
 1979SOL    HW117570   3.409   2.304  12.393  1.7320  0.6245 -1.8751
 1979SOL    HW217571   3.344   2.427  12.345  4.4181 -0.1578 -1.5907
 1980SOL     OW17572   3.297   0.951   5.665 -0.1545 -0.6084 -0.7236
 1980SOL    HW117573   3.293   0.881   5.730 -3.7667 -0.1690 -0.4516
 1980SOL    HW217574   3.243   1.021   5.703  0.4894 -0.1082 -0.7346
 1981SOL     OW17575   1.496   1.895   7.335 -1.0991 -0.4109  0.4136
 1981SOL    HW117576   1.527   1.976   7.376 -1.5243  0.2243 -0.5258
 1981SOL    HW217577   1.401   1.909   7.335 -1.1637 -0.8773 -0.8514
 1982SOL     OW17578   0.191   4.190   8.830 -0.4511 -0.1146  0.0492
 1982SOL    HW117579   0.221   4.102   8.806 -0.8842  0.6041 -3.1652
 1982SOL    HW217580   0.277   4.230   8.843 -0.0677 -1.2932  1.1527
 1983SOL     OW17581   3.739   3.356   3.594 -0.0377 -0.7247 -0.1444
 1983SOL    HW117582   3.681   3.326   3.664 -0.6755  1.6901  0.3932
 1983SOL    HW217583   3.764   3.274   3.553 -0.5014 -0.8627 -0.1430
 1984SOL     OW17584   0.199   3.651   7.750  0.1457 -0.9959 -0.1283
 1984SOL    HW117585   0.200   3.577   7.811 -0.8738 -1.7735 -1.0586
 1984SOL    HW217586   0.106   3.661   7.730 -0.1964 -1.3051  1.2851
 1985SOL     OW17587   1.716   1.275   2.171 -0.0698 -0.5320 -0.4088
 1985SOL    HW117588   1.771   1.226   2.232  1.1233  1.8732  0.4309
 1985SOL    HW217589   1.776   1.301   2.101  0.6077 -0.0837  0.3450
 1986SOL     OW17590   3.477   2.012   9.339  0.3661  0.0634  0.3203
 1986SOL    HW117591   3.534   2.090   9.338  2.0704 -1.2029 -0.4098
 1986SOL    HW217592   3.534   1.949   9.296  0.5680  0.2475  0.3199
 1987SOL     OW17593   0.134   1.740   1.398  0.0078  0.1420 -0.0518
 1987SOL    HW117594   0.119   1.807   1.465  0.4783 -0.0324  0.2244
 1987SOL    HW217595   0.222   1.758   1.366 -0.6854 -1.1815 -2.7286
 1988SOL     OW17596   1.863   1.728   0.677 -0.4762  0.0574  0.6064
 1988SOL    HW117597   1.814   1.667   0.732  0.3069 -0.5553  0.6296
 1988SOL    HW217598   1.925   1.771   0.736 -1.9201  1.1908  1.2687
 1989SOL     OW17599   2.880   1.328  17.603  0.7602  0.1768  0.1895
 1989SOL    HW117600   2.943   1.256  17.597  0.3459 -0.1733  0.0006
 1989SOL    HW217601   2.895   1.372  17.519 -0.9107  0.5514  0.0950
 1990SOL     OW17602   3.141   1.197  12.046 -0.6784 -0.7229 -0.3304
 1990SOL    HW117603   3.105   1.200  12.134 -2.2370 -1.7811 -0.9443
 1990SOL    HW217604   3.222   1.240  12.076 -1.5558 -0.4211  1.6184
 1991SOL     OW17605   2.032   4.115  11.567  0.9861  0.0554 -0.2869
 1991SOL    HW117606   2.040   4.043  11.630 -0.2200 -2.6061 -3.1761
 1991SOL    HW217607   1.941   4.110  11.537  0.9221 -0.8544  0.0783
 1992SOL     OW17608   2.370   0.824   3.055 -0.9567  0.7143  0.2909
 1992SOL    HW117609   2.353   0.825   2.961  0.0199  1.0106  0.1125
 1992SOL    HW217610   2.448   0.768   3.063 -0.5478  1.2806  0.2833
 1993SOL     OW17611   2.714   3.896   0.542  0.0609 -0.3957  0.3376
 1993SOL    HW117612   2.625   3.912   0.511 -0.1087 -2.8116 -0.4182
 1993SOL    HW217613   2.732   3.982   0.579  1.1464 -0.4528 -0.0541
 1994SOL     OW17614   4.164   2.272   4.890  0.1828  0.1102 -0.6626
 1994SOL    HW117615   4.154   2.367   4.893 -2.3123 -0.1965  0.5008
 1994SOL    HW217616   4.116   2.251   4.809  1.2223 -0.6332 -1.0900
 1995SOL     OW17617   3.951   2.585   9.696 -0.0944  0.7383  0.1592
 1995SOL    HW117618   3.966   2.633   9.778  2.5319  1.7078 -0.8685
 1995SOL    HW217619   3.874   2.538   9.727  0.8562 -0.8118  0.1291
 1996SOL     OW17620   1.693   2.755   9.074 -0.5449 -0.8833 -0.6115
 1996SOL    HW117621   1.699   2.727   8.982  0.5610 -0.4198 -0.6881
 1996SOL    HW217622   1.768   2.815   9.075 -1.1568 -0.2042  3.3015
 1997SOL     OW17623   1.292   0.437   6.994 -0.1610  0.4525 -0.4828
 1997SOL    HW117624   1.331   0.406   7.076 -1.4069 -2.0155 -0.8046
 1997SOL    HW217625   1.199   0.437   7.020 -0.0381  0.4974 -0.0363
 1998SOL     OW17626   2.816   2.801   9.735 -0.2856 -0.2917  0.5628
 1998SOL    HW117627   2.905   2.773   9.755 -0.4096 -1.4361 -0.5008
 1998SOL    HW217628   2.825   2.823   9.642  0.3774  1.6619  1.0996
 1999SOL     OW17629   2.697   2.047   8.521  0.5199  0.4781  0.0261
 1999SOL    HW117630   2.668   2.137   8.538 -1.0900  0.1370 -0.8361
 1999SOL    HW217631   2.622   1.993   8.547  0.5552  0.9419  1.0620
 2000SOL     OW17632   3.162   4.123   8.533 -0.0765  0.0163  0.1695
 2000SOL    HW117633   3.123   4.209   8.521  0.5809  0.1963 -0.6881
 2000SOL    HW217634   3.159   4.091   8.442 -2.4080 -2.1830  1.0079
 2001SOL     OW17635   1.292   0.488  17.446 -0.2304 -0.4285  0.1538
 2001SOL    HW117636   1.212   0.468  17.398 -2.0237 -1.1878  3.4745
 2001SOL    HW217637   1.279   0.437  17.526  2.7674 -1.9068 -0.3261
 2002SOL     OW17638   2.264   0.859   7.897 -0.1270 -0.2684 -0.4507
 2002SOL    HW117639   2.332   0.801   7.929 -1.0104 -0.3819  1.2336
 2002SOL    HW217640   2.205   0.846   7.972 -1.5608 -0.3882 -1.5907
 2003SOL     OW17641   3.281   2.222   4.257  0.0868 -0.1274 -0.1163
 2003SOL    HW117642   3.231   2.183   4.185 -1.1345  3.5105 -1.2187
 2003SOL    HW217643   3.365   2.229   4.212 -0.3128 -2.0572 -1.1995
 2004SOL     OW17644   0.999   1.858   7.037 -0.1209  0.1031 -0.0661
 2004SOL    HW117645   1.031   1.908   6.962  2.0336 -1.3110 -0.0952
 2004SOL    HW217646   0.968   1.772   7.010 -0.7852  0.3269 -0.0164
 2005SOL     OW17647   0.105   2.438  16.861 -0.8676 -0.1139  0.6443
 2005SOL    HW117648   0.154   2.508  16.903 -0.1694 -0.2473  0.0448
 2005SOL    HW217649   0.069   2.393  16.938 -0.8826 -0.9601  0.1399
 2006SOL     OW17650   3.806   2.088  17.043 -0.5796 -0.6078 -0.6191
 2006SOL    HW117651   3.832   1.996  17.048  0.8872 -0.1556  0.1618
 2006SOL    HW217652   3.890   2.128  17.023 -0.5439 -0.6215 -0.4979
 2007SOL     OW17653   0.772   2.874  11.753 -0.1017  0.7822 -0.0941
 2007SOL    HW117654   0.786   2.830  11.669 -0.5389  0.3334  0.0672
 2007SOL    HW217655   0.806   2.961  11.733  1.6989  0.7843  2.9582
 2008SOL     OW17656   3.449   3.022   4.918  0.2741  0.1880 -0.2184
 2008SOL    HW117657   3.467   2.979   4.834  0.7766  0.9393 -0.4981
 2008SOL    HW217658   3.493   3.106   4.908  1.4625 -0.2991  0.9089
 2009SOL     OW17659   1.492   2.361   5.023 -0.3180 -0.3808 -0.1224
 2009SOL    HW117660   1.444   2.384   4.944 -1.0558 -0.6482  0.2495
 2009SOL    HW217661   1.511   2.442   5.070 -2.9788  0.5534 -0.6337
 2010SOL     OW17662   1.630   1.238   4.505  0.0801 -0.3928  0.0634
 2010SOL    HW117663   1.685   1.254   4.429  0.7544  0.7628  0.7901
 2010SOL    HW217664   1.684   1.284   4.570  1.1702  0.7298 -1.6447
 2011SOL     OW17665   2.320   3.317   2.123  0.2286  0.1579 -0.7471
 2011SOL    HW117666   2.282   3.237   2.157  2.1618 -1.3484 -2.1105
 2011SOL    HW217667   2.312   3.381   2.194  1.5415 -0.1474 -0.3294
 2012SOL     OW17668   0.224   3.476   7.238  0.2753  0.2222 -0.0286
 2012SOL    HW117669   0.255   3.566   7.241 -0.9826  0.5876  1.9267
 2012SOL    HW217670   0.293   3.411   7.247 -1.1940 -1.4056 -0.4862
 2013SOL     OW17671   1.309   4.422   8.970 -0.0941 -0.0556  0.0085
 2013SOL    HW117672   1.301   4.349   8.909 -0.5899  0.1271 -0.1474
 2013SOL    HW217673   1.394   4.413   9.013  1.1741  0.0544 -2.4663
 2014SOL     OW17674   1.166   2.702   2.690  0.3495  0.5781  0.6515
 2014SOL    HW117675   1.215   2.627   2.722 -0.1850 -0.2951 -0.6039
 2014SOL    HW217676   1.086   2.673   2.734 -0.2855  0.8310 -0.3341
 2015SOL     OW17677   2.363   1.577  12.333 -0.2969 -0.2935  0.2752
 2015SOL    HW117678   2.435   1.536  12.284  0.6306  0.9353  0.6163
 2015SOL    HW217679   2.338   1.649  12.275  0.8961 -0.4051 -0.3983
 2016SOL     OW17680   3.923   1.014   1.813 -0.3755  0.1421 -0.2786
 2016SOL    HW117681   3.865   1.089   1.801 -3.2549 -2.4687 -2.6935
 2016SOL    HW217682   3.883   0.943   1.763 -1.7211 -0.0054  1.0342
 2017SOL     OW17683   4.510   0.577   8.806  0.2881 -0.1524 -0.1671
 2017SOL    HW117684   4.587   0.615   8.848  0.4813  0.8405 -1.3923
 2017SOL    HW217685   4.542   0.487   8.800  2.0915  0.4361  0.7623
 2018SOL     OW17686   0.799   3.350   5.917  0.2949 -0.2711  0.1489
 2018SOL    HW117687   0.729   3.294   5.951  0.9867  0.0354  2.0965
 2018SOL    HW217688   0.861   3.335   5.989  1.5139  0.8058 -0.6769
 2019SOL     OW17689   3.437   2.131   1.477  0.1371  0.1467  0.1962
 2019SOL    HW117690   3.499   2.108   1.407  1.2413  1.4460  0.7547
 2019SOL    HW217691   3.448   2.045   1.518 -2.3316  0.3714  1.2874
 2020SOL     OW17692   3.776   0.289   6.108  0.1600  0.1461  0.6282
 2020SOL    HW117693   3.736   0.281   6.021  1.5347 -0.0138  0.0038
 2020SOL    HW217694   3.763   0.383   6.119 -0.6576  0.2532 -1.1226
 2021SOL     OW17695   3.179   1.221  14.340  0.4356 -0.1213 -0.0011
 2021SOL    HW117696   3.131   1.172  14.406 -0.9965 -0.9219 -1.6473
 2021SOL    HW217697   3.180   1.162  14.265 -4.5014  0.6349 -0.6070
 2022SOL     OW17698   2.195   4.476   8.134  0.2328 -0.2399 -0.0798
 2022SOL    HW117699   2.207   4.461   8.228 -0.0083 -0.3423 -0.0656
 2022SOL    HW217700   2.270   4.534   8.127 -2.5729  3.5687  1.4842
 2023SOL     OW17701   2.470   0.139  10.900  0.4935 -0.0970 -0.1257
 2023SOL    HW117702   2.463   0.218  10.954  1.2461 -0.7640  0.9408
 2023SOL    HW217703   2.557   0.152  10.862  1.2750 -3.3619  0.5529
 2024SOL     OW17704   1.403   0.266   8.391  0.0540 -0.6477 -1.0722
 2024SOL    HW117705   1.440   0.302   8.472 -2.8176  1.8197 -0.8254
 2024SOL    HW217706   1.449   0.319   8.326  1.0467 -2.1562 -1.5739
 2025SOL     OW17707   1.809   2.541   5.219 -0.1265  0.5411  0.1739
 2025SOL    HW117708   1.774   2.457   5.247  0.1026  0.2904 -0.2985
 2025SOL    HW217709   1.805   2.592   5.300  0.3670 -1.1269  1.2522
 2026SOL     OW17710   1.904   2.740   4.119 -0.0582  0.6415  0.8678
 2026SOL    HW117711   1.970   2.711   4.182 -0.9571  1.2141  2.0714
 2026SOL    HW217712   1.919   2.679   4.047  0.2925  2.3246 -0.4625
 2027SOL     OW17713   2.357   4.113  11.465 -0.0496  0.6017  0.0364
 2027SOL    HW117714   2.419   4.104  11.538  2.1655 -1.6855 -2.1492
 2027SOL    HW217715   2.280   4.135  11.518 -0.2579 -1.8718  0.7567
 2028SOL     OW17716   1.301   2.150   3.857 -0.5048  0.4836  0.0908
 2028SOL    HW117717   1.304   2.071   3.911  0.7883  0.3486 -0.1648
 2028SOL    HW217718   1.229   2.124   3.799 -1.4290  2.6081  0.3267
 2029SOL     OW17719   1.264   0.246   7.850 -0.4832 -0.5329 -0.1621
 2029SOL    HW117720   1.338   0.185   7.853 -0.0196  0.0101 -0.5877
 2029SOL    HW217721   1.252   0.244   7.945 -2.9734  3.3721 -0.4156
 2030SOL     OW17722   4.285   1.653   6.805  0.5768 -0.2738 -0.3087
 2030SOL    HW117723   4.379   1.643   6.786  0.4295 -0.4988 -0.9403
 2030SOL    HW217724   4.248   1.666   6.717  2.1063  0.6731 -0.8173
 2031SOL     OW17725   2.175   1.169  14.681  0.4988  0.2638  0.1645
 2031SOL    HW117726   2.149   1.105  14.614 -2.3866  0.2281  1.3224
 2031SOL    HW217727   2.149   1.107  14.750  0.5026 -0.5373 -0.5449
 2032SOL     OW17728   3.028   3.386   7.070 -0.0561 -0.5629 -0.5989
 2032SOL    HW117729   2.951   3.438   7.092  1.5989  1.0945  1.3386
 2032SOL    HW217730   3.090   3.410   7.139  0.4863 -0.6348 -1.0574
 2033SOL     OW17731   0.530   4.073  17.307  0.4356 -0.3093  0.4503
 2033SOL    HW117732   0.496   4.029  17.386 -1.0925 -1.9801 -1.1314
 2033SOL    HW217733   0.618   4.037  17.311 -0.5612 -2.6005  1.8041
 2034SOL     OW17734   0.043   1.420   1.401 -0.6196  0.1098 -0.1567
 2034SOL    HW117735   0.030   1.436   1.495 -0.6922 -0.5101 -0.0610
 2034SOL    HW217736   0.111   1.485   1.385  0.1405 -0.3500  1.1871
 2035SOL     OW17737   1.914   1.356   2.829 -0.0095  0.1924 -0.5170
 2035SOL    HW117738   1.925   1.362   2.924 -1.6170  1.0779 -0.3929
 2035SOL    HW217739   1.821   1.378   2.824  0.4391  2.1867  0.2750
 2036SOL     OW17740   2.316   3.130   3.717  0.2174 -0.0179 -0.5079
 2036SOL    HW117741   2.387   3.172   3.669  0.4655  0.7421  0.5251
 2036SOL    HW217742   2.313   3.193   3.790  0.8136 -0.2201 -0.3031
 2037SOL     OW17743   1.812   1.124   3.023 -0.2240 -0.0001  0.2346
 2037SOL    HW117744   1.790   1.213   3.049  0.0279 -0.0934  0.7665
 2037SOL    HW217745   1.747   1.074   3.072  1.4799  1.2553  3.8008
 2038SOL     OW17746   2.192   1.396   3.379  0.2883  0.6355  0.0229
 2038SOL    HW117747   2.187   1.301   3.386  1.1551  0.5850 -0.0269
 2038SOL    HW217748   2.169   1.428   3.466  1.2245  0.5754  0.2924
 2039SOL     OW17749   3.665   2.206   9.358  0.3438  0.1093  0.5377
 2039SOL    HW117750   3.740   2.164   9.315  1.5478  0.3159  2.4241
 2039SOL    HW217751   3.705   2.222   9.444  0.8674 -0.5464  0.4210
 2040SOL     OW17752   4.365   2.433   3.643 -0.2173  0.2613  0.4079
 2040SOL    HW117753   4.401   2.489   3.712 -1.2625 -1.5698  2.4390
 2040SOL    HW217754   4.401   2.487   3.572  3.5075 -3.6930 -0.7109
 2041SOL     OW17755   2.923   2.318  12.082  0.1126  0.0182 -0.7539
 2041SOL    HW117756   2.999   2.271  12.115  1.6192  1.5542 -2.0218
 2041SOL    HW217757   2.895   2.364  12.161  2.4635  1.5089 -0.8053
 2042SOL     OW17758   0.770   3.456   4.196 -0.1564 -0.4468  0.2006
 2042SOL    HW117759   0.730   3.479   4.112  1.6296  2.2188  0.0976
 2042SOL    HW217760   0.701   3.463   4.262 -0.8486 -2.5298 -0.2789
 2043SOL     OW17761   3.480   0.646  10.946 -0.3699  0.5119  0.0938
 2043SOL    HW117762   3.495   0.553  10.927 -0.4843  0.5254 -0.0586
 2043SOL    HW217763   3.403   0.638  11.003 -0.1312  0.6041  0.4315
 2044SOL     OW17764   2.875   2.369   8.569  0.2903  0.1627  0.0502
 2044SOL    HW117765   2.833   2.287   8.543 -1.9713  1.2950  0.1428
 2044SOL    HW217766   2.888   2.360   8.663 -0.0712 -0.2997  0.0531
 2045SOL     OW17767   4.499   3.485  16.537 -0.5432  0.0301 -0.3327
 2045SOL    HW117768   4.439   3.457  16.606 -2.0851  3.5734 -0.2076
 2045SOL    HW217769   4.527   3.399  16.506 -0.9668 -0.1760 -0.1379
 2046SOL     OW17770   0.326   2.105   5.158  0.6481  0.2314  0.3607
 2046SOL    HW117771   0.401   2.155   5.125  1.1794  0.2005  1.5105
 2046SOL    HW217772   0.268   2.176   5.186  0.2766  0.1381 -0.1648
 2047SOL     OW17773   2.743   0.971   4.518  0.5237  0.2935  0.4112
 2047SOL    HW117774   2.654   0.958   4.552  1.1987  0.3897  2.2095
 2047SOL    HW217775   2.780   0.891   4.555 -0.4803 -0.8802 -1.1082
 2048SOL     OW17776   1.770   0.802  11.975  0.0400  0.7416 -0.1392
 2048SOL    HW117777   1.678   0.788  11.956 -0.2502 -2.8029  3.5476
 2048SOL    HW217778   1.782   0.854  11.896  0.1347  1.8539  0.6082
 2049SOL     OW17779   4.236   3.037   8.481 -0.2146  0.1754 -0.1072
 2049SOL    HW117780   4.245   2.943   8.496 -0.5931  0.3370  1.0928
 2049SOL    HW217781   4.329   3.060   8.478 -0.3516  0.9150  1.2321
 2050SOL     OW17782   2.224   1.724   1.955  0.2877 -0.5376 -1.4141
 2050SOL    HW117783   2.251   1.668   1.883  0.4430 -1.3762 -0.7045
 2050SOL    HW217784   2.161   1.672   2.005 -0.1894  1.3856 -0.0044
 2051SOL     OW17785   0.449   1.014  17.738  0.1419 -0.0525 -0.1030
 2051SOL    HW117786   0.447   0.976   0.067  1.1065 -3.4617 -1.5747
 2051SOL    HW217787   0.400   1.092   0.007 -0.6377 -0.2785 -0.8456
 2052SOL     OW17788   3.655   3.293   9.237 -0.8454 -0.3162  0.2510
 2052SOL    HW117789   3.676   3.215   9.289 -3.0486 -0.6860  0.5925
 2052SOL    HW217790   3.666   3.358   9.306  0.1806  0.8431 -1.0120
 2053SOL     OW17791   4.685   4.735   4.258  0.3318 -0.5132  0.4068
 2053SOL    HW117792   4.634   4.701   4.183  0.3355  1.3810 -0.4501
 2053SOL    HW217793   4.624   0.039   4.316 -0.8227  1.3784 -2.2427
 2054SOL     OW17794   3.760   3.764   3.488 -0.1521 -0.1753 -0.1513
 2054SOL    HW117795   3.793   3.773   3.578 -0.9818 -1.9792  0.3406
 2054SOL    HW217796   3.819   3.816   3.435  1.5675 -0.2323  1.7002
 2055SOL     OW17797   4.155   3.126  15.403  0.8023 -0.3074  0.1173
 2055SOL    HW117798   4.121   3.054  15.350  1.0581 -1.6721  1.7902
 2055SOL    HW217799   4.213   3.077  15.462  0.2133 -0.6233  0.4369
 2056SOL     OW17800   4.002   4.204  14.836 -0.3901 -0.4300  0.0200
 2056SOL    HW117801   4.046   4.287  14.822 -1.8216  0.1655 -1.0091
 2056SOL    HW217802   4.061   4.148  14.785  0.6079 -0.0446  0.7603
 2057SOL     OW17803   4.721   1.950   3.988 -0.1656  0.0887 -0.7405
 2057SOL    HW117804   4.645   1.958   3.931 -0.7486  1.3164  0.2154
 2057SOL    HW217805   4.693   2.005   4.061 -0.1033 -1.6754  0.6089
 2058SOL     OW17806   0.644   0.562   3.298 -0.5870  0.0503  0.4807
 2058SOL    HW117807   0.628   0.573   3.204 -2.1720 -0.8422  0.6451
 2058SOL    HW217808   0.607   0.641   3.337 -0.4188  0.9479 -1.1911
 2059SOL     OW17809   1.145   1.141   4.613 -0.0859 -0.5408 -0.1214
 2059SOL    HW117810   1.142   1.233   4.585 -1.7831 -0.0440  1.6484
 2059SOL    HW217811   1.170   1.149   4.705  1.8955 -0.9970 -0.6192
 2060SOL     OW17812   3.635   2.998   1.046  0.3759  0.0011  0.1210
 2060SOL    HW117813   3.687   2.957   1.115  0.6169 -0.0501 -0.0902
 2060SOL    HW217814   3.701   2.997   0.977  0.9945 -1.6962  0.7378
 2061SOL     OW17815   2.508   1.305   7.974  0.0536  0.0391  0.2018
 2061SOL    HW117816   2.564   1.367   8.020 -0.7930  1.8029 -1.1893
 2061SOL    HW217817   2.462   1.271   8.051 -1.8640 -1.4081 -1.5709
 2062SOL     OW17818   4.451   2.398   6.571  0.4792 -0.1481 -0.2423
 2062SOL    HW117819   4.386   2.447   6.521  0.2293 -1.4831 -1.2089
 2062SOL    HW217820   4.485   2.472   6.622  1.5705 -0.4243 -0.5655
 2063SOL     OW17821   4.582   2.463  13.593 -0.4315  0.4064  0.3571
 2063SOL    HW117822   4.678   2.468  13.595 -0.3316 -2.8163  3.8562
 2063SOL    HW217823   4.568   2.523  13.520 -2.7196 -0.1521  0.3490
 2064SOL     OW17824   2.249   0.045  17.615  0.0566  0.1429 -0.2276
 2064SOL    HW117825   2.167   0.025  17.570 -0.3056  0.0021  0.4785
 2064SOL    HW217826   2.308   0.077  17.548  2.0139 -2.0633  0.4443
 2065SOL     OW17827   3.360   0.656   7.662 -0.2901 -0.0685  0.2807
 2065SOL    HW117828   3.437   0.644   7.608  0.1425 -1.7587  1.2717
 2065SOL    HW217829   3.373   0.749   7.679  0.6005 -0.1354 -0.0508
 2066SOL     OW17830   0.338   0.369   2.081 -0.0859  0.1129  0.3009
 2066SOL    HW117831   0.251   0.380   2.118  0.3966 -0.3484  1.6087
 2066SOL    HW217832   0.326   0.277   2.056 -0.2354  0.3288 -0.4119
 2067SOL     OW17833   1.063   2.778   6.450 -0.2091 -0.7429  0.0910
 2067SOL    HW117834   1.011   2.756   6.372  0.2923  3.6921 -1.4751
 2067SOL    HW217835   1.050   2.695   6.495 -2.0980 -1.1963 -1.3047
 2068SOL     OW17836   0.047   1.655   0.396  0.0348 -0.7697 -0.5492
 2068SOL    HW117837   4.731   1.725   0.429 -0.1569 -0.5756 -1.2765
 2068SOL    HW217838   0.109   1.647   0.468  0.0048  1.5537 -0.2773
 2069SOL     OW17839   1.557   2.210   2.215  0.1119  0.0141 -0.6084
 2069SOL    HW117840   1.614   2.199   2.291 -0.1353 -2.0815 -0.7221
 2069SOL    HW217841   1.479   2.248   2.256 -1.5015 -3.3458 -0.6118
 2070SOL     OW17842   4.241   2.512   6.382  0.6614 -0.3398  0.4394
 2070SOL    HW117843   4.292   2.592   6.369  1.5011 -0.7743  1.0830
 2070SOL    HW217844   4.203   2.491   6.296 -2.5260  3.8116  0.8381
 2071SOL     OW17845   0.433   0.723   9.368 -0.4632  0.2432  0.1408
 2071SOL    HW117846   0.458   0.693   9.280  0.3098 -2.2663  1.2073
 2071SOL    HW217847   0.364   0.786   9.348 -0.0856  1.0499  1.4134
 2072SOL     OW17848   3.553   1.244   3.583  0.4948 -0.1460 -0.2810
 2072SOL    HW117849   3.493   1.227   3.655 -0.3003  0.1424 -0.8717
 2072SOL    HW217850   3.527   1.336   3.579 -0.4716 -0.4891 -1.8213
 2073SOL     OW17851   4.573   0.204   5.486  0.5201  0.0244 -0.1962
 2073SOL    HW117852   4.555   0.245   5.571 -1.1235 -1.0439 -0.0254
 2073SOL    HW217853   4.521   0.251   5.422  0.1642  1.9162  1.4772
 2074SOL     OW17854   3.266   2.679   8.568  0.3300 -0.2159  0.1180
 2074SOL    HW117855   3.357   2.662   8.545  0.3561 -0.0216  0.0772
 2074SOL    HW217856   3.251   2.610   8.633  2.8145  1.0876  2.0817
 2075SOL     OW17857   1.071   1.267  17.376 -0.0882 -0.0384  0.2275
 2075SOL    HW117858   1.011   1.223  17.315  0.4148 -1.5639  0.8276
 2075SOL    HW217859   1.104   1.194  17.428 -0.8602 -0.2803  0.3767
 2076SOL     OW17860   3.879   0.090  14.105  0.6815  0.4797  0.5613
 2076SOL    HW117861   3.919   0.151  14.167 -0.7069 -1.0662  3.0232
 2076SOL    HW217862   3.859   0.140  14.026 -2.2494 -0.0643  0.9700
 2077SOL     OW17863   4.059   0.097   9.342  0.2189  0.1815 -0.0503
 2077SOL    HW117864   4.112   0.142   9.276  1.5200  0.5356  1.2177
 2077SOL    HW217865   4.096   0.139   9.420  0.5183  0.8836 -0.5654
 2078SOL     OW17866   4.645   3.332   4.630 -0.3603 -0.2408  0.5207
 2078SOL    HW117867   4.573   3.395   4.631 -0.0582  0.1109  0.2570
 2078SOL    HW217868   4.671   3.330   4.722 -2.3487  0.4264  1.0840
 2079SOL     OW17869   0.312   2.762   0.819 -0.1206  0.1948 -0.3776
 2079SOL    HW117870   0.236   2.774   0.876  0.6742  0.7769  0.5581
 2079SOL    HW217871   0.354   2.848   0.824  0.9831 -0.1608 -3.2738
 2080SOL     OW17872   1.634   1.040   5.408  0.1052  0.2257  0.7419
 2080SOL    HW117873   1.704   1.029   5.473  1.1410  0.0961 -0.3941
 2080SOL    HW217874   1.602   1.127   5.431  0.8047  1.0463 -1.3460
 2081SOL     OW17875   3.346   1.377   1.870 -0.0549  0.1539  0.0498
 2081SOL    HW117876   3.426   1.406   1.914  1.4662 -0.1579 -2.5207
 2081SOL    HW217877   3.339   1.429   1.790  1.0914 -0.3763 -0.4019
 2082SOL     OW17878   2.716   1.892   1.281 -0.4137  0.1680  0.3156
 2082SOL    HW117879   2.684   1.862   1.365 -1.1172 -0.6522 -0.2443
 2082SOL    HW217880   2.638   1.913   1.229  0.2838  0.0322 -0.7839
 2083SOL     OW17881   0.537   0.067   4.411 -0.1389 -0.2097  0.4647
 2083SOL    HW117882   0.616   0.092   4.458 -0.1313  0.2335  0.2200
 2083SOL    HW217883   0.487   0.148   4.428 -0.9484 -0.4819 -0.6239
 2084SOL     OW17884   1.839   4.298   8.607  0.5747 -0.4246  0.2918
 2084SOL    HW117885   1.842   4.204   8.590  0.6614 -0.1275 -1.3507
 2084SOL    HW217886   1.875   4.286   8.695  0.3642 -0.0380  0.4273
 2085SOL     OW17887   4.442   3.543  13.714 -0.3190  0.0656  0.1097
 2085SOL    HW117888   4.430   3.628  13.670 -2.5623  0.0776  0.7377
 2085SOL    HW217889   4.422   3.578  13.801 -0.9413  1.6010 -0.6510
 2086SOL     OW17890   4.199   0.444  15.512 -0.1806 -0.1548 -0.1142
 2086SOL    HW117891   4.290   0.451  15.541  0.2521  0.4950 -1.6188
 2086SOL    HW217892   4.164   0.523  15.554  2.5207  0.5041  0.8458
 2087SOL     OW17893   3.502   4.411   1.506  0.3298  0.0385  0.0626
 2087SOL    HW117894   3.578   4.352   1.498 -0.8323 -1.4012 -0.3696
 2087SOL    HW217895   3.540   4.485   1.458  1.9924  0.1810  1.5859
 2088SOL     OW17896   0.224   3.210   5.559  0.0910  0.1296 -0.6672
 2088SOL    HW117897   0.268   3.132   5.593  1.3450  1.3978  0.5734
 2088SOL    HW217898   0.256   3.282   5.613 -0.0621 -0.4063  0.1416
 2089SOL     OW17899   2.375   1.417   1.403 -0.0150 -0.2151 -0.3600
 2089SOL    HW117900   2.284   1.403   1.430 -0.1670  0.6926 -0.3968
 2089SOL    HW217901   2.416   1.429   1.488  1.7219 -1.3216 -1.0547
 2090SOL     OW17902   4.553   2.934   9.643 -0.7345 -0.3670 -0.3517
 2090SOL    HW117903   4.503   2.864   9.686 -0.3138  0.3407  1.3071
 2090SOL    HW217904   4.484   2.999   9.633 -0.9357 -0.6878 -0.9959
 2091SOL     OW17905   2.922   2.055   4.286  0.6587 -0.3286  0.7013
 2091SOL    HW117906   2.984   1.985   4.264  0.6205 -0.0513 -0.3112
 2091SOL    HW217907   2.899   2.032   4.376  1.7622 -0.6974  0.8987
 2092SOL     OW17908   3.806   3.244   1.141  0.0262  0.2383  0.3539
 2092SOL    HW117909   3.801   3.318   1.201 -0.4273  0.0352  0.5711
 2092SOL    HW217910   3.730   3.194   1.170 -0.3995  0.8824  0.3365
 2093SOL     OW17911   2.823   4.067  15.921 -0.2527  0.0961 -0.4955
 2093SOL    HW117912   2.757   4.117  15.872  2.0925  2.0714 -1.6683
 2093SOL    HW217913   2.798   3.976  15.909 -1.2124  0.5842 -2.1923
 2094SOL     OW17914   2.117   1.750   3.285 -0.8338  0.3897  0.3967
 2094SOL    HW117915   2.121   1.820   3.350 -0.9320 -0.1385  0.9739
 2094SOL    HW217916   2.054   1.685   3.315  0.7398 -1.3031  0.0437
 2095SOL     OW17917   1.509   2.858   5.325  0.8760 -0.2471 -0.2414
 2095SOL    HW117918   1.550   2.807   5.394 -1.5193 -0.8787  0.7279
 2095SOL    HW217919   1.591   2.881   5.282  2.3688 -1.3648  2.0292
 2096SOL     OW17920   3.434   0.570   4.509  0.3807  0.0098  0.2487
 2096SOL    HW117921   3.383   0.632   4.457  1.7830 -0.5248 -1.7668
 2096SOL    HW217922   3.383   0.497   4.474  0.5019 -0.2050  0.5178
 2097SOL     OW17923   2.260   4.592   9.299  0.9024 -0.0257  0.2287
 2097SOL    HW117924   2.209   4.670   9.277  0.6115 -1.5364 -4.4574
 2097SOL    HW217925   2.309   4.601   9.217 -2.1993  1.0721 -1.5000
 2098SOL     OW17926   1.763   1.537   6.454 -0.4659  0.3830 -0.4802
 2098SOL    HW117927   1.687   1.595   6.454 -0.3927  0.5043  1.7687
 2098SOL    HW217928   1.767   1.502   6.543 -0.0823 -0.5356 -0.8613
 2099SOL     OW17929   3.156   1.193   3.149  0.2092  0.3093  0.6125
 2099SOL    HW117930   3.135   1.105   3.180 -0.7085  0.1953 -0.3637
 2099SOL    HW217931   3.075   1.226   3.110 -0.7471  1.2182  3.3842
 2100SOL     OW17932   3.644   2.767   7.209 -0.1890 -0.5603 -0.2035
 2100SOL    HW117933   3.680   2.734   7.127  1.5984 -0.0716  0.3971
 2100SOL    HW217934   3.563   2.802   7.172  0.1474 -0.0084 -0.4105
 2101SOL     OW17935   3.251   4.224   8.934  0.3694  0.5396  0.2976
 2101SOL    HW117936   3.326   4.187   8.981 -0.3424 -3.1537 -1.4289
 2101SOL    HW217937   3.206   4.149   8.895 -1.0410  0.3238  2.3315
 2102SOL     OW17938   0.872   3.432   3.127  0.2877 -0.1779 -0.4717
 2102SOL    HW117939   0.815   3.371   3.081  0.1413  1.3111 -2.2774
 2102SOL    HW217940   0.817   3.511   3.122  0.9473  0.4409  1.8670
 2103SOL     OW17941   3.670   4.034  16.921 -0.0702  0.1755 -0.2120
 2103SOL    HW117942   3.636   3.964  16.978  2.0607  0.9599  2.0364
 2103SOL    HW217943   3.695   4.104  16.981 -0.3026  0.1816 -0.1209
 2104SOL     OW17944   4.278   3.528   2.327  0.6114  0.1536 -0.0023
 2104SOL    HW117945   4.344   3.477   2.374  0.9892  1.8848  1.3719
 2104SOL    HW217946   4.221   3.536   2.403  0.7143 -0.4439  0.1384
 2105SOL     OW17947   3.397   4.719   3.358  0.0604  0.2158 -0.0335
 2105SOL    HW117948   3.346   0.025   3.425 -2.5729 -1.4799 -0.8794
 2105SOL    HW217949   3.317   4.696   3.312  0.8496 -1.4005 -0.5890
 2106SOL     OW17950   3.220   2.918   3.529  0.0688 -0.2276  0.0254
 2106SOL    HW117951   3.216   2.829   3.493 -3.9126 -0.6592  1.5679
 2106SOL    HW217952   3.142   2.919   3.584 -0.5894 -0.5459 -0.9157
 2107SOL     OW17953   1.101   1.952   5.885 -0.1655 -0.2143 -0.1452
 2107SOL    HW117954   1.145   1.867   5.886 -0.3126 -0.2996 -1.3611
 2107SOL    HW217955   1.007   1.933   5.878 -0.2514  0.2430 -0.2268
 2108SOL     OW17956   3.979   1.509   9.461  0.3621  0.0132 -0.0288
 2108SOL    HW117957   3.943   1.479   9.544  0.1582 -1.1695 -0.5288
 2108SOL    HW217958   3.989   1.419   9.428  0.6680 -0.2392  0.7529
 2109SOL     OW17959   4.045   3.537   7.966  0.0146  0.0828 -0.2526
 2109SOL    HW117960   3.975   3.482   8.000  1.1591  0.0197  1.9913
 2109SOL    HW217961   4.077   3.577   8.047 -2.2681 -0.0344  0.7125
 2110SOL     OW17962   1.247   1.117   9.201 -0.2489 -0.6522  0.5422
 2110SOL    HW117963   1.329   1.073   9.176 -0.9423 -1.3523 -0.5037
 2110SOL    HW217964   1.259   1.190   9.140  1.8597 -3.3823 -2.3642
 2111SOL     OW17965   3.693   1.675   3.588 -1.1251  0.2453  0.6223
 2111SOL    HW117966   3.684   1.752   3.532  0.6398 -0.5885 -0.8419
 2111SOL    HW217967   3.756   1.620   3.541 -0.0415  0.4251  1.8631
 2112SOL     OW17968   3.048   0.168   3.037  0.1169  0.5477 -0.4182
 2112SOL    HW117969   2.967   0.190   3.084 -0.4761 -2.2446 -0.1382
 2112SOL    HW217970   3.072   0.087   3.081  1.8040  1.4842  0.3704
 2113SOL     OW17971   1.725   1.808  16.217  0.2278  0.1207  0.4851
 2113SOL    HW117972   1.700   1.878  16.277  0.3340 -0.8458  1.6425
 2113SOL    HW217973   1.672   1.734  16.246  0.3995 -0.0266  0.4178
 2114SOL     OW17974   1.970   2.516  10.434  0.0246  0.5091  0.2531
 2114SOL    HW117975   1.991   2.601  10.473  0.7875 -0.7142  2.5414
 2114SOL    HW217976   1.898   2.486  10.490 -0.8935  3.5978  0.6874
 2115SOL     OW17977   2.003   0.820   7.690  0.6237 -0.1834 -0.0669
 2115SOL    HW117978   2.048   0.773   7.620 -0.1107  0.1601 -0.7606
 2115SOL    HW217979   2.066   0.857   7.752  0.7826  0.9472 -0.9029
 2116SOL     OW17980   3.861   4.072   7.544  0.3846 -0.1462 -0.0355
 2116SOL    HW117981   3.903   4.003   7.493  1.1469  0.3851 -0.1278
 2116SOL    HW217982   3.866   4.146   7.484 -1.7357 -0.2577 -0.3478
 2117SOL     OW17983   0.097   0.521  15.804  0.0311 -0.3300  0.3580
 2117SOL    HW117984   0.189   0.524  15.777  0.0433  1.2864  0.5510
 2117SOL    HW217985   0.047   0.555  15.730 -1.1827 -1.3291  0.7293
 2118SOL     OW17986   3.679   1.932  15.902 -0.0219  0.4588  0.4860
 2118SOL    HW117987   3.654   2.021  15.924 -0.1748  0.8019 -1.0624
 2118SOL    HW217988   3.595   1.900  15.869  1.5202 -0.4593 -2.5671
 2119SOL     OW17989   1.963   2.960   1.155 -0.0710 -0.1257  0.1742
 2119SOL    HW117990   1.891   2.976   1.216 -0.3999  0.5362 -0.3880
 2119SOL    HW217991   1.964   3.050   1.122  1.3076 -0.7875 -1.5764
 2120SOL     OW17992   2.883   1.968   8.315 -0.2340  0.0564 -0.5811
 2120SOL    HW117993   2.811   1.978   8.377 -0.1125  2.6640 -0.8617
 2120SOL    HW217994   2.851   2.022   8.242  0.1872 -0.3547 -1.0740
 2121SOL     OW17995   1.707   4.378   3.927 -0.1134  0.2255 -0.2557
 2121SOL    HW117996   1.654   4.358   3.849 -0.7983 -0.2331  0.3356
 2121SOL    HW217997   1.727   4.468   3.903  1.7590 -0.0547  0.2381
 2122SOL     OW17998   2.233   0.788  15.756 -0.1467  0.3323  0.3126
 2122SOL    HW117999   2.270   0.830  15.678  0.2352 -1.7150 -0.6048
 2122SOL    HW218000   2.260   0.855  15.819 -1.4526 -0.9168  2.1993
 2123SOL     OW18001   0.336   3.046   6.466  0.1070  0.6517  0.5247
 2123SOL    HW118002   0.360   2.962   6.506  1.4450  0.4704 -0.6583
 2123SOL    HW218003   0.242   3.031   6.457  0.7702 -2.2704 -1.8125
 2124SOL     OW18004   3.558   1.212  16.163 -0.2231 -0.2784 -0.1323
 2124SOL    HW118005   3.465   1.191  16.168 -0.2816  0.2425  0.9735
 2124SOL    HW218006   3.588   1.134  16.209  3.2309  0.0996 -1.7675
 2125SOL     OW18007   2.772   1.472   8.467 -0.0881 -0.2160 -0.2056
 2125SOL    HW118008   2.863   1.470   8.437  0.2867 -0.3186  0.9344
 2125SOL    HW218009   2.756   1.566   8.480  2.0134  0.3852 -1.9583
 2126SOL     OW18010   1.949   2.963   5.528 -0.0243  0.2511  0.5920
 2126SOL    HW118011   1.979   2.928   5.445 -1.4854 -1.9824  1.0094
 2126SOL    HW218012   1.955   3.059   5.525 -3.1355  0.4277 -0.3580
 2127SOL     OW18013   4.155   3.332  11.781  0.2502  0.5919  0.0696
 2127SOL    HW118014   4.133   3.286  11.862 -1.8112  1.2214 -0.1321
 2127SOL    HW218015   4.219   3.273  11.741 -1.5546 -1.2897 -0.0392
 2128SOL     OW18016   2.578   4.596   5.781 -0.4840  0.0601 -0.3399
 2128SOL    HW118017   2.505   4.590   5.842 -1.1677 -1.1188 -1.2566
 2128SOL    HW218018   2.548   4.663   5.720 -1.6740 -0.3261 -0.1760
 2129SOL     OW18019   0.628   4.157   4.480 -0.3400  0.5130 -0.4145
 2129SOL    HW118020   0.617   4.079   4.424 -0.4885  0.0895  0.2036
 2129SOL    HW218021   0.541   4.197   4.477 -0.3321  0.7293  3.4256
 2130SOL     OW18022   1.069   1.699   5.148 -0.3025  0.4496  0.8472
 2130SOL    HW118023   1.083   1.622   5.203 -0.7898  0.1118  0.4995
 2130SOL    HW218024   1.152   1.747   5.155 -0.9907  1.9790 -1.3926
 2131SOL     OW18025   1.235   0.296   3.737 -0.0109 -0.1775  0.0384
 2131SOL    HW118026   1.200   0.380   3.766 -1.0251 -0.6863  0.2968
 2131SOL    HW218027   1.301   0.275   3.803  3.1160  2.3180 -2.3134
 2132SOL     OW18028   3.009   4.390   5.758 -0.4604  0.4229  0.1138
 2132SOL    HW118029   2.929   4.408   5.807 -0.1633  1.5887  0.1773
 2132SOL    HW218030   2.978   4.334   5.687 -1.9651 -0.7944  1.7172
 2133SOL     OW18031   4.285   2.216  13.677 -0.2846 -0.2159 -0.1425
 2133SOL    HW118032   4.226   2.165  13.621  1.0219 -1.2102 -0.6192
 2133SOL    HW218033   4.268   2.179  13.764 -0.1878  0.3133  0.1013
 2134SOL     OW18034   1.635   2.915   2.892  0.1615 -0.1682  1.0458
 2134SOL    HW118035   1.645   3.010   2.896  0.6418 -0.1239 -0.9599
 2134SOL    HW218036   1.726   2.886   2.900  0.7040  1.0193 -0.6472
 2135SOL     OW18037   0.025   3.242  17.609  0.0604  0.1227 -0.2528
 2135SOL    HW118038   0.019   3.338  17.618  1.7299  0.3584 -1.8386
 2135SOL    HW218039   0.118   3.222  17.609  0.1661  0.6160 -0.4816
 2136SOL     OW18040   4.598   0.003   7.308 -0.0410  0.5213  0.1200
 2136SOL    HW118041   4.589   4.662   7.359  1.3017 -0.7435 -1.6869
 2136SOL    HW218042   4.587   0.064   7.381  0.3640 -1.9544  2.2584
 2137SOL     OW18043   3.088   3.411   8.068 -0.6977  0.1863  0.2663
 2137SOL    HW118044   3.081   3.355   7.990 -0.7996  1.0044 -0.3170
 2137SOL    HW218045   3.089   3.350   8.142 -0.8068 -1.1399 -0.8147
 2138SOL     OW18046   2.405   1.056   2.191  0.7179  0.2644 -0.1852
 2138SOL    HW118047   2.338   0.999   2.153 -1.1058  0.8843  2.1332
 2138SOL    HW218048   2.430   1.015   2.274  2.6592  2.1889  0.1772
 2139SOL     OW18049   2.720   1.950   2.204 -0.2452 -0.3530  1.1746
 2139SOL    HW118050   2.670   2.002   2.141 -0.4109  1.4299  2.7651
 2139SOL    HW218051   2.807   1.990   2.210  0.5187 -1.5946 -1.7019
 2140SOL     OW18052   3.706   0.474   4.674 -0.1077 -0.0219 -0.4075
 2140SOL    HW118053   3.661   0.550   4.712 -0.8550  0.2078 -1.7310
 2140SOL    HW218054   3.665   0.415   4.737  0.3638  1.1439  0.9841
 2141SOL     OW18055   0.854   1.485   4.241  0.8279  0.5938 -0.4898
 2141SOL    HW118056   0.880   1.560   4.294 -1.2314 -0.8198  2.5629
 2141SOL    HW218057   0.908   1.416   4.279 -2.5761 -1.6505  0.3446
 2142SOL     OW18058   3.646   0.825   1.520  0.5335 -0.5132  0.0356
 2142SOL    HW118059   3.681   0.809   1.608  2.9941  1.8161 -0.5173
 2142SOL    HW218060   3.557   0.840   1.553 -0.1690 -0.7782 -1.7524
 2143SOL     OW18061   3.089   3.895   4.586  0.5787  0.2811 -0.1199
 2143SOL    HW118062   3.079   3.803   4.564  1.4644  0.7596 -2.5054
 2143SOL    HW218063   3.025   3.906   4.656  2.7760  0.6078  1.8445
 2144SOL     OW18064   1.473   0.239  16.440  0.4338  0.2187 -0.1443
 2144SOL    HW118065   1.479   0.227  16.345 -0.5163 -2.0020  0.0776
 2144SOL    HW218066   1.461   0.334  16.444  0.1484  0.1363  1.0569
 2145SOL     OW18067   2.043   4.465   5.611  0.1724  0.4744 -0.0967
 2145SOL    HW118068   2.019   4.525   5.540 -1.4533 -0.3491 -0.2325
 2145SOL    HW218069   2.106   4.522   5.657 -0.0924  1.6954 -1.2234
 2146SOL     OW18070   0.870   3.990   2.496  0.0554  0.0660 -0.4843
 2146SOL    HW118071   0.897   3.923   2.433 -1.1918  0.5604 -1.5488
 2146SOL    HW218072   0.777   3.968   2.497  0.0257  0.2171  0.0947
 2147SOL     OW18073   2.451   1.429   5.144 -0.0874  0.4337  0.3420
 2147SOL    HW118074   2.401   1.415   5.224  2.1300 -1.3549  1.4394
 2147SOL    HW218075   2.421   1.515   5.115 -1.0413  0.0184  0.0951
 2148SOL     OW18076   4.028   2.203  16.927  0.0681  0.0362  0.1987
 2148SOL    HW118077   3.982   2.190  16.844 -1.3779  2.5647  0.6329
 2148SOL    HW218078   4.111   2.241  16.896  0.8161 -1.7209  0.0240
 2149SOL     OW18079   3.899   2.905   1.670 -0.4525 -0.0597  0.1945
 2149SOL    HW118080   3.984   2.924   1.630  0.5450 -1.2829  1.7478
 2149SOL    HW218081   3.911   2.816   1.703  1.2621 -0.5132 -1.6219
 2150SOL     OW18082   0.513   2.362   8.552  0.2478  0.7213 -0.4371
 2150SOL    HW118083   0.573   2.293   8.525 -2.6185 -1.5511 -0.9550
 2150SOL    HW218084   0.466   2.326   8.626 -0.2532  2.3729  0.0645
 2151SOL     OW18085   1.686   1.960   3.576  0.3844  0.6729 -0.3314
 2151SOL    HW118086   1.745   1.921   3.640  0.3436  0.1727 -0.5944
 2151SOL    HW218087   1.600   1.970   3.616 -0.4898 -2.3663 -1.4005
 2152SOL     OW18088   3.386   0.779   6.531  0.2780 -0.1528 -0.3489
 2152SOL    HW118089   3.386   0.750   6.623 -0.7828  0.7106 -0.0835
 2152SOL    HW218090   3.303   0.824   6.524  0.0370 -0.3893  0.8989
 2153SOL     OW18091   2.723   0.586  11.932  0.1887 -0.4152 -0.0824
 2153SOL    HW118092   2.652   0.645  11.905  0.4395 -0.2160 -0.3053
 2153SOL    HW218093   2.760   0.553  11.850  1.1549 -0.6228  0.4371
 2154SOL     OW18094   3.083   1.486  12.286 -0.2448 -0.6203  0.1706
 2154SOL    HW118095   3.086   1.396  12.254 -0.8953 -0.7730  0.5434
 2154SOL    HW218096   2.998   1.487  12.330  0.6857 -2.8495  2.0427
 2155SOL     OW18097   2.299   1.810  12.172 -0.5717 -0.0071  0.0332
 2155SOL    HW118098   2.261   1.753  12.106  2.3981  0.1747 -1.8561
 2155SOL    HW218099   2.379   1.835  12.124  0.9266 -2.7417  1.0861
 2156SOL     OW18100   1.171   3.402   4.364  0.6527 -0.4782 -0.6194
 2156SOL    HW118101   1.168   3.381   4.457  0.0900  0.9874 -0.3008
 2156SOL    HW218102   1.157   3.317   4.322  1.4490  0.2742 -2.4253
 2157SOL     OW18103   1.657   0.846   2.007  0.3898  0.0742  0.1221
 2157SOL    HW118104   1.744   0.885   2.003  0.1879  0.5467  0.4122
 2157SOL    HW218105   1.652   0.826   1.913  0.1167  1.5966 -0.1871
 2158SOL     OW18106   3.657   2.921   4.177 -0.3773  0.2028 -0.3293
 2158SOL    HW118107   3.604   2.859   4.127  0.3517  0.6464 -1.6496
 2158SOL    HW218108   3.700   2.987   4.123  1.4539 -1.0654 -0.4325
 2159SOL     OW18109   0.847   2.985  12.931  1.0789 -0.2702  0.3376
 2159SOL    HW118110   0.901   2.921  12.978  1.7574  0.1631  0.1470
 2159SOL    HW218111   0.898   2.983  12.850  0.2229  1.6135 -0.2407
 2160SOL     OW18112   2.737   3.849   8.870 -0.5323 -0.2574 -0.3514
 2160SOL    HW118113   2.654   3.808   8.846 -0.9386 -0.3208  1.1801
 2160SOL    HW218114   2.720   3.875   8.961  3.8221 -0.6574  0.5957
 2161SOL     OW18115   3.935   0.346   4.947  0.0373 -0.3965  0.0232
 2161SOL    HW118116   3.978   0.262   4.967  0.8664 -0.2163 -1.0293
 2161SOL    HW218117   3.998   0.413   4.974 -0.0617  0.6089 -2.2829
 2162SOL     OW18118   2.303   2.910   7.389 -0.2398  0.0012 -0.2377
 2162SOL    HW118119   2.359   2.955   7.326  1.1703 -0.0167  0.9883
 2162SOL    HW218120   2.271   2.839   7.333  0.0426 -0.0516 -0.3344
 2163SOL     OW18121   3.245   4.454   1.459  0.4876  0.4455 -0.4257
 2163SOL    HW118122   3.258   4.548   1.471  0.4326  0.3514  0.3926
 2163SOL    HW218123   3.330   4.417   1.482  1.0957  1.5576 -0.9173
 2164SOL     OW18124   0.733   1.843  12.632  0.1673  0.2230  0.3070
 2164SOL    HW118125   0.817   1.869  12.594  0.8947  0.6912  2.2494
 2164SOL    HW218126   0.762   1.767  12.682  2.2984  1.4351  0.9032
 2165SOL     OW18127   3.314   0.626   5.293  0.2048  0.0943 -0.5337
 2165SOL    HW118128   3.345   0.711   5.325 -1.5945  0.8763 -0.8666
 2165SOL    HW218129   3.282   0.598   5.379 -0.2458 -1.0427 -1.0729
 2166SOL     OW18130   4.210   4.236  13.100 -0.1126  0.8371 -0.3434
 2166SOL    HW118131   4.141   4.273  13.045 -1.0112  2.4149  1.8788
 2166SOL    HW218132   4.209   4.142  13.085  0.0880  1.3473 -3.6382
 2167SOL     OW18133   3.666   2.025   6.740 -0.1828  0.2271 -0.2313
 2167SOL    HW118134   3.661   1.931   6.758 -0.4121  0.1391 -0.7436
 2167SOL    HW218135   3.747   2.045   6.787  0.2266 -0.7386 -0.5362
 2168SOL     OW18136   2.301   1.585  14.982  0.2777 -0.2470 -0.0199
 2168SOL    HW118137   2.387   1.614  14.952  0.9600  0.6886  2.9005
 2168SOL    HW218138   2.269   1.663  15.027 -3.4600 -1.0227 -1.3140
 2169SOL     OW18139   4.422   2.638   2.217  0.2397  0.4386  0.2055
 2169SOL    HW118140   4.499   2.625   2.273 -0.9047 -0.8441  1.5034
 2169SOL    HW218141   4.440   2.597   2.133 -1.9329 -0.7439  0.3062
 2170SOL     OW18142   0.148   1.495   0.177 -0.3451  0.1715 -0.2790
 2170SOL    HW118143   0.115   1.546   0.251 -1.6014 -0.5756 -0.3103
 2170SOL    HW218144   0.171   1.555   0.107  2.6355 -1.4434 -0.6657
 2171SOL     OW18145   4.402   1.014   9.048 -0.4530  0.2218 -0.0308
 2171SOL    HW118146   4.432   1.105   9.054 -2.0729  0.7056  0.4878
 2171SOL    HW218147   4.489   0.982   9.022 -1.2726 -0.6461 -1.7250
 2172SOL     OW18148   4.639   0.293   8.746 -0.2943 -0.0810 -0.5804
 2172SOL    HW118149   4.653   0.227   8.813  1.5814 -0.6446 -1.5362
 2172SOL    HW218150   4.586   0.246   8.682 -1.3974 -0.6724  0.7497
 2173SOL     OW18151   3.689   1.960   9.816  0.0473 -0.4494  0.0270
 2173SOL    HW118152   3.657   1.937   9.903 -0.1811  1.6792  0.5231
 2173SOL    HW218153   3.702   2.055   9.827 -0.3330 -0.6348  2.0835
 2174SOL     OW18154   4.418   0.801   4.195  0.0278 -0.4440 -0.6088
 2174SOL    HW118155   4.475   0.775   4.123  2.1629 -0.4642  1.0921
 2174SOL    HW218156   4.364   0.722   4.201  0.9005 -1.0644 -0.8763
 2175SOL     OW18157   1.726   2.083   1.982 -0.0237 -0.1058  0.5938
 2175SOL    HW118158   1.703   2.117   2.069 -0.5996 -0.2098  0.4813
 2175SOL    HW218159   1.695   1.994   1.996 -1.6735  0.2752 -0.5995
 2176SOL     OW18160   0.140   1.047   0.200 -0.3491  0.0082 -0.4142
 2176SOL    HW118161   0.057   1.063   0.243 -1.2812 -1.4420 -1.6491
 2176SOL    HW218162   0.194   1.112   0.245 -1.4866 -0.5789  1.7798
 2177SOL     OW18163   2.800   1.883   5.183  0.3388  0.2769  0.3399
 2177SOL    HW118164   2.757   1.854   5.263 -1.3795  2.0074  0.0471
 2177SOL    HW218165   2.734   1.874   5.115  1.3993  0.9053 -0.7749
 2178SOL     OW18166   1.584   2.660  16.094  0.0903 -0.1506 -0.8165
 2178SOL    HW118167   1.504   2.709  16.081 -0.5873 -0.5332  1.8420
 2178SOL    HW218168   1.562   2.583  16.148  0.6340 -0.0236 -0.4021
 2179SOL     OW18169   3.641   2.851   1.315 -0.0847  0.3289  0.0484
 2179SOL    HW118170   3.630   2.787   1.386  0.0039  0.3805  0.1090
 2179SOL    HW218171   3.664   2.789   1.247 -0.6371  0.0932  0.0761
 2180SOL     OW18172   3.753   4.237  12.894  0.1716 -0.0779  0.3497
 2180SOL    HW118173   3.737   4.332  12.896  0.1405 -0.0460 -1.1926
 2180SOL    HW218174   3.841   4.238  12.930  1.1222 -1.7923 -1.9560
 2181SOL     OW18175   3.021   0.031   9.082 -0.1084  0.0240 -0.4118
 2181SOL    HW118176   3.112   0.026   9.053  0.1236 -2.2344  0.6831
 2181SOL    HW218177   2.991   4.681   9.097 -2.4396  1.1773  1.9828
 2182SOL     OW18178   3.498   2.626   3.527 -0.1182  0.0090 -0.1727
 2182SOL    HW118179   3.548   2.631   3.445 -0.2980 -0.6126 -0.3184
 2182SOL    HW218180   3.422   2.668   3.487 -2.3210 -1.9026  2.0329
 2183SOL     OW18181   1.397   3.863  17.615  0.1963 -0.5752  0.1689
 2183SOL    HW118182   1.302   3.854  17.622  0.2877 -2.8667 -1.2991
 2183SOL    HW218183   1.419   3.775  17.584 -1.4560 -0.5374 -1.1488
 2184SOL     OW18184   0.285   3.203   8.456 -0.7290 -0.2823 -0.3074
 2184SOL    HW118185   0.206   3.178   8.407 -1.6060  2.0987 -0.0754
 2184SOL    HW218186   0.277   3.144   8.531 -0.0317  0.6893  0.5301
 2185SOL     OW18187   1.170   4.225  11.985 -0.0722 -0.1389  0.4305
 2185SOL    HW118188   1.204   4.284  11.918 -1.0894  0.6819  0.6406
 2185SOL    HW218189   1.141   4.148  11.937  1.5977  0.0844 -0.9259
 2186SOL     OW18190   4.117   3.958   5.903 -0.2657 -0.1345 -0.3927
 2186SOL    HW118191   4.063   3.886   5.873  0.5747 -0.6427 -0.6969
 2186SOL    HW218192   4.051   4.014   5.944  0.3612 -1.3012  2.2295
 2187SOL     OW18193   3.489   3.182  15.354  0.1862  0.2154 -0.0210
 2187SOL    HW118194   3.499   3.232  15.274 -1.1767 -2.1338 -1.6518
 2187SOL    HW218195   3.552   3.112  15.341 -0.4378  0.1757 -2.7041
 2188SOL     OW18196   0.425   3.385   2.605 -0.0220  0.0785  0.4145
 2188SOL    HW118197   0.352   3.342   2.560 -1.6864 -0.2884  3.4867
 2188SOL    HW218198   0.387   3.421   2.685 -0.9110 -3.3537  1.5448
 2189SOL     OW18199   1.171   2.952   2.625 -0.1769 -0.2247  0.7140
 2189SOL    HW118200   1.165   2.981   2.716 -2.0011 -0.2205  0.5905
 2189SOL    HW218201   1.166   2.858   2.643  0.9950 -0.3667  0.3282
 2190SOL     OW18202   2.486   3.896   4.910 -0.1801 -0.2466  0.6847
 2190SOL    HW118203   2.407   3.947   4.928 -0.6347 -0.1312 -1.7190
 2190SOL    HW218204   2.478   3.825   4.974  0.7217 -1.7789 -0.8960
 2191SOL     OW18205   0.100   3.225   7.542 -0.0260  0.2695 -0.3525
 2191SOL    HW118206   0.071   3.291   7.479  0.0211 -0.8086 -1.5158
 2191SOL    HW218207   0.126   3.153   7.484 -2.6642 -1.5327  0.7442
 2192SOL     OW18208   4.042   3.405   4.512 -0.6674 -0.5532 -0.3043
 2192SOL    HW118209   4.034   3.311   4.496  0.3327 -0.8446  0.9540
 2192SOL    HW218210   3.948   3.418   4.526 -0.6378  0.7261 -1.2641
 2193SOL     OW18211   1.905   0.834  15.617  0.6940  0.1346 -0.5736
 2193SOL    HW118212   1.923   0.741  15.604 -2.0432 -0.3142 -1.1828
 2193SOL    HW218213   1.992   0.870  15.599  0.6524  0.0694 -0.9056
 2194SOL     OW18214   0.991   1.650   6.648  0.0950  0.6196  0.6350
 2194SOL    HW118215   0.898   1.668   6.663 -0.1182 -0.8344  1.0453
 2194SOL    HW218216   0.997   1.638   6.553  1.6483 -1.4001  0.9878
 2195SOL     OW18217   1.120   2.169   9.242  0.1213  0.4571 -0.8509
 2195SOL    HW118218   1.121   2.086   9.195  0.8099  0.3270 -0.6069
 2195SOL    HW218219   1.028   2.196   9.242  0.3801  1.3595 -1.4881
 2196SOL     OW18220   4.603   1.646   2.504 -0.2261  0.7055 -0.7198
 2196SOL    HW118221   4.532   1.587   2.480  0.2377 -0.4011  0.6117
 2196SOL    HW218222   4.645   1.590   2.570 -0.7708  1.2249  0.0615
 2197SOL     OW18223   1.180   3.627   9.451  0.2535 -0.2586 -0.2834
 2197SOL    HW118224   1.106   3.673   9.492  1.5332  0.1334  1.5844
 2197SOL    HW218225   1.254   3.678   9.485 -0.9970  1.2994  0.1180
 2198SOL     OW18226   3.531   2.885  16.842 -0.3153  0.3943  0.1523
 2198SOL    HW118227   3.461   2.861  16.781  0.5899 -0.5318 -0.5303
 2198SOL    HW218228   3.605   2.895  16.782 -0.3989 -2.4096 -0.4526
 2199SOL     OW18229   2.477   2.418   3.116 -0.4125 -0.4374 -0.8174
 2199SOL    HW118230   2.399   2.440   3.167 -0.6894  1.0009 -1.8334
 2199SOL    HW218231   2.472   2.491   3.054  0.3586  1.7494  1.7167
 2200SOL     OW18232   1.918   2.998   2.030  0.4905 -0.4646 -0.1982
 2200SOL    HW118233   1.838   3.050   2.027  1.9987  1.9996  1.5616
 2200SOL    HW218234   1.942   3.006   1.938  0.2735 -0.0295 -0.2185
 2201SOL     OW18235   2.862   2.859   1.989  0.0169 -0.0117 -0.3052
 2201SOL    HW118236   2.798   2.876   2.058  0.4257  0.6459 -0.0972
 2201SOL    HW218237   2.903   2.943   1.970  0.5687  0.0805  1.2835
 2202SOL     OW18238   1.344   2.503   3.497  0.1843  0.1479  0.3887
 2202SOL    HW118239   1.401   2.463   3.431 -0.1816  0.6532 -0.2180
 2202SOL    HW218240   1.256   2.490   3.464  0.2760  0.2744  0.0944
 2203SOL     OW18241   3.609   0.449   8.027 -0.2466 -0.3226 -0.2466
 2203SOL    HW118242   3.657   0.532   8.020  2.1244 -1.7859 -1.3381
 2203SOL    HW218243   3.645   0.406   7.950  1.4929  2.9427 -1.2665
 2204SOL     OW18244   1.056   1.508   4.870 -0.7073 -0.0179  0.1442
 2204SOL    HW118245   1.135   1.562   4.876  0.2127 -1.4000  0.4889
 2204SOL    HW218246   0.991   1.573   4.894 -0.3344  0.7354 -0.8616
 2205SOL     OW18247   0.360   0.207   8.997  0.3767 -0.3553 -0.3469
 2205SOL    HW118248   0.388   0.270   8.931  1.2903  0.5240  0.8753
 2205SOL    HW218249   0.423   0.213   9.068 -0.7932  2.0968  0.4700
 2206SOL     OW18250   3.680   1.013   9.004  0.1086 -0.3053 -0.6411
 2206SOL    HW118251   3.616   1.008   8.933 -0.2559 -0.9146 -0.2704
 2206SOL    HW218252   3.756   0.977   8.958  0.6449  1.1404 -0.9068
 2207SOL     OW18253   1.368   3.372   2.446 -0.2024 -0.3409 -0.6277
 2207SOL    HW118254   1.303   3.309   2.416 -1.0764  1.1932 -1.9812
 2207SOL    HW218255   1.408   3.327   2.520 -1.8653 -1.3356 -0.3501
 2208SOL     OW18256   4.684   3.623   4.745 -0.2805 -0.5314 -0.1479
 2208SOL    HW118257   4.717   3.643   4.657 -0.8112 -0.5675 -0.3526
 2208SOL    HW218258   4.596   3.658   4.741  0.3279  0.8574 -1.5815
 2209SOL     OW18259   3.894   3.463  16.768  0.1549 -0.1423  0.3512
 2209SOL    HW118260   3.875   3.378  16.809  0.5902 -0.1889  0.4568
 2209SOL    HW218261   3.989   3.461  16.759  0.1458  1.0831  0.0264
 2210SOL     OW18262   0.074   4.250  17.424 -0.4331 -0.1833  0.3605
 2210SOL    HW118263   0.059   4.209  17.509  1.0479  2.1406  1.7577
 2210SOL    HW218264   0.154   4.302  17.435  0.2882 -1.2418  0.1098
 2211SOL     OW18265   0.371   2.811   7.267 -0.0494  0.1120 -0.3568
 2211SOL    HW118266   0.387   2.815   7.173 -0.0724 -2.0122 -0.4408
 2211SOL    HW218267   0.460   2.796   7.299 -0.9101 -2.1729  0.9346
 2212SOL     OW18268   4.326   2.091   6.108 -0.0422  0.3422  0.1808
 2212SOL    HW118269   4.244   2.107   6.154 -1.4919  1.3501 -2.7667
 2212SOL    HW218270   4.378   2.067   6.185  0.5505  2.2022  0.3613
 2213SOL     OW18271   2.483   4.633   8.478 -0.0727 -0.2879  0.5468
 2213SOL    HW118272   2.408   4.648   8.422 -1.1875 -0.1574  2.0752
 2213SOL    HW218273   2.536   4.706   8.448  1.1174 -1.2932  0.1715
 2214SOL     OW18274   3.099   1.345   8.606 -0.3729  0.0521 -0.6563
 2214SOL    HW118275   3.179   1.380   8.646 -1.6503  1.1910  0.9456
 2214SOL    HW218276   3.080   1.283   8.676  0.8821  1.3987  0.9048
 2215SOL     OW18277   4.355   1.070   7.538 -0.2877  0.1862  0.1111
 2215SOL    HW118278   4.280   1.051   7.481 -0.7157 -0.9359  1.0544
 2215SOL    HW218279   4.392   0.985   7.515  0.4432  0.3776  0.6039
 2216SOL     OW18280   2.901   4.687   2.193  0.1109  0.0751  0.8884
 2216SOL    HW118281   2.930   4.665   2.104  0.6419  0.2178  1.0268
 2216SOL    HW218282   2.900   0.043   2.194  0.1788  0.1109 -1.3672
 2217SOL     OW18283   3.100   3.384   1.721  0.7258  0.2473  0.1479
 2217SOL    HW118284   3.195   3.378   1.731  0.4325 -1.3197  1.9472
 2217SOL    HW218285   3.077   3.303   1.674  3.8701 -0.0563 -0.8880
 2218SOL     OW18286   0.290   0.812   8.567 -0.3633  0.1071  0.1137
 2218SOL    HW118287   0.217   0.802   8.506  0.2824 -0.2176 -0.6040
 2218SOL    HW218288   0.324   0.896   8.536  1.9590 -0.9087 -0.0703
 2219SOL     OW18289   1.990   4.023   3.013 -0.2217  0.3357 -0.2356
 2219SOL    HW118290   2.037   4.093   3.060  0.9438 -1.6562  1.5419
 2219SOL    HW218291   2.039   3.946   3.040  1.5396  1.4374 -0.2706
 2220SOL     OW18292   2.187   1.051   4.202  0.1892 -0.5358 -0.1691
 2220SOL    HW118293   2.104   1.088   4.235 -0.7477 -0.5746 -2.4760
 2220SOL    HW218294   2.190   0.967   4.247  0.1561 -0.5113 -0.1202
 2221SOL     OW18295   2.800   4.297   1.534 -0.3327 -0.3440 -0.1321
 2221SOL    HW118296   2.828   4.334   1.449 -2.5621 -1.2219 -1.2408
 2221SOL    HW218297   2.828   4.207   1.518 -0.0589 -0.2366 -0.2699
 2222SOL     OW18298   2.797   3.324   6.610  0.5723 -0.0725 -0.0850
 2222SOL    HW118299   2.809   3.337   6.516 -1.0205  3.5974  0.1958
 2222SOL    HW218300   2.858   3.256   6.640  0.3089 -1.2940 -2.3544
 2223SOL     OW18301   4.625   1.009  14.069 -0.1178 -0.5222 -0.0152
 2223SOL    HW118302   4.677   1.040  14.143  0.3302 -3.2246  0.8218
 2223SOL    HW218303   4.606   0.919  14.096  0.5780  0.1865  2.9143
 2224SOL     OW18304   2.899   0.019   6.149  0.3581 -0.3917 -0.1660
 2224SOL    HW118305   2.989   0.031   6.181 -0.7014  0.0774  2.6383
 2224SOL    HW218306   2.919   0.004   6.056 -1.9767  2.4138 -1.1348
 2225SOL     OW18307   3.774   1.578   5.431 -0.5903 -0.7656  0.0700
 2225SOL    HW118308   3.711   1.545   5.366  0.4677 -1.1109 -0.7908
 2225SOL    HW218309   3.726   1.558   5.511 -0.5774  0.0627  0.2844
 2226SOL     OW18310   4.166   0.052   7.215 -0.2472  0.1245 -0.6420
 2226SOL    HW118311   4.225   0.118   7.251 -0.5203 -0.4242  0.7784
 2226SOL    HW218312   4.083   0.098   7.202  0.1255  1.5150  1.8784
 2227SOL     OW18313   2.998   3.169  11.680  0.0226  0.5261 -0.1089
 2227SOL    HW118314   2.920   3.224  11.689  0.1622  0.6692  0.2611
 2227SOL    HW218315   3.065   3.223  11.723  1.9750 -2.6844  0.8290
 2228SOL     OW18316   0.809   0.003   1.411 -0.4429  0.2562  0.0152
 2228SOL    HW118317   0.848   4.731   1.497  2.2841 -1.7974 -1.5442
 2228SOL    HW218318   0.880   0.046   1.364 -1.0250  1.8708  0.6033
 2229SOL     OW18319   2.022   2.496   1.176  0.0210  0.4998 -0.1769
 2229SOL    HW118320   2.076   2.520   1.252 -1.5971  0.2197  1.0445
 2229SOL    HW218321   2.053   2.554   1.107  1.1215 -0.4569 -0.4892
 2230SOL     OW18322   2.056   1.013  11.977  0.0355  0.1282  0.4950
 2230SOL    HW118323   1.999   0.984  11.906 -0.5975  3.2672 -0.2617
 2230SOL    HW218324   2.014   1.098  11.991 -1.0968 -0.5292  1.0785
 2231SOL     OW18325   0.473   4.371   8.105 -0.0536 -0.3637 -0.2360
 2231SOL    HW118326   0.542   4.336   8.049 -1.0591  0.6667 -2.1011
 2231SOL    HW218327   0.424   4.292   8.129 -0.6852  0.0539 -0.1524
 2232SOL     OW18328   3.978   2.938   1.237  0.7352 -0.1798  0.4200
 2232SOL    HW118329   4.023   3.011   1.194 -0.9062 -0.1718 -1.2801
 2232SOL    HW218330   3.980   2.869   1.172 -0.5625  0.5538 -0.3994
 2233SOL     OW18331   1.002   3.193   6.678  0.2808 -0.4475  0.0021
 2233SOL    HW118332   0.959   3.278   6.666  2.1004  0.2405 -1.5602
 2233SOL    HW218333   1.045   3.179   6.594 -0.4973  0.9858 -0.6321
 2234SOL     OW18334   1.481   1.512  16.024  0.5730 -0.1355 -0.2095
 2234SOL    HW118335   1.479   1.608  16.025  0.0669 -0.1428 -0.6319
 2234SOL    HW218336   1.437   1.493  15.941 -0.3138  1.4760 -0.1095
 2235SOL     OW18337   4.537   4.362  12.515 -0.0834  0.0399  0.0612
 2235SOL    HW118338   4.520   4.382  12.607 -0.6286 -0.7143  0.1244
 2235SOL    HW218339   4.510   4.271  12.511 -0.2396  0.0197  1.5184
 2236SOL     OW18340   4.649   4.601  12.500 -0.1250  0.0355 -0.0670
 2236SOL    HW118341   4.621   4.511  12.485  3.0649 -0.9945  0.3125
 2236SOL    HW218342   4.565   4.633  12.534 -0.4141 -0.8669  0.0861
 2237SOL     OW18343   2.231   3.417   5.236  0.1132  0.7736  0.2092
 2237SOL    HW118344   2.171   3.347   5.260  0.7036  0.3939  0.5629
 2237SOL    HW218345   2.205   3.423   5.144 -2.4578  0.5752  0.9271
 2238SOL     OW18346   4.124   1.957   7.422 -0.0836 -1.0067  0.4321
 2238SOL    HW118347   4.087   1.900   7.490 -0.3470  0.4433  1.5019
 2238SOL    HW218348   4.047   1.998   7.384 -0.2373 -0.1884  1.6368
 2239SOL     OW18349   3.302   3.688   7.763  0.0569  0.4809  0.1448
 2239SOL    HW118350   3.282   3.604   7.722 -0.2089  1.0100 -0.7890
 2239SOL    HW218351   3.243   3.682   7.839 -2.2428  0.1293 -1.6774
 2240SOL     OW18352   4.733   3.440   7.419  0.1235  0.6597  0.3322
 2240SOL    HW118353   0.046   3.439   7.340  0.6973  1.4349  0.7123
 2240SOL    HW218354   4.714   3.532   7.438 -0.4144  0.5824  0.1639
 2241SOL     OW18355   1.713   0.351   0.461  0.6247 -0.2849  0.4802
 2241SOL    HW118356   1.646   0.394   0.515 -1.8014 -3.4362 -0.0324
 2241SOL    HW218357   1.663   0.315   0.388  0.2018  1.2852 -0.0088
 2242SOL     OW18358   2.973   4.691  13.997  0.1768  0.2241  0.1685
 2242SOL    HW118359   2.991   0.043  14.016  0.9344 -0.0069  0.5462
 2242SOL    HW218360   2.939   4.660  14.080 -0.3336  1.0439  0.2592
 2243SOL     OW18361   2.151   3.541   9.874 -0.3170  0.2362 -0.4874
 2243SOL    HW118362   2.090   3.513   9.807  0.9738  0.1189 -1.6103
 2243SOL    HW218363   2.173   3.459   9.917  0.6587  0.2996 -0.8682
 2244SOL     OW18364   0.555   2.909   9.144 -0.0135  0.3503 -0.0814
 2244SOL    HW118365   0.488   2.977   9.155  0.4228  0.5888  1.0601
 2244SOL    HW218366   0.619   2.929   9.212 -0.8714  0.3149  0.7340
 2245SOL     OW18367   2.012   3.382  16.359  0.2613 -0.2070  0.6378
 2245SOL    HW118368   2.043   3.414  16.274  1.4858  0.4874  1.3558
 2245SOL    HW218369   1.988   3.468  16.393 -0.0873  0.8135 -2.1672
 2246SOL     OW18370   2.944   4.043   6.444 -0.2970  0.9723  1.0023
 2246SOL    HW118371   2.902   3.958   6.435 -0.4937  1.2121 -0.2738
 2246SOL    HW218372   2.891   4.101   6.390  3.4397  0.3749 -3.3058
 2247SOL     OW18373   2.390   4.155   3.812 -0.2583  0.2677 -0.4749
 2247SOL    HW118374   2.424   4.066   3.811  0.3903  0.5071  0.6723
 2247SOL    HW218375   2.336   4.161   3.891 -1.2454 -0.1052 -1.1136
 2248SOL     OW18376   0.745   4.282   2.491 -0.3279 -0.5381  0.2074
 2248SOL    HW118377   0.820   4.334   2.521 -1.0006 -1.6848  3.8076
 2248SOL    HW218378   0.785   4.204   2.451  0.4666 -0.5206  0.9704
 2249SOL     OW18379   3.291   0.951  13.683 -0.0750 -0.3330  0.0203
 2249SOL    HW118380   3.377   0.924  13.715 -0.0694 -0.6834 -0.2837
 2249SOL    HW218381   3.276   1.018  13.749 -2.3441 -1.5875  0.7486
 2250SOL     OW18382   2.450   1.826   5.828  0.3591 -0.1534 -0.6530
 2250SOL    HW118383   2.407   1.766   5.889 -0.8931  0.5215 -0.8792
 2250SOL    HW218384   2.461   1.904   5.884 -0.9820 -0.5752  0.1898
 2251SOL     OW18385   1.725   4.215   7.630 -0.1558 -0.0140 -0.1049
 2251SOL    HW118386   1.697   4.141   7.575  0.4032  1.8501 -2.8830
 2251SOL    HW218387   1.658   4.235   7.696 -1.7363  1.7777 -2.2367
 2252SOL     OW18388   2.090   1.519   5.795  0.3209 -0.3326  0.3550
 2252SOL    HW118389   2.042   1.453   5.845 -0.3531 -2.8551 -3.6037
 2252SOL    HW218390   2.053   1.498   5.709 -1.3110 -0.1525  1.0352
 2253SOL     OW18391   2.662   3.250   2.582 -0.6096 -0.1379  0.4249
 2253SOL    HW118392   2.648   3.281   2.492  2.0954 -4.1106 -1.3886
 2253SOL    HW218393   2.591   3.187   2.589  1.1555 -1.8313  3.0059
 2254SOL     OW18394   2.241   1.587   4.776 -0.2961  0.0774  0.0892
 2254SOL    HW118395   2.228   1.678   4.748  0.4907  0.6225  1.4631
 2254SOL    HW218396   2.169   1.536   4.740 -0.4655  1.8361 -2.0369
 2255SOL     OW18397   3.451   0.626   9.670 -1.0767  0.2689 -0.3606
 2255SOL    HW118398   3.398   0.649   9.593 -0.1042 -0.2483 -1.1866
 2255SOL    HW218399   3.472   0.533   9.664 -2.7728 -0.1648  0.6201
 2256SOL     OW18400   1.934   3.067   2.709 -0.1395  0.3611 -0.3640
 2256SOL    HW118401   1.938   2.992   2.650 -0.2694 -1.2018  1.6150
 2256SOL    HW218402   1.858   3.111   2.672 -0.6265 -0.0093  0.2080
 2257SOL     OW18403   0.017   4.141  14.861  0.1295 -0.3035 -0.2483
 2257SOL    HW118404   0.079   4.194  14.810 -0.0335 -0.4525 -0.5952
 2257SOL    HW218405   4.701   4.099  14.797  0.6511  1.3645 -1.7884
 2258SOL     OW18406   1.089   3.146   2.048  0.0188  0.2825 -0.3072
 2258SOL    HW118407   1.058   3.142   2.139 -0.2321  2.9089 -0.2644
 2258SOL    HW218408   1.028   3.208   2.007 -1.5185 -1.9008 -1.3261
 2259SOL     OW18409   4.022   0.515   2.324  0.1209 -0.2544  0.0498
 2259SOL    HW118410   4.010   0.494   2.416 -0.6228  2.3384  0.5443
 2259SOL    HW218411   4.002   0.431   2.282  1.6592 -1.9476  2.6769
 2260SOL     OW18412   0.803   3.119   1.384 -0.3859 -0.5138 -0.6964
 2260SOL    HW118413   0.869   3.184   1.361 -0.2583 -0.8306 -1.2088
 2260SOL    HW218414   0.822   3.109   1.478 -0.1572 -2.1650 -0.9234
 2261SOL     OW18415   2.710   2.612  11.958  0.0444 -0.8175 -0.5049
 2261SOL    HW118416   2.660   2.689  11.984  1.1666  0.0305 -0.8443
 2261SOL    HW218417   2.648   2.541  11.974 -1.9101  1.0214  0.1442
 2262SOL     OW18418   1.165   2.296   1.397 -0.0893  0.0326  0.0790
 2262SOL    HW118419   1.209   2.381   1.404  0.8177 -0.6482  2.6865
 2262SOL    HW218420   1.165   2.293   1.302 -0.3733  2.5287 -0.0037
 2263SOL     OW18421   3.844   2.916  15.436  0.1025 -0.6530  0.6800
 2263SOL    HW118422   3.829   2.966  15.356  1.9248  0.2881  0.9293
 2263SOL    HW218423   3.928   2.874  15.419 -0.3151 -1.3486  0.3160
 2264SOL     OW18424   1.710   2.551   4.687 -0.1276 -0.0541 -0.4112
 2264SOL    HW118425   1.778   2.496   4.648  0.3083  0.4781 -0.4062
 2264SOL    HW218426   1.753   2.631   4.657 -0.6377 -0.3713 -1.9945
 2265SOL     OW18427   3.506   0.426   8.294  0.3528 -0.4975 -0.1909
 2265SOL    HW118428   3.548   0.346   8.324  1.0318  0.1420  0.5678
 2265SOL    HW218429   3.527   0.444   8.202 -0.6842 -2.8927 -0.8901
 2266SOL     OW18430   0.885   1.757   2.990  0.4352  0.1412  0.0780
 2266SOL    HW118431   0.887   1.760   2.894 -3.6032 -0.7580 -0.0380
 2266SOL    HW218432   0.961   1.699   3.003  0.9561  1.0061  0.8409
 2267SOL     OW18433   4.052   3.110   0.696 -0.3739  0.3173 -0.1203
 2267SOL    HW118434   4.039   3.120   0.790 -2.0431 -0.5150 -0.2652
 2267SOL    HW218435   4.027   3.200   0.674 -0.0056 -0.3843 -3.3755
 2268SOL     OW18436   4.320   1.730   7.529  0.0304 -0.0352  0.4750
 2268SOL    HW118437   4.233   1.704   7.499  0.5578 -0.4577 -0.6689
 2268SOL    HW218438   4.302   1.812   7.575 -1.5355 -0.4904  0.6683
 2269SOL     OW18439   1.110   3.352  16.620 -0.0035  0.2131  0.2363
 2269SOL    HW118440   1.016   3.368  16.616 -0.0338 -0.0969 -0.2993
 2269SOL    HW218441   1.130   3.352  16.526 -4.3657 -1.8724 -0.6811
 2270SOL     OW18442   2.511   3.422   5.316  0.8849 -0.2109 -0.5925
 2270SOL    HW118443   2.516   3.327   5.322 -3.0152 -0.5068 -1.4856
 2270SOL    HW218444   2.416   3.432   5.302  0.8724 -0.7142 -0.8468
 2271SOL     OW18445   2.478   2.031  10.696  0.3446 -0.1108  0.2114
 2271SOL    HW118446   2.390   1.999  10.715 -0.1973  0.6422 -1.0133
 2271SOL    HW218447   2.480   2.115  10.742 -0.4481  0.8517 -1.4837
 2272SOL     OW18448   3.766   0.577   6.575  0.2907  0.2224  0.1198
 2272SOL    HW118449   3.785   0.666   6.546  0.7271  0.1259  0.1111
 2272SOL    HW218450   3.741   0.590   6.667  0.8515  1.9049  0.0306
 2273SOL     OW18451   4.001   1.129   7.902 -0.8662  0.0578 -0.0555
 2273SOL    HW118452   3.920   1.179   7.913  0.2123  1.7888  0.0706
 2273SOL    HW218453   3.995   1.121   7.807  0.6058 -0.0629 -0.1386
 2274SOL     OW18454   3.340   3.496   0.152 -0.0675 -0.3257 -0.0001
 2274SOL    HW118455   3.343   3.415   0.204  4.3813 -1.5680 -2.1666
 2274SOL    HW218456   3.331   3.557   0.226  1.0650 -1.3049  0.9615
 2275SOL     OW18457   2.167   3.827   3.627  0.5178 -0.5393 -0.4809
 2275SOL    HW118458   2.161   3.845   3.721  0.2831  0.5118 -0.6926
 2275SOL    HW218459   2.076   3.817   3.600  1.2831 -0.5627 -3.0753
 2276SOL     OW18460   3.912   1.424   3.945 -0.1101 -0.0506  0.4127
 2276SOL    HW118461   4.002   1.434   3.975 -0.4342 -0.2164  1.4350
 2276SOL    HW218462   3.914   1.338   3.903  0.4984  0.2338 -0.1303
 2277SOL     OW18463   1.891   3.835   3.506  0.1071  0.6801 -0.0067
 2277SOL    HW118464   1.865   3.928   3.505  0.1804  0.7001 -0.0555
 2277SOL    HW218465   1.815   3.791   3.543 -0.6635  1.5384 -0.5526
 2278SOL     OW18466   4.416   2.997  14.338  0.2534 -0.1477 -0.1827
 2278SOL    HW118467   4.479   3.057  14.378  1.1382 -1.6120  0.6050
 2278SOL    HW218468   4.432   3.012  14.244  0.8168  0.4578  0.0109
 2279SOL     OW18469   2.076   2.783   4.632  0.1142  0.4828  0.1184
 2279SOL    HW118470   2.046   2.707   4.681  1.7400 -0.0273  0.3346
 2279SOL    HW218471   2.171   2.767   4.636  0.0521 -0.1471 -1.0142
 2280SOL     OW18472   2.812   1.653  17.545 -0.9553  0.0823  0.1080
 2280SOL    HW118473   2.846   1.604  17.470 -1.0186  2.7615 -1.6562
 2280SOL    HW218474   2.870   1.728  17.559  2.4940 -3.0409  2.5812
 2281SOL     OW18475   1.922   0.367   4.900 -0.3723 -0.0691 -0.2391
 2281SOL    HW118476   1.990   0.301   4.886 -1.6386 -1.1912 -1.0905
 2281SOL    HW218477   1.845   0.317   4.929 -1.8383  2.3637  0.1085
 2282SOL     OW18478   1.586   3.946   6.969 -0.0854 -0.5256  0.4174
 2282SOL    HW118479   1.656   3.921   6.908 -1.0639  0.4575 -1.0958
 2282SOL    HW218480   1.638   4.009   7.019 -0.1365  1.2892 -1.7917
 2283SOL     OW18481   1.972   4.513   2.312 -0.1998 -0.7109  0.6500
 2283SOL    HW118482   1.911   4.518   2.238 -0.4543 -1.5165  0.8010
 2283SOL    HW218483   1.969   4.599   2.353  2.7437  1.8653 -4.5089
 2284SOL     OW18484   1.273   1.723   2.352 -0.5669  0.2466  0.5797
 2284SOL    HW118485   1.317   1.637   2.350 -1.5065 -0.1855 -1.1912
 2284SOL    HW218486   1.315   1.770   2.280  0.2656 -1.4640 -0.0773
 2285SOL     OW18487   3.520   2.983   2.380  0.6700  0.1961  0.3383
 2285SOL    HW118488   3.428   3.003   2.394  1.0833 -0.2245  3.5145
 2285SOL    HW218489   3.535   2.895   2.415  2.0782  0.2016 -0.2360
 2286SOL     OW18490   0.865   2.145   3.991 -0.2368  0.5238 -0.0546
 2286SOL    HW118491   0.777   2.115   4.016  0.5446  0.9854  3.2540
 2286SOL    HW218492   0.906   2.160   4.076  0.9035  1.5671 -0.7930
 2287SOL     OW18493   2.687   1.390   6.712 -0.1339  0.1317  0.4684
 2287SOL    HW118494   2.647   1.455   6.655  0.6078 -1.0586 -1.4190
 2287SOL    HW218495   2.704   1.441   6.791 -1.2295 -0.6797  1.2205
 2288SOL     OW18496   4.167   3.026  10.461  0.6680 -0.9299 -0.0318
 2288SOL    HW118497   4.245   2.980  10.430 -0.4599 -1.8190 -1.5783
 2288SOL    HW218498   4.102   2.959  10.439 -3.1182  2.8979 -0.4914
 2289SOL     OW18499   3.609   2.936  14.470  0.4305  0.4053  0.2423
 2289SOL    HW118500   3.538   2.906  14.413  0.6464  0.5550 -0.1075
 2289SOL    HW218501   3.653   3.002  14.417 -0.3126  0.3384 -0.4465
 2290SOL     OW18502   4.438   0.799   6.372  0.3360  0.1181  0.6311
 2290SOL    HW118503   4.388   0.848   6.438 -1.2697  0.5115 -0.8762
 2290SOL    HW218504   4.468   0.727   6.427  2.7496  2.0197  1.7810
 2291SOL     OW18505   0.434   0.537  13.851  0.0025  0.6333  0.1492
 2291SOL    HW118506   0.491   0.501  13.919 -2.1443  1.1757  2.2396
 2291SOL    HW218507   0.441   0.629  13.874  1.0488  1.0670 -1.8978
 2292SOL     OW18508   4.650   2.719   4.011  0.2249 -0.0747  0.1116
 2292SOL    HW118509   4.688   2.678   4.089 -0.6583 -1.4044 -0.1448
 2292SOL    HW218510   4.607   2.795   4.051  1.0566  1.4157 -1.8300
 2293SOL     OW18511   0.026   3.487   1.306  0.4586 -0.1879  0.5133
 2293SOL    HW118512   4.723   3.418   1.256 -1.1562  0.6463  0.7655
 2293SOL    HW218513   4.690   3.516   1.357 -1.1816 -0.7000 -1.6411
 2294SOL     OW18514   0.882   1.977   1.067  0.2038  0.1263 -0.9859
 2294SOL    HW118515   0.870   2.004   1.157  1.6498  1.0451 -1.0732
 2294SOL    HW218516   0.796   1.942   1.040  1.1671 -2.6556 -0.4068
 2295SOL     OW18517   2.451   0.113   3.454  0.5478  0.2450 -0.1675
 2295SOL    HW118518   2.406   0.035   3.422  1.2725  0.0581 -0.7158
 2295SOL    HW218519   2.491   0.079   3.534 -0.6946 -2.3059 -0.6218
 2296SOL     OW18520   1.144   2.137  17.210 -0.1256 -0.1841 -0.5787
 2296SOL    HW118521   1.112   2.226  17.227 -1.5803 -1.1398  1.7690
 2296SOL    HW218522   1.223   2.153  17.159  0.0842  0.1475 -0.1593
 2297SOL     OW18523   1.995   0.459   5.646 -0.1088  0.3445  0.3206
 2297SOL    HW118524   2.007   0.545   5.607 -1.1743  1.8056  3.2219
 2297SOL    HW218525   2.012   0.476   5.739  2.0665 -2.6223  0.4900
 2298SOL     OW18526   3.097   0.395  15.759  0.3553  0.2925 -0.0909
 2298SOL    HW118527   3.083   0.338  15.835  1.0889  0.9151  0.5102
 2298SOL    HW218528   3.103   0.477  15.809  2.6079 -0.0657  0.1946
 2299SOL     OW18529   1.076   3.562   2.936 -0.1116 -0.5558  0.3917
 2299SOL    HW118530   0.981   3.561   2.925  0.0459  1.1391 -1.2889
 2299SOL    HW218531   1.094   3.652   2.910  0.2658 -0.1197  2.2090
 2300SOL     OW18532   4.114   3.132   7.292 -0.1930 -0.2670 -0.0292
 2300SOL    HW118533   4.119   3.113   7.386 -0.5036 -1.2575 -0.2129
 2300SOL    HW218534   4.135   3.226   7.285  0.6077 -0.4379  0.0605
 2301SOL     OW18535   3.023   4.132   4.470 -0.2141  0.0721 -0.3976
 2301SOL    HW118536   3.076   4.166   4.398  0.5559  0.8219  0.5263
 2301SOL    HW218537   3.055   4.044   4.489 -1.3560 -0.8194 -2.6298
 2302SOL     OW18538   4.705   2.065   6.049 -0.1622  0.6397  1.7695
 2302SOL    HW118539   4.662   2.145   6.076 -1.5155  0.2771  0.6762
 2302SOL    HW218540   4.649   2.044   5.974  0.1647  0.5340  1.5545
 2303SOL     OW18541   0.520   4.194   4.823  0.2449  0.1055  0.6971
 2303SOL    HW118542   0.574   4.266   4.855 -0.8680  1.4819 -0.5525
 2303SOL    HW218543   0.539   4.131   4.892  1.8327 -0.2266 -0.0587
 2304SOL     OW18544   2.747   2.180   7.124  0.0225 -0.2702  0.0866
 2304SOL    HW118545   2.663   2.135   7.115 -0.6332  1.0190 -0.1055
 2304SOL    HW218546   2.738   2.246   7.056  1.1684  1.6247  1.7639
 2305SOL     OW18547   2.527   1.903  13.961 -0.1347  0.4147  0.7456
 2305SOL    HW118548   2.473   1.895  14.039 -2.5495  0.5364 -0.9052
 2305SOL    HW218549   2.595   1.946  14.012  3.0078 -1.7161 -1.6748
 2306SOL     OW18550   1.791   4.631   1.868 -0.3721 -0.2309 -0.2451
 2306SOL    HW118551   1.784   4.543   1.904  0.2650  0.1682  0.8635
 2306SOL    HW218552   1.815   4.613   1.777 -0.1400  0.5440 -0.3366
 2307SOL     OW18553   2.012   2.141   6.321 -0.1151  0.2684  0.0853
 2307SOL    HW118554   2.075   2.208   6.296  0.1090 -0.3863 -1.0993
 2307SOL    HW218555   2.021   2.154   6.416 -0.2164 -2.3508  0.4482
 2308SOL     OW18556   3.770   3.091   1.398  0.2381 -0.7904 -0.1591
 2308SOL    HW118557   3.855   3.061   1.366  0.1115 -0.6134 -0.6580
 2308SOL    HW218558   3.718   3.013   1.380  0.7981 -1.3360  0.5575
 2309SOL     OW18559   4.039   0.434   0.442 -0.0267 -0.8934 -0.2769
 2309SOL    HW118560   3.951   0.427   0.405 -0.3729 -0.9725  0.5498
 2309SOL    HW218561   4.093   0.409   0.368  0.9191 -0.3924  0.2412
 2310SOL     OW18562   4.558   0.330   4.582 -0.1016  0.4226 -0.3564
 2310SOL    HW118563   4.615   0.269   4.629 -0.1909 -1.7165 -3.0762
 2310SOL    HW218564   4.606   0.410   4.561  2.0313 -0.4670  1.1075
 2311SOL     OW18565   2.947   2.381  15.433  0.6634 -0.6385 -0.2679
 2311SOL    HW118566   2.917   2.290  15.440 -0.1029 -0.1157  2.8809
 2311SOL    HW218567   2.978   2.373  15.342  1.9559  1.4189 -0.0058
 2312SOL     OW18568   1.430   2.954   5.947  0.0009  0.7352  0.0244
 2312SOL    HW118569   1.495   2.921   5.884  0.1443 -0.3296  0.7334
 2312SOL    HW218570   1.409   2.875   5.996  0.4978 -0.3346 -1.4790
 2313SOL     OW18571   0.429   4.213   2.454 -0.4769 -0.6442  0.0440
 2313SOL    HW118572   0.334   4.202   2.459 -0.6001 -0.6413 -2.2293
 2313SOL    HW218573   0.446   4.188   2.545 -0.0501 -2.1619 -0.4536
 2314SOL     OW18574   3.220   3.621   5.028 -0.4035  0.4433  0.1269
 2314SOL    HW118575   3.264   3.627   5.113 -0.8962  0.4511  0.3793
 2314SOL    HW218576   3.178   3.535   5.029 -1.8634  1.1921  2.7357
 2315SOL     OW18577   0.606   2.850   1.974  0.1628 -0.0157 -0.3226
 2315SOL    HW118578   0.602   2.805   2.059 -3.5829 -1.8082 -1.4453
 2315SOL    HW218579   0.601   2.937   2.012 -2.0238 -0.3982  0.2418
 2316SOL     OW18580   4.520   0.050   6.277 -0.0261  1.1455 -0.2914
 2316SOL    HW118581   4.545   0.104   6.353  0.3779  0.1479  0.2908
 2316SOL    HW218582   4.483   0.115   6.218  0.2560  1.5259 -0.0547
 2317SOL     OW18583   0.639   2.117   2.402 -0.1577  0.3965  0.6134
 2317SOL    HW118584   0.685   2.035   2.387 -0.4379  0.4382 -0.4803
 2317SOL    HW218585   0.700   2.188   2.384  0.4458 -0.2840 -0.0007
 2318SOL     OW18586   2.463   2.426   4.150  0.0577  0.1907  0.3335
 2318SOL    HW118587   2.470   2.471   4.234  1.1828 -0.8644  0.8041
 2318SOL    HW218588   2.370   2.429   4.127 -0.0842 -4.3425  0.4510
 2319SOL     OW18589   3.160   2.673  16.845 -0.2508  0.2991  0.1555
 2319SOL    HW118590   3.159   2.768  16.854  3.5256  0.2709  0.8424
 2319SOL    HW218591   3.250   2.655  16.817 -0.2101  1.2393 -0.3205
 2320SOL     OW18592   4.312   3.491   7.932 -0.9708  0.2673  0.1233
 2320SOL    HW118593   4.219   3.514   7.927 -0.7704  0.8977 -0.7302
 2320SOL    HW218594   4.320   3.417   7.873  0.5989 -0.5579  1.3659
 2321SOL     OW18595   2.264   1.195  13.780 -0.1971 -0.0974  0.1667
 2321SOL    HW118596   2.178   1.231  13.805  0.6341  0.6315  1.9952
 2321SOL    HW218597   2.246   1.101  13.769  1.0267 -0.2795 -0.2162
 2322SOL     OW18598   2.861   1.884   6.160 -0.5949 -0.0452 -0.1169
 2322SOL    HW118599   2.932   1.925   6.209 -2.0206 -2.3021  3.8258
 2322SOL    HW218600   2.894   1.795   6.152 -0.8857  0.0714 -2.7176
 2323SOL     OW18601   4.018   4.453   5.217 -0.1410 -0.1675 -0.1690
 2323SOL    HW118602   4.004   4.463   5.122  2.1676 -0.2485 -0.5099
 2323SOL    HW218603   3.974   4.532   5.248  0.5882  0.2108 -0.1010
 2324SOL     OW18604   3.241   1.600  10.609 -0.3861 -0.4105  0.6348
 2324SOL    HW118605   3.159   1.600  10.559  0.1397 -0.5687 -0.2287
 2324SOL    HW218606   3.211   1.583  10.699 -3.3667  0.1793 -0.2392
 2325SOL     OW18607   3.300   4.584   4.691 -0.1333  0.1881 -0.5389
 2325SOL    HW118608   3.235   4.625   4.749  0.3769  0.8953 -0.4579
 2325SOL    HW218609   3.269   4.494   4.679 -0.0815 -0.1769  1.9274
 2326SOL     OW18610   0.993   1.205   9.308 -0.2555 -0.8323  0.0476
 2326SOL    HW118611   1.076   1.188   9.263  0.8445 -0.4256  1.9093
 2326SOL    HW218612   1.008   1.150   9.385  0.2550  0.0693  0.5776
 2327SOL     OW18613   2.522   1.986   1.745  0.5751  0.3771  0.7860
 2327SOL    HW118614   2.430   1.988   1.718  1.8643 -3.3029 -3.8795
 2327SOL    HW218615   2.523   1.930   1.823 -0.8702  1.0102  1.2509
 2328SOL     OW18616   4.180   1.696   6.560  0.6463 -0.3560 -0.4544
 2328SOL    HW118617   4.227   1.705   6.477 -0.7628  3.1914 -0.8893
 2328SOL    HW218618   4.110   1.761   6.551  0.1419 -0.6905  1.0137
 2329SOL     OW18619   4.371   1.138   4.633 -0.0442 -0.0918  0.2301
 2329SOL    HW118620   4.385   1.101   4.545 -1.5226  1.8300 -0.8089
 2329SOL    HW218621   4.307   1.208   4.620  1.2165  1.3164  1.5713
 2330SOL     OW18622   4.647   2.555   6.222 -0.2008  0.5115  0.0765
 2330SOL    HW118623   4.720   2.533   6.280  0.5413 -0.4378 -1.2233
 2330SOL    HW218624   4.663   2.648   6.205 -1.6080  0.9711  1.2606
 2331SOL     OW18625   4.619   3.977   2.768 -0.2558  0.0108 -0.1715
 2331SOL    HW118626   4.543   4.028   2.798  0.2969  2.4188 -2.8709
 2331SOL    HW218627   4.689   4.040   2.756 -0.3314  0.3526  1.1627
 2332SOL     OW18628   4.299   1.312   5.933 -0.0704 -0.1508 -0.1578
 2332SOL    HW118629   4.370   1.348   5.879 -1.4518  3.2281  0.2845
 2332SOL    HW218630   4.316   1.380   5.999 -1.0773 -1.1820  1.1585
 2333SOL     OW18631   1.248   2.176   1.633 -0.2201  0.1095 -0.0802
 2333SOL    HW118632   1.249   2.258   1.682 -0.7421 -1.2291  2.1772
 2333SOL    HW218633   1.226   2.200   1.543  2.7285 -3.5785 -1.7834
 2334SOL     OW18634   4.213   2.926   1.818 -0.9371 -0.0020  0.0425
 2334SOL    HW118635   4.247   2.937   1.729 -1.6372  0.6566 -0.1359
 2334SOL    HW218636   4.291   2.909   1.871  0.0833  1.5832 -0.9371
 2335SOL     OW18637   1.724   2.467   3.096 -0.0581 -0.1889 -0.1579
 2335SOL    HW118638   1.644   2.506   3.059  0.4958 -0.2304 -1.3919
 2335SOL    HW218639   1.688   2.379   3.106 -1.7443  0.7253  1.7784
 2336SOL     OW18640   4.737   2.652   0.426  0.0950  0.2487  0.0153
 2336SOL    HW118641   4.699   2.650   0.514  1.5757  1.6869  0.6982
 2336SOL    HW218642   0.009   2.562   0.396 -1.5079 -0.6698  2.0714
 2337SOL     OW18643   1.059   0.917   2.296  0.5848 -0.2378 -0.6263
 2337SOL    HW118644   1.077   0.904   2.389 -0.2041  2.0793 -0.1564
 2337SOL    HW218645   1.070   1.012   2.304 -2.3892 -0.0244  0.9340
 2338SOL     OW18646   4.240   2.472  13.558 -0.0589 -0.6268  0.3462
 2338SOL    HW118647   4.282   2.389  13.583 -1.1313 -0.6350  2.1364
 2338SOL    HW218648   4.300   2.540  13.587 -0.9546  0.2997  0.0167
 2339SOL     OW18649   3.610   2.346   4.777  0.2016 -0.0680  0.6442
 2339SOL    HW118650   3.555   2.282   4.822 -0.9199 -0.5104 -1.3188
 2339SOL    HW218651   3.626   2.409   4.847 -0.8713 -0.1262  0.9409
 2340SOL     OW18652   1.329   0.702   5.284  0.5222 -0.2239 -0.0063
 2340SOL    HW118653   1.331   0.768   5.354  0.9675  0.8707 -1.0421
 2340SOL    HW218654   1.249   0.652   5.300  0.3383  0.1089  0.1362
 2341SOL     OW18655   0.564   3.070   3.851 -0.2056 -0.4576  0.2801
 2341SOL    HW118656   0.564   2.980   3.885 -1.0716 -0.6738 -0.2727
 2341SOL    HW218657   0.604   3.118   3.923  1.9423  1.2055 -1.9967
 2342SOL     OW18658   2.951   2.260   5.216 -0.0963  0.0271  0.4257
 2342SOL    HW118659   2.970   2.201   5.289  0.3006 -0.0905  0.2283
 2342SOL    HW218660   2.974   2.342   5.258  1.1525 -0.9163  1.5824
 2343SOL     OW18661   0.719   2.713  16.288 -1.2075 -0.1497  0.2806
 2343SOL    HW118662   0.691   2.787  16.342 -1.1160  1.2198 -1.5666
 2343SOL    HW218663   0.645   2.710  16.228 -0.1493  0.9857 -1.0721
 2344SOL     OW18664   3.626   1.485   7.443 -0.2035 -0.2213  0.1881
 2344SOL    HW118665   3.646   1.455   7.531 -0.5418  3.3950  1.4964
 2344SOL    HW218666   3.537   1.517   7.459  0.7975  2.3273  0.7103
 2345SOL     OW18667   1.429   4.588  14.430  0.2091 -0.1528 -0.3779
 2345SOL    HW118668   1.522   4.575  14.444  0.2630  1.5650  0.9048
 2345SOL    HW218669   1.395   4.501  14.447  0.5733 -0.2054  0.0727
 2346SOL     OW18670   3.456   1.207  17.625  0.8473  0.6140 -0.3893
 2346SOL    HW118671   3.411   1.203  17.540 -1.2939 -0.0252  0.7834
 2346SOL    HW218672   3.410   1.279  17.670  0.3981  1.0222 -1.4982
 2347SOL     OW18673   4.193   0.451  13.420 -0.2951 -0.0302  0.1200
 2347SOL    HW118674   4.224   0.361  13.432 -2.8874 -1.2663 -2.5155
 2347SOL    HW218675   4.231   0.493  13.498 -1.1650  1.7840 -0.4473
 2348SOL     OW18676   1.844   3.365   6.821 -0.2125 -0.0138  0.3315
 2348SOL    HW118677   1.868   3.429   6.754  1.7347 -0.7817  0.3068
 2348SOL    HW218678   1.820   3.286   6.772 -0.7908 -0.1205  0.7903
 2349SOL     OW18679   1.604   3.810   9.304 -0.1864 -0.0447  0.3848
 2349SOL    HW118680   1.571   3.866   9.234 -0.6252  0.6485  1.1607
 2349SOL    HW218681   1.525   3.812   9.358  0.7001 -0.5614  1.7050
 2350SOL     OW18682   0.610   0.674   9.622 -0.0695 -0.1337 -0.1513
 2350SOL    HW118683   0.542   0.726   9.579 -1.1003 -1.8645 -0.6044
 2350SOL    HW218684   0.557   0.633   9.691 -1.6951  1.1984 -0.6072
 2351SOL     OW18685   3.988   4.696   6.344  0.5017 -0.1253  0.6531
 2351SOL    HW118686   4.003   0.049   6.330 -0.7122 -0.2572 -1.5169
 2351SOL    HW218687   3.935   4.672   6.268 -0.8907 -0.1551  1.6381
 2352SOL     OW18688   1.770   1.025   3.487  0.4431 -0.1429  0.2196
 2352SOL    HW118689   1.848   0.969   3.486  2.4732  2.7253 -2.3009
 2352SOL    HW218690   1.708   0.995   3.554  1.4168 -2.6584 -0.0108
 2353SOL     OW18691   1.366   1.643   0.720  0.6089  0.0815 -0.0768
 2353SOL    HW118692   1.286   1.693   0.705  0.5839  0.3024  0.7838
 2353SOL    HW218693   1.419   1.667   0.644  0.9735  0.7561  0.3843
 2354SOL     OW18694   2.761   1.171  16.713 -0.4568 -0.4826  0.0327
 2354SOL    HW118695   2.791   1.206  16.796 -1.2626 -2.1725  1.0417
 2354SOL    HW218696   2.705   1.098  16.741 -0.5631 -0.2919  0.3086
 2355SOL     OW18697   1.611   4.404   8.703 -0.1771  0.0453  0.2104
 2355SOL    HW118698   1.536   4.359   8.665  0.1906  1.2654 -1.9140
 2355SOL    HW218699   1.686   4.359   8.664 -1.0093 -1.2171  0.0611
 2356SOL     OW18700   4.186   4.275  12.368 -0.2996 -0.4277 -0.3365
 2356SOL    HW118701   4.253   4.211  12.389  0.4918  1.0008  1.4695
 2356SOL    HW218702   4.236   4.357  12.373 -1.2270  0.2853 -2.5059
 2357SOL     OW18703   1.150   3.531  11.582  0.6403  0.3419 -0.5520
 2357SOL    HW118704   1.207   3.494  11.515 -0.9869 -0.3134 -1.5789
 2357SOL    HW218705   1.194   3.615  11.592  1.8853 -0.3249 -0.4485
 2358SOL     OW18706   0.156   0.520  12.603 -0.9815 -0.7560  0.6291
 2358SOL    HW118707   0.087   0.500  12.667 -1.0093  0.3455  0.9383
 2358SOL    HW218708   0.131   0.449  12.544 -0.7269 -1.2918  1.1589
 2359SOL     OW18709   0.059   2.584   4.779 -0.2512  0.1626  0.4738
 2359SOL    HW118710   0.039   2.616   4.867  1.8297 -0.3883  1.1472
 2359SOL    HW218711   0.055   2.666   4.731 -2.9799 -0.7431 -0.8442
 2360SOL     OW18712   3.823   1.952  10.445 -0.1725 -0.3182  0.0403
 2360SOL    HW118713   3.755   1.915  10.388  0.0969  0.3383 -0.6923
 2360SOL    HW218714   3.764   1.995  10.507 -0.2354  2.1079 -1.7019
 2361SOL     OW18715   0.646   2.383  16.291  0.6949 -0.6239 -0.5848
 2361SOL    HW118716   0.608   2.397  16.378  0.3096 -0.5307 -0.7681
 2361SOL    HW218717   0.637   2.468  16.247 -0.0138  0.0901  0.9422
 2362SOL     OW18718   2.678   1.804  10.228  0.3780  0.1803 -0.0919
 2362SOL    HW118719   2.655   1.891  10.262  0.2377 -0.4003  1.3167
 2362SOL    HW218720   2.719   1.831  10.147  1.2917  0.5695  0.5036
 2363SOL     OW18721   0.216   3.307   9.178  0.7668 -0.0704  0.4427
 2363SOL    HW118722   0.272   3.232   9.159  1.8824  0.9796 -0.4213
 2363SOL    HW218723   0.271   3.364   9.232  0.1009 -0.7664  1.8745
 2364SOL     OW18724   1.842   4.054   5.814  0.2718  0.1103 -0.3778
 2364SOL    HW118725   1.904   3.990   5.780  1.2158  1.6239 -1.4532
 2364SOL    HW218726   1.834   4.102   5.732 -1.6425  0.2203 -0.1396
 2365SOL     OW18727   4.281   0.423   9.661 -0.1216 -0.5943  0.3528
 2365SOL    HW118728   4.236   0.499   9.699  0.2486 -0.5776  0.7538
 2365SOL    HW218729   4.366   0.447   9.699  0.1987 -1.3515  0.1146
 2366SOL     OW18730   2.543   0.204   7.269 -0.3881  0.2122 -0.4823
 2366SOL    HW118731   2.542   0.281   7.211 -1.0306  1.4399  1.1679
 2366SOL    HW218732   2.473   0.154   7.227 -0.6653  1.2060 -1.2089
 2367SOL     OW18733   0.975   4.192   5.186  0.2098  0.0077  0.2812
 2367SOL    HW118734   1.060   4.235   5.198 -0.3209  1.1743 -0.1106
 2367SOL    HW218735   0.990   4.121   5.123  0.4891 -1.7612  2.3487
 2368SOL     OW18736   1.040   4.459  13.293  0.3115 -0.0401  0.2282
 2368SOL    HW118737   1.063   4.483  13.203  0.2033  0.6481  0.3826
 2368SOL    HW218738   1.119   4.487  13.340  0.5278  1.2020 -0.8652
 2369SOL     OW18739   4.103   1.661   6.268 -0.3751 -0.3470 -0.2007
 2369SOL    HW118740   4.058   1.726   6.321 -0.3540  0.0159 -0.6285
 2369SOL    HW218741   4.193   1.695   6.266 -0.4733 -0.2327 -2.7533
 2370SOL     OW18742   2.095   2.101   7.116 -0.3452  0.1355 -0.5704
 2370SOL    HW118743   2.016   2.142   7.150  0.5872  0.2723  1.4495
 2370SOL    HW218744   2.063   2.012   7.102  1.5561 -0.8792  1.4274
 2371SOL     OW18745   2.950   3.657  10.878 -0.2414 -0.0711 -0.6716
 2371SOL    HW118746   3.042   3.676  10.897 -0.2136  0.3845 -1.2408
 2371SOL    HW218747   2.928   3.736  10.829  0.6144  1.7380  1.8375
 2372SOL     OW18748   3.387   0.822  14.327  0.0027  0.2329  0.5844
 2372SOL    HW118749   3.441   0.875  14.385 -0.6434  1.2383  0.2604
 2372SOL    HW218750   3.319   0.805  14.391 -0.6290  1.1901  0.1656
 2373SOL     OW18751   0.199   4.247   7.588 -0.3409  0.0860  0.8991
 2373SOL    HW118752   0.171   4.159   7.563  2.0851 -0.1480 -1.0016
 2373SOL    HW218753   0.149   4.303   7.528 -2.9169 -0.9840  2.0756
 2374SOL     OW18754   0.665   2.504   4.470 -0.0152  0.0471  0.3190
 2374SOL    HW118755   0.670   2.449   4.392 -1.0014  0.3179  0.0687
 2374SOL    HW218756   0.706   2.446   4.534 -2.4385 -1.9865  0.0459
 2375SOL     OW18757   0.322   3.168   4.084  0.4342  0.3975 -0.4855
 2375SOL    HW118758   0.276   3.085   4.097  0.5535  0.7518  2.2305
 2375SOL    HW218759   0.278   3.218   4.154 -0.5578 -0.8014 -0.2501
 2376SOL     OW18760   3.076   4.704   5.774  0.3449  0.4082  0.2064
 2376SOL    HW118761   3.050   4.613   5.762  1.2698  0.4032 -1.8664
 2376SOL    HW218762   3.136   4.720   5.701  1.7412  1.4700  1.5877
 2377SOL     OW18763   2.100   1.240   0.932  0.3535 -0.0218  0.2552
 2377SOL    HW118764   2.117   1.174   0.999  2.1327 -0.3910 -0.5555
 2377SOL    HW218765   2.168   1.300   0.962 -1.0564  1.6227  0.1702
 2378SOL     OW18766   1.721   4.704   7.992 -0.0459  0.2230 -0.1426
 2378SOL    HW118767   1.802   4.667   8.027 -0.0051 -0.9032 -1.4060
 2378SOL    HW218768   1.663   4.627   7.988 -1.4286  1.2198  0.7013
 2379SOL     OW18769   2.201   2.439   4.838  0.3484 -0.1659 -0.0288
 2379SOL    HW118770   2.173   2.354   4.804 -3.9006  0.7186  1.3095
 2379SOL    HW218771   2.118   2.485   4.824  0.8823  0.6717 -0.4378
 2380SOL     OW18772   1.751   0.613  10.998 -0.7507  0.3508  0.0615
 2380SOL    HW118773   1.702   0.584  10.921  0.6685  0.6381 -0.9502
 2380SOL    HW218774   1.769   0.532  11.046  3.0418  0.2170 -1.5725
 2381SOL     OW18775   2.699   2.085  10.522  0.1560  0.0729 -0.2705
 2381SOL    HW118776   2.636   2.032  10.571  2.1842  0.5134  2.8381
 2381SOL    HW218777   2.758   2.108  10.594 -0.4133  1.2663 -0.1879
 2382SOL     OW18778   1.787   1.993   8.655 -0.2843  0.2269 -0.0924
 2382SOL    HW118779   1.699   2.023   8.678  0.0177  0.2871  0.9749
 2382SOL    HW218780   1.800   1.915   8.709 -1.1674  0.4251  0.4040
 2383SOL     OW18781   0.791   4.139   9.242  0.5173 -0.0649 -0.3684
 2383SOL    HW118782   0.747   4.211   9.196 -0.8638 -0.8766 -0.2922
 2383SOL    HW218783   0.704   4.116   9.272  1.0839 -2.3515 -0.5095
 2384SOL     OW18784   0.507   4.112  15.731  0.0001  0.4540  0.1098
 2384SOL    HW118785   0.516   4.105  15.636  1.2546 -3.5663  0.5526
 2384SOL    HW218786   0.439   4.178  15.746 -0.7306 -0.4078  0.5487
 2385SOL     OW18787   2.768   2.111   8.128  0.0990 -0.1076 -0.4206
 2385SOL    HW118788   2.757   2.206   8.121 -0.9607 -0.2273 -0.3167
 2385SOL    HW218789   2.680   2.085   8.103 -1.2020  2.1522  1.7140
 2386SOL     OW18790   0.300   0.657   0.340  0.2446 -0.4901  0.5447
 2386SOL    HW118791   0.259   0.670   0.425 -0.8613  0.9761 -0.2100
 2386SOL    HW218792   0.276   0.567   0.317  0.5176 -0.9252  1.9861
 2387SOL     OW18793   3.452   3.644  17.695 -0.0892  0.2305  0.0821
 2387SOL    HW118794   3.445   3.732  17.732  3.5764  0.1499  0.9644
 2387SOL    HW218795   3.448   3.612   0.026 -0.0543  1.3879  0.5007
 2388SOL     OW18796   1.359   1.574  16.275  0.4972  0.2432  0.2838
 2388SOL    HW118797   1.373   1.572  16.180 -0.0582  3.3379  0.1262
 2388SOL    HW218798   1.393   1.486  16.291  1.5294  0.3903 -1.0792
 2389SOL     OW18799   2.083   3.541  16.956  0.3171  0.1672 -0.2930
 2389SOL    HW118800   2.031   3.490  17.018 -1.4247 -1.3341 -2.9995
 2389SOL    HW218801   2.028   3.617  16.940  1.5673  1.1033 -0.2015
 2390SOL     OW18802   2.572   3.734   5.669 -0.3535 -0.0313 -0.3260
 2390SOL    HW118803   2.607   3.809   5.717 -2.2527  0.8682 -0.3056
 2390SOL    HW218804   2.502   3.785   5.628  0.4072 -1.7096 -3.6799
 2391SOL     OW18805   1.815   4.035  15.192  0.5200 -0.4445 -0.4878
 2391SOL    HW118806   1.878   4.102  15.164  0.4759  0.3029  1.1843
 2391SOL    HW218807   1.811   3.977  15.116  1.4673  0.3889 -1.1810
 2392SOL     OW18808   2.008   4.407   7.452  0.5616  0.5817 -0.6112
 2392SOL    HW118809   2.060   4.481   7.482  0.3481  0.1117  0.9169
 2392SOL    HW218810   1.944   4.439   7.388 -0.7022 -0.8907 -0.0675
 2393SOL     OW18811   2.165   0.394   3.572  0.0028  0.1373 -0.2969
 2393SOL    HW118812   2.222   0.394   3.495 -1.7785 -2.2080 -1.6098
 2393SOL    HW218813   2.206   0.466   3.619  0.1807 -0.9325  1.1661
 2394SOL     OW18814   3.277   4.590  17.268  0.4049  0.0259 -0.0609
 2394SOL    HW118815   3.302   4.670  17.222  1.8471  0.7824  2.0627
 2394SOL    HW218816   3.229   4.625  17.343 -2.7268 -1.4518 -1.3700
 2395SOL     OW18817   0.300   3.872  15.632  0.0226  0.7460 -0.1871
 2395SOL    HW118818   0.275   3.949  15.581 -1.4634  0.8056  0.6522
 2395SOL    HW218819   0.395   3.869  15.615  0.1744  1.9738  0.4596
 2396SOL     OW18820   0.927   0.694   7.094  0.0748  0.4008  0.8029
 2396SOL    HW118821   0.925   0.768   7.033 -0.9101 -1.3184 -1.2546
 2396SOL    HW218822   0.892   0.718   7.180  1.0366  0.1082  1.2750
 2397SOL     OW18823   1.221   1.919   7.351  0.0257 -0.3181 -0.5632
 2397SOL    HW118824   1.159   1.886   7.416  1.5047  0.1837  1.1054
 2397SOL    HW218825   1.162   1.989   7.324 -0.3277 -0.6774 -0.7178
 2398SOL     OW18826   3.942   0.144   5.786 -0.0920 -0.2116 -0.0255
 2398SOL    HW118827   3.988   0.161   5.868  1.2368 -2.0240 -0.4020
 2398SOL    HW218828   3.855   0.179   5.806 -0.3308 -1.9100  1.9435
 2399SOL     OW18829   0.759   1.064   4.406 -0.2762  0.4153 -0.4234
 2399SOL    HW118830   0.806   1.034   4.484  0.2822  2.8259  0.1841
 2399SOL    HW218831   0.744   0.986   4.353  1.3431  0.4370 -0.8978
 2400SOL     OW18832   2.069   2.618   5.728 -0.4978 -0.3191  0.1455
 2400SOL    HW118833   2.074   2.552   5.798  1.1809 -0.8045 -0.4344
 2400SOL    HW218834   2.092   2.697   5.777 -0.8062  0.7661 -1.4689
 2401SOL     OW18835   2.475   0.135  14.287 -0.6286 -0.4882  0.3907
 2401SOL    HW118836   2.389   0.148  14.247  0.2190  0.7988 -1.0734
 2401SOL    HW218837   2.508   0.094  14.207  1.8225 -0.7233  1.5172
 2402SOL     OW18838   3.595   2.520   1.880 -0.5092 -0.8398  0.2460
 2402SOL    HW118839   3.640   2.583   1.825 -2.0538  0.0975  0.0596
 2402SOL    HW218840   3.538   2.577   1.932  0.0078  0.3216 -0.4684
 2403SOL     OW18841   3.630   3.073  13.533  0.5086 -0.1372 -0.1862
 2403SOL    HW118842   3.703   3.132  13.515 -0.7545  2.2085  2.4477
 2403SOL    HW218843   3.552   3.128  13.543 -0.2101 -1.1199 -0.3410
 2404SOL     OW18844   2.896   3.530   1.420 -0.4807  0.0172  0.2062
 2404SOL    HW118845   2.909   3.441   1.452 -0.2885  0.2892  0.8928
 2404SOL    HW218846   2.850   3.512   1.339  0.5400 -2.4225  0.1519
 2405SOL     OW18847   0.591   0.118   8.273  0.0781 -0.0401 -0.0301
 2405SOL    HW118848   0.533   0.066   8.218  1.2602 -0.0681 -1.2557
 2405SOL    HW218849   0.547   0.117   8.358 -0.7557  1.6318 -0.4541
 2406SOL     OW18850   1.726   0.134   6.261 -0.3700 -0.6351  0.3201
 2406SOL    HW118851   1.714   0.041   6.239  0.4336 -1.0295  1.5431
 2406SOL    HW218852   1.679   0.127   6.344  1.0639  1.6632  1.3250
 2407SOL     OW18853   4.253   1.327   7.906 -0.4886 -0.2729 -0.8125
 2407SOL    HW118854   4.318   1.296   7.842 -1.5706 -1.4995 -1.3056
 2407SOL    HW218855   4.177   1.271   7.893  1.3323 -2.6878 -1.2184
 2408SOL     OW18856   2.780   3.515  14.010 -0.5001 -0.1330 -0.3137
 2408SOL    HW118857   2.778   3.443  14.074  1.4874 -0.3168 -0.4697
 2408SOL    HW218858   2.850   3.573  14.039  0.2907 -1.1210 -0.2577
 2409SOL     OW18859   2.888   0.445   7.475  0.3806  0.0485  0.3747
 2409SOL    HW118860   2.876   0.395   7.556  0.1359 -0.0676  0.2673
 2409SOL    HW218861   2.811   0.502   7.482  0.2470 -0.0466 -0.2651
 2410SOL     OW18862   3.093   3.563   8.374 -0.2108  0.3528  0.4011
 2410SOL    HW118863   3.103   3.628   8.305  2.9321 -1.2159 -0.6341
 2410SOL    HW218864   3.006   3.529   8.351  1.4937 -1.7685 -3.0293
 2411SOL     OW18865   3.273   2.820   3.211 -0.3313 -0.0621  0.0175
 2411SOL    HW118866   3.336   2.889   3.232  0.0600 -1.5166  3.5762
 2411SOL    HW218867   3.197   2.870   3.180 -0.7558 -1.3501 -0.9677
 2412SOL     OW18868   0.422   3.756   0.493  0.0161 -0.5154 -0.3705
 2412SOL    HW118869   0.417   3.719   0.581 -2.5808  1.3427  0.2815
 2412SOL    HW218870   0.509   3.794   0.501 -0.8957  1.5977 -0.3199
 2413SOL     OW18871   4.252   2.417   3.962  0.6570  0.6562  0.5482
 2413SOL    HW118872   4.267   2.335   3.914  2.1671  1.3759 -0.2130
 2413SOL    HW218873   4.311   2.480   3.921  1.4699 -1.7984 -2.1088
 2414SOL     OW18874   0.610   4.090   8.696 -0.0108 -0.1281 -0.5382
 2414SOL    HW118875   0.647   4.061   8.779 -1.7855 -0.0935  0.2656
 2414SOL    HW218876   0.567   4.012   8.661 -0.7851  0.6567 -1.3215
 2415SOL     OW18877   2.148   4.167   0.668 -0.2582  0.4289 -0.0148
 2415SOL    HW118878   2.172   4.165   0.576 -1.6612 -0.4643 -0.3590
 2415SOL    HW218879   2.125   4.255   0.696 -2.0799 -0.3197  0.8973
 2416SOL     OW18880   3.870   0.820  16.146 -0.5081 -0.5176  0.1614
 2416SOL    HW118881   3.882   0.893  16.085  1.8281 -1.9593 -1.0744
 2416SOL    HW218882   3.785   0.836  16.188  1.4238  3.4282  2.5914
 2417SOL     OW18883   2.368   3.581   2.271 -0.7172  0.0168 -0.0844
 2417SOL    HW118884   2.275   3.601   2.282 -0.1284  2.6140  0.2486
 2417SOL    HW218885   2.384   3.619   2.185 -0.3057  1.3876  0.5840
 2418SOL     OW18886   2.974   4.504   6.976  0.4041 -0.1100 -0.3442
 2418SOL    HW118887   3.065   4.522   6.950  0.2218  0.5238 -0.5517
 2418SOL    HW218888   2.982   4.456   7.059 -1.2362  1.2197  0.5816
 2419SOL     OW18889   2.274   2.285   6.844  0.0463 -0.2907  0.0189
 2419SOL    HW118890   2.208   2.354   6.849 -0.3372 -0.6630  0.1061
 2419SOL    HW218891   2.295   2.259   6.934 -0.1161 -1.0032 -0.1503
 2420SOL     OW18892   0.641   2.025   3.078 -0.5384 -0.0457  0.0167
 2420SOL    HW118893   0.708   2.083   3.040 -2.1631  1.6317 -0.3076
 2420SOL    HW218894   0.569   2.088   3.076 -0.4371  0.0585 -0.3531
 2421SOL     OW18895   4.271   1.570  12.989  0.1823  0.0746  0.5310
 2421SOL    HW118896   4.338   1.597  12.927 -2.1861  2.2269 -1.0882
 2421SOL    HW218897   4.313   1.487  13.013  2.6123  0.8495 -1.0257
 2422SOL     OW18898   3.284   4.214   6.854 -0.2955  0.4621 -0.4969
 2422SOL    HW118899   3.281   4.284   6.919  0.2253  0.4058 -0.4108
 2422SOL    HW218900   3.213   4.231   6.792 -1.3251  1.1203  0.8435
 2423SOL     OW18901   0.454   1.063   3.420 -0.9224  0.0148 -0.4256
 2423SOL    HW118902   0.501   1.089   3.500 -1.9578  1.5609 -0.3093
 2423SOL    HW218903   0.503   1.116   3.358 -3.1394  0.9035 -1.3840
 2424SOL     OW18904   4.255   2.783   4.203  0.1778 -0.1571 -0.4629
 2424SOL    HW118905   4.167   2.815   4.221 -0.3531 -1.1615 -1.2546
 2424SOL    HW218906   4.304   2.813   4.280 -0.4437 -2.1179  0.6839
 2425SOL     OW18907   4.529   0.729   8.534 -0.8868 -0.4886  0.1292
 2425SOL    HW118908   4.443   0.697   8.506 -0.7775 -0.3388 -0.3668
 2425SOL    HW218909   4.548   0.672   8.609  1.6722 -0.4874 -0.5177
 2426SOL     OW18910   2.961   2.882  16.645  0.0351  0.2939  0.9719
 2426SOL    HW118911   3.013   2.885  16.725  0.0246  0.2251  0.9811
 2426SOL    HW218912   2.986   2.798  16.607 -0.6317  0.4791  0.1165
 2427SOL     OW18913   0.643   3.560   2.650  0.0901  0.6101  0.0742
 2427SOL    HW118914   0.582   3.633   2.660 -0.9061  0.0565 -1.9674
 2427SOL    HW218915   0.598   3.493   2.598  0.1479  0.9676 -0.4394
 2428SOL     OW18916   0.804   3.246   8.291 -0.1789 -0.2987 -0.6338
 2428SOL    HW118917   0.753   3.324   8.312 -0.6553 -0.4978 -1.0344
 2428SOL    HW218918   0.795   3.183   8.363  1.7370 -0.1717 -0.3013
 2429SOL     OW18919   3.257   0.588  13.867 -0.1718  0.3508 -0.1621
 2429SOL    HW118920   3.173   0.596  13.822  0.0825  0.7198 -0.5769
 2429SOL    HW218921   3.275   0.666  13.921 -1.7895  1.0458 -0.6287
 2430SOL     OW18922   2.956   4.183  11.081  0.4851 -0.4470  0.1082
 2430SOL    HW118923   2.939   4.093  11.112 -0.4894 -0.0465  0.7453
 2430SOL    HW218924   2.930   4.235  11.157 -1.1482  0.2379 -0.9159
 2431SOL     OW18925   1.254   0.573   2.814  0.2438 -0.3093  0.1201
 2431SOL    HW118926   1.299   0.657   2.803  1.2544 -0.5214  2.7648
 2431SOL    HW218927   1.279   0.541   2.727 -1.3165 -1.3377  0.0508
 2432SOL     OW18928   1.804   3.192   6.587  0.3146  0.4137  0.0191
 2432SOL    HW118929   1.735   3.194   6.521 -0.4351 -1.0922  0.7510
 2432SOL    HW218930   1.887   3.183   6.539 -1.1768 -1.0229 -2.2636
 2433SOL     OW18931   3.068   2.939  16.882  0.0269 -0.8521  0.2084
 2433SOL    HW118932   2.987   2.966  16.925 -0.3481 -0.3733 -0.7870
 2433SOL    HW218933   3.136   2.969  16.943  2.2476 -2.3044 -1.5688
 2434SOL     OW18934   3.479   1.506   3.556  0.1379  0.4436 -0.2524
 2434SOL    HW118935   3.459   1.532   3.466  1.0776  1.4031 -0.1811
 2434SOL    HW218936   3.563   1.552   3.566  0.1409  0.3855 -0.0075
 2435SOL     OW18937   4.568   0.407   7.327  0.6497  0.7753 -0.2483
 2435SOL    HW118938   4.567   0.486   7.381  1.0913  0.5647  0.0631
 2435SOL    HW218939   4.658   0.380   7.343  0.1374 -0.2000  0.9105
 2436SOL     OW18940   1.048   0.661  12.435  0.0056 -0.1196 -0.0415
 2436SOL    HW118941   1.078   0.733  12.380 -0.5466  1.6190  1.9241
 2436SOL    HW218942   1.071   0.585  12.381 -2.3944  0.5154 -1.9925
 2437SOL     OW18943   1.676   4.645   3.798 -0.1775  0.4003 -0.3742
 2437SOL    HW118944   1.599   4.698   3.820 -1.0212 -1.7549  1.8766
 2437SOL    HW218945   1.733   4.706   3.751  0.7653 -0.1536  0.0566
 2438SOL     OW18946   3.579   4.425  16.859 -0.2687 -0.0296 -0.1825
 2438SOL    HW118947   3.549   4.485  16.926 -0.3606  0.2889 -0.5102
 2438SOL    HW218948   3.647   4.479  16.818  0.5672  0.7596  2.2659
 2439SOL     OW18949   4.568   4.393   6.323 -0.5643  0.0208  0.0509
 2439SOL    HW118950   4.578   4.330   6.252  1.0038 -0.6970  0.9130
 2439SOL    HW218951   4.560   4.473   6.270  0.0851 -0.7226 -1.1689
 2440SOL     OW18952   3.677   2.091   8.603  0.4513  0.2402 -0.1557
 2440SOL    HW118953   3.648   2.029   8.670 -0.9410  0.4380 -0.5810
 2440SOL    HW218954   3.686   2.168   8.660 -0.6470  0.2007  0.0793
 2441SOL     OW18955   1.452   1.870   2.185  0.1091  0.5480 -0.0377
 2441SOL    HW118956   1.495   1.844   2.104  1.3190 -0.3632  0.8750
 2441SOL    HW218957   1.454   1.965   2.176 -1.8597  0.5487 -0.2824
 2442SOL     OW18958   3.142   0.789  14.478  0.3615 -0.1540 -0.1444
 2442SOL    HW118959   3.098   0.712  14.440 -0.1196 -0.0020  0.1150
 2442SOL    HW218960   3.067   0.846  14.463 -0.3886 -0.9010  0.7968
 2443SOL     OW18961   1.588   3.697   5.432 -0.2689 -0.0046  0.0038
 2443SOL    HW118962   1.540   3.779   5.439 -0.4318 -0.1845  1.0422
 2443SOL    HW218963   1.518   3.639   5.400 -2.6016  1.6934  1.9932
 2444SOL     OW18964   0.834   2.770  16.017  0.1288 -0.5856  0.3168
 2444SOL    HW118965   0.772   2.832  15.980  1.3250  1.9492  2.5701
 2444SOL    HW218966   0.822   2.777  16.111  1.9360  1.2336  0.4086
 2445SOL     OW18967   1.870   2.181  12.127 -0.6091 -0.3732 -0.0648
 2445SOL    HW118968   1.930   2.109  12.110 -0.3518 -0.4182  1.0807
 2445SOL    HW218969   1.892   2.214  12.214  1.0198 -2.2355  0.2289
 2446SOL     OW18970   2.720   1.394   8.744  0.0831 -0.5556 -0.2120
 2446SOL    HW118971   2.705   1.431   8.656 -0.8667 -0.6233 -0.0785
 2446SOL    HW218972   2.643   1.429   8.788  0.1496 -0.7387  0.0470
 2447SOL     OW18973   3.669   4.589  14.052 -0.2784 -0.1503  0.5272
 2447SOL    HW118974   3.704   4.651  14.116 -0.8323 -0.8958  1.5620
 2447SOL    HW218975   3.606   4.647  14.011  0.2123  0.5639  0.7921
 2448SOL     OW18976   2.959   1.002  17.682 -0.3061 -0.4123  0.4493
 2448SOL    HW118977   2.976   0.923  17.630  0.2230 -0.4196  0.6316
 2448SOL    HW218978   2.996   1.071  17.627  1.1508 -0.0122  1.9198
 2449SOL     OW18979   0.793   1.069  11.145  0.1469 -0.4316 -0.1515
 2449SOL    HW118980   0.751   0.983  11.136 -0.3134 -0.4051  1.6957
 2449SOL    HW218981   0.764   1.099  11.232 -2.9329 -1.7604 -0.6997
 2450SOL     OW18982   1.490   4.051  14.428 -0.6133  0.4829  0.1339
 2450SOL    HW118983   1.538   3.977  14.465 -0.4321  0.0198 -1.0134
 2450SOL    HW218984   1.571   4.093  14.399 -0.0514 -0.7377 -0.1076
 2451SOL     OW18985   2.452   1.504   7.049 -0.2850  0.4063  0.3484
 2451SOL    HW118986   2.498   1.577   7.090 -1.9240  1.5021  0.2480
 2451SOL    HW218987   2.374   1.506   7.105  0.0013  1.0433  0.7259
 2452SOL     OW18988   2.233   0.522  13.091 -0.8452 -0.0290  0.8938
 2452SOL    HW118989   2.255   0.440  13.049  0.1070  1.1161 -0.8313
 2452SOL    HW218990   2.291   0.519  13.167 -0.4973  0.6362  0.6592
 2453SOL     OW18991   1.598   2.636   7.531 -0.0466  0.3181  0.0874
 2453SOL    HW118992   1.669   2.691   7.497 -1.9130  1.6265 -1.6852
 2453SOL    HW218993   1.539   2.703   7.565  1.1838  1.4850 -0.0940
 2454SOL     OW18994   2.539   3.561   1.387  0.2586  0.2156 -0.6883
 2454SOL    HW118995   2.549   3.502   1.463  0.0008  1.5282  0.3659
 2454SOL    HW218996   2.454   3.603   1.401  0.0270 -0.9514  1.4085
 2455SOL     OW18997   1.386   2.660   6.036 -0.0009 -0.5897 -0.5772
 2455SOL    HW118998   1.293   2.637   6.035 -0.4127  1.0548  1.9477
 2455SOL    HW218999   1.428   2.577   6.060 -1.9317 -1.7832 -1.3504
 2456SOL     OW19000   3.100   3.128   7.851 -0.5136  0.1941  0.5999
 2456SOL    HW119001   3.181   3.163   7.814 -1.9068  0.8885 -1.7852
 2456SOL    HW219002   3.121   3.044   7.892 -1.4086 -0.4799 -0.3235
 2457SOL     OW19003   2.773   4.265   2.350 -0.2284 -0.5328  0.6160
 2457SOL    HW119004   2.759   4.241   2.259  2.4784  3.4147 -0.8510
 2457SOL    HW219005   2.804   4.179   2.380  0.3134 -0.5238  0.0919
 2458SOL     OW19006   4.697   3.180   7.765 -0.0410 -0.4707  0.2422
 2458SOL    HW119007   4.730   3.091   7.782 -0.5442 -0.9417 -1.2879
 2458SOL    HW219008   4.738   3.199   7.681 -2.6261 -0.9159 -1.1177
 2459SOL     OW19009   4.072   1.969   2.764 -0.3834  0.3444 -0.5394
 2459SOL    HW119010   4.165   1.949   2.761 -0.4435  0.2133 -1.5391
 2459SOL    HW219011   4.033   1.883   2.780  0.8565 -0.2034 -0.5356
 2460SOL     OW19012   4.600   1.520   1.046 -0.0104 -0.1808 -0.8375
 2460SOL    HW119013   4.527   1.506   1.107  0.3829  2.6973  0.2570
 2460SOL    HW219014   4.560   1.460   0.983  0.8239 -1.7443  0.1109
 2461SOL     OW19015   2.137   4.358   9.374 -0.6548  0.5277 -1.0797
 2461SOL    HW119016   2.198   4.430   9.357 -0.5207  0.7859  0.5643
 2461SOL    HW219017   2.114   4.374   9.465  0.0847 -0.1784 -0.7675
 2462SOL     OW19018   2.562   1.407   3.866  0.0584  0.8715  0.1152
 2462SOL    HW119019   2.536   1.318   3.887 -2.1722  1.4887 -0.0047
 2462SOL    HW219020   2.657   1.396   3.861 -0.1403  0.5903 -3.0257
 2463SOL     OW19021   0.099   1.030   7.844  0.1478  0.2228 -0.3003
 2463SOL    HW119022   0.168   0.970   7.873  0.1361 -0.2061 -1.1484
 2463SOL    HW219023   0.100   1.021   7.749 -0.2605 -0.0351 -0.2841
 2464SOL     OW19024   1.127   1.955   9.066  0.4084  0.1169 -0.3458
 2464SOL    HW119025   1.159   1.962   8.976  1.4285 -0.8221 -0.0504
 2464SOL    HW219026   1.048   1.905   9.043 -0.3423  0.3245  1.7570
 2465SOL     OW19027   3.557   3.806   2.080  0.9127  0.2498 -0.0166
 2465SOL    HW119028   3.519   3.772   1.999 -2.2635 -3.1501  2.8589
 2465SOL    HW219029   3.517   3.746   2.144 -0.3722 -0.1267 -1.1594
 2466SOL     OW19030   3.612   2.732   5.940 -0.2541  0.4350 -0.3373
 2466SOL    HW119031   3.699   2.770   5.928 -0.1991  0.7484  1.0351
 2466SOL    HW219032   3.620   2.688   6.024  2.1679  0.0756 -0.7807
 2467SOL     OW19033   1.107   0.571  13.902 -0.3392  0.2403 -0.6920
 2467SOL    HW119034   1.126   0.581  13.809 -0.8471 -1.7331 -1.0034
 2467SOL    HW219035   1.020   0.610  13.910 -0.9068 -1.3227  0.8919
 2468SOL     OW19036   3.223   1.749   0.005  0.1758  0.2530 -0.0144
 2468SOL    HW119037   3.259   1.830   0.039  2.5966 -1.4075  1.4273
 2468SOL    HW219038   3.132   1.770  17.745 -0.2679 -2.2026 -0.6332
 2469SOL     OW19039   1.386   4.587   8.222 -0.0802 -0.2648 -0.6348
 2469SOL    HW119040   1.420   4.623   8.140 -0.6618 -0.1203 -0.8075
 2469SOL    HW219041   1.458   4.608   8.282 -0.1565 -0.9927 -0.2842
 2470SOL     OW19042   0.809   2.743  11.975  0.1769  0.3625 -0.1324
 2470SOL    HW119043   0.786   2.771  11.887 -1.1729  1.1587  0.4767
 2470SOL    HW219044   0.722   2.729  12.013 -0.6056  0.1408 -1.9929
 2471SOL     OW19045   3.844   1.542   6.661 -0.0087  0.2955 -0.5381
 2471SOL    HW119046   3.905   1.529   6.588 -0.8754  1.4036 -1.4357
 2471SOL    HW219047   3.777   1.473   6.653 -0.6534  0.9390 -0.6224
 2472SOL     OW19048   1.355   2.922   0.986  0.6262 -0.2313  0.3129
 2472SOL    HW119049   1.284   2.859   1.004 -0.5964  0.8363 -0.7482
 2472SOL    HW219050   1.302   2.985   0.936  0.2244 -0.5829  0.2894
 2473SOL     OW19051   3.385   3.696   1.902 -0.3775 -0.1675 -0.5162
 2473SOL    HW119052   3.418   3.679   1.814  0.9998  1.5587 -0.3240
 2473SOL    HW219053   3.357   3.610   1.934  1.1254 -0.4231  0.1520
 2474SOL     OW19054   3.241   0.154   0.352  0.2480 -0.1933  0.0193
 2474SOL    HW119055   3.248   0.113   0.266 -1.0016  1.1042 -0.7136
 2474SOL    HW219056   3.214   0.239   0.316 -0.8196 -1.5808 -2.4815
 2475SOL     OW19057   3.242   0.203   3.750 -0.2378 -0.3594 -0.1041
 2475SOL    HW119058   3.285   0.288   3.746  0.3042 -0.6046  0.4373
 2475SOL    HW219059   3.169   0.226   3.808  0.5536  0.4218  0.5691
 2476SOL     OW19060   0.727   3.155   8.054 -0.4921 -0.0047 -0.1087
 2476SOL    HW119061   0.743   3.197   8.139 -1.1659 -0.7186  0.3776
 2476SOL    HW219062   0.800   3.093   8.062 -1.2894 -1.0752 -1.0997
 2477SOL     OW19063   2.762   1.164   2.172 -0.0294  0.1861  0.0674
 2477SOL    HW119064   2.734   1.079   2.206  3.7882 -0.5916  1.2234
 2477SOL    HW219065   2.811   1.188   2.251 -0.9835  0.4607  0.5859
 2478SOL     OW19066   0.786   0.273   7.843 -0.1396 -0.4079  0.1433
 2478SOL    HW119067   0.733   0.353   7.845  0.2602 -0.1282 -0.3999
 2478SOL    HW219068   0.869   0.316   7.861 -0.7651  0.8968 -0.0210
 2479SOL     OW19069   0.727   0.966   5.274  0.0714 -0.7800 -0.0489
 2479SOL    HW119070   0.789   0.993   5.206 -1.7381  0.2267 -1.2923
 2479SOL    HW219071   0.792   0.924   5.331  0.4285 -1.1910 -0.7590
 2480SOL     OW19072   4.379   4.287   0.501 -0.7902  0.1368  0.4193
 2480SOL    HW119073   4.327   4.207   0.507  1.2292 -0.9577  3.2352
 2480SOL    HW219074   4.371   4.330   0.585 -2.2779  2.4221 -0.9069
 2481SOL     OW19075   3.151   4.257   4.104 -0.0516  0.1221  0.5112
 2481SOL    HW119076   3.165   4.333   4.161 -1.7192  1.3850 -0.7362
 2481SOL    HW219077   3.154   4.184   4.165 -0.4302 -1.2632 -1.1323
 2482SOL     OW19078   1.024   2.871   9.601 -0.1853  0.1358 -0.2918
 2482SOL    HW119079   1.091   2.866   9.533  0.3940 -2.3853  0.4634
 2482SOL    HW219080   1.034   2.791   9.653  3.7528  1.5306  1.0982
 2483SOL     OW19081   2.006   4.217  10.774 -0.2988 -0.6052 -0.3548
 2483SOL    HW119082   2.075   4.284  10.767  0.2275 -0.9272  1.7037
 2483SOL    HW219083   2.010   4.178  10.861  1.1532  0.2444 -0.0477
 2484SOL     OW19084   3.405   2.462   4.593  0.0131  0.5289  0.0476
 2484SOL    HW119085   3.473   2.402   4.624 -0.8556  0.9560  2.7995
 2484SOL    HW219086   3.352   2.470   4.672 -1.9148 -1.0582 -1.0920
 2485SOL     OW19087   2.043   3.275  17.127  0.4994 -0.4047 -1.0979
 2485SOL    HW119088   2.075   3.232  17.048 -0.5606 -2.6334 -0.2949
 2485SOL    HW219089   1.948   3.268  17.118  0.1733  2.0014  0.2367
 2486SOL     OW19090   1.047   1.898  11.959 -0.1635 -0.3925  0.2541
 2486SOL    HW119091   0.984   1.891  11.887  0.5188  1.7652 -0.5470
 2486SOL    HW219092   1.107   1.825  11.941  0.3446 -0.0118  0.3854
 2487SOL     OW19093   4.329   3.296   7.054  0.5092  0.3294  0.2281
 2487SOL    HW119094   4.404   3.355   7.053  0.6239  0.1708 -0.8248
 2487SOL    HW219095   4.312   3.306   7.148  1.2529  1.5480  0.2291
 2488SOL     OW19096   1.726   4.481   3.525 -0.5187 -0.1352 -0.6560
 2488SOL    HW119097   1.727   4.521   3.612 -0.4969 -0.8055 -0.3465
 2488SOL    HW219098   1.646   4.429   3.535 -0.4294 -0.4110 -1.4048
 2489SOL     OW19099   0.363   1.041   6.620 -0.6990  0.2690  0.4888
 2489SOL    HW119100   0.371   0.961   6.569 -3.1990  0.3026  0.0179
 2489SOL    HW219101   0.278   1.081   6.600 -1.8105 -2.1429  0.4179
 2490SOL     OW19102   4.661   0.145   1.466 -0.4063 -0.1323  0.0474
 2490SOL    HW119103   4.702   0.121   1.382 -0.3825  0.6242 -0.1611
 2490SOL    HW219104   4.740   0.157   1.519 -0.5338  0.8746  0.0083
 2491SOL     OW19105   0.179   1.109  13.498 -0.0498 -0.1888 -0.0348
 2491SOL    HW119106   0.159   1.160  13.420 -0.2213 -1.0301 -0.5426
 2491SOL    HW219107   0.242   1.165  13.544 -1.8615  0.3666  1.7875
 2492SOL     OW19108   4.285   4.529   1.467  0.5008  0.1715 -0.0510
 2492SOL    HW119109   4.252   4.595   1.527  0.1743 -1.7710  1.9210
 2492SOL    HW219110   4.230   4.452   1.485  0.8225 -0.1656 -0.4815
 2493SOL     OW19111   2.628   2.485   2.744  0.2639 -0.0039  0.1654
 2493SOL    HW119112   2.607   2.503   2.653 -1.9843  0.0205  0.6906
 2493SOL    HW219113   2.578   2.555   2.787 -2.7266 -2.1068  0.0927
 2494SOL     OW19114   1.482   4.368  11.169  0.1476 -0.1170  0.6990
 2494SOL    HW119115   1.447   4.440  11.222 -0.2406 -0.3890  0.8153
 2494SOL    HW219116   1.562   4.344  11.216  0.5325 -0.7350 -0.2802
 2495SOL     OW19117   4.676   0.195  12.019  1.2714  0.1345 -0.0880
 2495SOL    HW119118   4.650   0.198  11.926  1.1138 -2.7598 -0.1210
 2495SOL    HW219119   4.590   0.177  12.057  0.8215 -0.6191 -1.4450
 2496SOL     OW19120   3.493   2.467   5.572  0.1119  0.2265 -0.3135
 2496SOL    HW119121   3.418   2.440   5.626  0.7574  2.0811  1.5298
 2496SOL    HW219122   3.521   2.552   5.606 -0.0629  0.3096 -0.3751
 2497SOL     OW19123   1.351   4.133  14.032  0.3781  0.8745  0.1659
 2497SOL    HW119124   1.400   4.069  13.980  0.4616 -0.1309  1.4844
 2497SOL    HW219125   1.293   4.174  13.967 -2.3771 -0.0659  2.0346
 2498SOL     OW19126   0.489   2.908   8.647  0.1668 -0.0347  0.1827
 2498SOL    HW119127   0.534   2.845   8.703  0.3970  1.0502  1.2226
 2498SOL    HW219128   0.401   2.872   8.636  0.1850 -0.3998  1.2903
 2499SOL     OW19129   4.065   4.313  14.176 -0.4123  0.4261 -0.3494
 2499SOL    HW119130   4.070   4.408  14.167 -1.2611  0.4017 -1.1107
 2499SOL    HW219131   4.103   4.283  14.093 -1.3345  1.2848 -1.0867
 2500SOL     OW19132   0.527   0.945   1.280 -0.1717 -0.3387 -0.3061
 2500SOL    HW119133   0.580   1.013   1.237  1.8198 -1.6199  0.1320
 2500SOL    HW219134   0.554   0.950   1.371 -2.5774 -0.3748  0.4116
 2501SOL     OW19135   0.738   3.841   2.032 -0.4469  0.0565  0.3977
 2501SOL    HW119136   0.692   3.891   1.964  0.2800 -0.5821 -0.5662
 2501SOL    HW219137   0.719   3.903   2.102 -1.5190  0.3242 -0.1314
 2502SOL     OW19138   3.586   4.443   1.120  0.4451 -0.2163  0.3921
 2502SOL    HW119139   3.640   4.506   1.074 -1.7801  0.0101 -1.9363
 2502SOL    HW219140   3.520   4.410   1.059 -1.3180  0.6092  1.8459
 2503SOL     OW19141   0.594   3.920   7.052  1.6169 -0.0922 -0.2335
 2503SOL    HW119142   0.559   3.832   7.061 -1.6962  1.3208  0.7258
 2503SOL    HW219143   0.521   3.977   7.076  2.8253  1.0820  0.6471
 2504SOL     OW19144   2.489   1.708   8.137  0.3765 -0.2714 -0.1102
 2504SOL    HW119145   2.410   1.675   8.094 -0.3580  0.2207  0.8804
 2504SOL    HW219146   2.533   1.624   8.150  2.8921  1.3620  1.8842
 2505SOL     OW19147   0.325   3.354   6.779  0.0427  0.8793 -0.1292
 2505SOL    HW119148   0.347   3.325   6.690  0.5278 -0.6704  0.5000
 2505SOL    HW219149   0.313   3.448   6.766 -0.6429  0.5271 -2.0583
 2506SOL     OW19150   2.078   0.352   2.783 -0.1033  0.0530  0.4294
 2506SOL    HW119151   2.160   0.347   2.734 -0.1237 -1.1016  0.5180
 2506SOL    HW219152   2.013   0.354   2.712  0.4496 -1.1057 -0.1096
 2507SOL     OW19153   0.994   2.456   7.371 -0.0962 -0.4388 -0.0125
 2507SOL    HW119154   0.907   2.425   7.344  0.1006  0.7054 -1.9496
 2507SOL    HW219155   0.977   2.504   7.452 -2.7647  1.3087 -1.5987
 2508SOL     OW19156   0.891   0.110  10.491  0.4246  0.3236 -0.1789
 2508SOL    HW119157   0.840   0.070  10.562 -0.0948  0.6307 -0.3854
 2508SOL    HW219158   0.981   0.110  10.525  0.5102  1.2881 -0.3913
 2509SOL     OW19159   3.606   2.148   2.986  0.1202 -0.1031  0.3754
 2509SOL    HW119160   3.584   2.235   3.018 -0.6423 -1.4508  3.4840
 2509SOL    HW219161   3.674   2.122   3.048  2.5330 -1.1406 -2.6669
 2510SOL     OW19162   0.661   0.908   8.432 -0.3895 -0.1637  0.0578
 2510SOL    HW119163   0.699   0.822   8.449 -0.2676 -0.3887 -1.3653
 2510SOL    HW219164   0.623   0.887   8.347  0.5111 -0.4020 -0.2951
 2511SOL     OW19165   3.400   1.000   2.858  0.0242  0.4224  0.0304
 2511SOL    HW119166   3.317   0.972   2.895  0.7329  0.6441  1.7753
 2511SOL    HW219167   3.432   0.916   2.826  0.1248  0.5500 -0.2098
 2512SOL     OW19168   0.960   1.177   3.903  0.0194 -0.1435  0.0325
 2512SOL    HW119169   1.035   1.233   3.922 -0.3185  0.4972 -0.5111
 2512SOL    HW219170   0.904   1.209   3.974 -0.1062 -1.4759  0.5341
 2513SOL     OW19171   1.837   4.494   7.244 -0.1487  0.3428  0.1060
 2513SOL    HW119172   1.925   4.486   7.207  0.4525  1.9115  1.2005
 2513SOL    HW219173   1.780   4.444   7.185 -1.0943  0.0411  1.2689
 2514SOL     OW19174   0.885   1.465  16.794  0.5376  0.7953  0.5182
 2514SOL    HW119175   0.851   1.422  16.716  0.5512  2.2385 -0.2876
 2514SOL    HW219176   0.941   1.400  16.835  1.2344  0.1641 -1.4681
 2515SOL     OW19177   4.539   4.217   2.865  0.2611  0.4951 -0.1576
 2515SOL    HW119178   4.619   4.220   2.813  1.0601 -0.1333  1.0173
 2515SOL    HW219179   4.568   4.274   2.936  0.1082 -0.5122  0.7147
 2516SOL     OW19180   0.951   4.053   8.688  0.0797  0.0154  0.0966
 2516SOL    HW119181   0.965   4.136   8.643 -0.4654 -1.4312 -2.6979
 2516SOL    HW219182   0.892   4.081   8.758 -1.9667 -2.9144 -0.4624
 2517SOL     OW19183   0.824   0.602   9.476  0.0935 -0.3202 -0.0368
 2517SOL    HW119184   0.894   0.592   9.541 -0.3684  4.5459  1.2345
 2517SOL    HW219185   0.748   0.623   9.530  0.4715 -1.0236  0.7787
 2518SOL     OW19186   3.115   0.164  14.753 -0.4927 -0.6959  0.0450
 2518SOL    HW119187   3.111   0.254  14.785  1.7302 -0.2107 -1.0398
 2518SOL    HW219188   3.090   0.109  14.827  1.7675 -1.2202  0.3932
 2519SOL     OW19189   0.481   2.175   7.742  0.3972 -0.1795 -0.6365
 2519SOL    HW119190   0.572   2.156   7.767  0.5273  0.2327 -0.8085
 2519SOL    HW219191   0.500   2.231   7.667 -0.4778 -0.7894 -1.3086
 2520SOL     OW19192   2.593   2.401   8.851  0.0110  0.3660  0.1054
 2520SOL    HW119193   2.658   2.424   8.786  0.5551 -2.8288 -0.4751
 2520SOL    HW219194   2.622   2.457   8.923  0.3125 -0.6474  0.7716
 2521SOL     OW19195   3.414   4.485   5.160  0.5575  0.3759  0.5362
 2521SOL    HW119196   3.414   4.572   5.121 -3.4926 -0.3801 -1.1058
 2521SOL    HW219197   3.503   4.461   5.134  0.4260  0.2381  0.2143
 2522SOL     OW19198   4.336   0.351   3.443 -0.2875  0.8646  0.3459
 2522SOL    HW119199   4.363   0.269   3.483  1.5896  1.2548 -0.1528
 2522SOL    HW219200   4.412   0.377   3.390  1.2129 -1.4675  1.3937
 2523SOL     OW19201   1.927   2.386   8.920  0.3896 -0.7243 -0.3551
 2523SOL    HW119202   1.911   2.462   8.864 -2.5438  0.1879  1.7386
 2523SOL    HW219203   2.010   2.413   8.961  0.6688 -0.8201 -0.8591
 2524SOL     OW19204   1.158   1.097   5.920  0.4765 -0.0806 -0.2308
 2524SOL    HW119205   1.155   1.122   6.013 -1.0004  1.8002 -0.7860
 2524SOL    HW219206   1.121   1.009   5.929  0.7113 -0.0093  1.4320
 2525SOL     OW19207   3.524   2.847  12.911  0.2598  0.1074  0.6351
 2525SOL    HW119208   3.612   2.864  12.945  0.0880  0.1475  1.0540
 2525SOL    HW219209   3.534   2.834  12.817  3.1888  1.6622  0.7123
 2526SOL     OW19210   1.425   4.226   7.071 -0.0984  0.4276 -0.1592
 2526SOL    HW119211   1.474   4.160   7.120 -0.5693  0.8832  0.9067
 2526SOL    HW219212   1.390   4.160   7.010  0.4243  0.3873 -0.4125
 2527SOL     OW19213   1.517   1.379   4.043 -0.1018 -0.0196 -0.0765
 2527SOL    HW119214   1.590   1.418   4.091 -0.3152 -1.2068  1.2190
 2527SOL    HW219215   1.567   1.351   3.966  2.1239 -1.4390  1.8640
 2528SOL     OW19216   0.683   3.219   3.019 -0.0995 -0.9517  0.0420
 2528SOL    HW119217   0.631   3.299   3.023 -0.5840 -1.3942  2.6007
 2528SOL    HW219218   0.673   3.209   2.925 -0.0850  1.7934 -0.2587
 2529SOL     OW19219   3.120   0.011   1.164 -0.2120  0.7109 -0.1702
 2529SOL    HW119220   3.202   0.005   1.213  0.1150  0.1418 -0.7963
 2529SOL    HW219221   3.124   0.102   1.136  0.0796  0.4508 -0.9647
 2530SOL     OW19222   2.751   3.720   3.087 -0.1854  0.2779 -0.3513
 2530SOL    HW119223   2.698   3.786   3.043  0.3488  0.3652 -0.8688
 2530SOL    HW219224   2.732   3.745   3.177 -0.9669 -0.9720 -0.1656
 2531SOL     OW19225   1.458   3.867   2.829 -0.2793  0.2757  0.9832
 2531SOL    HW119226   1.542   3.904   2.803 -1.7279  0.9008 -2.7196
 2531SOL    HW219227   1.420   3.879   2.743 -0.7705 -0.6601  1.0630
 2532SOL     OW19228   1.285   1.257  16.569  0.5370  0.1538  0.2556
 2532SOL    HW119229   1.277   1.337  16.517  0.8770 -1.8851 -2.9590
 2532SOL    HW219230   1.212   1.206  16.533  0.2390  1.0340 -0.3808
 2533SOL     OW19231   2.244   0.776   6.347 -0.0623  0.4587  0.1797
 2533SOL    HW119232   2.170   0.835   6.362 -0.9305 -1.1417  2.1411
 2533SOL    HW219233   2.255   0.754   6.440 -0.4568  0.5489  0.2476
 2534SOL     OW19234   4.317   2.695   8.699 -0.3128 -0.1415 -0.5036
 2534SOL    HW119235   4.334   2.734   8.785  2.7971 -0.8696 -0.7960
 2534SOL    HW219236   4.347   2.605   8.713  1.4602  0.4595 -0.4110
 2535SOL     OW19237   0.726   0.126   5.853 -0.4922  0.0543 -0.1555
 2535SOL    HW119238   0.676   0.204   5.831 -0.7091 -0.7017 -2.4175
 2535SOL    HW219239   0.660   0.070   5.894 -1.2271  1.5585  0.6938
 2536SOL     OW19240   0.029   2.567   8.981 -0.4022 -0.0570  0.0727
 2536SOL    HW119241   4.685   2.527   9.004 -1.5541  0.5859 -3.0190
 2536SOL    HW219242   0.084   2.500   9.022 -1.4917 -1.7798 -1.2473
 2537SOL     OW19243   2.175   1.740   5.376  0.4380 -0.0856  0.0736
 2537SOL    HW119244   2.192   1.769   5.466 -1.8781  0.3608  0.3651
 2537SOL    HW219245   2.139   1.816   5.331  0.6190 -1.0903 -1.7673
 2538SOL     OW19246   2.765   0.639   1.325  0.2367 -0.3825  0.0964
 2538SOL    HW119247   2.784   0.606   1.413  1.9969  0.0359 -0.1300
 2538SOL    HW219248   2.780   0.732   1.344 -0.8450  0.2065 -2.0020
 2539SOL     OW19249   0.306   3.366   2.287  0.1089 -0.5943 -0.2550
 2539SOL    HW119250   0.245   3.357   2.214 -0.1614 -0.7888 -0.0105
 2539SOL    HW219251   0.292   3.457   2.314  0.0128 -0.6101 -0.2510
 2540SOL     OW19252   2.420   4.463   4.941  0.3053 -0.3031 -0.3930
 2540SOL    HW119253   2.438   4.550   4.905 -1.0155  0.5797  1.0918
 2540SOL    HW219254   2.369   4.488   5.018 -0.1883 -1.3476 -0.3901
 2541SOL     OW19255   3.522   4.299   2.696  0.0480  0.4663 -0.0626
 2541SOL    HW119256   3.553   4.371   2.752  0.7631  0.2647 -0.1991
 2541SOL    HW219257   3.603   4.277   2.651  0.8920 -0.7271  2.0035
 2542SOL     OW19258   0.150   3.661   5.302 -0.2761  0.2369  0.6489
 2542SOL    HW119259   0.238   3.623   5.298  0.3862  1.8953 -0.6833
 2542SOL    HW219260   0.118   3.650   5.391  0.1942  1.7282  0.9940
 2543SOL     OW19261   2.666   0.140   0.410  0.3135  0.2692 -0.2077
 2543SOL    HW119262   2.732   0.156   0.343 -0.7163  0.2516 -1.2367
 2543SOL    HW219263   2.602   0.191   0.360  1.8936  1.9764 -0.4887
 2544SOL     OW19264   4.313   1.855   5.051  0.3680  0.6066  0.2205
 2544SOL    HW119265   4.367   1.777   5.043 -1.9114 -0.7171 -2.2545
 2544SOL    HW219266   4.306   1.871   5.145  0.3983 -0.1034  0.3480
 2545SOL     OW19267   2.836   2.518  13.120  0.6947  0.9322  0.0672
 2545SOL    HW119268   2.771   2.507  13.190  1.1178 -0.7054  0.2021
 2545SOL    HW219269   2.837   2.430  13.083  2.0491  1.7111 -1.7690
 2546SOL     OW19270   0.981   1.103   3.034  0.0475 -0.0330  0.2225
 2546SOL    HW119271   1.073   1.096   3.058 -0.2061 -2.0548  0.5701
 2546SOL    HW219272   0.943   1.030   3.082 -2.0762  1.1116  0.2896
 2547SOL     OW19273   2.854   2.041   9.684  0.0553  0.3410  0.2141
 2547SOL    HW119274   2.834   1.971   9.747 -1.0089  0.2300 -0.2386
 2547SOL    HW219275   2.863   2.111   9.748 -0.1382  0.3044  0.2811
 2548SOL     OW19276   4.354   2.854   8.945  0.5762  0.5706 -0.4592
 2548SOL    HW119277   4.440   2.884   8.916  0.5235 -0.1391 -1.3302
 2548SOL    HW219278   4.322   2.927   8.998  0.5887 -0.2186  0.6475
 2549SOL     OW19279   3.316   1.143   2.636 -0.6922 -0.5191  0.4582
 2549SOL    HW119280   3.301   1.080   2.566 -0.3497  1.1246 -1.0949
 2549SOL    HW219281   3.329   1.095   2.717  1.3773 -0.8175 -0.0566
 2550SOL     OW19282   1.242   0.035   4.868 -0.5393  0.1717 -0.0457
 2550SOL    HW119283   1.237   4.732   4.953  0.0813  4.2521  2.0382
 2550SOL    HW219284   1.158   0.081   4.866  0.3477  1.7588 -0.9369
 2551SOL     OW19285   4.141   3.175  10.883 -0.2304  0.3550 -0.2770
 2551SOL    HW119286   4.061   3.219  10.857  0.9965  2.3141 -0.7726
 2551SOL    HW219287   4.203   3.247  10.867 -0.1771  0.0272 -1.4786
 2552SOL     OW19288   1.712   3.892   3.020 -0.4178  0.1734 -0.0121
 2552SOL    HW119289   1.731   3.913   2.929  0.9439 -1.6603 -0.1470
 2552SOL    HW219290   1.793   3.901   3.069 -0.3484 -0.1431 -0.0659
 2553SOL     OW19291   2.379   3.995  10.943  0.0495 -0.1651 -0.7873
 2553SOL    HW119292   2.395   3.900  10.945  3.2762  0.3589 -1.1677
 2553SOL    HW219293   2.418   4.015  11.029  0.5642  1.8910 -1.5017
 2554SOL     OW19294   4.232   0.327   5.305  0.4250 -0.3506  0.3132
 2554SOL    HW119295   4.143   0.358   5.288  0.4424  0.4334  1.6597
 2554SOL    HW219296   4.274   0.324   5.219 -0.2475 -1.4526  0.0153
 2555SOL     OW19297   3.850   3.866   5.672 -0.2391 -0.3263  0.2856
 2555SOL    HW119298   3.864   3.829   5.759  0.6287 -0.3024  0.1619
 2555SOL    HW219299   3.913   3.939   5.672 -0.9324  0.2714  0.3376
 2556SOL     OW19300   0.233   1.766   9.964 -0.0754 -0.9399 -0.0400
 2556SOL    HW119301   0.188   1.701  10.019 -0.2534 -0.6593  0.1495
 2556SOL    HW219302   0.260   1.718   9.886 -0.9544 -0.5380 -0.5907
 2557SOL     OW19303   3.575   1.284  12.488 -0.2104  0.2577  0.5777
 2557SOL    HW119304   3.547   1.367  12.449 -2.4145 -0.2144  1.1648
 2557SOL    HW219305   3.586   1.237  12.405 -1.0864 -1.9300  1.7366
 2558SOL     OW19306   1.342   4.154   5.170 -0.0524  0.4140  0.0001
 2558SOL    HW119307   1.429   4.190   5.150  0.1708 -0.7316 -1.1326
 2558SOL    HW219308   1.337   4.112   5.084  2.1135 -0.8756  0.4740
 2559SOL     OW19309   3.179   2.180   1.381 -0.4527  0.3159 -0.2841
 2559SOL    HW119310   3.183   2.100   1.329  1.1011  0.6147 -0.6235
 2559SOL    HW219311   3.259   2.166   1.431  1.8818  0.5518 -3.9493
 2560SOL     OW19312   1.241   4.125  15.872 -0.3826 -0.1093 -0.7189
 2560SOL    HW119313   1.320   4.079  15.843 -0.8564 -3.2445  2.9261
 2560SOL    HW219314   1.274   4.209  15.904 -2.4449  0.3626  0.1779
 2561SOL     OW19315   0.879   3.313   1.968 -0.4205 -0.0020  0.0709
 2561SOL    HW119316   0.916   3.400   1.984 -0.3928 -0.2420  1.2779
 2561SOL    HW219317   0.785   3.330   1.977 -0.4075  0.3431 -0.4086
 2562SOL     OW19318   3.539   2.937  14.752  1.0128 -0.4248  0.7838
 2562SOL    HW119319   3.535   2.928  14.657  0.6103 -0.2512  0.7826
 2562SOL    HW219320   3.457   2.893  14.776  0.3162 -0.1741 -1.1184
 2563SOL     OW19321   2.536   3.112  16.652 -0.0458 -0.0224  0.9760
 2563SOL    HW119322   2.621   3.067  16.644  0.0821  0.2671  0.6875
 2563SOL    HW219323   2.504   3.078  16.735 -1.4465  0.6494  0.7050
 2564SOL     OW19324   3.933   3.267  15.414 -0.3333  0.1687  0.5901
 2564SOL    HW119325   3.937   3.332  15.344  0.6070  0.4586  0.9018
 2564SOL    HW219326   4.007   3.208  15.398  0.0588  1.1711 -1.2735
 2565SOL     OW19327   4.713   3.724   7.973 -0.0225  0.2333  0.3145
 2565SOL    HW119328   0.054   3.761   7.940 -1.2712  0.3621 -2.6065
 2565SOL    HW219329   4.667   3.805   7.995 -0.3855 -0.5852  2.5520
 2566SOL     OW19330   3.368   1.997  13.009  0.8566 -0.4251 -0.4047
 2566SOL    HW119331   3.396   1.912  13.044 -1.3376  0.2191  3.0097
 2566SOL    HW219332   3.285   1.980  12.965  0.5558  0.0850 -0.0431
 2567SOL     OW19333   3.195   2.459   4.422 -0.4768 -0.2564 -0.4420
 2567SOL    HW119334   3.275   2.449   4.473 -0.4850 -1.8057 -0.7334
 2567SOL    HW219335   3.215   2.408   4.344 -0.5446  0.3803 -0.8794
 2568SOL     OW19336   1.023   3.873   5.335  0.0666 -0.1428  0.1947
 2568SOL    HW119337   1.036   3.933   5.261 -2.1211  0.5988  0.4119
 2568SOL    HW219338   1.078   3.912   5.403  2.7831 -0.7901 -1.6245
 2569SOL     OW19339   3.374   2.640  13.010  0.3851 -0.1110  0.5881
 2569SOL    HW119340   3.430   2.605  13.080 -0.1548 -3.3351 -0.6009
 2569SOL    HW219341   3.428   2.700  12.959 -2.0956 -0.0834 -1.9963
 2570SOL     OW19342   2.140   1.523   3.636  0.0358 -0.2327 -0.5281
 2570SOL    HW119343   2.081   1.491   3.705  0.4159 -1.7892 -0.9306
 2570SOL    HW219344   2.223   1.498   3.676 -0.8256  1.5901  2.3991
 2571SOL     OW19345   3.153   0.266   1.047 -0.6395  0.3361  0.3575
 2571SOL    HW119346   3.093   0.296   0.980 -1.0124 -0.6720  0.2416
 2571SOL    HW219347   3.238   0.307   1.033 -0.5300  0.1555  0.4801
 2572SOL     OW19348   0.838   1.867   3.243  0.0477 -0.1921  0.1423
 2572SOL    HW119349   0.872   1.839   3.158  1.5282  1.6905  0.1242
 2572SOL    HW219350   0.756   1.903   3.210  0.3683 -0.4487 -0.9308
 2573SOL     OW19351   0.514   3.747   8.469  0.0669 -0.4251  0.2428
 2573SOL    HW119352   0.448   3.719   8.405 -0.4137  0.4893  0.3242
 2573SOL    HW219353   0.482   3.838   8.468 -2.2634 -1.2318  2.8148
 2574SOL     OW19354   4.242   3.914   2.672  0.4380 -0.0992  0.0347
 2574SOL    HW119355   4.235   3.992   2.726 -0.9330 -1.0467  1.2574
 2574SOL    HW219356   4.159   3.924   2.624  0.5504  1.4805  0.1919
 2575SOL     OW19357   1.141   0.142   7.404  0.1865 -0.2049 -0.0401
 2575SOL    HW119358   1.085   0.189   7.342 -0.0861 -2.5989 -1.6027
 2575SOL    HW219359   1.149   0.217   7.463 -0.9200 -0.3368  0.2884
 2576SOL     OW19360   3.648   2.266   7.629 -0.6912 -0.2077  0.0823
 2576SOL    HW119361   3.615   2.258   7.539 -0.4604 -0.3555  0.0114
 2576SOL    HW219362   3.575   2.242   7.685  1.2207  1.0694  3.1190
 2577SOL     OW19363   1.016   3.712   9.117  0.0800  0.2466  0.2156
 2577SOL    HW119364   0.993   3.789   9.169  1.4405  1.5263 -1.0648
 2577SOL    HW219365   1.107   3.723   9.090 -0.5487 -0.1364 -2.1047
 2578SOL     OW19366   1.787   2.106   5.141 -0.4781 -0.1616 -0.3771
 2578SOL    HW119367   1.878   2.134   5.147 -0.3431 -0.7717  0.4563
 2578SOL    HW219368   1.750   2.155   5.215 -0.3289  0.7683 -0.9254
 2579SOL     OW19369   2.015   1.122   5.387  0.3918 -0.1195  0.2796
 2579SOL    HW119370   2.069   1.189   5.346  0.3003 -0.8437 -1.0286
 2579SOL    HW219371   2.079   1.054   5.410  0.2280 -0.1929  0.5152
 2580SOL     OW19372   0.538   2.554  11.847 -0.3491  0.4469  0.5310
 2580SOL    HW119373   0.572   2.553  11.758 -2.6586  0.1204 -0.3669
 2580SOL    HW219374   0.455   2.515  11.818  0.8172 -1.0804 -0.7510
 2581SOL     OW19375   3.496   1.895   1.924 -0.2372 -0.0206  0.3428
 2581SOL    HW119376   3.546   1.873   1.845 -1.9965  0.3738 -0.8863
 2581SOL    HW219377   3.415   1.848   1.905 -0.2715 -0.6507  2.0681
 2582SOL     OW19378   3.099   1.283   3.383  0.8770  0.0246  0.0245
 2582SOL    HW119379   3.131   1.226   3.313 -0.8090 -1.3100  0.3591
 2582SOL    HW219380   3.138   1.370   3.378  0.1037  0.3349 -0.7029
 2583SOL     OW19381   3.130   0.903  16.093  0.3046  0.2489 -0.5248
 2583SOL    HW119382   3.092   0.967  16.153 -1.3937  1.0775 -2.4664
 2583SOL    HW219383   3.187   0.855  16.153  0.0384  0.8702  0.2151
 2584SOL     OW19384   3.559   2.676   7.478 -0.1091 -0.1515 -0.4377
 2584SOL    HW119385   3.641   2.636   7.508 -0.4618  0.8695  1.8819
 2584SOL    HW219386   3.574   2.677   7.384  0.2846  0.4658 -0.3705
 2585SOL     OW19387   2.961   2.450   9.082  0.4380  0.3700  0.0804
 2585SOL    HW119388   2.922   2.492   9.158  0.4212  0.0795  0.2325
 2585SOL    HW219389   3.055   2.469   9.086  0.8337 -0.8984 -3.1664
 2586SOL     OW19390   1.538   3.920   0.080  0.4620  0.1785 -0.2472
 2586SOL    HW119391   1.501   3.882   0.000  0.3681 -0.1727 -0.0365
 2586SOL    HW219392   1.461   3.940   0.133  0.5144 -2.4568  0.8174
 2587SOL     OW19393   2.223   4.425   8.439  0.3391  0.0621 -0.5093
 2587SOL    HW119394   2.172   4.424   8.520  0.4882 -1.2609 -0.4364
 2587SOL    HW219395   2.297   4.483   8.458  0.5830 -0.9349  1.5802
 2588SOL     OW19396   4.126   2.286   4.201 -0.1495  0.1388 -0.7524
 2588SOL    HW119397   4.162   2.343   4.133  1.7566 -0.2536 -0.0882
 2588SOL    HW219398   4.039   2.272   4.165 -0.4084 -0.1699 -0.0173
 2589SOL     OW19399   3.610   1.665   6.528  0.1289 -0.0219  0.2554
 2589SOL    HW119400   3.672   1.615   6.475 -0.4059  0.5511 -0.8935
 2589SOL    HW219401   3.608   1.587   6.583 -0.5469 -0.8603 -0.9644
 2590SOL     OW19402   2.981   2.977   6.888  0.5471 -0.3872 -0.4769
 2590SOL    HW119403   2.971   2.899   6.942 -3.5417 -0.2760 -1.1124
 2590SOL    HW219404   2.960   3.047   6.949  0.9734 -0.7353  0.0723
 2591SOL     OW19405   4.003   2.363  15.558 -0.0354 -0.3206  0.4674
 2591SOL    HW119406   4.014   2.329  15.647 -1.4558  0.5249  0.9677
 2591SOL    HW219407   3.929   2.423  15.573 -0.8223 -1.9299  3.1256
 2592SOL     OW19408   2.701   3.747   6.049 -0.2608 -0.4456  0.2830
 2592SOL    HW119409   2.789   3.781   6.067  0.3557 -0.0041 -3.5936
 2592SOL    HW219410   2.707   3.729   5.955  1.3490 -0.4735  0.3901
 2593SOL     OW19411   1.487   2.944   1.258 -0.1378  0.4527 -0.1171
 2593SOL    HW119412   1.449   3.031   1.273 -2.7080 -0.7040  0.0507
 2593SOL    HW219413   1.452   2.938   1.169 -0.8233  0.7519  0.1288
 2594SOL     OW19414   0.539   1.094   9.645  0.3569 -0.4253  0.3895
 2594SOL    HW119415   0.576   1.139   9.569  1.8166 -2.0442  0.1201
 2594SOL    HW219416   0.620   1.081   9.695  0.5684 -0.7922 -0.0505
 2595SOL     OW19417   0.739   3.293   3.684 -0.3155 -0.6514 -0.4774
 2595SOL    HW119418   0.788   3.291   3.602 -0.4325 -1.1939 -0.5309
 2595SOL    HW219419   0.662   3.243   3.657  0.2610 -2.0025  0.4136
 2596SOL     OW19420   2.346   2.369   6.551  0.0328 -0.3509  0.3187
 2596SOL    HW119421   2.420   2.429   6.560 -1.4186  1.9546 -2.7782
 2596SOL    HW219422   2.322   2.345   6.641  0.8527 -2.0279  0.0890
 2597SOL     OW19423   2.419   3.251   4.653  0.3515 -0.1105  0.4279
 2597SOL    HW119424   2.394   3.340   4.629  0.7672  0.0880  0.7405
 2597SOL    HW219425   2.348   3.230   4.713 -0.4908  0.2381 -0.4282
 2598SOL     OW19426   3.831   0.448   1.806  0.6178 -0.1382  0.7022
 2598SOL    HW119427   3.817   0.395   1.727  1.6295  0.7035 -0.0502
 2598SOL    HW219428   3.744   0.435   1.843  0.1145  0.4242 -0.2635
 2599SOL     OW19429   1.714   0.096   7.739  0.1934 -0.9617  0.9397
 2599SOL    HW119430   1.749   0.037   7.806 -2.5348 -1.9508  1.4935
 2599SOL    HW219431   1.736   0.048   7.660  0.0952 -1.1374  1.0203
 2600SOL     OW19432   4.597   0.648   7.500  0.2741  0.2439 -0.0159
 2600SOL    HW119433   4.688   0.657   7.471  0.9275 -1.2290  1.5595
 2600SOL    HW219434   4.606   0.623   7.592  0.4659  0.9108  0.1500
 2601SOL     OW19435   4.264   2.814   5.484  0.1850 -0.0785  0.5622
 2601SOL    HW119436   4.320   2.737   5.470 -0.0881 -0.2860  0.6020
 2601SOL    HW219437   4.331   2.869   5.522  2.6416 -0.6854 -2.8888
 2602SOL     OW19438   0.651   3.050   5.340 -0.2274 -0.0076 -0.0651
 2602SOL    HW119439   0.611   2.993   5.406  0.4712  0.3275  0.6484
 2602SOL    HW219440   0.723   3.092   5.386  1.7407 -0.6915 -2.5600
 2603SOL     OW19441   2.660   1.907   6.842  0.4302 -0.3496 -0.3902
 2603SOL    HW119442   2.603   1.978   6.814 -2.2213 -3.0201 -1.8008
 2603SOL    HW219443   2.647   1.918   6.936  1.1945 -1.2418 -0.1692
 2604SOL     OW19444   1.727   0.056   3.390 -0.2612 -0.0368 -0.5753
 2604SOL    HW119445   1.789   0.064   3.462  0.6425 -2.5734 -1.0524
 2604SOL    HW219446   1.646   0.043   3.438  0.0063 -0.3560 -0.2123
 2605SOL     OW19447   0.883   3.749   2.343 -1.0579 -0.1333 -0.4018
 2605SOL    HW119448   0.860   3.665   2.303  0.9212 -1.6828  1.7481
 2605SOL    HW219449   0.913   3.711   2.426 -1.1132 -0.5902 -0.5889
 2606SOL     OW19450   3.125   0.447  16.676 -0.2614 -0.0720  0.2033
 2606SOL    HW119451   3.158   0.432  16.765 -0.0229  0.7621  0.2528
 2606SOL    HW219452   3.183   0.517  16.649  0.1776 -0.4916  0.0622
 2607SOL     OW19453   0.078   3.419   5.132 -0.1984 -0.2965  0.6545
 2607SOL    HW119454   0.051   3.495   5.183 -1.6532 -0.6361  0.3918
 2607SOL    HW219455   0.173   3.418   5.122 -0.6336  1.8748 -3.7758
 2608SOL     OW19456   2.046   1.141   8.883  0.3391  0.7455  1.0734
 2608SOL    HW119457   2.061   1.139   8.978  0.8353  2.0810  1.0340
 2608SOL    HW219458   2.016   1.051   8.875 -0.9573  1.3741 -1.0632
 2609SOL     OW19459   3.271   4.574   0.402 -0.0129  0.1729  0.4332
 2609SOL    HW119460   3.294   4.652   0.453 -1.1332 -0.3125  1.6766
 2609SOL    HW219461   3.324   4.502   0.437  0.7472 -0.1030 -1.3054
 2610SOL     OW19462   0.408   0.660   9.819  0.2292 -0.3575  0.3298
 2610SOL    HW119463   0.403   0.756   9.815  0.6452 -0.3580 -0.1876
 2610SOL    HW219464   0.315   0.639   9.809 -0.7342  3.8184  0.2212
 2611SOL     OW19465   2.713   1.641   6.238  0.6359 -0.0627  0.2824
 2611SOL    HW119466   2.768   1.630   6.161 -1.3315 -1.3154 -0.9636
 2611SOL    HW219467   2.654   1.567   6.223  0.4182  0.1258  0.2026
 2612SOL     OW19468   3.164   2.941   8.546 -0.2259  0.0499 -0.4313
 2612SOL    HW119469   3.188   2.994   8.622 -1.7835 -0.2353  0.2585
 2612SOL    HW219470   3.208   2.857   8.563 -1.4126 -0.0618  2.0876
 2613SOL     OW19471   3.103   3.082   5.338  0.1467  0.0086 -0.5421
 2613SOL    HW119472   3.099   3.149   5.269 -0.3903  0.6246  0.0931
 2613SOL    HW219473   3.117   3.135   5.416  1.2514 -1.4495  0.2314
 2614SOL     OW19474   4.661   1.461   1.640 -0.0202  0.0404  0.0392
 2614SOL    HW119475   4.592   1.507   1.594  2.3059  3.6784  0.1849
 2614SOL    HW219476   4.612   1.389   1.679 -0.9432  1.6332  1.8524
 2615SOL     OW19477   1.259   3.775  11.606 -0.5527  0.2795  0.2857
 2615SOL    HW119478   1.177   3.823  11.621 -0.1302  0.6301  1.4925
 2615SOL    HW219479   1.319   3.849  11.597 -0.3659 -0.1438 -1.8491
 2616SOL     OW19480   0.678   0.040  17.138  0.4012  0.0798 -0.7948
 2616SOL    HW119481   0.673   4.687  17.155  1.1085 -0.1993 -2.1207
 2616SOL    HW219482   0.597   0.060  17.185  0.7767 -1.2741  0.4165
 2617SOL     OW19483   1.342   1.642   9.695 -0.3162 -0.2648  0.7971
 2617SOL    HW119484   1.309   1.635   9.606  1.4381 -1.1813  0.2337
 2617SOL    HW219485   1.399   1.719   9.687 -0.4277 -0.1684  0.9165
 2618SOL     OW19486   0.472   1.204   2.565  0.0744  0.0827  0.8279
 2618SOL    HW119487   0.504   1.166   2.483 -0.0987  0.6618  0.4907
 2618SOL    HW219488   0.403   1.259   2.526 -0.3223  0.1769  1.6629
 2619SOL     OW19489   2.467   0.526   6.677  0.3353  0.0889 -0.0146
 2619SOL    HW119490   2.386   0.476   6.691 -0.0358  0.5034 -0.7087
 2619SOL    HW219491   2.470   0.574   6.760  0.5174 -1.1274  0.6781
 2620SOL     OW19492   3.224   3.985   8.291 -0.2673  0.0364  0.3217
 2620SOL    HW119493   3.209   3.949   8.203 -0.3547  0.3467  0.2095
 2620SOL    HW219494   3.165   3.924   8.335  1.9401 -1.6047  1.0032
 2621SOL     OW19495   4.704   0.988   9.247  0.2164 -0.2501 -0.3438
 2621SOL    HW119496   4.662   1.012   9.330  2.3523 -1.4820  1.0723
 2621SOL    HW219497   4.645   0.919   9.217 -0.3857 -0.0468  0.3808
 2622SOL     OW19498   0.141   0.991   5.246  0.1364  0.1199  0.8370
 2622SOL    HW119499   0.145   1.085   5.230  0.1779  0.0364  0.3624
 2622SOL    HW219500   0.050   0.982   5.215 -0.4394  0.0358  2.5553
 2623SOL     OW19501   3.469   2.188   2.582  0.5691  0.5135  0.1479
 2623SOL    HW119502   3.494   2.137   2.659 -1.1786  0.5918  0.7846
 2623SOL    HW219503   3.547   2.189   2.527 -0.4879  0.3835 -1.3577
 2624SOL     OW19504   0.332   1.381   2.409  0.1186  0.2113 -0.1532
 2624SOL    HW119505   0.290   1.326   2.343 -0.3034  0.9448 -0.5025
 2624SOL    HW219506   0.255   1.424   2.448 -0.3588 -0.9903  0.2215
 2625SOL     OW19507   1.223   1.869  10.127 -0.6017  0.2516  0.2620
 2625SOL    HW119508   1.303   1.914  10.101  0.0447  0.3731  2.5101
 2625SOL    HW219509   1.259   1.789  10.166 -0.3885 -0.3078 -1.0766
 2626SOL     OW19510   3.557   1.789   3.181 -0.1590  0.3194 -0.2172
 2626SOL    HW119511   3.532   1.871   3.225  0.7036  1.8643 -2.6242
 2626SOL    HW219512   3.652   1.797   3.173 -0.1386  1.8102  1.3981
 2627SOL     OW19513   0.072   2.896  12.064  1.0955  0.2934  0.7584
 2627SOL    HW119514   4.740   2.904  12.126  1.3339 -1.8582  1.2985
 2627SOL    HW219515   0.058   2.973  12.008  0.3341  0.5893  1.3454
 2628SOL     OW19516   1.870   3.899  12.881 -0.2873 -0.2976 -0.3076
 2628SOL    HW119517   1.897   3.874  12.793 -1.4206 -1.2990 -0.3743
 2628SOL    HW219518   1.811   3.968  12.850  0.1181 -0.2399 -0.9512
 2629SOL     OW19519   2.425   0.207   5.943  0.6083 -0.1954 -0.2947
 2629SOL    HW119520   2.459   0.221   5.855 -0.4298  1.5254 -0.4266
 2629SOL    HW219521   2.501   0.176   5.993  1.9762  1.2984 -1.4181
 2630SOL     OW19522   2.995   0.932   6.167  0.8233 -0.0239  0.0643
 2630SOL    HW119523   3.027   0.876   6.238  1.3653  1.9526  1.3795
 2630SOL    HW219524   3.035   1.013   6.199 -2.2383  1.8021 -0.7384
 2631SOL     OW19525   3.213   0.355   2.947  0.4417  0.3010 -0.8261
 2631SOL    HW119526   3.246   0.283   2.894  1.4209 -1.4503  2.1971
 2631SOL    HW219527   3.133   0.316   2.983  1.0165 -0.5904 -0.5244
 2632SOL     OW19528   0.256   3.666   2.888 -0.0544  0.2507 -0.0698
 2632SOL    HW119529   0.319   3.735   2.912  0.6689 -0.7015  0.7909
 2632SOL    HW219530   0.218   3.654   2.975 -0.6389 -0.2872 -0.4060
 2633SOL     OW19531   1.381   1.310   2.634  0.1158  0.3750 -0.7331
 2633SOL    HW119532   1.381   1.357   2.551 -2.2789  1.1708 -0.2855
 2633SOL    HW219533   1.296   1.267   2.623  0.3671 -0.1188 -0.7868
 2634SOL     OW19534   1.417   1.005  10.016 -0.0036 -0.5083 -0.6018
 2634SOL    HW119535   1.486   1.050   9.968  0.8193  0.7240  1.7358
 2634SOL    HW219536   1.442   1.021  10.107 -0.2922  1.1326 -0.7991
 2635SOL     OW19537   2.219   0.106   5.326 -0.1805  0.1997  0.6611
 2635SOL    HW119538   2.256   0.055   5.398 -0.0285 -0.8465 -0.1618
 2635SOL    HW219539   2.159   0.157   5.381 -1.0604 -0.6848  0.5219
 2636SOL     OW19540   1.450   4.064   0.876 -0.4293 -0.2112 -0.2937
 2636SOL    HW119541   1.526   4.006   0.867 -1.0902 -1.1541  0.0970
 2636SOL    HW219542   1.399   4.023   0.806 -1.1290  1.3629 -0.7111
 2637SOL     OW19543   2.518   0.476   2.392  0.3087  0.4239  0.3378
 2637SOL    HW119544   2.464   0.397   2.404 -1.2164  1.5824  1.0660
 2637SOL    HW219545   2.500   0.497   2.300 -1.3530 -0.4968  0.4464
 2638SOL     OW19546   3.594   2.845  13.321  0.0555 -0.3951 -0.2672
 2638SOL    HW119547   3.574   2.920  13.377 -1.3147  0.3715 -1.7664
 2638SOL    HW219548   3.663   2.799  13.368 -0.0567 -0.1434  0.1393
 2639SOL     OW19549   2.760   4.135   4.527  0.0850  0.1034  0.1419
 2639SOL    HW119550   2.847   4.125   4.488  0.9255 -1.1138  2.3406
 2639SOL    HW219551   2.785   4.135   4.619 -1.6423  1.1862  0.5836
 2640SOL     OW19552   1.248   0.367   5.132  0.1069 -0.2772 -0.0032
 2640SOL    HW119553   1.155   0.390   5.131  0.5461  1.6357  1.3454
 2640SOL    HW219554   1.253   0.292   5.192 -0.9895  0.5808  1.1652
 2641SOL     OW19555   4.018   1.146   6.836 -0.2772 -1.0451  0.6634
 2641SOL    HW119556   4.067   1.216   6.879 -0.5831  1.4254 -2.9937
 2641SOL    HW219557   3.962   1.109   6.904 -2.8015 -1.2272 -1.4878
 2642SOL     OW19558   2.835   4.252   4.820 -0.0450  0.1921  0.2882
 2642SOL    HW119559   2.785   4.172   4.837  1.7109 -0.9246  0.2264
 2642SOL    HW219560   2.789   4.313   4.877  0.6698  0.2402  0.8106
 2643SOL     OW19561   2.817   0.222   9.041  0.3814  0.2541 -0.4422
 2643SOL    HW119562   2.880   0.157   9.070 -1.0037 -0.8192  0.1820
 2643SOL    HW219563   2.762   0.167   8.985  2.3168  0.8171 -2.8977
 2644SOL     OW19564   2.619   0.371  13.335  0.1016 -0.3374  0.1049
 2644SOL    HW119565   2.712   0.395  13.338 -0.1328  0.2956  2.5293
 2644SOL    HW219566   2.621   0.299  13.272 -0.2159 -0.0530 -0.2240
 2645SOL     OW19567   0.748   1.619  12.801 -0.1262  0.2727  0.3941
 2645SOL    HW119568   0.737   1.553  12.870  1.2800 -0.0829  0.2697
 2645SOL    HW219569   0.744   1.701  12.850 -2.5471 -0.4891  1.5075
 2646SOL     OW19570   0.563   4.564   5.615 -0.1280 -0.2845  0.8352
 2646SOL    HW119571   0.657   4.555   5.634  0.1597 -0.6091 -0.6955
 2646SOL    HW219572   0.545   4.473   5.596 -1.4896 -0.0842  1.2226
 2647SOL     OW19573   2.912   1.421  12.022  0.3434  0.4260 -0.0209
 2647SOL    HW119574   2.991   1.445  11.974  1.8525 -0.7349  1.9021
 2647SOL    HW219575   2.844   1.486  12.005 -0.5767  0.2115  2.7646
 2648SOL     OW19576   4.570   4.134   1.692  0.3293 -0.2180  0.1036
 2648SOL    HW119577   4.507   4.179   1.748  0.7401 -0.4180  0.7371
 2648SOL    HW219578   4.582   4.201   1.625 -1.3569 -2.2865 -2.2451
 2649SOL     OW19579   0.926   0.269   7.232 -0.0560  0.6684  0.0614
 2649SOL    HW119580   0.854   0.250   7.172  0.9480 -2.0464 -0.2896
 2649SOL    HW219581   0.869   0.289   7.306  1.5970 -3.2540  2.3848
 2650SOL     OW19582   3.113   1.898  12.915 -0.2377 -0.4406 -0.1582
 2650SOL    HW119583   3.119   1.932  12.826  0.6850  1.1566  0.5137
 2650SOL    HW219584   3.030   1.933  12.950  0.0667  0.7103 -0.5906
 2651SOL     OW19585   2.688   2.127   1.586  0.8052 -0.4125 -0.0070
 2651SOL    HW119586   2.635   2.090   1.656  1.0732  1.2600  1.0610
 2651SOL    HW219587   2.642   2.207   1.559  2.2315  0.0002 -1.1928
 2652SOL     OW19588   3.721   4.738  15.444  0.2170 -0.9066 -0.2178
 2652SOL    HW119589   3.765   4.653  15.452 -0.7157 -1.5535 -2.0806
 2652SOL    HW219590   3.681   0.000  15.532  0.4761 -0.4052 -0.1158
 2653SOL     OW19591   2.921   0.707   1.794  0.0231  0.0014  0.6941
 2653SOL    HW119592   2.873   0.787   1.815 -0.1512 -0.2389  1.2053
 2653SOL    HW219593   2.978   0.703   1.871 -1.5962 -0.4649  1.8778
 2654SOL     OW19594   3.257   4.301  15.337  0.8587 -0.1106  0.0893
 2654SOL    HW119595   3.263   4.272  15.428  0.9892  1.9711  0.7350
 2654SOL    HW219596   3.275   4.220  15.290 -0.7064 -1.2972  1.5117
 2655SOL     OW19597   0.134   2.225  15.816 -0.3196  0.0860  0.3595
 2655SOL    HW119598   0.096   2.208  15.730 -0.1581 -2.8359  0.8527
 2655SOL    HW219599   0.136   2.137  15.855 -0.0810  0.4480  1.1632
 2656SOL     OW19600   1.813   3.646   1.557 -0.6686  0.2475  0.0611
 2656SOL    HW119601   1.895   3.695   1.561 -1.7807  2.2536 -1.1163
 2656SOL    HW219602   1.836   3.574   1.616 -0.8218  1.7037  1.9122
 2657SOL     OW19603   0.976   0.035   5.192 -0.6555  0.2895 -0.5991
 2657SOL    HW119604   1.004   0.009   5.280  3.5560  0.8616 -1.7899
 2657SOL    HW219605   1.029   4.710   5.148  1.1538  1.0713  0.4114
 2658SOL     OW19606   4.666   4.551   1.317 -0.3740  0.1090 -0.1829
 2658SOL    HW119607   4.712   4.633   1.300  1.6638 -0.9454  0.3410
 2658SOL    HW219608   4.673   4.533   1.410 -1.2537 -0.9343 -0.3185
 2659SOL     OW19609   2.871   3.046  16.117 -0.0733  0.2355  0.9076
 2659SOL    HW119610   2.779   3.056  16.091 -0.7073  1.0771  3.4735
 2659SOL    HW219611   2.883   3.086  16.203 -0.0090  0.8800  0.5997
 2660SOL     OW19612   1.309   4.643   3.148 -0.5294  0.3120  0.1963
 2660SOL    HW119613   1.304   4.700   3.071  0.0790  0.0333 -0.0483
 2660SOL    HW219614   1.285   4.556   3.116  1.1157  0.0945 -0.4509
 2661SOL     OW19615   3.811   2.588  12.992 -0.6935  0.6075  0.5203
 2661SOL    HW119616   3.813   2.680  12.966 -2.3136  0.4699 -0.0670
 2661SOL    HW219617   3.825   2.596  13.086 -0.4908 -0.5867  0.5916
 2662SOL     OW19618   4.661   2.717  11.106 -0.4710 -0.1080 -0.0377
 2662SOL    HW119619   4.720   2.777  11.061 -0.1656  0.6907  1.4118
 2662SOL    HW219620   4.712   2.636  11.110  0.4037  0.3908 -1.0312
 2663SOL     OW19621   1.580   4.112   9.984  0.4294  0.7293  0.2237
 2663SOL    HW119622   1.668   4.132  10.016 -0.1874  1.6278  1.3352
 2663SOL    HW219623   1.571   4.171   9.909 -2.3591 -1.3242 -1.0349
 2664SOL     OW19624   3.657   4.232   8.395 -0.1597  0.2413 -0.6237
 2664SOL    HW119625   3.652   4.232   8.491  2.6379  1.4137 -0.4705
 2664SOL    HW219626   3.710   4.152   8.389 -2.4652 -1.4984  1.9868
 2665SOL     OW19627   1.457   3.974   7.678 -0.1205  0.0402 -0.0668
 2665SOL    HW119628   1.405   3.897   7.655  1.3722 -0.8426 -0.5435
 2665SOL    HW219629   1.498   3.988   7.592  0.3467  1.1635  0.3372
 2666SOL     OW19630   1.712   2.699  12.607  0.0885 -0.2561 -0.4385
 2666SOL    HW119631   1.711   2.628  12.542 -1.4129  1.7394 -2.6182
 2666SOL    HW219632   1.655   2.765  12.568  1.5390  1.8447  0.9786
 2667SOL     OW19633   0.089   0.135  17.654 -0.0455  0.2936 -0.4263
 2667SOL    HW119634   0.102   0.042  17.671  1.1278 -0.1764 -3.8053
 2667SOL    HW219635   0.160   0.139  17.589 -0.3491  2.4670 -0.6154
 2668SOL     OW19636   2.217   4.403  10.708  0.4081  0.6948  0.0762
 2668SOL    HW119637   2.282   4.333  10.720  2.0813  2.1748 -0.3705
 2668SOL    HW219638   2.239   4.437  10.621 -0.8947 -1.1332 -0.9586
 2669SOL     OW19639   0.267   1.342   9.544 -0.1068 -0.1136 -0.5218
 2669SOL    HW119640   0.299   1.334   9.634 -0.9829 -1.7208 -0.3514
 2669SOL    HW219641   0.209   1.267   9.536  0.6494 -0.4696 -2.6171
 2670SOL     OW19642   2.101   4.711   6.932  0.0861 -0.0630  0.4070
 2670SOL    HW119643   2.071   4.702   6.842  2.1322  2.8162 -0.5538
 2670SOL    HW219644   2.081   0.064   6.944  1.5781  0.4660 -1.3082
 2671SOL     OW19645   2.837   3.561   6.333  0.3540  0.6467 -0.1227
 2671SOL    HW119646   2.864   3.600   6.250  1.2177  0.9392  0.2976
 2671SOL    HW219647   2.847   3.466   6.322  2.7635  1.2685 -3.0354
 2672SOL     OW19648   4.426   0.016   2.591 -0.1322  0.0996 -0.5275
 2672SOL    HW119649   4.489   0.031   2.661  0.5702 -2.0509 -0.7069
 2672SOL    HW219650   4.459   0.067   2.517  1.3995 -0.2528 -0.0688
 2673SOL     OW19651   4.053   3.111   1.950  0.6918 -0.1892 -0.6943
 2673SOL    HW119652   3.987   3.042   1.952 -0.7201  1.1453 -0.4171
 2673SOL    HW219653   4.126   3.076   1.899  2.8735  0.5210  1.9199
 2674SOL     OW19654   2.496   3.207  10.015  0.2859 -0.0389 -0.9133
 2674SOL    HW119655   2.426   3.162  10.063  0.4578  1.8737  1.1176
 2674SOL    HW219656   2.561   3.137  10.025 -2.3649 -2.4604 -0.3717
 2675SOL     OW19657   2.250   2.336   1.640 -0.4210 -0.6490 -0.3576
 2675SOL    HW119658   2.181   2.345   1.706 -0.3053  0.2822 -0.3674
 2675SOL    HW219659   2.219   2.258   1.593 -2.1822  0.1374 -0.5279
 2676SOL     OW19660   2.945   1.539  16.371  0.5032  0.5460  0.3585
 2676SOL    HW119661   2.915   1.458  16.330 -0.6902  1.3167 -0.2900
 2676SOL    HW219662   2.896   1.546  16.452 -2.1414 -0.7521 -1.1257
 2677SOL     OW19663   0.367   3.591   7.530  0.1001  0.2657 -0.6182
 2677SOL    HW119664   0.311   3.596   7.608 -0.6707  0.0596 -1.1651
 2677SOL    HW219665   0.427   3.518   7.548  1.2279  1.2691 -0.3393
 2678SOL     OW19666   3.062   2.053   3.950  0.8077  0.4156 -0.1783
 2678SOL    HW119667   3.093   2.134   3.990  0.3022  0.1408  0.7778
 2678SOL    HW219668   3.131   2.054   3.884  0.0402  2.1964 -0.9684
 2679SOL     OW19669   2.642   3.679   6.978  0.7949 -0.2996 -0.2052
 2679SOL    HW119670   2.656   3.634   6.895  1.3777  1.0767 -0.8544
 2679SOL    HW219671   2.548   3.695   6.972  1.3682  3.3592  0.4609
 2680SOL     OW19672   4.354   0.233   7.304  0.1442 -0.3037 -0.5831
 2680SOL    HW119673   4.425   0.297   7.295  1.2622 -1.2941  1.0944
 2680SOL    HW219674   4.411   0.164   7.338 -1.7348 -1.1477  0.8716
 2681SOL     OW19675   2.311   4.331   5.817  0.1792  0.3831  0.3035
 2681SOL    HW119676   2.299   4.238   5.798 -0.0488  0.2766  0.9726
 2681SOL    HW219677   2.352   4.322   5.904  0.6348 -1.8082 -0.1391
 2682SOL     OW19678   0.591   3.096   9.873 -0.8848 -0.0509  0.1053
 2682SOL    HW119679   0.498   3.102   9.851 -0.0518  1.8833 -2.9919
 2682SOL    HW219680   0.590   3.132   9.961  0.0186 -0.6049  0.3443
 2683SOL     OW19681   1.570   3.854   9.939 -0.3410  0.3553 -0.2744
 2683SOL    HW119682   1.633   3.812   9.997 -0.0631  3.3044  1.5515
 2683SOL    HW219683   1.585   3.943   9.970  1.3263  0.3107 -0.9710
 2684SOL     OW19684   2.091   0.129   8.064 -0.5617  0.0349  0.6804
 2684SOL    HW119685   2.185   0.119   8.052 -0.4385  1.5017  0.4732
 2684SOL    HW219686   2.077   0.150   8.157 -1.4369  0.1343  0.5269
 2685SOL     OW19687   0.849   2.635   9.395  0.0417 -0.1110 -0.4188
 2685SOL    HW119688   0.821   2.705   9.454 -0.4875 -1.9812  1.5342
 2685SOL    HW219689   0.822   2.690   9.322  0.8813  1.1221  0.1747
 2686SOL     OW19690   4.006   4.655   1.961 -0.2557  0.3738  0.1761
 2686SOL    HW119691   3.914   4.636   1.981  0.0638 -0.6749  0.6374
 2686SOL    HW219692   4.058   4.585   1.999  2.7700  0.8807 -3.0606
 2687SOL     OW19693   0.765   3.442   0.472  0.1389  0.1984 -0.1840
 2687SOL    HW119694   0.803   3.522   0.508  0.7060 -0.0827 -0.1717
 2687SOL    HW219695   0.717   3.471   0.394  1.6718 -0.5460 -1.3867
 2688SOL     OW19696   2.162   0.529   7.001 -0.1014  0.1214  0.7124
 2688SOL    HW119697   2.240   0.557   6.952 -0.9008  1.8209  0.3911
 2688SOL    HW219698   2.123   0.607   7.041 -0.3824  0.4971 -0.3030
 2689SOL     OW19699   2.701   2.825   7.314  0.1066 -0.1016 -0.4092
 2689SOL    HW119700   2.750   2.907   7.309  0.7626 -0.3562  1.6853
 2689SOL    HW219701   2.624   2.866   7.353  0.6716  0.9833 -0.4565
 2690SOL     OW19702   2.361   2.770   4.629  0.2944  0.1382 -0.0283
 2690SOL    HW119703   2.424   2.834   4.598  1.1093 -0.9930 -0.7285
 2690SOL    HW219704   2.407   2.691   4.658  0.4197 -0.4385 -1.7664
 2691SOL     OW19705   2.055   1.004   2.507  0.3291 -0.2344 -0.1093
 2691SOL    HW119706   2.034   1.094   2.533 -1.7776 -0.8103  0.1567
 2691SOL    HW219707   2.129   0.993   2.567  1.3791  0.7443 -1.2182
 2692SOL     OW19708   4.210   0.201   9.539  1.1516 -0.0935 -0.1430
 2692SOL    HW119709   4.236   0.156   9.620 -0.3234 -2.5624 -1.0319
 2692SOL    HW219710   4.233   0.290   9.565  0.2478 -0.0292  0.4509
 2693SOL     OW19711   0.638   0.196   3.958 -0.1048 -0.1202  0.4664
 2693SOL    HW119712   0.664   0.180   3.867 -1.4602 -4.4074  0.8216
 2693SOL    HW219713   0.720   0.181   4.003  0.3816 -0.2774 -0.4605
 2694SOL     OW19714   1.325   0.477   2.583  0.3309 -0.1819 -0.1279
 2694SOL    HW119715   1.301   0.385   2.574 -1.5271  0.5062 -2.2314
 2694SOL    HW219716   1.338   0.498   2.491 -0.8480 -1.8192 -0.6805
 2695SOL     OW19717   3.540   2.231   6.547 -0.3054  0.6671  0.7153
 2695SOL    HW119718   3.498   2.284   6.615  0.1971 -0.7288  2.1094
 2695SOL    HW219719   3.575   2.155   6.594  1.2581 -0.1620 -1.7974
 2696SOL     OW19720   4.004   0.478  17.695  0.2148 -0.1810 -0.2331
 2696SOL    HW119721   3.950   0.400  17.699  2.6621 -1.7456  2.1928
 2696SOL    HW219722   3.966   0.533  17.626  1.5350  2.1670  0.8819
 2697SOL     OW19723   0.961   2.218   4.741 -0.2909  0.2147  0.3821
 2697SOL    HW119724   1.050   2.208   4.707 -0.4079  0.4017  0.0255
 2697SOL    HW219725   0.976   2.247   4.831 -0.0490  1.1569  0.0344
 2698SOL     OW19726   3.116   4.257   4.767  1.2214 -0.3070 -0.1851
 2698SOL    HW119727   3.026   4.247   4.796  1.0031 -1.1480 -1.1289
 2698SOL    HW219728   3.149   4.317   4.834 -0.8049  2.7468 -1.9389
 2699SOL     OW19729   0.778   0.088   4.171  0.1844 -0.3314 -0.2008
 2699SOL    HW119730   0.802   4.738   4.151 -1.7604 -1.0774  0.7477
 2699SOL    HW219731   0.692   0.077   4.213 -0.1731  1.8779 -0.3582
 2700SOL     OW19732   3.487   4.321   5.876 -0.0147 -0.2903  0.5222
 2700SOL    HW119733   3.502   4.400   5.929 -1.1987  0.6604 -0.5767
 2700SOL    HW219734   3.392   4.318   5.881 -0.1632 -1.3480 -3.2907
 2701SOL     OW19735   2.929   0.134   5.482 -0.1360  0.4530  0.0682
 2701SOL    HW119736   2.877   0.178   5.414 -2.7142  0.6248  2.1808
 2701SOL    HW219737   2.936   0.048   5.440  1.6310  1.5480 -1.8990
 2702SOL     OW19738   1.707   4.266  11.863 -0.5627  0.1527 -0.3356
 2702SOL    HW119739   1.799   4.241  11.872 -0.4664 -0.7743 -3.9173
 2702SOL    HW219740   1.698   4.320  11.941 -0.9152  0.3843 -0.5360
 2703SOL     OW19741   2.641   0.146   7.784  0.6680  0.8292  0.2613
 2703SOL    HW119742   2.708   0.157   7.717  1.2576 -0.1387  0.6979
 2703SOL    HW219743   2.649   0.054   7.808 -3.2902  0.5318  0.4142
 2704SOL     OW19744   2.050   1.472   9.223  0.0068 -0.1428 -0.2067
 2704SOL    HW119745   1.970   1.516   9.193 -0.5502 -1.1384 -0.1823
 2704SOL    HW219746   2.060   1.389   9.177  1.3553  1.4929 -2.8261
 2705SOL     OW19747   1.077   2.097   5.210  0.3825  0.0450  0.1931
 2705SOL    HW119748   1.120   2.179   5.187 -1.1153  0.8033  0.0946
 2705SOL    HW219749   1.010   2.099   5.142 -0.5302  0.6476  1.1094
 2706SOL     OW19750   4.543   3.545   3.118 -0.4769 -0.5373  0.9754
 2706SOL    HW119751   4.554   3.616   3.055  0.2791  0.1927  1.9148
 2706SOL    HW219752   4.611   3.567   3.182  2.0127 -0.7664 -1.5780
 2707SOL     OW19753   2.284   3.651   7.599 -0.5837 -0.5132 -0.1615
 2707SOL    HW119754   2.250   3.617   7.682 -1.3457 -1.0440 -0.6875
 2707SOL    HW219755   2.215   3.711   7.572 -0.6019 -0.1000  0.7994
 2708SOL     OW19756   4.115   2.874   9.490 -0.1736  0.0086 -0.8642
 2708SOL    HW119757   4.196   2.924   9.487  0.8197 -1.6318 -1.0023
 2708SOL    HW219758   4.052   2.929   9.442  2.7404  1.8998 -2.5353
 2709SOL     OW19759   1.634   3.317   1.796  0.1915 -0.3700 -0.3486
 2709SOL    HW119760   1.547   3.340   1.828 -0.1585 -0.1936 -1.4294
 2709SOL    HW219761   1.628   3.352   1.706 -1.2490 -1.8056 -0.8059
 2710SOL     OW19762   2.880   1.777   6.756 -0.2412 -0.0593  0.3665
 2710SOL    HW119763   2.793   1.812   6.774  0.2774  2.1490 -1.4705
 2710SOL    HW219764   2.874   1.758   6.662 -3.0153 -1.2332  0.7834
 2711SOL     OW19765   3.102   0.310  16.330 -0.4048 -0.1768 -0.2818
 2711SOL    HW119766   3.052   0.391  16.315 -1.4204 -0.7096  0.2025
 2711SOL    HW219767   3.040   0.274  16.394 -1.0947 -0.3813 -1.0644
 2712SOL     OW19768   3.462   3.479   7.436  0.5510  0.6663  0.2815
 2712SOL    HW119769   3.502   3.452   7.353 -1.8969 -1.8723 -0.0756
 2712SOL    HW219770   3.539   3.500   7.488  0.9551  2.0692 -0.8816
 2713SOL     OW19771   1.013   4.137   3.010  0.1161  0.2887 -0.4570
 2713SOL    HW119772   1.101   4.163   3.035  0.1862 -0.9531  0.5815
 2713SOL    HW219773   1.042   4.112   2.922 -1.4463  2.6084 -1.6357
 2714SOL     OW19774   2.931   3.740  11.815 -0.6560  0.8572  0.1317
 2714SOL    HW119775   2.931   3.656  11.860  2.9733  0.1538 -1.1290
 2714SOL    HW219776   3.001   3.733  11.750 -1.6321 -4.2509 -0.3751
 2715SOL     OW19777   3.253   2.059   1.791 -0.6309  0.1511  0.1924
 2715SOL    HW119778   3.230   1.994   1.857 -1.1454 -0.3199 -0.4520
 2715SOL    HW219779   3.282   1.998   1.723  0.4106  0.3906  0.4178
 2716SOL     OW19780   0.210   2.732   8.873  0.0729 -0.7469 -0.4816
 2716SOL    HW119781   0.278   2.689   8.925 -0.5163 -1.0752  0.0306
 2716SOL    HW219782   0.138   2.679   8.907  0.9095 -0.5877  1.5824
 2717SOL     OW19783   0.214   1.510   4.341  0.5339 -0.4939  0.2898
 2717SOL    HW119784   0.310   1.509   4.332  0.4798 -0.9665 -0.2926
 2717SOL    HW219785   0.191   1.576   4.276  0.4734  0.6231  1.4546
 2718SOL     OW19786   4.034   1.877   8.438 -0.2376 -0.5652  0.1833
 2718SOL    HW119787   4.070   1.789   8.432 -0.1569 -0.3222 -2.6420
 2718SOL    HW219788   4.029   1.892   8.533  0.4543  0.5881  0.0432
 2719SOL     OW19789   4.570   0.369   6.009 -0.5453 -0.1820 -0.3875
 2719SOL    HW119790   4.531   0.440   5.959 -1.9114  0.2804  1.3359
 2719SOL    HW219791   4.646   0.405   6.055  0.5773 -1.8042 -0.9427
 2720SOL     OW19792   3.905   0.565   2.045 -0.2205 -0.1067  0.9751
 2720SOL    HW119793   3.980   0.545   2.101  0.5298 -2.1356 -0.7780
 2720SOL    HW219794   3.926   0.513   1.967  2.2980  1.7367  0.4079
 2721SOL     OW19795   3.262   1.998  14.364 -0.0578  0.1933 -0.2133
 2721SOL    HW119796   3.229   1.934  14.302  1.0123 -2.2840  1.7841
 2721SOL    HW219797   3.358   1.992  14.364  0.0764  2.2915  0.8529
 2722SOL     OW19798   2.072   0.999   6.353 -0.0637  0.2564  0.0621
 2722SOL    HW119799   1.991   0.961   6.318  0.3416 -0.0026 -0.5852
 2722SOL    HW219800   2.022   1.049   6.418  1.6650 -0.2660  1.7942
 2723SOL     OW19801   4.333   2.568   5.757 -0.8019  0.4920 -0.0185
 2723SOL    HW119802   4.258   2.512   5.777  1.4373 -2.2267  0.8979
 2723SOL    HW219803   4.303   2.627   5.689 -2.5175 -0.5263 -0.1523
 2724SOL     OW19804   3.843   2.089   6.364  0.1468  0.3911 -0.3028
 2724SOL    HW119805   3.789   2.160   6.330  0.3220  1.0467  0.7866
 2724SOL    HW219806   3.771   2.026   6.375  0.5703  0.1394  1.0357
 2725SOL     OW19807   3.532   3.901   8.230  0.2481 -0.1551  0.2892
 2725SOL    HW119808   3.526   3.957   8.307  0.6000  0.7901 -0.3710
 2725SOL    HW219809   3.470   3.942   8.170  0.7652  0.7112  0.3541
 2726SOL     OW19810   1.411   3.700   6.035 -0.7832  0.3782  0.2838
 2726SOL    HW119811   1.493   3.702   5.986 -0.3922  0.6680  0.9521
 2726SOL    HW219812   1.369   3.619   6.008  0.7484 -0.3931  0.2168
 2727SOL     OW19813   1.095   3.991  11.856  0.1983  0.2316 -0.0732
 2727SOL    HW119814   1.090   3.952  11.769  1.9963 -1.5005  0.5964
 2727SOL    HW219815   1.094   3.916  11.915 -1.6733 -1.3762 -2.1445
 2728SOL     OW19816   1.461   1.811  16.332  0.3411 -0.1831  0.0328
 2728SOL    HW119817   1.440   1.717  16.324 -3.1861  0.5930  0.1189
 2728SOL    HW219818   1.503   1.825  16.417  1.5421 -1.3286 -0.3643
 2729SOL     OW19819   3.949   2.376   4.750 -0.3862 -0.4926 -0.1659
 2729SOL    HW119820   3.933   2.305   4.688 -3.1478  0.8723 -0.9942
 2729SOL    HW219821   3.863   2.364   4.790 -0.1692 -1.7764 -0.0934
 2730SOL     OW19822   2.035   2.606   7.785  0.3991  0.7205  0.4374
 2730SOL    HW119823   2.021   2.539   7.718  1.9368  1.9295 -1.1078
 2730SOL    HW219824   2.130   2.606   7.793 -0.0288 -0.7133  5.3335
 2731SOL     OW19825   3.914   2.663   8.732 -0.1523 -0.1174  0.9389
 2731SOL    HW119826   3.938   2.670   8.824 -2.0996 -1.8023  1.5923
 2731SOL    HW219827   3.906   2.567   8.732 -0.1629 -0.1176  0.5056
 2732SOL     OW19828   3.510   4.373   9.266  0.4862 -0.1832 -0.0431
 2732SOL    HW119829   3.590   4.410   9.304 -0.1819  0.5911  0.6048
 2732SOL    HW219830   3.450   4.432   9.311  0.5929  0.4387 -0.7049
 2733SOL     OW19831   2.616   4.149   6.624 -0.1460 -0.6623  0.0185
 2733SOL    HW119832   2.609   4.159   6.719  0.3919 -1.1158  0.1051
 2733SOL    HW219833   2.557   4.080   6.593 -0.0513 -0.2498 -1.1004
 2734SOL     OW19834   3.236   2.252  13.985  0.2315  0.6505  0.2843
 2734SOL    HW119835   3.146   2.219  13.984  1.4530 -2.6594 -0.9370
 2734SOL    HW219836   3.246   2.292  13.899  1.3073  2.8515  1.4318
 2735SOL     OW19837   3.917   1.786   7.227  0.4911 -0.2033 -0.1717
 2735SOL    HW119838   3.847   1.840   7.263 -0.9243 -0.9471 -1.8257
 2735SOL    HW219839   3.919   1.826   7.140 -0.9533 -1.9443 -0.9878
 2736SOL     OW19840   2.626   0.721   0.976 -0.0216 -0.0353  0.1454
 2736SOL    HW119841   2.536   0.691   0.985 -0.7142  1.7677 -0.7447
 2736SOL    HW219842   2.678   0.644   0.998 -1.4214 -1.5505 -1.8994
 2737SOL     OW19843   1.500   1.353   1.381  0.0898  0.5426 -0.0477
 2737SOL    HW119844   1.502   1.257   1.382  0.1435  0.5532  1.1562
 2737SOL    HW219845   1.497   1.372   1.287 -0.0823 -2.6462 -0.6926
 2738SOL     OW19846   4.532   4.382   2.592 -0.9392 -0.0388  0.2317
 2738SOL    HW119847   4.583   4.320   2.540 -0.4213  0.1076  0.5664
 2738SOL    HW219848   4.470   4.407   2.524 -1.6771  0.2038  1.0046
 2739SOL     OW19849   3.880   1.315   1.210  0.8049 -0.1561  0.0586
 2739SOL    HW119850   3.967   1.343   1.184 -0.0324  0.1852 -2.3623
 2739SOL    HW219851   3.866   1.227   1.177  0.5011 -1.3086  3.2276
 2740SOL     OW19852   0.497   3.085   6.209  0.2716  0.1750  0.0158
 2740SOL    HW119853   0.532   3.010   6.258  1.9003  0.9919  0.1166
 2740SOL    HW219854   0.419   3.109   6.259 -0.8605 -2.9109 -0.3005
 2741SOL     OW19855   4.111   3.354   5.802  0.2551  0.4120 -0.2875
 2741SOL    HW119856   4.178   3.304   5.848  0.6142 -1.0247 -2.3731
 2741SOL    HW219857   4.167   3.390   5.734  1.0251  1.9745  1.1758
 2742SOL     OW19858   1.077   1.431   2.257 -0.3938  0.1552 -0.2553
 2742SOL    HW119859   1.013   1.446   2.187 -1.0160  0.3224  0.3367
 2742SOL    HW219860   1.035   1.488   2.322 -0.9313 -1.4513  0.8144
 2743SOL     OW19861   4.027   0.860  15.440  0.3361  0.0313 -0.0422
 2743SOL    HW119862   4.081   0.817  15.374  0.0973  1.1237 -0.9571
 2743SOL    HW219863   4.034   0.953  15.417 -1.1071  0.1948  0.1876
 2744SOL     OW19864   1.431   2.684   0.682  0.6125  0.1843 -0.6799
 2744SOL    HW119865   1.464   2.630   0.610  1.4333 -1.0476  0.6048
 2744SOL    HW219866   1.501   2.690   0.748 -0.2910 -0.9899  0.3589
 2745SOL     OW19867   0.515   3.222   8.938 -0.1821 -0.1692  0.2905
 2745SOL    HW119868   0.495   3.315   8.939 -0.0628 -0.1156 -1.9388
 2745SOL    HW219869   0.559   3.204   8.854 -1.8857 -0.9866 -0.4336
 2746SOL     OW19870   0.550   2.156  16.602 -0.4505 -0.7689 -0.0329
 2746SOL    HW119871   0.562   2.239  16.555  1.6689 -0.7958  0.4783
 2746SOL    HW219872   0.578   2.174  16.692 -4.0846 -2.2548  1.4265
 2747SOL     OW19873   3.349   1.979   6.496 -0.0699 -0.0855  0.0011
 2747SOL    HW119874   3.263   1.984   6.454  0.7234  1.3795 -1.4562
 2747SOL    HW219875   3.336   2.043   6.567  1.1990 -1.6854  1.6772
 2748SOL     OW19876   4.584   4.273  15.254  1.2451 -0.0688 -0.5184
 2748SOL    HW119877   4.630   4.332  15.314 -0.5130  1.2390 -0.4625
 2748SOL    HW219878   4.546   4.212  15.317  1.0134  0.5165 -0.0928
 2749SOL     OW19879   2.147   2.359   8.274 -0.3705  0.3749  0.3677
 2749SOL    HW119880   2.200   2.435   8.250  2.3464 -1.6207  0.0417
 2749SOL    HW219881   2.114   2.342   8.186  1.9635  0.6706 -0.5771
 2750SOL     OW19882   1.716   4.459  17.526  0.2397  0.4714  0.0431
 2750SOL    HW119883   1.691   4.458  17.434  0.6111 -3.3757 -0.0176
 2750SOL    HW219884   1.772   4.383  17.540 -0.9958 -0.8399 -2.2257
 2751SOL     OW19885   4.622   3.127   5.957  0.1090  0.3481  0.5669
 2751SOL    HW119886   4.698   3.085   5.997 -0.6036 -1.0548  0.4547
 2751SOL    HW219887   4.653   3.117   5.867 -0.7299 -2.2992  0.5667
 2752SOL     OW19888   0.257   1.602  17.419 -0.6379 -0.7317  0.0281
 2752SOL    HW119889   0.277   1.556  17.337 -0.3817  0.5752 -0.6394
 2752SOL    HW219890   0.292   1.689  17.400 -2.0590 -0.4067 -1.1184
 2753SOL     OW19891   1.821   0.975   5.200 -0.1533  0.3047  0.1546
 2753SOL    HW119892   1.815   0.933   5.286 -1.4730  0.1653 -0.0057
 2753SOL    HW219893   1.885   1.041   5.225  1.6807 -1.4863  0.1303
 2754SOL     OW19894   4.694   1.913  13.228 -0.2295  0.1578  0.4051
 2754SOL    HW119895   0.036   1.865  13.214  0.3126  0.9009  1.0240
 2754SOL    HW219896   4.718   2.004  13.213  1.3203  0.1495  2.7817
 2755SOL     OW19897   1.536   3.945  13.929  0.2529  0.0507 -0.5399
 2755SOL    HW119898   1.607   3.895  13.969 -0.3162 -0.3623 -0.0523
 2755SOL    HW219899   1.483   3.871  13.899  1.3526 -0.0725 -2.1817
 2756SOL     OW19900   0.126   4.467   5.633  0.2694 -0.1252  0.3506
 2756SOL    HW119901   0.039   4.446   5.598  0.3682  1.0814 -0.6365
 2756SOL    HW219902   0.106   4.522   5.709 -1.1093 -0.5585  0.3022
 2757SOL     OW19903   0.296   4.557  13.508 -0.1791 -0.2603 -0.2189
 2757SOL    HW119904   0.337   4.610  13.440 -2.2299 -1.7380 -2.5663
 2757SOL    HW219905   0.219   4.521  13.465 -1.1167 -1.1467  2.1809
 2758SOL     OW19906   0.458   2.780   5.082  0.6765  0.0290  0.3242
 2758SOL    HW119907   0.473   2.857   5.028  2.1550 -0.5182 -0.0454
 2758SOL    HW219908   0.541   2.772   5.129  2.1314 -0.3777 -2.3120
 2759SOL     OW19909   2.174   1.130   7.797  0.5024  0.2342 -0.2979
 2759SOL    HW119910   2.142   1.177   7.874  2.6563 -2.1150  2.0367
 2759SOL    HW219911   2.202   1.046   7.831  0.7618  0.9611  1.2861
 2760SOL     OW19912   3.560   0.173  15.696 -0.0872  0.3556 -0.2834
 2760SOL    HW119913   3.498   0.160  15.768 -0.5979 -1.0789 -0.9753
 2760SOL    HW219914   3.500   0.201  15.627 -0.8740 -0.9141 -0.1164
 2761SOL     OW19915   3.635   1.390   7.694 -0.1230 -0.1838 -0.4441
 2761SOL    HW119916   3.653   1.300   7.669 -3.2752 -0.9483 -0.0561
 2761SOL    HW219917   3.546   1.379   7.728 -0.0995 -1.4812 -0.7928
 2762SOL     OW19918   1.773   3.376   8.047  0.3111  0.0276 -0.3599
 2762SOL    HW119919   1.857   3.412   8.077  0.2433  2.1419 -2.7298
 2762SOL    HW219920   1.795   3.317   7.975 -0.0895  1.6797 -1.8453
 2763SOL     OW19921   2.595   0.594   6.014  0.1665 -0.1664 -0.4343
 2763SOL    HW119922   2.639   0.564   6.094  0.1452  0.6662 -0.1072
 2763SOL    HW219923   2.600   0.685   6.045  1.0767  0.0596 -1.2281
 2764SOL     OW19924   0.599   1.545   1.569  0.5608 -0.1842  0.1999
 2764SOL    HW119925   0.571   1.570   1.657 -1.4016 -1.3160 -0.1068
 2764SOL    HW219926   0.690   1.573   1.578  0.8686 -0.3086 -2.5757
 2765SOL     OW19927   1.041   3.362  14.081 -0.0319  0.2757  0.0850
 2765SOL    HW119928   0.957   3.392  14.114  1.2662  0.8901  2.8142
 2765SOL    HW219929   1.088   3.445  14.084  2.0958 -0.9425  0.6693
 2766SOL     OW19930   0.881   1.519   2.436 -0.8264  0.2763 -0.2242
 2766SOL    HW119931   0.805   1.570   2.408 -0.9029 -0.2200 -0.9292
 2766SOL    HW219932   0.849   1.491   2.521 -0.0895  0.3211  0.0715
 2767SOL     OW19933   1.195   3.502   6.698  0.4125  0.6501  0.3675
 2767SOL    HW119934   1.172   3.485   6.789 -0.4614 -1.9761 -0.3413
 2767SOL    HW219935   1.214   3.595   6.709 -0.2932  0.9103 -0.7004
 2768SOL     OW19936   3.586   3.905   0.576  0.7223 -0.0639 -0.3020
 2768SOL    HW119937   3.552   3.840   0.515  2.3536 -1.7134  0.5684
 2768SOL    HW219938   3.650   3.943   0.515 -0.3356  2.0151 -0.1163
 2769SOL     OW19939   2.319   2.027   9.256  0.0130  0.0754  0.5259
 2769SOL    HW119940   2.413   2.009   9.260  0.5424  2.7476 -0.1748
 2769SOL    HW219941   2.318   2.104   9.199 -2.0872  0.6937  1.3939
 2770SOL     OW19942   0.480   3.891   5.795  0.0114 -0.0128 -0.0104
 2770SOL    HW119943   0.562   3.864   5.754  2.2260  1.3985  3.5281
 2770SOL    HW219944   0.469   3.961   5.731 -0.0728 -0.2212 -0.2242
 2771SOL     OW19945   1.546   3.621   4.409 -0.1442 -0.0919  0.3629
 2771SOL    HW119946   1.637   3.642   4.426 -0.0932  1.4949 -1.8211
 2771SOL    HW219947   1.522   3.568   4.485  1.5558  0.4886  1.2960
 2772SOL     OW19948   0.495   2.406  14.734 -0.2221 -0.3278 -0.0162
 2772SOL    HW119949   0.503   2.340  14.665  1.4808 -0.8335  0.6647
 2772SOL    HW219950   0.443   2.354  14.795  0.4193 -2.2954 -1.1564
 2773SOL     OW19951   2.158   1.176   4.632 -0.4466  0.3939  0.5797
 2773SOL    HW119952   2.253   1.177   4.624 -0.5423  1.1504 -0.4020
 2773SOL    HW219953   2.144   1.126   4.713  0.9474  1.8747  1.7500
 2774SOL     OW19954   2.025   3.915   6.033  0.6001  0.0118  0.2857
 2774SOL    HW119955   1.988   3.873   5.956 -2.2894 -0.6245  2.0373
 2774SOL    HW219956   2.104   3.860   6.038  0.9355  0.3008 -2.0578
 2775SOL     OW19957   1.269   1.243   7.389 -0.0886 -0.4572 -0.1052
 2775SOL    HW119958   1.187   1.234   7.341 -0.2341 -0.2012  0.0933
 2775SOL    HW219959   1.311   1.160   7.365  1.0154 -0.4464  1.7246
 2776SOL     OW19960   1.249   1.937   1.795 -0.6968  0.3332  0.2451
 2776SOL    HW119961   1.263   2.019   1.748 -0.8648 -0.7958 -1.7452
 2776SOL    HW219962   1.317   1.887   1.749  0.5607  0.5138  1.8792
 2777SOL     OW19963   0.292   2.540  10.506  0.1519  0.8097 -0.3789
 2777SOL    HW119964   0.226   2.503  10.447 -0.6537  0.4587  0.7323
 2777SOL    HW219965   0.375   2.502  10.477 -0.6306 -0.5970 -0.8002
 2778SOL     OW19966   0.098   3.454   4.502 -0.3107  0.3800 -0.2087
 2778SOL    HW119967   0.021   3.436   4.557  1.0288  0.7833  1.7771
 2778SOL    HW219968   0.057   3.522   4.447 -0.2017  1.4828  1.0674
 2779SOL     OW19969   1.778   3.688   3.969  0.6024 -0.1377 -0.4949
 2779SOL    HW119970   1.805   3.672   4.060  1.1990 -0.8201 -0.7866
 2779SOL    HW219971   1.783   3.599   3.934  0.7898 -0.6457  0.8325
 2780SOL     OW19972   2.188   3.859   4.956  0.4254  0.1171 -0.1354
 2780SOL    HW119973   2.147   3.945   4.950 -2.5032 -1.2932 -0.1211
 2780SOL    HW219974   2.203   3.845   5.050 -0.3238 -1.0152 -0.1781
 2781SOL     OW19975   4.527   2.969   4.121  0.0571 -0.2349  0.1007
 2781SOL    HW119976   4.482   3.041   4.077  0.4511  0.1740  0.3688
 2781SOL    HW219977   4.459   2.938   4.182 -1.7226  1.5194 -0.9945
 2782SOL     OW19978   2.510   2.460   6.190  0.7708 -0.4833 -0.0692
 2782SOL    HW119979   2.538   2.369   6.186  0.4064 -0.5978 -0.0132
 2782SOL    HW219980   2.581   2.498   6.242 -1.0554  1.8946  0.6900
 2783SOL     OW19981   0.392   0.881   0.194 -0.4871  0.0057 -0.1174
 2783SOL    HW119982   0.377   0.787   0.207  1.6766 -0.0582  1.8443
 2783SOL    HW219983   0.302   0.914   0.203 -0.8711 -0.2983 -2.9453
 2784SOL     OW19984   3.419   2.590  13.400  0.6025  0.6241  0.0523
 2784SOL    HW119985   3.432   2.538  13.480  0.6175  0.6287  0.0528
 2784SOL    HW219986   3.424   2.682  13.425  0.6990  1.0419 -1.5164
 2785SOL     OW19987   0.724   2.796   2.827 -0.1550 -0.0444  0.3961
 2785SOL    HW119988   0.693   2.773   2.740 -1.3197 -1.8361  1.2757
 2785SOL    HW219989   0.641   2.813   2.871 -1.3473 -0.3303 -1.7782
 2786SOL     OW19990   3.107   0.589  14.233 -0.0302 -0.0877 -0.1440
 2786SOL    HW119991   3.155   0.542  14.301 -0.5883  0.6224  0.7408
 2786SOL    HW219992   3.030   0.533  14.227 -0.3271  0.4183 -1.0588
 2787SOL     OW19993   2.308   0.775   7.358 -0.2826  0.6943 -0.1064
 2787SOL    HW119994   2.309   0.778   7.454  2.9470  0.0650 -0.1197
 2787SOL    HW219995   2.368   0.847   7.339  1.2984 -0.9463 -1.2854
 2788SOL     OW19996   4.363   2.250   2.361  0.4807  0.9744 -0.1596
 2788SOL    HW119997   4.308   2.203   2.299 -0.4495  1.7529  0.0653
 2788SOL    HW219998   4.350   2.220   2.451 -1.2904 -1.3633 -1.2045
 2789SOL     OW19999   0.746   2.706   6.533 -0.1723 -0.7845  0.3161
 2789SOL    HW120000   0.683   2.661   6.589 -1.5066 -1.1029 -1.4405
 2789SOL    HW220001   0.771   2.638   6.471 -1.5918 -0.0788 -1.0326
 2790SOL     OW20002   0.091   2.549  13.531 -0.0989  0.1152 -0.5168
 2790SOL    HW120003   0.068   2.610  13.460  0.3368  1.1353  0.2196
 2790SOL    HW220004   0.137   2.611  13.587  2.2804  0.5869 -2.9573
 2791SOL     OW20005   1.805   2.157   5.917 -0.1429 -0.0709  0.4660
 2791SOL    HW120006   1.801   2.127   6.007 -1.4816  0.3752  0.5650
 2791SOL    HW220007   1.820   2.251   5.928 -1.8621  0.3996 -1.0737
 2792SOL     OW20008   4.151   0.932   6.031  0.8674  0.6564 -0.0385
 2792SOL    HW120009   4.104   1.011   6.056 -2.1712 -0.5761 -1.9107
 2792SOL    HW220010   4.228   0.933   6.089 -1.7042 -1.6488  3.4022
 2793SOL     OW20011   3.438   2.978  13.149  0.3348 -0.8086 -0.0041
 2793SOL    HW120012   3.440   2.941  13.061 -0.1159 -2.0988  0.5244
 2793SOL    HW220013   3.461   2.904  13.205  0.9683  0.8248  1.8798
 2794SOL     OW20014   4.602   4.372   5.599  0.0091 -0.4627  0.5623
 2794SOL    HW120015   4.555   4.377   5.682  0.5197  1.6811  0.7101
 2794SOL    HW220016   4.531   4.380   5.535  0.2113  1.8775  0.6301
 2795SOL     OW20017   0.194   1.214   1.781 -0.4153  0.3842  0.5378
 2795SOL    HW120018   0.123   1.149   1.780  1.8467 -2.1022  0.3399
 2795SOL    HW220019   0.254   1.185   1.713 -0.4550  1.6121 -0.0160
 2796SOL     OW20020   3.687   4.366   5.699  0.4212 -0.4444  0.4530
 2796SOL    HW120021   3.616   4.337   5.756 -0.1505 -0.5152 -0.2988
 2796SOL    HW220022   3.751   4.307   5.738  1.6148  1.6116  1.6545
 2797SOL     OW20023   2.454   1.755  16.708 -0.3425  0.4133 -0.1760
 2797SOL    HW120024   2.362   1.773  16.730 -0.6511 -0.3046 -0.8490
 2797SOL    HW220025   2.490   1.835  16.671  1.6248 -0.4864 -0.2097
 2798SOL     OW20026   4.639   1.102   0.298 -0.0280 -0.4796  0.0076
 2798SOL    HW120027   4.569   1.105   0.363  0.1741  0.5511  0.1802
 2798SOL    HW220028   4.638   1.189   0.257 -0.1210 -0.4994 -0.0317
 2799SOL     OW20029   1.268   3.392   2.098 -0.1586  0.2907 -0.1777
 2799SOL    HW120030   1.283   3.323   2.162 -4.1619 -0.2293  0.1854
 2799SOL    HW220031   1.173   3.403   2.097 -0.2833 -1.0501 -2.2156
 2800SOL     OW20032   1.964   0.402  15.176 -0.1605  0.7088 -0.0629
 2800SOL    HW120033   2.036   0.458  15.204 -1.7334  2.2073  0.9489
 2800SOL    HW220034   1.935   0.450  15.098 -0.7565  0.8689  0.2583
 2801SOL     OW20035   4.171   1.041   2.102  0.2409  0.1490  0.2046
 2801SOL    HW120036   4.140   0.972   2.162  0.2977 -1.7781 -1.9638
 2801SOL    HW220037   4.165   0.992   2.020  1.3286 -0.3004  0.3899
 2802SOL     OW20038   4.254   3.038   7.055  0.2819 -0.6283 -0.1673
 2802SOL    HW120039   4.203   3.062   7.133  1.6000  1.8937 -0.0713
 2802SOL    HW220040   4.284   3.127   7.039  2.4695 -1.6539 -1.7430
 2803SOL     OW20041   0.068   1.477   7.477 -0.0816  0.9354 -0.2517
 2803SOL    HW120042   4.727   1.492   7.429 -0.8760 -0.2175  0.7268
 2803SOL    HW220043   0.093   1.391   7.441  0.2351  1.0846 -0.3858
 2804SOL     OW20044   2.002   1.084  15.860 -0.0818 -0.4706  0.3374
 2804SOL    HW120045   1.979   1.127  15.778  1.1334 -1.5928 -0.5879
 2804SOL    HW220046   2.074   1.144  15.877 -1.1578  1.2822 -1.3521
 2805SOL     OW20047   1.944   1.870   8.048 -0.3692  0.1397 -0.2504
 2805SOL    HW120048   1.940   1.853   8.142 -0.8896  0.0230 -0.2917
 2805SOL    HW220049   2.018   1.812   8.031 -2.3657 -2.7811  1.0463
 2806SOL     OW20050   1.177   3.794   3.632  0.0456 -0.1701  0.0229
 2806SOL    HW120051   1.260   3.841   3.642 -1.0929  1.6691  0.7372
 2806SOL    HW220052   1.150   3.824   3.545 -1.3568 -1.7631 -0.0915
 2807SOL     OW20053   4.531   1.239   5.385 -0.4653  0.0236 -0.0390
 2807SOL    HW120054   4.502   1.208   5.471  2.4105 -0.9889  0.5635
 2807SOL    HW220055   4.540   1.161   5.330  0.4030  0.8843 -1.1156
 2808SOL     OW20056   2.546   4.678   8.168  0.3349  0.3674  0.0756
 2808SOL    HW120057   2.543   4.606   8.105  0.1908  0.3155  0.1406
 2808SOL    HW220058   2.636   4.668   8.200  0.9004 -1.7664 -2.2306
 2809SOL     OW20059   2.074   2.189  10.648 -0.0875  0.4622  0.3971
 2809SOL    HW120060   2.118   2.117  10.694  1.4183  1.5944  0.7151
 2809SOL    HW220061   2.108   2.150  10.568 -0.3336  0.6175  0.2187
 2810SOL     OW20062   4.032   2.999   2.958 -0.1560 -0.6083 -0.3436
 2810SOL    HW120063   4.012   3.029   2.870 -1.9514 -2.4385 -0.5708
 2810SOL    HW220064   3.980   3.058   3.013 -0.5492 -0.0886 -1.2844
 2811SOL     OW20065   4.517   2.465   4.820  0.0811 -0.5068 -0.1417
 2811SOL    HW120066   4.445   2.453   4.758  0.6151 -4.2614 -0.0250
 2811SOL    HW220067   4.568   2.538   4.784  0.7522  0.3387  2.5148
 2812SOL     OW20068   2.272   2.024   1.634  0.0292 -0.5125 -0.0600
 2812SOL    HW120069   2.217   1.947   1.639 -1.2568  0.4174 -0.0002
 2812SOL    HW220070   2.284   2.031   1.539 -2.1942 -0.9338 -0.3528
 2813SOL     OW20071   4.016   3.043   6.494  0.6114  0.0198 -1.0211
 2813SOL    HW120072   4.060   2.958   6.487  0.6804 -0.1511  1.3825
 2813SOL    HW220073   3.947   3.042   6.428 -0.8464 -0.0133  0.4743
 2814SOL     OW20074   0.097   4.435   3.243 -0.6051 -0.1382  0.6812
 2814SOL    HW120075   0.130   4.490   3.171 -0.8655  0.7520  1.2422
 2814SOL    HW220076   0.087   4.501   3.312 -0.7366  0.2584  0.2917
 2815SOL     OW20077   0.639   4.250   6.970  0.1064 -0.3455  0.3816
 2815SOL    HW120078   0.713   4.224   6.916  2.1130  3.0846  1.4419
 2815SOL    HW220079   0.682   4.271   7.053 -0.8316 -0.5900  0.9337
 2816SOL     OW20080   2.927   2.912   1.522  0.2729 -0.0508  0.4679
 2816SOL    HW120081   2.915   2.817   1.515 -0.9404 -0.0091  2.1573
 2816SOL    HW220082   3.023   2.910   1.523  0.2842 -0.0529 -0.6600
 2817SOL     OW20083   3.743   3.454   3.036  0.1372 -0.1847  0.3321
 2817SOL    HW120084   3.836   3.440   3.022 -0.0630  0.7109 -1.8975
 2817SOL    HW220085   3.740   3.477   3.128 -0.4964  1.3848 -0.0743
 2818SOL     OW20086   2.579   2.683   4.069 -0.0332  0.3875 -0.1586
 2818SOL    HW120087   2.547   2.737   3.996  0.7015  1.3421  0.2205
 2818SOL    HW220088   2.638   2.622   4.025 -3.3778 -2.9455  0.0978
 2819SOL     OW20089   3.303   2.501   6.150  0.0725  0.0123 -0.0990
 2819SOL    HW120090   3.285   2.453   6.230  0.5286  0.9894  0.5953
 2819SOL    HW220091   3.227   2.479   6.096  0.4920 -0.4810 -0.4882
 2820SOL     OW20092   2.276   2.403   7.662 -0.4329 -0.4851  0.1491
 2820SOL    HW120093   2.196   2.418   7.612 -0.0162 -0.5174 -0.5270
 2820SOL    HW220094   2.319   2.487   7.646 -1.4326  0.3599  2.0471
 2821SOL     OW20095   1.660   2.986   0.715 -0.0240 -0.2093  0.2182
 2821SOL    HW120096   1.665   2.914   0.778  2.2530  0.9495  1.3352
 2821SOL    HW220097   1.743   2.970   0.671 -1.4036  3.0833 -3.6618
 2822SOL     OW20098   2.639   2.114   9.521  0.7234  0.1082 -0.4108
 2822SOL    HW120099   2.584   2.059   9.576 -0.1535  1.8104  0.4301
 2822SOL    HW220100   2.722   2.103   9.568  1.2518 -0.9924 -1.5844
 2823SOL     OW20101   3.680   2.401   3.046 -0.2191  0.1037  0.0215
 2823SOL    HW120102   3.656   2.450   2.968 -0.0209 -0.8472 -0.6252
 2823SOL    HW220103   3.774   2.389   3.033 -0.3911 -0.9734 -0.2020
 2824SOL     OW20104   2.843   1.063   3.706 -0.3085 -0.3142  0.2623
 2824SOL    HW120105   2.932   1.066   3.670  0.3003 -0.1870  1.7625
 2824SOL    HW220106   2.842   0.972   3.735 -0.5239 -0.6776 -0.8982
 2825SOL     OW20107   0.552   1.544   6.601  0.4432 -0.2985 -0.7164
 2825SOL    HW120108   0.534   1.456   6.569  1.6730 -1.1271  0.8564
 2825SOL    HW220109   0.627   1.554   6.542  0.7045  2.0025  0.0018
 2826SOL     OW20110   1.064   3.141   6.416  0.4816  0.4742 -0.2426
 2826SOL    HW120111   1.098   3.069   6.363  0.1480 -0.8209  1.2768
 2826SOL    HW220112   0.969   3.128   6.414  0.1580  2.8928 -0.4857
 2827SOL     OW20113   1.461   2.096   1.292  0.3142  0.7957  0.3922
 2827SOL    HW120114   1.436   2.009   1.323  2.6620  0.0427  0.1911
 2827SOL    HW220115   1.395   2.088   1.223  1.8772 -1.0634 -0.9085
 2828SOL     OW20116   3.904   0.796   5.655 -0.0483  0.1555  0.0262
 2828SOL    HW120117   3.916   0.711   5.613  0.6595 -0.0349  0.6150
 2828SOL    HW220118   3.969   0.788   5.725  1.0404 -0.0527 -1.0099
 2829SOL     OW20119   2.757   2.630   5.824  0.0698 -0.0070 -0.3462
 2829SOL    HW120120   2.766   2.556   5.763  0.5980  0.7668 -1.2226
 2829SOL    HW220121   2.839   2.667   5.788  0.4150 -0.4058  0.0325
 2830SOL     OW20122   1.687   0.510   7.052 -0.1876  0.2426  0.0719
 2830SOL    HW120123   1.726   0.463   6.979  3.2142  0.6639  1.6104
 2830SOL    HW220124   1.624   0.564   7.004  0.0934  0.4964 -0.0065
 2831SOL     OW20125   3.212   1.526   4.452 -0.2026  0.0187 -0.4242
 2831SOL    HW120126   3.176   1.580   4.382 -1.8456 -2.1557 -1.2611
 2831SOL    HW220127   3.304   1.508   4.432 -0.9582 -0.1111 -3.9328
 2832SOL     OW20128   0.754   0.982   2.206  0.0739 -0.0880  0.6083
 2832SOL    HW120129   0.773   1.071   2.179 -1.7134 -0.0781 -0.6016
 2832SOL    HW220130   0.801   0.927   2.142 -2.3426  0.1187 -1.3317
 2833SOL     OW20131   4.175   2.693   3.708  0.1595 -0.1681  0.5938
 2833SOL    HW120132   4.158   2.599   3.706 -1.3866  0.1062  0.7439
 2833SOL    HW220133   4.218   2.714   3.791 -0.1608 -0.2365  0.7771
 2834SOL     OW20134   2.837   3.130   7.799  0.2642  0.0533  0.1669
 2834SOL    HW120135   2.925   3.166   7.808  0.7250 -1.2932  0.9893
 2834SOL    HW220136   2.851   3.044   7.760 -1.4743 -0.6239  1.0521
 2835SOL     OW20137   3.863   3.631  11.169  0.5455 -0.1586  0.3482
 2835SOL    HW120138   3.877   3.698  11.101 -2.4054 -1.6194 -1.6938
 2835SOL    HW220139   3.930   3.655  11.232  0.2815 -1.0423  0.9632
 2836SOL     OW20140   2.867   0.828  11.828 -0.1701  0.3481 -0.6721
 2836SOL    HW120141   2.773   0.812  11.831 -0.5810  2.7812 -0.4509
 2836SOL    HW220142   2.904   0.796  11.911 -0.9212  2.4956  0.5026
 2837SOL     OW20143   1.667   1.114   1.817 -0.5731  0.5029  0.9176
 2837SOL    HW120144   1.688   1.197   1.776  2.8611 -1.4024 -1.0820
 2837SOL    HW220145   1.736   1.054   1.790 -1.5835 -0.0807 -0.3475
 2838SOL     OW20146   0.333   2.639   3.926 -0.1861 -0.2112  0.2689
 2838SOL    HW120147   0.388   2.566   3.897  0.0263  0.3850 -0.8208
 2838SOL    HW220148   0.249   2.603   3.897 -0.5159  1.4201 -0.7908
 2839SOL     OW20149   0.217   0.379   1.788  0.4527 -0.3792 -0.4191
 2839SOL    HW120150   0.296   0.426   1.762  0.4620  1.5930  3.2440
 2839SOL    HW220151   0.257   0.340   1.865  0.8919  1.2993  0.1817
 2840SOL     OW20152   0.645   2.179   9.129  0.0803  0.0759  0.0103
 2840SOL    HW120153   0.707   2.156   9.198  0.1655 -0.2774 -0.1873
 2840SOL    HW220154   0.581   2.109   9.138  0.2316  0.0361  0.7526
 2841SOL     OW20155   3.140   3.723   9.978  0.1784  0.2750 -0.1140
 2841SOL    HW120156   3.068   3.676   9.936 -0.0555  0.1120  0.4724
 2841SOL    HW220157   3.138   3.709  10.073 -0.6819 -1.0572 -0.3170
 2842SOL     OW20158   2.481   2.984  15.488  0.8066 -0.3058  0.2278
 2842SOL    HW120159   2.466   2.928  15.412 -0.4419 -1.4014  1.3017
 2842SOL    HW220160   2.424   3.061  15.477  1.9158  0.1377 -2.3260
 2843SOL     OW20161   3.218   0.064  11.670  0.5512  0.5819  0.5054
 2843SOL    HW120162   3.153   0.118  11.624 -0.1883  0.4276  1.3715
 2843SOL    HW220163   3.288   0.129  11.680  1.2133 -0.1810  0.8283
 2844SOL     OW20164   2.953   2.274   3.804  0.1386 -0.1893  0.1016
 2844SOL    HW120165   3.030   2.273   3.862 -1.3820 -1.4450  2.0798
 2844SOL    HW220166   2.918   2.186   3.819  0.1202  0.0123  1.2756
 2845SOL     OW20167   3.032   4.116   8.792 -0.1588  0.2401 -0.4173
 2845SOL    HW120168   3.085   4.129   8.713  2.8012 -1.7019  1.2337
 2845SOL    HW220169   2.963   4.060   8.755 -1.2802  1.9880 -0.9397
 2846SOL     OW20170   3.141   1.297   5.838 -0.0671 -0.3168  0.1708
 2846SOL    HW120171   3.053   1.281   5.803 -0.1770  1.8275 -0.5013
 2846SOL    HW220172   3.178   1.351   5.769  1.7771 -0.5223  0.9929
 2847SOL     OW20173   0.336   0.022   2.938  0.2410  0.2504 -0.6620
 2847SOL    HW120174   0.385   0.083   2.994  2.4930 -2.1051 -0.0646
 2847SOL    HW220175   0.312   0.085   2.869  0.7070  1.0574 -0.0918
 2848SOL     OW20176   2.806   1.652  15.994 -0.0532  0.2888 -0.1568
 2848SOL    HW120177   2.749   1.712  15.947 -0.0259  0.3956 -0.0540
 2848SOL    HW220178   2.785   1.564  15.963  2.1689 -0.0909 -0.6172
 2849SOL     OW20179   2.783   0.754   4.671 -0.0912  0.1465 -0.9034
 2849SOL    HW120180   2.797   0.701   4.749  3.7530  2.9221  0.2958
 2849SOL    HW220181   2.693   0.723   4.662  0.2169 -1.0011  0.0388
 2850SOL     OW20182   3.760   3.395   6.123 -0.3906 -0.0442 -0.3763
 2850SOL    HW120183   3.820   3.455   6.078  1.2038  0.5497  2.5497
 2850SOL    HW220184   3.713   3.360   6.047 -2.0844 -1.7782  1.4755
 2851SOL     OW20185   2.145   4.533   3.208 -0.2882 -0.1634  0.1722
 2851SOL    HW120186   2.160   4.446   3.171  0.7684  1.5444 -3.4051
 2851SOL    HW220187   2.071   4.516   3.266  1.3224 -0.0631  2.2496
 2852SOL     OW20188   0.455   0.795   7.359 -0.1500 -0.3210 -0.2537
 2852SOL    HW120189   0.369   0.817   7.324  0.4698  2.5658 -0.0024
 2852SOL    HW220190   0.479   0.732   7.291 -0.6188 -2.8149  1.8570
 2853SOL     OW20191   0.894   0.216   9.537  0.4003  1.1442  0.0359
 2853SOL    HW120192   0.953   0.280   9.578 -0.9572  1.5855  1.2563
 2853SOL    HW220193   0.940   0.199   9.454  0.5111  0.8907  0.1495
 2854SOL     OW20194   2.378   1.127   5.218  0.0858 -0.5602  0.1275
 2854SOL    HW120195   2.457   1.096   5.261  0.6907 -4.0450 -3.5425
 2854SOL    HW220196   2.411   1.173   5.140  0.3989  2.4639  2.0293
 2855SOL     OW20197   3.800   1.951  13.078  0.0465  0.4640  0.2855
 2855SOL    HW120198   3.876   1.914  13.122 -0.6783  0.5709  1.6118
 2855SOL    HW220199   3.742   1.874  13.071 -0.6494  0.9390  0.8907
 2856SOL     OW20200   0.226   4.051   2.907  0.0024 -0.4775 -0.4628
 2856SOL    HW120201   0.267   3.965   2.921  0.6648 -0.2228 -0.8178
 2856SOL    HW220202   0.282   4.108   2.960 -0.4314 -1.2311  0.7949
 2857SOL     OW20203   3.442   0.284   4.795 -0.4425 -0.8608  0.2221
 2857SOL    HW120204   3.466   0.191   4.800  0.4254 -0.6369  0.3044
 2857SOL    HW220205   3.506   0.326   4.853 -1.6338  0.2902  0.7066
 2858SOL     OW20206   3.147   3.468   9.778  0.2286 -0.2042  0.1918
 2858SOL    HW120207   3.202   3.396   9.747 -2.2897 -1.9414 -0.2299
 2858SOL    HW220208   3.090   3.414   9.833 -1.2007 -0.6412 -1.7147
 2859SOL     OW20209   1.867   2.538   8.652 -0.2413  0.5193  0.1249
 2859SOL    HW120210   1.838   2.472   8.589  0.5989  0.0711  0.2004
 2859SOL    HW220211   1.953   2.538   8.609  0.4192 -0.7862  1.4465
 2860SOL     OW20212   1.157   1.332   6.917  0.0781  0.3953  0.3315
 2860SOL    HW120213   1.197   1.391   6.854 -1.1010  0.1010 -0.6956
 2860SOL    HW220214   1.104   1.398   6.962 -0.2142  0.6389 -0.3720
 2861SOL     OW20215   1.975   0.134   4.569 -0.0386 -0.9594 -0.0920
 2861SOL    HW120216   2.029   0.146   4.491 -0.0223  2.2049  0.4198
 2861SOL    HW220217   1.905   0.198   4.567 -1.4847 -2.5455 -0.1799
 2862SOL     OW20218   2.499   0.304   3.702 -0.0208  0.3169 -0.0303
 2862SOL    HW120219   2.439   0.303   3.776 -0.1932  1.3696 -0.1629
 2862SOL    HW220220   2.488   0.214   3.673  1.1156  0.4515 -0.9075
 2863SOL     OW20221   4.438   1.768   3.100 -0.5514 -0.0379 -0.3957
 2863SOL    HW120222   4.493   1.756   3.178 -1.5867 -1.4362  0.1263
 2863SOL    HW220223   4.366   1.822   3.133 -0.9134 -0.8222  0.0918
 2864SOL     OW20224   4.469   2.201   4.435  0.2500 -0.4720 -0.2693
 2864SOL    HW120225   4.435   2.288   4.453  0.8619 -0.2810 -0.0486
 2864SOL    HW220226   4.463   2.171   4.526  2.0130  0.3825  0.1218
 2865SOL     OW20227   3.374   1.034   4.247  0.2798 -0.1969  0.6834
 2865SOL    HW120228   3.360   1.120   4.206 -1.2777 -1.4465 -1.4384
 2865SOL    HW220229   3.296   1.022   4.302  0.5644  3.3629  1.8276
 2866SOL     OW20230   4.685   3.706   2.747  0.5631 -0.2793 -0.0643
 2866SOL    HW120231   4.668   3.687   2.839  0.0430 -1.0187 -0.3113
 2866SOL    HW220232   4.664   3.799   2.747  1.3601 -0.1044 -0.5407
 2867SOL     OW20233   0.643   0.553  11.449  0.0376  0.3553  0.5069
 2867SOL    HW120234   0.574   0.523  11.509  0.3787 -3.1223 -0.8378
 2867SOL    HW220235   0.626   0.647  11.448 -0.3242  0.2725 -1.3924
 2868SOL     OW20236   3.071   0.272   8.489 -0.4231 -0.4945 -0.0262
 2868SOL    HW120237   3.038   0.221   8.563 -0.2110  0.4671  0.7303
 2868SOL    HW220238   3.141   0.213   8.459  0.2710 -0.4041  1.4177
 2869SOL     OW20239   2.177   3.677  11.487 -0.4011  0.4087 -0.0137
 2869SOL    HW120240   2.112   3.616  11.522  0.5729 -1.2995 -1.2318
 2869SOL    HW220241   2.172   3.674  11.392 -0.3620  1.1422 -0.0427
 2870SOL     OW20242   4.537   4.539   1.057 -0.0237  0.1915  1.1370
 2870SOL    HW120243   4.537   4.531   1.153  0.7323 -1.0495  1.0361
 2870SOL    HW220244   4.492   4.622   1.039 -0.2902 -0.3309 -0.5855
 2871SOL     OW20245   0.488   1.799   4.052  0.4204 -0.0005  0.8481
 2871SOL    HW120246   0.559   1.734   4.057  0.6020  0.1871  0.6636
 2871SOL    HW220247   0.446   1.741   3.989 -0.6801 -0.1425  1.7139
 2872SOL     OW20248   0.734   4.483   2.798 -0.2689  0.6609  0.4378
 2872SOL    HW120249   0.721   4.547   2.728 -1.0085 -0.9405 -0.8884
 2872SOL    HW220250   0.652   4.487   2.848  0.3733  4.9955  1.1760
 2873SOL     OW20251   1.233   1.172  17.136  0.1243 -0.4849  0.0718
 2873SOL    HW120252   1.139   1.158  17.148  0.0726 -0.1147  0.1203
 2873SOL    HW220253   1.261   1.209  17.220 -0.1167  1.6316 -0.7819
 2874SOL     OW20254   3.147   2.628   8.328  0.1767  0.3105 -0.2228
 2874SOL    HW120255   3.199   2.671   8.396 -0.1777  0.8197 -0.2745
 2874SOL    HW220256   3.173   2.691   8.261  1.9529  0.7049  0.8200
 2875SOL     OW20257   2.966   0.118   8.226 -0.2152 -0.1006 -0.0202
 2875SOL    HW120258   3.003   0.183   8.287 -2.4464  1.1853 -0.0441
 2875SOL    HW220259   2.887   0.163   8.196 -0.7231  0.0719  1.5525
 2876SOL     OW20260   1.889   3.668   6.320  0.1262  0.0730  0.0379
 2876SOL    HW120261   1.862   3.616   6.244 -0.3450 -1.0674  0.9755
 2876SOL    HW220262   1.882   3.760   6.296 -3.7233 -0.2016  0.2129
 2877SOL     OW20263   3.765   2.796  12.205  0.3652  0.1348  0.1728
 2877SOL    HW120264   3.808   2.770  12.123  0.0265  0.9255 -0.2546
 2877SOL    HW220265   3.839   2.805  12.265  0.2679  1.7515  0.0468
 2878SOL     OW20266   4.689   2.764   8.605 -0.0587  0.0845 -0.5422
 2878SOL    HW120267   4.606   2.779   8.560 -0.6675 -0.6325  0.3386
 2878SOL    HW220268   4.707   2.672   8.585  2.6667  0.6483 -0.7160
 2879SOL     OW20269   0.266   3.839   8.239 -0.0405  0.1376  0.6231
 2879SOL    HW120270   0.283   3.747   8.257 -0.6048 -0.1150 -0.1163
 2879SOL    HW220271   0.177   3.853   8.269 -1.4183 -0.6469 -3.1360
 2880SOL     OW20272   1.414   2.881   7.912  0.6860  0.7722  0.1193
 2880SOL    HW120273   1.352   2.936   7.960 -1.9118 -2.4579  0.4455
 2880SOL    HW220274   1.348   2.843   7.854  0.5593  0.3867  0.5207
 2881SOL     OW20275   1.033   2.982  11.617 -0.0179  0.2119  0.5999
 2881SOL    HW120276   1.058   2.901  11.574 -0.4914  0.0479  0.6318
 2881SOL    HW220277   1.079   3.038  11.554 -0.2919 -0.0728  0.1378
 2882SOL     OW20278   0.657   0.160   7.039  0.3131  0.1941  0.0282
 2882SOL    HW120279   0.651   0.066   7.052 -0.1370  0.4548  1.6920
 2882SOL    HW220280   0.648   0.168   6.944  0.0682  2.7635  0.2570
 2883SOL     OW20281   3.448   2.399  11.169 -0.0084  0.2117 -0.0934
 2883SOL    HW120282   3.459   2.465  11.237 -0.4689 -0.8310  0.9982
 2883SOL    HW220283   3.541   2.397  11.145 -0.0034 -0.3815 -0.0218
 2884SOL     OW20284   3.407   3.041   8.005 -0.2465  0.0639 -0.2738
 2884SOL    HW120285   3.406   2.954   7.966  1.6740  0.0289 -0.2374
 2884SOL    HW220286   3.377   3.018   8.093 -0.1317  1.9167  0.2445
 2885SOL     OW20287   2.968   1.140  14.518 -0.5283  0.1961 -0.2264
 2885SOL    HW120288   2.982   1.091  14.600 -1.7013  0.0124 -0.1328
 2885SOL    HW220289   2.933   1.223  14.551 -4.1866 -1.0331 -0.9175
 2886SOL     OW20290   1.179   2.448   9.777 -0.2482 -0.4210  0.0562
 2886SOL    HW120291   1.249   2.423   9.716  1.1858 -1.1870  1.9869
 2886SOL    HW220292   1.207   2.536   9.801  1.6303 -1.1385  0.5204
 2887SOL     OW20293   2.506   4.086   5.910 -0.0643 -0.4393  0.4851
 2887SOL    HW120294   2.595   4.116   5.891 -0.1876 -2.0414 -2.4527
 2887SOL    HW220295   2.493   4.129   5.995 -0.2380 -0.7047  0.5942
 2888SOL     OW20296   0.962   0.728  12.133  0.3909  0.1403  0.6789
 2888SOL    HW120297   0.967   0.647  12.083 -0.5366  0.6012 -0.1539
 2888SOL    HW220298   1.043   0.730  12.183  1.4866  1.7931 -1.1629
 2889SOL     OW20299   0.504   4.268  10.854  0.0892 -0.1457 -0.3656
 2889SOL    HW120300   0.503   4.219  10.771  1.3293 -0.2509 -0.3147
 2889SOL    HW220301   0.412   4.291  10.865 -0.5537 -3.5402  1.1741
 2890SOL     OW20302   3.355   3.679   8.822 -0.0469  0.0152 -0.2742
 2890SOL    HW120303   3.446   3.695   8.798 -0.0304 -0.4010 -0.5044
 2890SOL    HW220304   3.355   3.604   8.882 -0.3382 -1.1456 -1.7264
 2891SOL     OW20305   4.740   3.700   4.473 -0.2199  0.5579  0.0184
 2891SOL    HW120306   0.068   3.731   4.413  0.7780  1.4087  1.6115
 2891SOL    HW220307   4.662   3.726   4.424 -0.3661  0.1603  0.0384
 2892SOL     OW20308   4.419   1.756   8.469 -0.1146  0.4004  0.1759
 2892SOL    HW120309   4.395   1.670   8.434 -1.3540  0.6102  0.5080
 2892SOL    HW220310   4.413   1.735   8.562  1.2177 -1.3121 -0.1315
 2893SOL     OW20311   4.652   2.123   4.214  0.3970  0.1006 -0.2399
 2893SOL    HW120312   4.641   2.072   4.294 -1.0427 -0.7897 -1.0142
 2893SOL    HW220313   4.597   2.201   4.223  0.6599  0.3345 -0.6779
 2894SOL     OW20314   3.334   0.326   4.147 -0.1420 -0.2394  0.7600
 2894SOL    HW120315   3.397   0.259   4.122 -0.8955  0.0533 -1.8850
 2894SOL    HW220316   3.265   0.305   4.084  2.0004 -2.9900 -0.6523
 2895SOL     OW20317   2.112   1.603   2.319 -0.2683  0.4130  0.0871
 2895SOL    HW120318   2.063   1.683   2.301 -0.4072  0.5121  0.8790
 2895SOL    HW220319   2.189   1.637   2.364  1.8886 -1.5815 -2.1139
 2896SOL     OW20320   0.401   1.866   5.739 -0.6303 -1.0966  0.1523
 2896SOL    HW120321   0.390   1.900   5.827  0.8478  1.8880 -0.8181
 2896SOL    HW220322   0.472   1.803   5.755 -0.6696 -1.3460 -0.6421
 2897SOL     OW20323   1.579   0.045   6.781  0.0669 -0.3697  0.3453
 2897SOL    HW120324   1.645   0.074   6.845 -0.2212  1.8443 -0.3528
 2897SOL    HW220325   1.513   0.112   6.799  0.2129 -0.2569  0.4697
 2898SOL     OW20326   2.403   1.800  11.233  0.7766 -0.1551  0.6014
 2898SOL    HW120327   2.444   1.836  11.155  1.6508 -0.3397  0.9788
 2898SOL    HW220328   2.313   1.788  11.203  1.3996 -1.2477 -0.8447
 2899SOL     OW20329   1.650   1.835   1.981 -0.2491 -0.4119  0.0674
 2899SOL    HW120330   1.657   1.816   1.887  1.0936 -1.3075  0.3564
 2899SOL    HW220331   1.702   1.762   2.013 -0.5654 -1.7191 -2.3362
 2900SOL     OW20332   0.795   2.669   5.602  0.5609 -0.2087 -0.4818
 2900SOL    HW120333   0.784   2.599   5.537  0.7978 -0.7275  0.0347
 2900SOL    HW220334   0.749   2.629   5.676 -0.5218  2.4332  0.2663
 2901SOL     OW20335   0.543   0.703   1.468 -0.4007 -0.2490 -0.1343
 2901SOL    HW120336   0.636   0.726   1.477 -0.2889 -0.7041 -0.1453
 2901SOL    HW220337   0.530   0.698   1.373  1.5492  1.8665 -0.5339
 2902SOL     OW20338   4.276   4.678   6.877 -0.3502 -0.0363  0.1546
 2902SOL    HW120339   4.367   4.700   6.897 -0.8111  0.8269  1.2711
 2902SOL    HW220340   4.251   4.622   6.951 -0.2100  0.7069  0.7609
 2903SOL     OW20341   1.770   3.164   4.128 -0.0916  0.2144  0.0460
 2903SOL    HW120342   1.703   3.232   4.137  0.1518  0.2880  1.3067
 2903SOL    HW220343   1.781   3.169   4.033  0.2063 -1.0865  0.0079
 2904SOL     OW20344   3.250   1.849  13.471  0.7711 -0.0738  0.2605
 2904SOL    HW120345   3.286   1.769  13.431  0.3375 -0.4034  0.5360
 2904SOL    HW220346   3.312   1.910  13.433  0.0278 -0.4575 -1.6038
 2905SOL     OW20347   2.601   1.404   6.164  0.9932 -0.1488 -0.1527
 2905SOL    HW120348   2.559   1.380   6.081 -0.9537 -2.1251  1.4226
 2905SOL    HW220349   2.588   1.322   6.211 -0.5925  0.4851  0.4968
 2906SOL     OW20350   4.518   4.440   8.669 -0.3682 -0.1717 -0.2378
 2906SOL    HW120351   4.486   4.353   8.646  0.1333 -0.3128 -0.4081
 2906SOL    HW220352   4.600   4.440   8.618 -1.4618  3.6866 -2.0147
 2907SOL     OW20353   1.857   1.915   5.814  0.2109  0.7613 -0.0542
 2907SOL    HW120354   1.863   1.928   5.719 -0.0642  1.4582  0.0237
 2907SOL    HW220355   1.831   2.001   5.847  0.5803 -0.2778  2.8861
 2908SOL     OW20356   3.283   2.260  16.302 -0.1581 -0.2129 -0.1500
 2908SOL    HW120357   3.373   2.249  16.331  0.6939  3.7217 -1.2785
 2908SOL    HW220358   3.293   2.347  16.262  1.1334 -0.8222 -1.1278
 2909SOL     OW20359   4.053   1.023   8.743 -0.3176  0.4342 -0.5567
 2909SOL    HW120360   4.072   1.012   8.650 -1.5272  0.3961 -0.8028
 2909SOL    HW220361   4.140   1.002   8.778  0.2260  0.3901 -1.9544
 2910SOL     OW20362   1.766   0.062   5.538  0.0309 -0.0181 -0.1286
 2910SOL    HW120363   1.775   0.157   5.540  1.2518 -0.1607  0.9776
 2910SOL    HW220364   1.809   0.040   5.621 -3.0552  1.3673  1.8830
 2911SOL     OW20365   1.025   0.642   8.402 -0.0395 -0.1820  0.2394
 2911SOL    HW120366   1.101   0.632   8.345 -0.7286 -0.2630 -0.6703
 2911SOL    HW220367   0.982   0.720   8.368 -1.4103 -0.1120  2.1214
 2912SOL     OW20368   4.476   2.415  12.644  0.3986  0.3641 -0.2379
 2912SOL    HW120369   4.532   2.418  12.566  1.8181  0.2624  0.7981
 2912SOL    HW220370   4.532   2.429  12.720 -1.6790  1.9687  1.0167
 2913SOL     OW20371   0.366   0.094   7.984  0.1586  0.0115  0.0807
 2913SOL    HW120372   0.379   0.016   8.039 -4.3167  1.4473  3.2083
 2913SOL    HW220373   0.363   0.064   7.893  0.1140 -0.7038  0.3111
 2914SOL     OW20374   0.706   3.391  16.318 -0.3211 -0.0647  0.4520
 2914SOL    HW120375   0.636   3.325  16.323  0.3059 -0.7640  0.0140
 2914SOL    HW220376   0.770   3.342  16.266 -1.4314 -0.1333 -0.8574
 2915SOL     OW20377   0.222   4.712   9.036  0.1176  0.1137  0.6579
 2915SOL    HW120378   0.253   0.049   8.989 -0.1049 -0.7467 -0.8993
 2915SOL    HW220379   0.290   4.646   9.023 -1.2729 -0.2017 -4.8118
 2916SOL     OW20380   0.309   1.542   8.236  0.8009  0.2334  0.9318
 2916SOL    HW120381   0.286   1.620   8.285  1.7449  1.1609 -0.1069
 2916SOL    HW220382   0.226   1.516   8.196  1.0605 -1.1972  1.3122
 2917SOL     OW20383   2.460   1.860   1.177  0.0273 -0.1621 -0.3430
 2917SOL    HW120384   2.465   1.864   1.082 -2.9635 -2.0933 -0.5731
 2917SOL    HW220385   2.438   1.768   1.190  0.1004 -0.3409 -1.5357
 2918SOL     OW20386   1.455   2.044   2.441 -0.0636 -0.2562  0.1396
 2918SOL    HW120387   1.482   1.970   2.387  1.1772  1.1166 -1.1097
 2918SOL    HW220388   1.541   2.077   2.469  0.2117 -0.5051 -0.4098
 2919SOL     OW20389   4.639   1.691   4.944 -0.4464  0.5742  0.2776
 2919SOL    HW120390   4.640   1.685   5.039 -3.1608  0.5051  0.2998
 2919SOL    HW220391   4.733   1.680   4.933 -0.6740 -2.3748  1.3243
 2920SOL     OW20392   3.128   0.261   6.783  0.6843 -0.5305 -0.2948
 2920SOL    HW120393   3.090   0.287   6.699 -0.3109  1.1761  0.6764
 2920SOL    HW220394   3.068   0.192   6.811 -0.4918  0.9493  0.8395
 2921SOL     OW20395   0.658   1.215   3.892  0.2320  0.6706 -0.5064
 2921SOL    HW120396   0.658   1.132   3.939  0.5841  0.2472 -1.2536
 2921SOL    HW220397   0.592   1.259   3.946  1.0154 -1.7991  2.4642
 2922SOL     OW20398   2.921   2.619   4.952 -0.6112 -0.1209 -0.3936
 2922SOL    HW120399   2.948   2.699   4.996 -2.5080  0.5002 -0.3439
 2922SOL    HW220400   2.964   2.630   4.867  4.3395 -0.6368  2.0667
 2923SOL     OW20401   2.003   0.034   7.579  0.6472  0.5283  0.6530
 2923SOL    HW120402   1.996   0.003   7.670 -1.8020  0.5747  0.5031
 2923SOL    HW220403   2.061   0.105   7.606 -0.4517  1.0178  1.7705
 2924SOL     OW20404   3.555   3.476   7.858  0.2124 -0.5671  0.9740
 2924SOL    HW120405   3.496   3.439   7.924 -0.0260  0.3966  1.2933
 2924SOL    HW220406   3.564   3.565   7.891 -1.4415 -0.0832  0.1479
 2925SOL     OW20407   0.565   3.229   3.320 -0.4245 -0.2416 -0.2804
 2925SOL    HW120408   0.646   3.226   3.270  0.0682 -1.1184  0.5715
 2925SOL    HW220409   0.588   3.192   3.405  1.3373  0.5678 -0.3981
 2926SOL     OW20410   3.592   0.638   1.928 -0.4681 -0.1939  1.1811
 2926SOL    HW120411   3.618   0.645   2.020 -0.2460  1.0854  1.0261
 2926SOL    HW220412   3.547   0.722   1.917 -1.0119 -0.2115  3.2728
 2927SOL     OW20413   3.024   4.182   2.707  0.9593 -0.2411 -0.4268
 2927SOL    HW120414   3.095   4.192   2.770 -0.5493  0.9798  1.0809
 2927SOL    HW220415   2.950   4.144   2.755  0.1894 -0.2707 -1.6471
 2928SOL     OW20416   1.575   1.238   5.174 -0.7420  0.1542  0.2132
 2928SOL    HW120417   1.648   1.269   5.120  0.2223 -0.4412  1.1518
 2928SOL    HW220418   1.615   1.164   5.220  0.6220 -0.2579 -1.6438
 2929SOL     OW20419   1.875   4.467   9.992 -0.2465 -0.5545  0.5129
 2929SOL    HW120420   1.856   4.414  10.070  0.2594 -0.8386  0.4382
 2929SOL    HW220421   1.967   4.484  10.009 -0.6664  0.2960  1.9782
 2930SOL     OW20422   4.217   2.208  14.391 -0.9054 -0.2757  0.3008
 2930SOL    HW120423   4.307   2.183  14.414 -0.8073 -1.4304 -1.2756
 2930SOL    HW220424   4.201   2.287  14.442  2.5742  0.1621  0.7291
 2931SOL     OW20425   2.617   4.548   5.283  0.1592 -0.4249  0.1330
 2931SOL    HW120426   2.629   4.558   5.377 -2.2416 -1.6482  0.5701
 2931SOL    HW220427   2.522   4.546   5.269  0.1384 -1.3523  0.4225
 2932SOL     OW20428   3.848   2.991   7.507  0.4881 -0.0851 -0.1229
 2932SOL    HW120429   3.829   2.906   7.548 -0.5830 -1.5450 -3.6277
 2932SOL    HW220430   3.890   2.973   7.423 -0.2871  0.1587 -0.5633
 2933SOL     OW20431   2.983   4.274  16.222 -0.0639  0.0460 -0.2913
 2933SOL    HW120432   2.892   4.305  16.218  0.0136  0.0645 -1.7998
 2933SOL    HW220433   2.998   4.289  16.315 -0.4135 -1.3970  0.0097
 2934SOL     OW20434   2.338   4.445   1.742 -0.4457 -0.3497  0.2722
 2934SOL    HW120435   2.432   4.454   1.728 -0.2531 -1.8843  0.5385
 2934SOL    HW220436   2.305   4.534   1.732 -1.3091 -0.7374 -0.2479
 2935SOL     OW20437   2.644   1.916   7.358  0.0943 -0.0052  0.1219
 2935SOL    HW120438   2.555   1.945   7.376 -0.3341 -0.1533 -1.7346
 2935SOL    HW220439   2.684   1.939   7.442 -1.1389 -0.0323  0.7084
 2936SOL     OW20440   3.145   3.262  12.810  0.6124 -0.1505 -0.4589
 2936SOL    HW120441   3.166   3.332  12.871 -1.2921 -1.3231  1.5392
 2936SOL    HW220442   3.162   3.193  12.874  0.9042  0.1890 -0.1671
 2937SOL     OW20443   0.156   4.431   0.951  0.2595  0.2083 -0.4086
 2937SOL    HW120444   0.095   4.466   0.886 -2.2633  0.8860  2.3697
 2937SOL    HW220445   0.239   4.438   0.903  0.0550 -0.0740 -0.8086
 2938SOL     OW20446   2.030   1.597   6.400  0.1445  0.1407  0.2295
 2938SOL    HW120447   2.072   1.519   6.364 -0.5879 -0.6703  1.1433
 2938SOL    HW220448   1.942   1.569   6.426  0.1603  1.0364  1.2571
 2939SOL     OW20449   1.010   2.613   2.179 -0.0349 -0.3069  0.6601
 2939SOL    HW120450   1.047   2.692   2.218 -1.4003 -0.8192  3.0636
 2939SOL    HW220451   0.999   2.552   2.253  1.3489 -1.3441  0.0163
 2940SOL     OW20452   2.808   1.673   8.113  0.7101 -0.0004  0.3847
 2940SOL    HW120453   2.801   1.735   8.040 -0.8913 -1.4350 -0.6713
 2940SOL    HW220454   2.820   1.728   8.190  1.6506  0.8815 -0.3747
 2941SOL     OW20455   4.325   4.697  15.323 -0.3827 -0.1457  0.1433
 2941SOL    HW120456   4.310   4.603  15.317 -0.9559 -0.1423  1.5984
 2941SOL    HW220457   4.236   4.732  15.322 -0.2135  0.3035  1.0285
 2942SOL     OW20458   2.212   4.310  14.363  0.0019  0.0736  0.9581
 2942SOL    HW120459   2.182   4.290  14.452 -0.5121 -1.4085  0.4648
 2942SOL    HW220460   2.243   4.400  14.355  2.2728 -0.6056  2.2042
 2943SOL     OW20461   2.602   0.695   8.269 -0.5430  0.0332 -0.1167
 2943SOL    HW120462   2.649   0.755   8.326  1.3888 -1.1596 -0.4731
 2943SOL    HW220463   2.650   0.697   8.186 -1.5047 -1.5000 -0.7202
 2944SOL     OW20464   3.562   1.537   2.541  0.2690 -0.0037 -0.1115
 2944SOL    HW120465   3.576   1.484   2.619  0.5133  0.3910  0.1109
 2944SOL    HW220466   3.654   1.548   2.520  1.0112 -0.6719  2.9351
 2945SOL     OW20467   0.074   3.911   4.800  0.0751  0.4997  0.3002
 2945SOL    HW120468   0.135   3.872   4.862  1.7141  1.2923 -0.8134
 2945SOL    HW220469   4.740   3.851   4.790  1.8374 -1.6871  0.4429
 2946SOL     OW20470   3.059   0.380  11.837 -0.3018 -0.0211 -0.8255
 2946SOL    HW120471   3.031   0.447  11.900 -0.1045 -0.9117  0.2180
 2946SOL    HW220472   3.145   0.360  11.874 -1.4646 -1.8214  0.8874
 2947SOL     OW20473   3.475   3.611   8.199 -0.0644  0.7649  0.4648
 2947SOL    HW120474   3.488   3.705   8.206  0.4724  0.7113  0.2110
 2947SOL    HW220475   3.401   3.613   8.138  0.0315  0.2471  0.3326
 2948SOL     OW20476   4.529   1.665   2.206  0.2133 -0.1113 -0.1468
 2948SOL    HW120477   4.437   1.640   2.215 -0.3584  1.4183 -1.6702
 2948SOL    HW220478   4.569   1.583   2.179 -1.6673 -0.1814 -2.7823
 2949SOL     OW20479   4.183   0.073  14.889 -0.7123 -0.0200  0.5605
 2949SOL    HW120480   4.148   0.032  14.969 -0.0710 -0.0069  0.8488
 2949SOL    HW220481   4.152   0.161  14.907 -1.8840 -0.0954 -1.1340
 2950SOL     OW20482   2.846   3.265   4.031  0.1396 -0.2191  0.4317
 2950SOL    HW120483   2.799   3.348   4.036 -0.2270 -0.4307  0.5087
 2950SOL    HW220484   2.782   3.204   3.994 -1.9656  1.5454  1.1512
 2951SOL     OW20485   3.296   2.396   4.844  0.3024  0.7839 -0.1546
 2951SOL    HW120486   3.335   2.310   4.857 -1.3243  0.1025  0.1643
 2951SOL    HW220487   3.203   2.379   4.858  0.6681 -1.4249 -0.3498
 2952SOL     OW20488   1.032   3.643   1.783 -0.3582 -0.1341 -0.0027
 2952SOL    HW120489   0.983   3.658   1.864 -0.5630  1.5973 -0.4370
 2952SOL    HW220490   1.001   3.558   1.752  2.6081 -0.0587 -3.1228
 2953SOL     OW20491   0.066   1.066  11.206  0.1981 -0.0512  0.0917
 2953SOL    HW120492   4.718   1.081  11.241  0.6201  0.9609  0.7397
 2953SOL    HW220493   0.123   1.131  11.247 -1.2278  0.5522  1.1267
 2954SOL     OW20494   3.914   3.714   2.693 -0.4840 -0.3440 -0.6936
 2954SOL    HW120495   3.823   3.733   2.719 -0.3905  0.2086 -0.7570
 2954SOL    HW220496   3.924   3.805   2.665  2.2403 -0.2514  0.5618
 2955SOL     OW20497   1.329   1.854   3.959  0.0369 -0.6511  0.6042
 2955SOL    HW120498   1.279   1.888   4.033  1.4709  1.3500  0.6499
 2955SOL    HW220499   1.286   1.769   3.948 -0.4644 -0.5589  1.8917
 2956SOL     OW20500   3.391   1.460   8.589  0.2623 -0.0769 -0.5064
 2956SOL    HW120501   3.440   1.405   8.527  0.3264 -0.0795 -0.4535
 2956SOL    HW220502   3.418   1.426   8.674 -0.2711 -0.5816 -0.5326
 2957SOL     OW20503   1.898   3.018  14.320 -0.3296  0.3929 -0.1191
 2957SOL    HW120504   1.846   2.945  14.286  0.1391 -0.2455  0.5413
 2957SOL    HW220505   1.936   2.971  14.394  1.0890  1.5070 -0.1454
 2958SOL     OW20506   2.502   0.335   5.505 -0.0276  0.0580  0.0051
 2958SOL    HW120507   2.566   0.389   5.459 -1.2561  0.8061 -0.8158
 2958SOL    HW220508   2.430   0.397   5.510 -1.3319 -1.6773  2.6274
 2959SOL     OW20509   1.746   2.514   9.156  0.5172  0.0539  0.1166
 2959SOL    HW120510   1.672   2.463   9.124  0.0906  0.1674  0.9184
 2959SOL    HW220511   1.728   2.601   9.120  1.1130 -0.4362 -1.3814
 2960SOL     OW20512   2.991   1.265   6.470  0.1094  0.3860 -0.2479
 2960SOL    HW120513   3.025   1.212   6.399  2.2981  1.3741  0.0788
 2960SOL    HW220514   2.896   1.250   6.466  0.6112 -1.9732 -2.6348
 2961SOL     OW20515   3.915   4.388   1.851  0.1745 -0.1951 -0.0848
 2961SOL    HW120516   3.835   4.341   1.876  0.7622  0.0155  2.1168
 2961SOL    HW220517   3.877   4.476   1.850  0.9459  0.1324 -1.1916
 2962SOL     OW20518   4.287   2.671   6.684 -0.3181 -0.8682 -0.8340
 2962SOL    HW120519   4.211   2.630   6.725 -1.6224  1.0902 -1.2708
 2962SOL    HW220520   4.317   2.732   6.751 -1.5325 -0.0683 -1.0054
 2963SOL     OW20521   3.293   2.250   9.261 -0.6263  0.6054  0.0000
 2963SOL    HW120522   3.215   2.194   9.262 -0.3622  0.2010 -2.6947
 2963SOL    HW220523   3.345   2.192   9.316  0.5151  1.6508  0.0205
 2964SOL     OW20524   1.026   2.587  11.135  0.1764 -0.3472  0.1086
 2964SOL    HW120525   1.007   2.504  11.180 -1.3208  0.0626  0.2111
 2964SOL    HW220526   0.942   2.625  11.112 -0.2473  0.2131  2.6224
 2965SOL     OW20527   4.584   3.274   2.226  0.3801  0.0656  0.1838
 2965SOL    HW120528   4.653   3.236   2.173 -1.2640 -0.7659 -1.3627
 2965SOL    HW220529   4.631   3.326   2.291  1.0844  0.4727 -0.6594
 2966SOL     OW20530   3.832   3.633  17.326  0.0656  0.4988  0.4424
 2966SOL    HW120531   3.903   3.573  17.349 -0.4201 -0.2771 -0.0993
 2966SOL    HW220532   3.773   3.623  17.400  1.5150  0.6682  1.6148
 2967SOL     OW20533   1.708   0.721   2.521  0.1200  0.0317  0.2211
 2967SOL    HW120534   1.766   0.740   2.448  0.0628 -1.5619 -0.2343
 2967SOL    HW220535   1.742   0.781   2.587 -0.2460  0.3010  0.1661
 2968SOL     OW20536   3.404   2.959   3.798 -0.5277  0.2874  0.4087
 2968SOL    HW120537   3.335   2.913   3.750  0.2331 -1.6117  1.1171
 2968SOL    HW220538   3.357   2.982   3.878  1.0065 -0.8458  1.6442
 2969SOL     OW20539   3.538   3.654   5.329 -0.4277 -0.1409 -1.2229
 2969SOL    HW120540   3.596   3.629   5.401 -0.9617 -2.2869 -1.5353
 2969SOL    HW220541   3.520   3.745   5.349  1.8401 -0.1328  0.8414
 2970SOL     OW20542   4.349   2.461  11.924 -0.4152 -0.2389  0.3940
 2970SOL    HW120543   4.340   2.554  11.946 -2.0412  0.2957 -2.5734
 2970SOL    HW220544   4.320   2.426  12.009  0.2604 -1.0379  0.2956
 2971SOL     OW20545   0.243   1.260   0.312  0.0857  0.1957  0.5258
 2971SOL    HW120546   0.226   1.284   0.403 -0.0757  1.9034  0.0513
 2971SOL    HW220547   0.197   1.332   0.268 -0.3630  1.0126  2.3517
 2972SOL     OW20548   3.332   4.713   0.915 -0.3146 -0.1675 -0.3164
 2972SOL    HW120549   3.306   4.622   0.905  0.1233 -0.3361  0.0823
 2972SOL    HW220550   3.364   4.709   1.005  0.7983  1.6348 -0.6247
 2973SOL     OW20551   0.514   2.542  17.469 -0.2032 -0.0657 -0.5836
 2973SOL    HW120552   0.590   2.490  17.497 -0.6984 -0.9943 -0.9811
 2973SOL    HW220553   0.541   2.630  17.495  0.8715 -0.4102 -0.5404
 2974SOL     OW20554   4.373   3.389  14.044  0.3115  0.6191 -0.1291
 2974SOL    HW120555   4.293   3.338  14.039  1.8007 -1.4333 -2.6063
 2974SOL    HW220556   4.361   3.472  13.998  1.2327  0.9998  0.3227
 2975SOL     OW20557   0.387   4.576   4.404  0.2123  0.0820  0.0524
 2975SOL    HW120558   0.433   4.660   4.402 -0.4281  0.4317  0.1962
 2975SOL    HW220559   0.324   4.588   4.334 -0.8231  0.4974  1.0506
 2976SOL     OW20560   4.256   4.084   3.756 -0.5211 -0.1991 -0.3684
 2976SOL    HW120561   4.174   4.100   3.802 -1.4909  1.4273 -2.6770
 2976SOL    HW220562   4.319   4.109   3.824 -1.3077 -2.0617  1.0380
 2977SOL     OW20563   4.393   2.769  13.191 -0.3472  0.0733 -0.2090
 2977SOL    HW120564   4.349   2.831  13.133  0.1597  1.8770  1.3626
 2977SOL    HW220565   4.321   2.706  13.196  0.1512 -0.4949 -0.0725
 2978SOL     OW20566   4.512   2.455   7.281 -0.0373  0.3118  0.4772
 2978SOL    HW120567   4.604   2.461   7.310 -0.1543  2.3486  0.4016
 2978SOL    HW220568   4.471   2.495   7.358 -0.2789  1.1259 -0.0772
 2979SOL     OW20569   1.666   1.918   8.236 -0.4182 -0.3705 -0.0647
 2979SOL    HW120570   1.641   1.992   8.180 -2.6889  0.1533  1.6516
 2979SOL    HW220571   1.607   1.935   8.309 -1.0056  2.0702 -1.0979
 2980SOL     OW20572   3.103   2.211  16.122 -0.1553 -0.3597  0.5076
 2980SOL    HW120573   3.109   2.275  16.051  0.3670 -1.4539 -0.4428
 2980SOL    HW220574   3.165   2.242  16.188  0.4517 -1.4380  0.4395
 2981SOL     OW20575   2.991   2.053   1.814 -0.4397 -0.4490 -0.0838
 2981SOL    HW120576   3.085   2.063   1.802 -0.5337 -0.6776 -1.0029
 2981SOL    HW220577   2.960   2.086   1.730  0.7674 -0.6534 -0.6027
 2982SOL     OW20578   0.071   1.547   9.467 -0.0709  0.0583 -1.0161
 2982SOL    HW120579   0.163   1.523   9.482  0.1449  2.0954  0.8916
 2982SOL    HW220580   0.049   1.473   9.410  0.2722 -0.8676  0.0333
 2983SOL     OW20581   1.774   0.277   7.428 -0.2877 -0.0082 -0.3751
 2983SOL    HW120582   1.795   0.358   7.474 -2.6227  1.0422 -1.1847
 2983SOL    HW220583   1.833   0.210   7.464  0.6072 -0.1136 -2.0165
 2984SOL     OW20584   0.186   1.744   6.349  0.0625 -0.4652  0.2072
 2984SOL    HW120585   0.225   1.830   6.364 -1.8941  0.6001 -0.8981
 2984SOL    HW220586   0.127   1.761   6.276  1.9729  3.0628 -0.5188
 2985SOL     OW20587   3.923   2.306   3.055  0.1501 -0.3314 -0.3014
 2985SOL    HW120588   3.900   2.232   3.112  1.4671 -0.0171  0.6605
 2985SOL    HW220589   4.006   2.268   3.027  1.0592  0.2250  1.6121
 2986SOL     OW20590   3.360   0.668   8.318  0.3283 -0.6679 -0.5376
 2986SOL    HW120591   3.435   0.725   8.333 -0.6040  0.0094  1.4299
 2986SOL    HW220592   3.413   0.588   8.315 -0.8502 -1.4327 -1.0655
 2987SOL     OW20593   4.058   4.082   6.715  0.4251  0.2191 -0.4796
 2987SOL    HW120594   4.004   4.021   6.664 -0.0829 -1.2386  1.7866
 2987SOL    HW220595   4.135   4.026   6.715  0.2124 -0.0808  0.5368
 2988SOL     OW20596   3.693   0.926   6.776  0.3175  0.2101 -0.8081
 2988SOL    HW120597   3.600   0.950   6.779 -0.1074 -1.7729  1.4861
 2988SOL    HW220598   3.719   0.933   6.684  1.1859  1.8860 -0.4351
 2989SOL     OW20599   0.846   0.247  17.180 -0.1058  0.1753  0.4535
 2989SOL    HW120600   0.772   0.304  17.201  0.1595  0.1188  1.5262
 2989SOL    HW220601   0.806   0.163  17.156  1.8082 -0.6366  0.0647
 2990SOL     OW20602   4.028   4.266   4.224 -0.1676 -0.1215  0.6463
 2990SOL    HW120603   4.047   4.211   4.300 -0.6560 -2.8445 -1.1917
 2990SOL    HW220604   3.934   4.286   4.227 -0.1613  0.0470 -0.5152
 2991SOL     OW20605   1.494   0.297   5.627  0.0012 -0.4320  0.5751
 2991SOL    HW120606   1.519   0.230   5.691 -0.3007 -0.1796  0.9585
 2991SOL    HW220607   1.579   0.327   5.596 -0.1453  0.3095  0.8962
 2992SOL     OW20608   3.126   0.519   8.643 -1.1970 -0.7757  0.2387
 2992SOL    HW120609   3.207   0.556   8.608 -0.9438 -0.8042  0.8021
 2992SOL    HW220610   3.121   0.439   8.589  2.8746  0.0735 -1.4068
 2993SOL     OW20611   3.140   2.705   4.325 -0.2709  0.3133 -0.2031
 2993SOL    HW120612   3.228   2.742   4.317 -0.1400  0.2704  1.0595
 2993SOL    HW220613   3.147   2.626   4.378  1.1552 -0.6634 -1.8792
 2994SOL     OW20614   4.309   4.224   3.250  0.2329  0.8224 -0.7473
 2994SOL    HW120615   4.266   4.254   3.329 -1.3091  2.9095 -2.3766
 2994SOL    HW220616   4.338   4.138   3.280 -0.6737  0.7165 -0.1925
 2995SOL     OW20617   1.753   1.986   9.029  0.1247 -0.7721  0.1523
 2995SOL    HW120618   1.735   2.080   9.018  1.0579 -0.6775 -0.5234
 2995SOL    HW220619   1.843   1.973   9.001 -0.5420 -3.5775 -0.6295
 2996SOL     OW20620   0.800   2.217   7.348  0.2067 -0.3799  0.0365
 2996SOL    HW120621   0.726   2.262   7.307  0.9458 -1.2172 -2.2130
 2996SOL    HW220622   0.802   2.131   7.306  1.3362 -1.0575  1.5022
 2997SOL     OW20623   1.959   0.881   4.390  0.3840  0.0795 -0.3365
 2997SOL    HW120624   2.041   0.879   4.440 -0.5328 -0.7696  1.1226
 2997SOL    HW220625   1.965   0.803   4.334 -1.2688 -0.2793 -0.0171
 2998SOL     OW20626   1.787   0.843   6.639  0.3375  0.0147  0.4072
 2998SOL    HW120627   1.776   0.869   6.731  0.5050  0.3121  0.3401
 2998SOL    HW220628   1.836   0.761   6.635  1.0355  0.4385  0.3266
 2999SOL     OW20629   1.118   4.444   4.022  0.2917 -0.0726 -0.1060
 2999SOL    HW120630   1.163   4.413   4.101 -0.4421 -0.5996  0.1016
 2999SOL    HW220631   1.073   4.366   3.991  1.4453 -0.2080 -1.4118
 3000SOL     OW20632   0.020   2.978   4.833 -0.3547 -0.0322  0.0136
 3000SOL    HW120633   0.090   3.042   4.851  2.0312 -2.2577 -1.2961
 3000SOL    HW220634   0.007   2.954   4.924  1.6517 -0.5144  0.1860
 3001SOL     OW20635   3.638   0.169   6.733  0.2520 -0.3479 -0.0952
 3001SOL    HW120636   3.649   0.226   6.808 -0.9492  0.2769 -0.4057
 3001SOL    HW220637   3.691   0.091   6.753  2.0893  0.9723  0.1702
 3002SOL     OW20638   0.946   2.953   8.744  0.1668 -0.0939 -0.2063
 3002SOL    HW120639   0.860   2.947   8.785 -0.0867  1.3921 -0.4896
 3002SOL    HW220640   1.010   2.961   8.814 -1.2371  1.6124  0.8862
 3003SOL     OW20641   0.959   0.980  17.425 -0.0287  0.4438 -0.3479
 3003SOL    HW120642   0.987   0.966  17.335 -1.3003 -3.3107 -0.1472
 3003SOL    HW220643   0.996   0.898  17.458  1.4616  1.3684  0.3107
 3004SOL     OW20644   0.063   3.100   9.431  0.1837 -1.0605  0.0522
 3004SOL    HW120645   0.089   3.013   9.461 -1.4634 -1.6823 -0.2964
 3004SOL    HW220646   0.077   3.104   9.337 -0.2669  3.2194  0.1455
 3005SOL     OW20647   3.632   3.502   5.110 -0.1455  0.6141 -0.1178
 3005SOL    HW120648   3.586   3.522   5.192 -1.6875  1.9874 -1.3152
 3005SOL    HW220649   3.570   3.448   5.061  0.1578  0.7297 -0.6252
 3006SOL     OW20650   1.836   1.974   7.829 -0.0194 -0.0489 -0.2360
 3006SOL    HW120651   1.905   1.930   7.878 -0.8509 -1.6848 -0.5187
 3006SOL    HW220652   1.848   2.055   7.878  0.3666  0.3900 -1.0603
 3007SOL     OW20653   2.927   2.763   7.043 -0.2035 -0.6652 -0.0724
 3007SOL    HW120654   2.841   2.733   7.074 -1.0215  1.5145 -0.2108
 3007SOL    HW220655   2.992   2.767   7.113 -2.0536 -3.0562  1.8219
 3008SOL     OW20656   2.846   2.274   4.121  0.4358 -0.6424 -0.4898
 3008SOL    HW120657   2.880   2.203   4.176 -4.1983 -2.0278  0.6350
 3008SOL    HW220658   2.915   2.333   4.149 -0.4187  0.0987  0.0422
 3009SOL     OW20659   3.853   1.037   1.146 -0.5636  0.4639  0.9479
 3009SOL    HW120660   3.875   0.988   1.225 -0.4170  0.8834  1.1718
 3009SOL    HW220661   3.763   1.011   1.130 -0.2220  0.7382 -1.5365
 3010SOL     OW20662   3.271   0.321  13.590 -0.2525 -0.1161 -0.4453
 3010SOL    HW120663   3.319   0.332  13.507  1.6607  0.3956  0.7324
 3010SOL    HW220664   3.254   0.407  13.629 -2.1371 -0.9852  0.6569
 3011SOL     OW20665   0.998   3.755   9.622  0.0464  0.7150  0.0528
 3011SOL    HW120666   1.022   3.776   9.712 -0.9516 -0.6393  0.6556
 3011SOL    HW220667   0.929   3.688   9.629 -0.0324  0.7876 -0.0506
 3012SOL     OW20668   1.274   4.701   2.745  0.5033  0.5505  0.1957
 3012SOL    HW120669   1.280   4.737   2.834  0.6526  1.4973 -0.2000
 3012SOL    HW220670   1.309   4.614   2.764 -0.6914 -0.1431 -0.7440
 3013SOL     OW20671   3.395   1.838   9.545  0.1686  0.3130  0.0601
 3013SOL    HW120672   3.412   1.881   9.461 -0.2596  0.8143  0.2319
 3013SOL    HW220673   3.465   1.773   9.546 -2.0184 -2.0535 -1.2224
 3014SOL     OW20674   3.934   2.683   6.568  0.4901  1.5239 -0.0035
 3014SOL    HW120675   3.989   2.741   6.515  1.2175  0.8361  0.0039
 3014SOL    HW220676   4.005   2.634   6.610  1.2675  0.9878 -1.9821
 3015SOL     OW20677   2.498   1.306  13.834  0.2771  0.4676  0.3693
 3015SOL    HW120678   2.426   1.248  13.809  0.8239 -0.4141  0.8206
 3015SOL    HW220679   2.466   1.394  13.814 -1.1079  0.3489  2.0408
 3016SOL     OW20680   0.979   4.579  15.819  0.3393 -0.3220  0.4131
 3016SOL    HW120681   1.007   4.611  15.904  1.3949  0.3498 -0.1772
 3016SOL    HW220682   0.961   4.491  15.849 -0.1962 -0.2273  0.3753
 3017SOL     OW20683   0.661   1.319   0.424 -0.3059 -0.2257  0.4667
 3017SOL    HW120684   0.611   1.296   0.346  1.4980 -0.8140 -0.5192
 3017SOL    HW220685   0.705   1.398   0.392 -1.7153  0.4803  0.2666
 3018SOL     OW20686   1.035   4.054   2.730  0.5047 -0.0681  0.2280
 3018SOL    HW120687   0.996   3.976   2.770  0.4531  1.0378  2.2756
 3018SOL    HW220688   1.000   4.055   2.641 -0.8921  1.0087  0.7957
 3019SOL     OW20689   1.516   2.479   9.898  0.1769 -0.4869 -0.1895
 3019SOL    HW120690   1.549   2.562   9.933  0.7331 -1.0082  0.5362
 3019SOL    HW220691   1.430   2.503   9.865  0.2181  0.9725  0.7741
 3020SOL     OW20692   1.491   2.142  16.478  0.3599 -1.0530 -0.1156
 3020SOL    HW120693   1.415   2.141  16.419  0.2057 -0.0313  0.0765
 3020SOL    HW220694   1.450   2.078  16.537  1.1723  0.3222  1.9393
 3021SOL     OW20695   0.322   4.738  17.535  0.2338  0.3776  0.6306
 3021SOL    HW120696   0.297   4.661  17.585  1.7683 -0.3964  0.1907
 3021SOL    HW220697   0.412   4.707  17.539 -0.3095 -1.2303  0.3525
 3022SOL     OW20698   0.731   2.377   7.059 -0.3970 -0.0851 -0.0812
 3022SOL    HW120699   0.761   2.290   7.035  0.1050 -0.2620  1.1801
 3022SOL    HW220700   0.778   2.434   6.999  2.8907 -2.8057 -0.0399
 3023SOL     OW20701   0.527   3.202  16.264 -0.3406 -0.6427 -0.0897
 3023SOL    HW120702   0.469   3.127  16.277 -0.5421 -0.4577  0.1036
 3023SOL    HW220703   0.461   3.267  16.241  0.1109  0.2334  1.0814
 3024SOL     OW20704   4.198   0.254   8.323  0.3444  0.5629 -0.1694
 3024SOL    HW120705   4.274   0.278   8.270 -1.2839 -0.0200 -2.8032
 3024SOL    HW220706   4.211   0.162   8.342 -1.1068 -0.1251 -2.4871
 3025SOL     OW20707   2.161   3.575   6.899 -0.3033 -0.2081 -0.5520
 3025SOL    HW120708   2.084   3.624   6.929 -0.5528 -0.4326 -0.8235
 3025SOL    HW220709   2.122   3.488   6.908 -1.7999  0.7865  2.3958
 3026SOL     OW20710   1.157   1.817  14.092 -0.4389  0.3153 -0.3009
 3026SOL    HW120711   1.098   1.892  14.080 -0.4899  0.1697 -0.9597
 3026SOL    HW220712   1.178   1.786  14.004  0.0081  0.1462 -0.1289
 3027SOL     OW20713   0.735   1.349   3.279  0.1132  0.1620  0.3774
 3027SOL    HW120714   0.646   1.373   3.252 -0.0052  0.9490  1.4705
 3027SOL    HW220715   0.755   1.433   3.321 -0.0541  1.1396 -1.4453
 3028SOL     OW20716   2.800   3.089   3.305  0.2582 -0.4481  0.1212
 3028SOL    HW120717   2.736   3.021   3.286  0.1773 -0.4942  0.5771
 3028SOL    HW220718   2.847   3.091   3.221 -1.4013 -1.1379 -0.8222
 3029SOL     OW20719   0.254   1.255  10.012 -0.4397  0.2999  0.4371
 3029SOL    HW120720   0.177   1.310   9.994  0.7990  1.2300 -1.9495
 3029SOL    HW220721   0.232   1.232  10.103 -0.1322  2.0708  0.9562
 3030SOL     OW20722   1.752   2.174  16.251  0.0996  0.3898 -0.0335
 3030SOL    HW120723   1.663   2.173  16.215  0.9704  1.7931 -2.2570
 3030SOL    HW220724   1.780   2.262  16.225  0.5078  0.2861  0.0555
 3031SOL     OW20725   3.600   0.368   6.921 -0.2881  0.2102 -0.0619
 3031SOL    HW120726   3.619   0.457   6.893 -1.1497  0.2926 -0.3847
 3031SOL    HW220727   3.603   0.381   7.016 -0.0453 -2.1890  0.2721
 3032SOL     OW20728   4.302   3.391  10.759  0.1080  0.0760 -0.1310
 3032SOL    HW120729   4.395   3.407  10.778  0.9300 -2.7118 -1.7264
 3032SOL    HW220730   4.255   3.456  10.811  0.9172 -0.0709  0.7894
 3033SOL     OW20731   1.926   4.381   9.189 -0.0449  0.8977  0.6999
 3033SOL    HW120732   1.966   4.373   9.276 -0.6520  1.4018  1.0273
 3033SOL    HW220733   1.833   4.369   9.210 -0.8762  0.9199 -2.8913
 3034SOL     OW20734   2.210   4.597   5.802 -0.3457 -0.7090  0.5333
 3034SOL    HW120735   2.174   4.527   5.857  1.2851 -1.8380  0.1582
 3034SOL    HW220736   2.278   4.637   5.857 -2.6896  1.2626  2.0233
 3035SOL     OW20737   2.258   0.788   4.369 -0.2667 -0.2880 -0.0500
 3035SOL    HW120738   2.322   0.850   4.403 -0.6441 -0.0812  0.2839
 3035SOL    HW220739   2.306   0.729   4.312  0.7632  1.2531 -0.7925
 3036SOL     OW20740   2.446   3.187   5.621 -0.1016  0.2680 -0.0782
 3036SOL    HW120741   2.404   3.260   5.666 -0.6218 -0.8005  1.1793
 3036SOL    HW220742   2.514   3.179   5.688  0.2403  2.1881 -0.2093
 3037SOL     OW20743   0.158   1.181  13.230  0.2415 -0.1741  0.0884
 3037SOL    HW120744   0.188   1.101  13.186 -1.3447 -0.3278 -0.7251
 3037SOL    HW220745   0.067   1.179  13.200  1.0679  0.1075 -2.4813
 3038SOL     OW20746   0.024   1.473   3.123  0.3379  0.0146  0.5881
 3038SOL    HW120747   0.086   1.459   3.194  1.3275 -0.2778 -0.3434
 3038SOL    HW220748   0.003   1.565   3.140  0.6815  0.1139  0.4719
 3039SOL     OW20749   2.484   2.894   6.560 -0.2120  0.1076 -0.2604
 3039SOL    HW120750   2.492   2.799   6.556  1.2918  0.1954  0.3321
 3039SOL    HW220751   2.553   2.921   6.621  0.5002 -1.5179 -0.3613
 3040SOL     OW20752   4.341   1.968  16.844 -0.0923 -0.0660  0.2791
 3040SOL    HW120753   4.408   1.992  16.907  1.5255 -0.4565 -1.3060
 3040SOL    HW220754   4.384   1.957  16.760 -1.5104  0.2791 -0.4992
 3041SOL     OW20755   2.555   2.512   8.526 -0.4534  0.3743 -0.5706
 3041SOL    HW120756   2.479   2.564   8.555 -2.6006 -2.7740 -0.5919
 3041SOL    HW220757   2.628   2.574   8.529  0.2624 -0.5852  1.6581
 3042SOL     OW20758   0.702   0.166   5.081 -0.3124  0.1903 -0.3621
 3042SOL    HW120759   0.755   0.108   5.025  0.9698 -0.7791  1.8627
 3042SOL    HW220760   0.615   0.158   5.042  0.0755 -2.6126 -0.6446
 3043SOL     OW20761   3.813   2.338   6.640  0.0601 -0.4697  0.0388
 3043SOL    HW120762   3.899   2.369   6.610  0.5070 -0.6303  1.1574
 3043SOL    HW220763   3.798   2.269   6.575 -2.5913  0.3669 -0.2262
 3044SOL     OW20764   4.447   0.728  16.748 -0.4126 -0.2157 -0.0903
 3044SOL    HW120765   4.494   0.760  16.671 -1.4363 -1.3751 -1.1961
 3044SOL    HW220766   4.511   0.732  16.820  0.8094 -1.2048 -1.1156
 3045SOL     OW20767   0.564   0.210  11.499  0.4275  0.6061 -0.0111
 3045SOL    HW120768   0.601   0.234  11.414 -0.2894  0.7495 -0.2820
 3045SOL    HW220769   0.471   0.218  11.477  0.2427 -0.3470  0.4120
 3046SOL     OW20770   0.689   1.935  16.814  0.5900 -0.0922  0.2411
 3046SOL    HW120771   0.767   1.880  16.819 -0.9409 -2.2782  0.4357
 3046SOL    HW220772   0.634   1.868  16.855  4.3737 -2.1374  2.0070
 3047SOL     OW20773   3.833   4.558  16.779  0.6990  0.2541 -0.3302
 3047SOL    HW120774   3.877   4.474  16.763  0.2821 -0.3025  1.4322
 3047SOL    HW220775   3.887   4.585  16.853  0.3129  0.6017 -0.1787
 3048SOL     OW20776   3.533   2.832   7.821 -0.3287  0.3539  0.3148
 3048SOL    HW120777   3.613   2.844   7.872 -0.7797 -0.0254  1.1092
 3048SOL    HW220778   3.540   2.737   7.813 -1.5510  0.4303 -1.6057
 3049SOL     OW20779   4.498   0.570   3.824 -0.0551  0.6534 -0.0075
 3049SOL    HW120780   4.412   0.552   3.786  1.0722 -1.9526 -1.3009
 3049SOL    HW220781   4.501   0.505   3.894  3.4603  0.0669 -0.7111
 3050SOL     OW20782   0.637   3.771   7.871  0.3538  0.1919 -0.8094
 3050SOL    HW120783   0.623   3.835   7.941  1.2594  0.5978 -0.9889
 3050SOL    HW220784   0.676   3.826   7.804 -1.5575 -0.2024 -2.2125
 3051SOL     OW20785   0.076   1.436   4.671  0.2453 -0.4579  0.2356
 3051SOL    HW120786   0.031   1.520   4.673 -0.1268 -0.6652  0.9160
 3051SOL    HW220787   0.167   1.453   4.649 -0.0001  1.3135  0.5708
 3052SOL     OW20788   0.723   1.566   8.179  0.1314 -0.1429  0.1893
 3052SOL    HW120789   0.669   1.603   8.249  1.3629 -0.8889  1.5547
 3052SOL    HW220790   0.656   1.521   8.128  1.7739 -0.3645 -1.7533
 3053SOL     OW20791   2.091   0.322   6.162 -0.1760 -0.1125  0.2259
 3053SOL    HW120792   2.158   0.384   6.135  1.9790 -2.2593  0.5928
 3053SOL    HW220793   2.009   0.368   6.147  0.7295  0.4996 -2.8370
 3054SOL     OW20794   3.256   0.503   1.472  0.0340  0.2462  0.2380
 3054SOL    HW120795   3.172   0.539   1.499  0.0925  0.2906  0.3604
 3054SOL    HW220796   3.300   0.520   1.555 -0.9187 -1.1875  1.0509
 3055SOL     OW20797   0.885   2.214  16.232  0.4930  0.0910 -0.2309
 3055SOL    HW120798   0.839   2.148  16.182  1.2331 -0.3490 -0.3313
 3055SOL    HW220799   0.817   2.281  16.239 -1.9785 -2.4324 -0.2921
 3056SOL     OW20800   1.256   2.410  15.026 -0.6909 -0.0569  0.0381
 3056SOL    HW120801   1.290   2.480  15.082  0.2283 -0.3229 -0.1846
 3056SOL    HW220802   1.207   2.368  15.096  1.5200 -0.0299  1.6052
 3057SOL     OW20803   4.110   1.056  11.584 -0.0702 -0.5894  0.2954
 3057SOL    HW120804   4.085   1.145  11.559  0.5156 -0.5680 -0.2298
 3057SOL    HW220805   4.182   1.032  11.525  0.7539  1.6278  0.4237
 3058SOL     OW20806   1.947   2.620   1.843 -0.2577 -0.0915 -0.0011
 3058SOL    HW120807   1.902   2.644   1.924 -1.0470  0.3167 -0.5589
 3058SOL    HW220808   2.015   2.686   1.829 -2.4671  1.2181 -4.6592
 3059SOL     OW20809   3.698   4.479   5.446 -0.1472  0.0750  0.2644
 3059SOL    HW120810   3.669   4.390   5.430  0.0626  0.4435 -2.1694
 3059SOL    HW220811   3.710   4.471   5.540 -1.1286 -1.2940  0.2670
 3060SOL     OW20812   0.615   4.718  13.923  0.4193  0.4189  0.1010
 3060SOL    HW120813   0.659   4.634  13.920  1.7118  1.0781  0.6773
 3060SOL    HW220814   0.565   4.712  13.842 -1.7997  0.1111  1.4862
 3061SOL     OW20815   4.709   0.939   4.653 -0.1453  0.2557 -0.4720
 3061SOL    HW120816   4.713   0.954   4.747  1.5225  1.0555 -0.6587
 3061SOL    HW220817   4.623   0.898   4.653  0.8285 -1.8195 -1.0312
 3062SOL     OW20818   4.651   1.401   7.924  0.3065  0.1902 -0.0834
 3062SOL    HW120819   4.576   1.361   7.881 -2.0721  3.9838  0.5536
 3062SOL    HW220820   4.696   1.446   7.853 -1.5580  0.3091 -1.1630
 3063SOL     OW20821   3.039   0.726   7.845 -0.4190 -0.3328  0.3440
 3063SOL    HW120822   3.079   0.713   7.759  2.0765 -0.4665  1.5380
 3063SOL    HW220823   3.109   0.704   7.906 -1.1433  1.5707  1.8739
 3064SOL     OW20824   0.662   1.638   7.370  0.0643 -0.0802 -0.7116
 3064SOL    HW120825   0.665   1.733   7.380  2.6335 -0.3620  1.2289
 3064SOL    HW220826   0.729   1.630   7.301  0.4697  1.6576 -0.5189
 3065SOL     OW20827   1.187   1.101   8.851  0.1971  0.0552  0.2725
 3065SOL    HW120828   1.152   1.120   8.764 -1.7089  0.8486  1.2108
 3065SOL    HW220829   1.174   1.179   8.905 -1.9850  1.1552 -1.8464
 3066SOL     OW20830   0.469   2.997   4.843  0.4028 -0.1191 -0.0803
 3066SOL    HW120831   0.452   3.091   4.835 -0.2236  0.0627  3.4863
 3066SOL    HW220832   0.544   3.000   4.903  2.1144 -2.4766 -2.1230
 3067SOL     OW20833   4.381   2.581   9.030  0.0020 -0.3041  0.3879
 3067SOL    HW120834   4.307   2.533   9.068 -0.7100 -0.2758 -0.9396
 3067SOL    HW220835   4.347   2.670   9.034 -3.1759 -1.4932  0.1602
 3068SOL     OW20836   2.816   0.578  11.660 -0.1185 -0.1771 -0.2105
 3068SOL    HW120837   2.793   0.629  11.582  0.1161  0.7362  0.3188
 3068SOL    HW220838   2.897   0.537  11.629 -0.5947  0.7347 -2.7094
 3069SOL     OW20839   1.283   4.203   3.133 -0.3919 -0.6124  0.6048
 3069SOL    HW120840   1.318   4.114   3.118  0.9661  0.1060 -0.5141
 3069SOL    HW220841   1.281   4.200   3.229 -0.0518 -1.6812  0.5784
 3070SOL     OW20842   1.907   0.099   1.984 -0.4792  0.0978  0.4122
 3070SOL    HW120843   1.989   0.058   2.014  0.3188  0.4699 -1.2723
 3070SOL    HW220844   1.861   0.030   1.938  0.3451 -1.3233  1.7149
 3071SOL     OW20845   4.475   1.122   6.380 -0.4287  0.5859 -0.5579
 3071SOL    HW120846   4.500   1.193   6.440  0.5546  1.4851 -2.0311
 3071SOL    HW220847   4.483   1.053   6.446 -1.3726  0.6674 -0.3552
 3072SOL     OW20848   2.019   1.287  16.638 -0.2631  0.2686  0.0503
 3072SOL    HW120849   1.996   1.375  16.608 -0.0681 -0.0741 -1.0938
 3072SOL    HW220850   1.956   1.229  16.595  0.0142 -0.1507  0.2037
 3073SOL     OW20851   1.258   2.586   8.912  0.2682 -0.1382 -0.1876
 3073SOL    HW120852   1.210   2.544   8.984 -0.1607 -0.1899 -0.5035
 3073SOL    HW220853   1.225   2.545   8.832 -1.1314  2.2623 -0.8290
 3074SOL     OW20854   3.342   3.400   6.386  0.3681 -0.4635  0.2129
 3074SOL    HW120855   3.349   3.490   6.418 -0.2613  0.1602 -1.4389
 3074SOL    HW220856   3.430   3.370   6.410 -0.1871 -1.4482  1.0370
 3075SOL     OW20857   2.387   4.368   1.151  0.2724 -0.1472  0.0471
 3075SOL    HW120858   2.470   4.413   1.135  0.8462 -1.6041 -0.9835
 3075SOL    HW220859   2.401   4.343   1.243 -0.9932  0.4070  0.3953
 3076SOL     OW20860   4.086   3.685   2.442  0.2149  0.1134  0.0866
 3076SOL    HW120861   4.018   3.673   2.376 -0.1763 -1.1287  0.7186
 3076SOL    HW220862   4.048   3.678   2.530  1.9673 -0.1968  0.8138
 3077SOL     OW20863   4.276   1.455   3.674 -0.2788  0.2133  0.5526
 3077SOL    HW120864   4.368   1.478   3.665 -0.3020  0.6668  1.4539
 3077SOL    HW220865   4.273   1.494   3.762  0.7496 -1.6744  1.4079
 3078SOL     OW20866   2.358   0.651   5.191  0.2054  0.0825 -0.7886
 3078SOL    HW120867   2.408   0.725   5.226 -0.9128 -0.5456  2.1291
 3078SOL    HW220868   2.278   0.660   5.244 -0.8996  0.6048 -2.5678
 3079SOL     OW20869   4.558   1.957   7.568  0.2809  0.0225  0.0851
 3079SOL    HW120870   4.535   1.962   7.660  0.4774  0.3362  0.1174
 3079SOL    HW220871   4.479   1.997   7.529  0.8950  2.0622  0.9471
 3080SOL     OW20872   2.730   3.849   2.678 -0.1784 -0.3860  0.0410
 3080SOL    HW120873   2.817   3.808   2.675  0.3676  0.9659 -2.4141
 3080SOL    HW220874   2.687   3.794   2.613 -2.4456  1.5004 -0.0356
 3081SOL     OW20875   1.289   2.957  11.044  0.0215  0.0282 -0.1786
 3081SOL    HW120876   1.340   3.031  11.077 -2.4061  1.5223  0.2779
 3081SOL    HW220877   1.300   2.981  10.952 -0.8943  0.1669 -0.2579
 3082SOL     OW20878   4.565   0.606   6.840  0.2809  0.0386 -0.6813
 3082SOL    HW120879   4.561   0.531   6.899 -0.2831  0.2558 -0.4473
 3082SOL    HW220880   4.620   0.576   6.768  2.5287 -0.8355  1.3999
 3083SOL     OW20881   1.531   0.128   8.908  0.4364  0.5513  0.6703
 3083SOL    HW120882   1.526   0.057   8.844 -0.2889  0.3052  0.9959
 3083SOL    HW220883   1.485   0.197   8.861  0.2742 -0.2765 -0.3702
 3084SOL     OW20884   1.218   1.283   3.519 -0.1579 -0.3056  0.0099
 3084SOL    HW120885   1.168   1.204   3.538  1.4916 -1.0504  1.1366
 3084SOL    HW220886   1.243   1.269   3.427 -0.3510 -3.9273  0.5294
 3085SOL     OW20887   0.069   3.001   3.587 -0.2879  0.1738 -0.2847
 3085SOL    HW120888   0.129   3.073   3.571  0.2010  0.1989  1.6795
 3085SOL    HW220889   0.111   2.958   3.661 -0.7982 -2.8762 -1.7365
 3086SOL     OW20890   3.740   4.562   1.989  0.3151  0.3933  0.2108
 3086SOL    HW120891   3.721   4.543   2.080 -0.7806  3.2034  0.5913
 3086SOL    HW220892   3.657   4.553   1.942  0.5813 -0.1801 -0.1442
 3087SOL     OW20893   2.672   3.607  13.783  0.3605  0.2563  0.2589
 3087SOL    HW120894   2.710   3.552  13.852 -1.3006 -3.1328 -1.4714
 3087SOL    HW220895   2.580   3.600  13.810  0.3381 -0.2464  0.0567
 3088SOL     OW20896   1.806   0.972   0.773  0.0794 -0.2641  0.5677
 3088SOL    HW120897   1.900   0.974   0.755 -0.2253  1.1661 -0.7934
 3088SOL    HW220898   1.799   0.897   0.832  1.9031 -1.4810 -0.7265
 3089SOL     OW20899   2.663   2.831   2.979  0.4093 -0.1330  0.3004
 3089SOL    HW120900   2.591   2.785   2.937 -0.3544 -0.3383  1.8446
 3089SOL    HW220901   2.706   2.769   3.037  0.5765  0.2574  0.5915
 3090SOL     OW20902   0.694   3.948   3.048  0.6234  0.2496 -0.1024
 3090SOL    HW120903   0.672   3.992   2.965  0.2505 -0.0920 -0.1866
 3090SOL    HW220904   0.785   3.970   3.064  0.0892  2.2056  0.1967
 3091SOL     OW20905   2.721   1.451   7.165 -0.3889 -0.2375 -0.1109
 3091SOL    HW120906   2.722   1.486   7.076 -1.4879 -2.7446 -1.1298
 3091SOL    HW220907   2.627   1.445   7.183 -0.3809  2.6983  0.8861
 3092SOL     OW20908   2.325   3.120   8.857 -0.2679  0.1216  0.0381
 3092SOL    HW120909   2.374   3.052   8.810  1.2734  1.3383 -0.1049
 3092SOL    HW220910   2.349   3.199   8.809  2.0481 -0.3491  0.4420
 3093SOL     OW20911   3.295   1.363   3.801  0.1527 -0.6655  0.1514
 3093SOL    HW120912   3.309   1.440   3.855 -0.4694  0.4512 -1.2808
 3093SOL    HW220913   3.199   1.359   3.811 -0.0019  0.8002 -0.8392
 3094SOL     OW20914   2.900   3.913  11.103 -0.5720  0.4468  0.4885
 3094SOL    HW120915   2.954   3.908  11.182  2.5685 -1.3615 -1.7473
 3094SOL    HW220916   2.854   3.829  11.109  1.3629 -0.6462 -0.0446
 3095SOL     OW20917   4.621   3.988   1.450  0.2062  0.0157 -0.5150
 3095SOL    HW120918   4.664   4.070   1.426  2.9376 -1.4749 -0.7604
 3095SOL    HW220919   4.583   4.020   1.532  0.7426 -0.5751 -0.0403
 3096SOL     OW20920   0.047   1.135   5.760  0.3467  0.4489 -0.1859
 3096SOL    HW120921   0.078   1.140   5.669  3.6275  2.3424  0.9978
 3096SOL    HW220922   0.009   1.048   5.754 -0.6178  1.0811 -3.2223
 3097SOL     OW20923   2.864   3.565   7.988  0.1598 -0.0478 -1.0877
 3097SOL    HW120924   2.800   3.520   7.932 -0.4518  1.3249 -1.4740
 3097SOL    HW220925   2.945   3.519   7.966  0.5977 -0.1198  0.6432
 3098SOL     OW20926   0.199   0.877   7.250 -0.3903 -0.2022 -0.1155
 3098SOL    HW120927   0.106   0.855   7.243 -0.3991  0.5164 -2.1233
 3098SOL    HW220928   0.190   0.972   7.252 -3.1727 -0.5133  2.0629
 3099SOL     OW20929   3.931   0.758   4.480 -0.1686  0.1774 -0.1606
 3099SOL    HW120930   3.868   0.688   4.500 -0.2490 -0.3654 -2.2739
 3099SOL    HW220931   3.891   0.833   4.524  2.0494  0.8684  0.6890
 3100SOL     OW20932   0.106   0.711   6.460  0.3809  0.0255 -0.1638
 3100SOL    HW120933   0.082   0.803   6.449 -0.8205 -0.3454 -0.7030
 3100SOL    HW220934   0.200   0.722   6.469 -0.1515  2.9595  1.6352
 3101SOL     OW20935   1.392   0.492   2.309  0.0345  0.1780 -0.0817
 3101SOL    HW120936   1.470   0.525   2.265  1.2631  0.4991  2.3344
 3101SOL    HW220937   1.321   0.547   2.276  0.3444  0.4200 -0.3478
 3102SOL     OW20938   4.083   1.350   7.300 -0.0359 -0.5529 -0.4585
 3102SOL    HW120939   3.997   1.384   7.324  1.2537  4.0014 -2.4533
 3102SOL    HW220940   4.134   1.430   7.305 -0.6668 -0.3021  1.9753
 3103SOL     OW20941   0.710   2.827   4.702  0.0414 -0.0567 -0.1685
 3103SOL    HW120942   0.717   2.910   4.748  0.6847 -0.2713  0.1217
 3103SOL    HW220943   0.801   2.806   4.680  0.0665 -2.1555  2.0580
 3104SOL     OW20944   4.616   1.987   7.860  0.1211  0.0379  0.0528
 3104SOL    HW120945   4.597   1.948   7.945 -0.3453  1.0522  0.4221
 3104SOL    HW220946   4.689   1.935   7.827 -0.5119 -0.0766 -1.1929
 3105SOL     OW20947   3.593   2.053   8.348 -0.0209 -0.5924  0.0115
 3105SOL    HW120948   3.672   2.020   8.305 -1.5881 -0.3603 -3.0210
 3105SOL    HW220949   3.626   2.061   8.438 -0.1390  1.2988 -0.1110
 3106SOL     OW20950   0.952   1.401   5.128  0.5084 -0.1865 -0.4931
 3106SOL    HW120951   0.993   1.437   5.050  3.9722  0.8149  1.7877
 3106SOL    HW220952   0.945   1.308   5.106  0.9802 -0.0984 -1.0058
 3107SOL     OW20953   3.026   1.821   0.651  0.2418 -0.5091  0.8639
 3107SOL    HW120954   3.059   1.893   0.705  0.1973 -0.7117  1.1602
 3107SOL    HW220955   3.106   1.815   0.598  1.0244  0.2490  1.9526
 3108SOL     OW20956   4.135   0.271  14.232  0.4564  0.3160 -0.2443
 3108SOL    HW120957   4.169   0.322  14.160  0.6300  2.3398  1.2806
 3108SOL    HW220958   4.147   0.334  14.303 -1.4344  0.3150  0.0904
 3109SOL     OW20959   3.084   0.607  11.425  0.2790  0.5686  0.2414
 3109SOL    HW120960   3.038   0.681  11.464 -0.2680  1.6751 -2.4644
 3109SOL    HW220961   3.148   0.646  11.366  0.4766  0.6811  0.5308
 3110SOL     OW20962   3.183   2.101   7.237 -0.0719 -0.0605 -0.4262
 3110SOL    HW120963   3.226   2.031   7.286  0.6783 -0.5120 -1.7294
 3110SOL    HW220964   3.232   2.181   7.256  0.7424 -0.4958 -0.7265
 3111SOL     OW20965   0.240   2.476   7.629 -0.5045  0.2093 -0.2356
 3111SOL    HW120966   0.249   2.537   7.557 -2.5620 -0.2711 -0.8954
 3111SOL    HW220967   0.317   2.502   7.680  0.6868 -1.7780 -0.9863
 3112SOL     OW20968   0.140   3.582   6.560 -0.4936 -0.1387 -0.0312
 3112SOL    HW120969   0.108   3.601   6.472  1.3203 -1.0371 -0.8850
 3112SOL    HW220970   0.230   3.558   6.538 -0.3207 -1.2155  1.8342
 3113SOL     OW20971   4.005   3.366   2.019  0.2066  0.6711  0.3640
 3113SOL    HW120972   3.918   3.346   2.055  0.5549 -2.5431 -0.6371
 3113SOL    HW220973   4.033   3.283   1.981 -4.2476 -1.1035  0.9985
 3114SOL     OW20974   3.587   0.637  16.642  0.0551 -0.5112 -0.2834
 3114SOL    HW120975   3.653   0.579  16.604  1.9794  1.0555  0.6429
 3114SOL    HW220976   3.586   0.704  16.574  0.9172 -1.1906 -0.9585
 3115SOL     OW20977   2.731   3.225  10.904  0.5698  0.2798 -0.6168
 3115SOL    HW120978   2.742   3.255  10.814  1.1200  2.4006  0.1715
 3115SOL    HW220979   2.791   3.290  10.941  0.0479  0.5594 -0.2662
 3116SOL     OW20980   3.082   2.488  12.581 -0.1912  0.4118  0.1201
 3116SOL    HW120981   3.016   2.419  12.592  0.8391 -0.5897 -0.0043
 3116SOL    HW220982   3.086   2.521  12.670  1.0371  0.8836 -0.1214
 3117SOL     OW20983   1.107   4.294  12.250 -0.1479 -0.2508  0.1533
 3117SOL    HW120984   1.108   4.285  12.154 -1.1739 -1.7809  0.2842
 3117SOL    HW220985   1.193   4.336  12.254 -1.2615  2.0992 -0.2614
 3118SOL     OW20986   1.485   3.192  10.112 -0.4742 -0.1906  0.6582
 3118SOL    HW120987   1.563   3.208  10.059 -0.5040  0.0418  0.6841
 3118SOL    HW220988   1.471   3.102  10.083  0.3550  0.1427 -0.7573
 3119SOL     OW20989   2.778   1.400   4.861  0.6968  0.6575 -0.2275
 3119SOL    HW120990   2.683   1.416   4.855 -0.0524 -2.9878  1.2988
 3119SOL    HW220991   2.788   1.374   4.953 -1.9502 -2.0643 -0.6846
 3120SOL     OW20992   4.023   0.420   3.464 -0.0594 -0.4395  1.1134
 3120SOL    HW120993   4.043   0.503   3.508  0.1992 -0.8537  1.7784
 3120SOL    HW220994   4.111   0.382   3.469  1.1899  2.4238  0.8752
 3121SOL     OW20995   2.812   4.000   2.408 -0.1463 -0.1837  0.2598
 3121SOL    HW120996   2.849   3.961   2.488 -3.0647  0.8283  2.0924
 3121SOL    HW220997   2.863   3.948   2.346 -2.2824 -1.0416 -0.7667
 3122SOL     OW20998   0.766   2.535   5.366  0.4765 -0.3909 -0.1360
 3122SOL    HW120999   0.856   2.539   5.333  0.2552 -0.8430 -0.8143
 3122SOL    HW221000   0.724   2.488   5.294  0.2174 -0.4833  0.0790
 3123SOL     OW21001   3.594   1.450  17.446  0.4277 -0.3326  0.1419
 3123SOL    HW121002   3.538   1.519  17.481  0.4212 -0.3377  0.1416
 3123SOL    HW221003   3.529   1.383  17.429  0.0525  0.0826 -0.0501
 3124SOL     OW21004   1.271   4.390   2.355  0.1152 -0.0606  1.1099
 3124SOL    HW121005   1.224   4.372   2.437 -3.3063 -0.6883 -1.0108
 3124SOL    HW221006   1.351   4.432   2.388  2.1677 -3.2091  0.1910
 3125SOL     OW21007   4.161   2.607   9.236  0.2096 -0.4976 -0.4166
 3125SOL    HW121008   4.128   2.542   9.298  0.3025  0.6642  0.8754
 3125SOL    HW221009   4.183   2.674   9.301 -1.4021 -0.8466  0.5039
 3126SOL     OW21010   2.701   4.185   5.720  0.4049  0.4821  0.2629
 3126SOL    HW121011   2.779   4.204   5.668 -0.5863  3.1268 -0.2743
 3126SOL    HW221012   2.712   4.090   5.727  1.5713  0.4612 -1.7299
 3127SOL     OW21013   0.286   2.356   7.107 -0.4489 -0.5565 -0.3279
 3127SOL    HW121014   0.332   2.291   7.054  2.1720  0.9864  0.0673
 3127SOL    HW221015   0.358   2.382   7.163 -0.2838 -1.1994 -0.2357
 3128SOL     OW21016   1.674   1.138  14.372  0.5685  0.1206 -0.1807
 3128SOL    HW121017   1.751   1.088  14.400  1.5068  2.4406  1.3214
 3128SOL    HW221018   1.721   1.146  14.290  1.3270  0.1417  0.2546
 3129SOL     OW21019   0.969   3.179  11.783  0.2513 -0.4412 -0.3937
 3129SOL    HW121020   0.982   3.137  11.868  0.1374 -0.2902 -0.3025
 3129SOL    HW221021   0.995   3.111  11.720  2.6206  0.1367 -0.0414
 3130SOL     OW21022   2.298   0.197  15.892  0.5168 -0.1542  0.4093
 3130SOL    HW121023   2.205   0.219  15.883  0.7852  1.2805  1.1035
 3130SOL    HW221024   2.352   0.250  15.834  1.0005  0.9079  1.8513
 3131SOL     OW21025   4.200   1.761   4.557  0.1148 -0.5448  0.4123
 3131SOL    HW121026   4.181   1.726   4.470  2.7990  0.7558 -0.7045
 3131SOL    HW221027   4.145   1.702   4.609 -1.5384  1.6488  1.1599
 3132SOL     OW21028   3.056   3.654   6.167 -0.4906 -0.1181 -0.1401
 3132SOL    HW121029   3.079   3.722   6.230  0.4249 -2.3934  1.9972
 3132SOL    HW221030   3.123   3.586   6.177  0.7997  0.9332 -1.5229
 3133SOL     OW21031   3.474   3.422   9.879 -0.6194  0.3456  0.2745
 3133SOL    HW121032   3.527   3.370   9.819 -1.8926 -1.4002  0.6703
 3133SOL    HW221033   3.399   3.363   9.892 -0.1367 -0.5061 -0.8935
 3134SOL     OW21034   1.841   3.620  13.320 -0.0031 -0.3760  0.6024
 3134SOL    HW121035   1.866   3.666  13.239 -0.6608 -0.4037  0.3775
 3134SOL    HW221036   1.770   3.564  13.289 -0.1249 -0.3787  0.8921
 3135SOL     OW21037   3.647   2.893   8.902  0.3136  0.0938  0.6341
 3135SOL    HW121038   3.583   2.920   8.967 -0.2411  0.7385 -0.1841
 3135SOL    HW221039   3.701   2.848   8.967  0.8912 -1.2037 -0.7605
 3136SOL     OW21040   3.100   1.208  12.348  0.2363 -0.6696  0.1221
 3136SOL    HW121041   3.101   1.113  12.364  1.6529 -0.5620  0.6855
 3136SOL    HW221042   3.095   1.237  12.439 -1.5946 -2.0356  0.4486
 3137SOL     OW21043   3.984   3.711   9.688  0.2734  0.5134 -0.6155
 3137SOL    HW121044   3.996   3.785   9.629  3.8599 -0.3692 -1.0006
 3137SOL    HW221045   3.927   3.758   9.749  2.1782 -1.9585  3.1231
 3138SOL     OW21046   3.763   0.938   4.627 -0.3362  0.4287  0.0177
 3138SOL    HW121047   3.712   1.019   4.631  0.0172  0.6476  0.0597
 3138SOL    HW221048   3.781   0.936   4.721  1.7669  0.0151 -0.3834
 3139SOL     OW21049   1.832   3.843   7.216  0.9170 -0.0591  0.0010
 3139SOL    HW121050   1.806   3.934   7.199 -0.3231 -0.2609  0.8270
 3139SOL    HW221051   1.857   3.856   7.307  0.3835 -3.5143  0.6433
 3140SOL     OW21052   4.693   3.977  17.100  0.9101 -0.0659  0.1950
 3140SOL    HW121053   4.598   3.976  17.109  0.7703 -1.8679 -1.3771
 3140SOL    HW221054   4.710   4.066  17.131 -2.7169  0.7257 -0.1090
 3141SOL     OW21055   4.292   1.484   6.157 -0.0686 -0.5559  0.2308
 3141SOL    HW121056   4.361   1.482   6.224 -0.0195  2.1783  0.2645
 3141SOL    HW221057   4.212   1.499   6.207 -0.4244 -0.3862 -0.3908
 3142SOL     OW21058   4.244   2.326   7.298  0.1554  0.2491 -0.3097
 3142SOL    HW121059   4.223   2.284   7.214  0.1253 -2.8309  1.2236
 3142SOL    HW221060   4.327   2.370   7.285 -0.3726  1.4190  0.2840
 3143SOL     OW21061   1.769   1.397   5.861  0.1330  0.2754  0.0692
 3143SOL    HW121062   1.805   1.484   5.878 -1.3225  0.5947  1.4700
 3143SOL    HW221063   1.831   1.341   5.907  0.0189 -1.2667 -1.6280
 3144SOL     OW21064   2.666   3.125   5.775 -0.2463 -0.2180 -0.3043
 3144SOL    HW121065   2.732   3.139   5.843 -0.7182  1.7462 -0.2443
 3144SOL    HW221066   2.719   3.158   5.704 -0.8352  1.3318 -0.0241
 3145SOL     OW21067   0.231   2.516   6.716 -0.0796  0.1128  0.3049
 3145SOL    HW121068   0.169   2.454   6.756 -0.2038 -0.5174 -0.8776
 3145SOL    HW221069   0.168   2.588   6.711  2.0763  2.0109  0.5192
 3146SOL     OW21070   2.191   2.229   2.983 -0.1332  0.4105  0.5067
 3146SOL    HW121071   2.286   2.226   2.987 -0.2522 -1.4977  1.5741
 3146SOL    HW221072   2.161   2.180   3.059  0.0902 -1.3728 -0.5615
 3147SOL     OW21073   0.475   1.829  16.235  0.3793  0.5073 -0.0869
 3147SOL    HW121074   0.432   1.893  16.178  2.0016 -0.7316 -2.7256
 3147SOL    HW221075   0.413   1.757  16.241 -0.5856  1.0914 -2.9638
 3148SOL     OW21076   0.353   0.911   4.380 -0.0465 -0.2119  0.4267
 3148SOL    HW121077   0.310   0.958   4.308  0.9203  1.5562  0.9971
 3148SOL    HW221078   0.424   0.865   4.335  0.9085 -1.2060  2.9522
 3149SOL     OW21079   0.029   1.689  10.785 -0.0867  0.1884 -0.0983
 3149SOL    HW121080   0.013   1.595  10.796 -0.4541  0.5166  2.1446
 3149SOL    HW221081   4.691   1.716  10.738 -1.9172 -1.3961  2.0231
 3150SOL     OW21082   2.084   3.150   5.685  0.7203 -0.3507 -0.1015
 3150SOL    HW121083   2.146   3.137   5.613  2.8821  2.1116  1.3074
 3150SOL    HW221084   2.139   3.140   5.763  1.8521  0.3186 -0.8124
 3151SOL     OW21085   3.150   3.564  17.703  0.2758  0.2854 -0.2371
 3151SOL    HW121086   3.179   3.631  17.641 -0.5996  0.4283 -0.4971
 3151SOL    HW221087   3.233   3.556  17.750 -0.0961  2.1616  0.7622
 3152SOL     OW21088   4.718   4.465   7.707  0.3830  0.3571  0.1680
 3152SOL    HW121089   0.069   4.464   7.681  0.0128 -1.4572 -1.0567
 3152SOL    HW221090   4.713   4.536   7.772  1.8875  0.1392  0.5126
 3153SOL     OW21091   0.688   1.572  15.324 -0.1562  0.1876 -0.3135
 3153SOL    HW121092   0.646   1.657  15.337 -0.4467 -0.1610  1.0660
 3153SOL    HW221093   0.658   1.545  15.237  0.1520  1.2719 -0.7462
 3154SOL     OW21094   3.504   0.385  17.110 -0.2457  0.4213 -0.0156
 3154SOL    HW121095   3.509   0.451  17.041 -0.5986  0.3513 -0.1068
 3154SOL    HW221096   3.596   0.358  17.117 -0.3083  0.0428 -0.6230
 3155SOL     OW21097   1.981   4.192   3.743 -0.7853 -0.1755 -0.3451
 3155SOL    HW121098   1.983   4.219   3.834  3.2469 -0.8786 -0.2310
 3155SOL    HW221099   2.052   4.236   3.697 -0.2777 -0.4702  0.1624
 3156SOL     OW21100   2.002   1.373   3.079 -0.3586 -0.1769 -0.0537
 3156SOL    HW121101   2.073   1.436   3.090  1.0156 -1.5379 -1.1746
 3156SOL    HW221102   1.951   1.387   3.159  1.0738  0.1926  0.7953
 3157SOL     OW21103   3.805   1.598  17.574 -0.3959 -1.0809  0.2984
 3157SOL    HW121104   3.765   1.684  17.582  1.0556 -0.6647  3.2109
 3157SOL    HW221105   3.728   1.547  17.551 -0.4333 -0.0438 -1.8352
 3158SOL     OW21106   0.473   4.617   1.696 -0.1225  0.3082  0.0402
 3158SOL    HW121107   0.438   4.529   1.711 -1.3828  0.6575 -0.8098
 3158SOL    HW221108   0.506   4.636   1.784 -1.5814 -1.6791  1.0195
 3159SOL     OW21109   1.617   0.998  10.497 -0.2135  0.3875 -0.5561
 3159SOL    HW121110   1.637   0.947  10.575 -1.8086  0.1359 -0.3089
 3159SOL    HW221111   1.541   1.049  10.526 -1.7727 -1.2887 -1.7057
 3160SOL     OW21112   3.867   2.906   7.956  0.3401  0.0818 -0.0764
 3160SOL    HW121113   3.862   2.887   8.050 -0.4423  3.2807  0.5278
 3160SOL    HW221114   3.948   2.950   7.931 -0.2174  0.7614 -0.7111
 3161SOL     OW21115   2.821   3.055   4.559 -0.2117  0.2865 -0.7469
 3161SOL    HW121116   2.761   3.073   4.487 -1.5603  0.1016  0.3152
 3161SOL    HW221117   2.859   2.976   4.521 -1.2771 -0.4923 -0.2111
 3162SOL     OW21118   0.113   1.867   6.654 -0.2112 -0.0459  0.1637
 3162SOL    HW121119   0.144   1.823   6.574 -1.9342 -2.1817  0.6668
 3162SOL    HW221120   0.174   1.829   6.716  1.3918  1.8619 -0.2141
 3163SOL     OW21121   2.130   0.785   0.920 -0.2735  0.1944  0.5163
 3163SOL    HW121122   2.178   0.703   0.928  0.2881  0.6739  2.0212
 3163SOL    HW221123   2.098   0.808   1.007  1.0395  1.0662  0.7598
 3164SOL     OW21124   4.439   1.514   4.898  0.3123  0.3651  0.0822
 3164SOL    HW121125   4.476   1.447   4.956 -0.6452 -0.4042 -0.1823
 3164SOL    HW221126   4.507   1.580   4.886  2.1331 -1.2500  1.5315
 3165SOL     OW21127   3.050   2.938   3.080 -0.0444 -0.3255  0.5959
 3165SOL    HW121128   3.000   3.018   3.096  0.3297 -0.0970  0.5981
 3165SOL    HW221129   3.037   2.928   2.986 -0.6017  0.4319  0.5932
 3166SOL     OW21130   1.656   0.038  10.601  0.4116  0.3671  0.4479
 3166SOL    HW121131   1.712   0.089  10.543 -1.1713 -1.1441 -2.4147
 3166SOL    HW221132   1.716   4.737  10.663 -0.8457  1.9745  2.7688
 3167SOL     OW21133   3.130   3.387  13.407 -0.2174 -0.7054  0.2229
 3167SOL    HW121134   3.186   3.318  13.371 -1.1688 -1.9119  1.0499
 3167SOL    HW221135   3.156   3.389  13.499 -1.9901  1.9199  0.6719
 3168SOL     OW21136   0.039   2.131   2.368 -0.4372  0.5306  0.4789
 3168SOL    HW121137   4.719   2.071   2.412  0.1289 -0.9708 -0.7909
 3168SOL    HW221138   0.010   2.110   2.279 -0.4252  0.5043  0.4811
 3169SOL     OW21139   3.522   4.404   0.354  0.1813 -0.0648  0.0630
 3169SOL    HW121140   3.590   4.408   0.422 -0.0838  0.2543  0.3041
 3169SOL    HW221141   3.543   4.321   0.311  0.5091  0.4334 -0.7345
 3170SOL     OW21142   1.199   2.239   7.662  0.6028  0.0382  0.4166
 3170SOL    HW121143   1.212   2.332   7.680 -0.3116  0.4074 -0.8042
 3170SOL    HW221144   1.191   2.237   7.567 -1.5467  1.0286  0.5735
 3171SOL     OW21145   3.008   4.591   7.775  0.2218 -0.2842  0.2607
 3171SOL    HW121146   2.988   4.507   7.732  0.2346 -1.0268  1.7120
 3171SOL    HW221147   3.031   4.567   7.865  2.2251  1.7529  0.2791
 3172SOL     OW21148   0.824   3.876   9.933 -0.1179  0.1491 -0.0372
 3172SOL    HW121149   0.908   3.839   9.907 -0.8912 -1.7606  0.1765
 3172SOL    HW221150   0.828   3.970   9.913  2.4110  0.0789  0.1994
 3173SOL     OW21151   2.097   4.179  11.312  0.3807  0.1770  0.2247
 3173SOL    HW121152   2.088   4.274  11.317 -2.1118 -0.0865  0.7282
 3173SOL    HW221153   2.092   4.161  11.405 -0.2341  1.4491  0.4438
 3174SOL     OW21154   2.082   2.839   8.500  0.2333 -0.4431  0.0397
 3174SOL    HW121155   1.988   2.829   8.486  0.6127 -2.5966 -1.0124
 3174SOL    HW221156   2.096   2.931   8.477 -0.2100 -0.2735  0.4584
 3175SOL     OW21157   3.735   2.465  12.737  0.3741 -0.1928 -0.4810
 3175SOL    HW121158   3.640   2.459  12.740  0.5938 -3.3193  0.1309
 3175SOL    HW221159   3.746   2.531  12.806  0.5412 -0.6372 -0.0840
 3176SOL     OW21160   2.225   4.471   6.250 -0.2069  0.4738  0.0814
 3176SOL    HW121161   2.163   4.412   6.292 -0.4890 -0.6020 -1.8297
 3176SOL    HW221162   2.235   4.549   6.306 -3.1210  1.6495 -1.0387
 3177SOL     OW21163   3.954   3.164   3.164  0.0103 -0.3298  0.3460
 3177SOL    HW121164   3.986   3.254   3.158 -2.1928  0.4875  0.7706
 3177SOL    HW221165   3.997   3.146   3.248  0.3270 -1.9299 -0.1450
 3178SOL     OW21166   3.527   2.500   2.537  0.0672  0.5203 -0.3945
 3178SOL    HW121167   3.585   2.464   2.603  0.6535  0.7061 -0.8140
 3178SOL    HW221168   3.583   2.498   2.459 -2.5479 -3.8992 -2.1838
 3179SOL     OW21169   2.950   0.573   6.841  0.2014  0.4453 -0.1910
 3179SOL    HW121170   2.970   0.640   6.905 -0.3226  0.6525 -0.2405
 3179SOL    HW221171   2.886   0.524   6.894 -1.4250  2.5815 -0.1931
 3180SOL     OW21172   3.954   4.418   6.128  0.6792  0.9383  0.0896
 3180SOL    HW121173   4.044   4.419   6.160 -0.0095  0.3879  2.1063
 3180SOL    HW221174   3.909   4.398   6.211 -1.3751  0.1056 -1.2186
 3181SOL     OW21175   3.318   0.528   2.223  0.1467 -1.0378 -0.3514
 3181SOL    HW121176   3.278   0.515   2.137 -0.0154 -1.4672 -0.2115
 3181SOL    HW221177   3.387   0.462   2.218  3.0372  1.9102  0.6600
 3182SOL     OW21178   4.181   2.876   0.628 -0.5287  0.9618  0.1742
 3182SOL    HW121179   4.137   2.956   0.654 -1.4055 -0.0344  1.7105
 3182SOL    HW221180   4.271   2.908   0.619  0.4264 -1.3701  1.4288
 3183SOL     OW21181   1.251   0.344   7.580  0.6210 -0.0226 -0.5000
 3183SOL    HW121182   1.336   0.374   7.549  0.1855  1.7590 -0.0069
 3183SOL    HW221183   1.281   0.324   7.668 -1.2356 -1.9230 -0.3029
 3184SOL     OW21184   0.933   4.230   3.944 -0.0922  0.0920  0.0272
 3184SOL    HW121185   0.996   4.173   3.901 -1.1299 -1.3245  0.3948
 3184SOL    HW221186   0.900   4.185   4.022  0.9576  0.7192  0.8308
 3185SOL     OW21187   3.276   2.037   4.481 -0.1255 -0.3768 -0.2585
 3185SOL    HW121188   3.306   2.112   4.428  0.0870 -0.1690  0.1581
 3185SOL    HW221189   3.358   2.037   4.530  0.2785 -0.2944 -0.9177
 3186SOL     OW21190   0.273   1.579   3.038 -0.7647 -0.4509 -0.6568
 3186SOL    HW121191   0.301   1.585   2.947  2.5993 -1.0169  0.3257
 3186SOL    HW221192   0.193   1.528   3.036  0.3260 -2.2727  1.6188
 3187SOL     OW21193   0.594   4.267   1.872 -0.2024 -0.1506 -0.4292
 3187SOL    HW121194   0.595   4.294   1.964  0.4736  1.1487 -0.8194
 3187SOL    HW221195   0.653   4.192   1.866  1.4040  0.9962  0.9532
 3188SOL     OW21196   0.857   2.281  14.702  0.4086  0.4753  0.8069
 3188SOL    HW121197   0.917   2.304  14.772  1.5348  1.6362 -0.5313
 3188SOL    HW221198   0.856   2.186  14.709 -0.7910  0.3642 -0.9848
 3189SOL     OW21199   4.694   1.305   6.226  0.1340 -0.3430  0.2570
 3189SOL    HW121200   0.040   1.295   6.267 -0.7127 -1.2655  1.8224
 3189SOL    HW221201   4.632   1.256   6.280 -0.8540  0.0580 -0.5018
 3190SOL     OW21202   0.338   3.882   8.795  0.0999 -0.1864  0.0473
 3190SOL    HW121203   0.278   3.889   8.868 -2.0963 -1.2172 -1.6456
 3190SOL    HW221204   0.316   3.793   8.766  0.6133 -0.4094  0.3320
 3191SOL     OW21205   0.394   2.906  13.910  0.6487 -0.1393 -0.4171
 3191SOL    HW121206   0.359   2.971  13.849 -0.3923  1.6177  2.0644
 3191SOL    HW221207   0.454   2.964  13.958  0.8681 -0.4187 -0.3568
 3192SOL     OW21208   4.522   2.793   2.622  0.4284  0.3551 -0.1957
 3192SOL    HW121209   4.446   2.735   2.615  0.4293  0.3820 -0.4222
 3192SOL    HW221210   4.503   2.825   2.710  2.7495  2.5479 -0.4909
 3193SOL     OW21211   0.630   0.207  14.294 -0.1190 -0.2426 -0.3321
 3193SOL    HW121212   0.561   0.141  14.294 -0.5874  0.2490 -1.5883
 3193SOL    HW221213   0.715   0.166  14.279 -0.2300 -0.4556 -0.3751
 3194SOL     OW21214   0.154   1.368   8.056 -0.6359 -0.2370 -0.3376
 3194SOL    HW121215   0.061   1.382   8.037 -0.6022  1.2765  0.5482
 3194SOL    HW221216   0.197   1.374   7.971 -1.0139 -1.1883 -0.5970
 3195SOL     OW21217   0.844   0.655   8.774  0.5041 -0.6577 -0.3723
 3195SOL    HW121218   0.887   0.740   8.786  1.6973 -1.1882 -0.9270
 3195SOL    HW221219   0.776   0.649   8.841  1.1768 -1.2050  0.2658
 3196SOL     OW21220   2.704   3.405   1.232 -0.9494  0.6305  0.4503
 3196SOL    HW121221   2.695   3.339   1.301 -0.5900  0.4983  0.3728
 3196SOL    HW221222   2.648   3.474   1.267  0.1931  1.6185  0.3165
 3197SOL     OW21223   1.563   4.130   8.804  0.2310  0.6646 -0.3236
 3197SOL    HW121224   1.636   4.073   8.780  0.8910  2.1816 -1.9613
 3197SOL    HW221225   1.519   4.070   8.863  1.7424 -0.4427 -0.3364
 3198SOL     OW21226   0.852   4.026   0.629  0.0467  0.2206 -0.2227
 3198SOL    HW121227   0.830   4.111   0.593  2.0115  0.5104 -0.7336
 3198SOL    HW221228   0.933   4.042   0.678  1.5594 -1.1124 -2.2388
 3199SOL     OW21229   2.298   0.469   0.852  0.2267  0.1777  0.1144
 3199SOL    HW121230   2.394   0.461   0.848  0.3356  0.8219  1.7839
 3199SOL    HW221231   2.285   0.482   0.946  1.1117  1.1444  0.0990
 3200SOL     OW21232   1.519   2.474   9.010 -0.3052 -0.2346 -0.0533
 3200SOL    HW121233   1.447   2.531   8.982 -1.2031 -1.2633  0.1954
 3200SOL    HW221234   1.480   2.451   9.095 -0.8290  1.8812  0.2973
 3201SOL     OW21235   1.385   1.490   4.304 -0.1988 -0.0056 -0.4437
 3201SOL    HW121236   1.450   1.525   4.365 -0.4363  1.2312 -0.9026
 3201SOL    HW221237   1.442   1.471   4.230  0.1027  0.6037 -0.3740
 3202SOL     OW21238   0.127   3.765   2.545  0.3319 -0.1536 -0.4726
 3202SOL    HW121239   0.077   3.723   2.615 -1.8526  2.6000 -0.3678
 3202SOL    HW221240   0.052   3.799   2.497  0.9171 -1.7690 -2.5133
 3203SOL     OW21241   4.207   4.255   3.011 -0.1480  0.0238  0.0911
 3203SOL    HW121242   4.247   4.338   2.984 -0.3810 -0.2460 -1.0907
 3203SOL    HW221243   4.238   4.249   3.101  2.2654  0.4865 -0.7138
 3204SOL     OW21244   0.723   4.635   8.802 -0.2780 -0.0564  0.3360
 3204SOL    HW121245   0.731   4.627   8.707  1.3066 -0.4385  0.4989
 3204SOL    HW221246   0.766   4.720   8.815 -2.6743  1.0105  1.2880
 3205SOL     OW21247   3.221   0.540   7.163 -0.2346  0.5148  0.1688
 3205SOL    HW121248   3.276   0.516   7.089  0.4416 -2.4524  1.6209
 3205SOL    HW221249   3.288   0.564   7.228 -0.2323 -0.3110  0.4774
 3206SOL     OW21250   2.570   0.838  11.876  0.4194  0.0083  0.7439
 3206SOL    HW121251   2.533   0.838  11.788 -0.0727  1.0771  0.9462
 3206SOL    HW221252   2.566   0.931  11.899  0.7301  0.3117 -0.4265
 3207SOL     OW21253   2.364   0.080   0.106 -0.0362  0.0581  0.0276
 3207SOL    HW121254   2.313   0.082   0.026  1.8574 -1.0614 -1.2097
 3207SOL    HW221255   2.360   4.726   0.122 -3.4830 -0.0340 -1.4291
 3208SOL     OW21256   4.086   2.809   5.728  0.1765 -0.6432  0.4219
 3208SOL    HW121257   4.176   2.820   5.758 -0.3557  1.2226  1.3446
 3208SOL    HW221258   4.052   2.726   5.761  0.0092 -0.4288  0.7937
 3209SOL     OW21259   4.677   1.363   6.994 -0.1083  0.4874  0.4788
 3209SOL    HW121260   4.729   1.286   6.972  0.9866  0.3461  3.5209
 3209SOL    HW221261   4.730   1.404   7.063 -0.0180 -1.5987  1.6296
 3210SOL     OW21262   2.935   4.270   9.009  0.1892  0.1425  0.1726
 3210SOL    HW121263   2.968   4.244   8.923  0.5986  0.4658  0.2346
 3210SOL    HW221264   2.909   4.182   9.037 -0.5520  0.7958  1.5280
 3211SOL     OW21265   4.376   1.653   0.045 -0.0709 -0.4227 -0.2806
 3211SOL    HW121266   4.466   1.663   0.077 -0.2320 -1.0455  0.3833
 3211SOL    HW221267   4.387   1.568   0.001 -0.2180 -0.0705 -0.9928
 3212SOL     OW21268   2.578   3.676   1.751  0.4748 -0.2388  0.3009
 3212SOL    HW121269   2.547   3.595   1.710  0.9433 -0.7967  1.0458
 3212SOL    HW221270   2.561   3.739   1.681 -1.2803 -1.3944 -0.2960
 3213SOL     OW21271   3.652   2.727   6.206  0.2774 -0.5989 -0.6571
 3213SOL    HW121272   3.579   2.706   6.263 -0.1461 -1.5586 -1.5586
 3213SOL    HW221273   3.620   2.810   6.169  2.2208  0.9201  1.0187
 3214SOL     OW21274   2.004   3.838   2.771  0.2383 -0.6198  0.0730
 3214SOL    HW121275   2.030   3.815   2.860  0.4919 -0.8680 -0.0625
 3214SOL    HW221276   1.924   3.789   2.755  1.1907 -1.7330 -1.3576
 3215SOL     OW21277   4.241   3.301   6.795  0.0648  0.4178  0.0241
 3215SOL    HW121278   4.214   3.210   6.780  0.6680  0.4013 -0.9581
 3215SOL    HW221279   4.285   3.292   6.879 -0.6527 -1.1456  0.2212
 3216SOL     OW21280   1.010   3.321  12.257  0.2391  0.1108 -0.2374
 3216SOL    HW121281   0.964   3.284  12.182  1.5991 -0.7615 -0.6392
 3216SOL    HW221282   0.954   3.293  12.329  2.4827 -0.3837  1.3145
 3217SOL     OW21283   0.374   3.686   9.379  0.0119  0.0331 -0.1201
 3217SOL    HW121284   0.414   3.673   9.293  0.4631  3.1820 -0.3946
 3217SOL    HW221285   0.449   3.673   9.437  0.2542  1.6478 -0.0603
 3218SOL     OW21286   1.260   1.653  11.657 -0.2143 -0.0563  0.5500
 3218SOL    HW121287   1.324   1.630  11.723  0.1136 -1.7552 -0.3554
 3218SOL    HW221288   1.184   1.598  11.679 -1.3154  2.2751  2.5958
 3219SOL     OW21289   1.813   1.116   7.077 -0.4837  0.0421 -0.5227
 3219SOL    HW121290   1.830   1.046   7.140  1.5486  1.8765  0.9596
 3219SOL    HW221291   1.768   1.183   7.128 -0.2125 -0.5255  0.4596
 3220SOL     OW21292   2.351   1.708   1.488 -0.3803 -0.6162 -0.2710
 3220SOL    HW121293   2.345   1.615   1.510 -0.5523 -0.9390 -1.7154
 3220SOL    HW221294   2.260   1.726   1.463 -0.2253 -0.2095 -0.5527
 3221SOL     OW21295   4.148   3.826   7.706  0.1003  0.6588 -0.4280
 3221SOL    HW121296   4.172   3.918   7.719 -1.8441  1.3238 -1.5090
 3221SOL    HW221297   4.211   3.787   7.767 -1.9013 -1.5060  0.2030
 3222SOL     OW21298   1.584   4.492   3.131 -0.7596  0.3501  0.1635
 3222SOL    HW121299   1.650   4.445   3.182  1.8273  1.4609 -2.2095
 3222SOL    HW221300   1.510   4.500   3.191 -1.1090  0.5387 -0.2882
 3223SOL     OW21301   3.709   1.221   1.824 -0.4216  0.2279  0.1078
 3223SOL    HW121302   3.697   1.277   1.901 -1.7294  0.7178 -0.4436
 3223SOL    HW221303   3.628   1.170   1.818 -2.4452  4.0709 -4.8247
 3224SOL     OW21304   0.957   0.961   5.571 -0.1161 -0.2358 -0.3650
 3224SOL    HW121305   0.987   0.883   5.618  0.6617  0.5469  0.4450
 3224SOL    HW221306   0.904   1.013   5.631 -1.8235 -2.4298  0.0320
 3225SOL     OW21307   3.038   0.721   7.074  0.1153 -0.2451  0.0453
 3225SOL    HW121308   3.096   0.656   7.113  1.8336  0.5046 -1.2246
 3225SOL    HW221309   3.049   0.803   7.123  0.4472 -0.3626  0.1659
 3226SOL     OW21310   4.605   1.296  15.386  0.0856 -0.0777 -0.4879
 3226SOL    HW121311   4.656   1.373  15.360 -1.3012 -0.3386 -3.9658
 3226SOL    HW221312   4.550   1.272  15.311  1.1086 -1.2979 -0.8379
 3227SOL     OW21313   0.568   1.849   2.870 -0.4165 -0.3305  0.5726
 3227SOL    HW121314   0.606   1.914   2.810  1.3046 -1.0691  0.8558
 3227SOL    HW221315   0.560   1.894   2.954  0.6044  0.6411  0.1455
 3228SOL     OW21316   0.546   3.095   7.836 -0.4656 -0.1143 -0.1566
 3228SOL    HW121317   0.618   3.101   7.899 -1.3264 -1.7409  0.9902
 3228SOL    HW221318   0.467   3.104   7.889 -0.2502 -0.7195  0.2608
 3229SOL     OW21319   0.826   3.148   5.726  0.5285  0.5446 -0.0175
 3229SOL    HW121320   0.920   3.135   5.738  0.1235 -2.3850 -0.0377
 3229SOL    HW221321   0.807   3.240   5.741  0.3829  0.2366  1.6936
 3230SOL     OW21322   1.726   4.679   1.579  0.3454  0.7304  0.2182
 3230SOL    HW121323   1.786   0.010   1.558  0.8516 -0.0591 -1.0620
 3230SOL    HW221324   1.663   4.720   1.639 -0.1521  1.8172 -1.0432
 3231SOL     OW21325   2.338   0.326   2.655  0.5118 -0.4638 -0.0780
 3231SOL    HW121326   2.285   0.255   2.618 -1.2592  0.4718  0.6903
 3231SOL    HW221327   2.427   0.303   2.626  0.9227  0.6490  0.3138
 3232SOL     OW21328   0.373   2.583   4.898  0.0597 -0.0041 -0.0791
 3232SOL    HW121329   0.335   2.639   4.830  0.4809  0.0049 -0.3081
 3232SOL    HW221330   0.386   2.648   4.968  0.1175  0.9455 -0.9673
 3233SOL     OW21331   3.359   4.402   3.618  0.1106 -0.1044  0.3267
 3233SOL    HW121332   3.411   4.469   3.663 -0.3725  0.4823  0.0042
 3233SOL    HW221333   3.401   4.320   3.642  0.1320 -0.5253 -1.1574
 3234SOL     OW21334   2.612   1.553  16.791  0.0918  0.3242 -0.3692
 3234SOL    HW121335   2.544   1.619  16.781 -0.1688  0.1609  0.2711
 3234SOL    HW221336   2.565   1.497  16.854 -3.1497  1.1053 -2.0821
 3235SOL     OW21337   3.098   0.725   3.867  0.4403  0.2952 -0.3404
 3235SOL    HW121338   3.132   0.719   3.778 -1.3463 -2.2927 -0.8398
 3235SOL    HW221339   3.009   0.758   3.852  0.3137  1.3313  2.6174
 3236SOL     OW21340   2.376   3.949   7.844 -0.2684  0.2104 -0.1126
 3236SOL    HW121341   2.443   4.017   7.837  1.6309 -1.8598 -2.6038
 3236SOL    HW221342   2.333   3.960   7.760  0.8725  1.0093 -0.5926
 3237SOL     OW21343   4.147   0.440   0.189  0.0238 -0.4758  0.9968
 3237SOL    HW121344   4.158   0.529   0.220  1.0711 -0.2039 -0.1510
 3237SOL    HW221345   4.100   0.445   0.105  0.3233  1.6879  0.9634
 3238SOL     OW21346   0.647   2.515  11.609 -0.2123  0.1953 -0.3261
 3238SOL    HW121347   0.712   2.582  11.586  1.3555 -2.0933 -2.4970
 3238SOL    HW221348   0.591   2.517  11.531 -0.0804  1.1845 -0.3926
 3239SOL     OW21349   0.686   2.078  13.243  0.2710 -0.2236 -0.0506
 3239SOL    HW121350   0.665   2.000  13.294  1.4927  0.8361  2.0522
 3239SOL    HW221351   0.658   2.144  13.306 -0.8038  0.5597 -1.3296
 3240SOL     OW21352   4.660   4.380   3.509 -0.2355  0.2652 -0.0086
 3240SOL    HW121353   4.667   4.337   3.424  0.1012 -2.0792  1.1890
 3240SOL    HW221354   0.002   4.428   3.511  0.3538 -0.8760  2.7322
 3241SOL     OW21355   0.950   2.750   5.128  0.2581  0.4093 -0.6991
 3241SOL    HW121356   0.900   2.677   5.092 -2.4508  1.8555  0.2048
 3241SOL    HW221357   0.904   2.768   5.209 -0.9549 -1.6217 -0.9285
 3242SOL     OW21358   4.018   4.613   4.009  0.4065 -0.3174 -0.3326
 3242SOL    HW121359   3.971   4.688   4.047  0.5734 -2.2905  3.7239
 3242SOL    HW221360   3.998   4.621   3.916  2.5624  3.2798 -0.5158
 3243SOL     OW21361   0.422   2.918   9.391 -0.6894 -0.0414  0.5545
 3243SOL    HW121362   0.382   2.938   9.307  0.4843 -0.7258 -0.1787
 3243SOL    HW221363   0.404   2.994   9.446 -1.3739  1.0027 -1.1410
 3244SOL     OW21364   0.366   4.716  15.948 -0.3802 -0.1232 -0.2847
 3244SOL    HW121365   0.448   4.666  15.948 -0.8846 -0.9727  1.1232
 3244SOL    HW221366   0.398   0.064  15.930 -0.3257  0.0504  0.6844
 3245SOL     OW21367   4.229   0.130   1.345  0.1340  0.5613 -1.1991
 3245SOL    HW121368   4.184   0.052   1.376  1.3920  0.5229  0.4710
 3245SOL    HW221369   4.291   0.142   1.417  0.9225 -1.8628 -1.4931
 3246SOL     OW21370   2.662   2.757   7.611 -0.7677 -0.2061 -0.0956
 3246SOL    HW121371   2.713   2.687   7.653  0.4654  0.5393 -0.3311
 3246SOL    HW221372   2.733   2.821   7.609 -2.8448  2.0463 -1.4242
 3247SOL     OW21373   3.529   2.048   8.906 -0.4512 -0.3081 -0.3293
 3247SOL    HW121374   3.525   2.137   8.942 -1.1175  1.0065 -3.6244
 3247SOL    HW221375   3.450   2.020   8.953 -0.4305 -2.8045 -1.8159
 3248SOL     OW21376   4.249   0.998  13.324  0.0732 -0.8367  0.0175
 3248SOL    HW121377   4.284   1.024  13.409  1.7830  0.5843 -1.1087
 3248SOL    HW221378   4.276   0.907  13.328 -0.4951 -0.9243  1.7123
 3249SOL     OW21379   3.082   0.371  14.916 -0.1332 -0.2122 -1.0932
 3249SOL    HW121380   3.154   0.372  14.979 -0.1842  0.8556 -1.0598
 3249SOL    HW221381   3.012   0.350  14.978 -1.3500  1.5248 -1.8803
 3250SOL     OW21382   0.306   4.245   6.263 -0.0193 -0.2640 -0.1315
 3250SOL    HW121383   0.300   4.174   6.199  3.5581 -1.8259  1.2627
 3250SOL    HW221384   0.348   4.194   6.333  2.8459 -0.9199 -2.3486
 3251SOL     OW21385   2.476   2.491   5.505 -0.0834  0.0120  0.2874
 3251SOL    HW121386   2.516   2.547   5.571  1.7848  0.2661 -1.0429
 3251SOL    HW221387   2.524   2.408   5.507 -0.6652 -0.3089  0.7246
 3252SOL     OW21388   0.601   4.318   9.184 -0.1097 -0.1480  0.4150
 3252SOL    HW121389   0.506   4.322   9.191 -0.0296  0.3428  1.2215
 3252SOL    HW221390   0.611   4.372   9.105 -2.5557  0.9481  0.8597
 3253SOL     OW21391   3.921   3.828   3.216  0.0125 -0.0582 -0.2350
 3253SOL    HW121392   4.003   3.780   3.213  0.2276  0.2672  0.6509
 3253SOL    HW221393   3.949   3.889   3.284  0.4077  0.5943 -0.9805
 3254SOL     OW21394   4.237   1.176  17.657 -0.3954 -0.8673 -0.0930
 3254SOL    HW121395   4.163   1.192  17.598 -0.7376  0.8024  0.7759
 3254SOL    HW221396   4.264   1.097  17.611 -0.1384 -1.0083  0.3003
 3255SOL     OW21397   2.883   0.905   8.087 -0.3554  0.6368 -0.2462
 3255SOL    HW121398   2.821   0.971   8.118 -3.1921 -1.4039 -1.5753
 3255SOL    HW221399   2.925   0.885   8.171 -0.0992 -0.2484 -0.5827
 3256SOL     OW21400   1.180   3.378   7.218  0.1547  0.2803 -0.4422
 3256SOL    HW121401   1.209   3.466   7.243 -1.5613  0.7906 -0.2668
 3256SOL    HW221402   1.133   3.365   7.301 -1.2209  1.5905 -1.0251
 3257SOL     OW21403   0.316   3.243   7.685 -0.2858 -0.0554  0.0602
 3257SOL    HW121404   0.250   3.254   7.617 -1.0547 -0.1947  0.7817
 3257SOL    HW221405   0.392   3.297   7.663  0.1066 -0.2387  0.9619
 3258SOL     OW21406   0.881   0.791   3.091  0.1798  0.4565  0.2961
 3258SOL    HW121407   0.792   0.757   3.084  0.8190 -0.4620 -3.4793
 3258SOL    HW221408   0.933   0.730   3.037 -1.2086 -0.8788  0.4742
 3259SOL     OW21409   1.082   4.135  14.771  0.4007 -0.2168 -0.0141
 3259SOL    HW121410   1.061   4.125  14.678 -1.0891 -0.6764  0.3857
 3259SOL    HW221411   1.145   4.065  14.786  2.6576  2.0040  0.8661
 3260SOL     OW21412   3.974   1.727   6.874  1.2057  0.4540  0.0884
 3260SOL    HW121413   3.949   1.649   6.826 -1.1749  1.3160 -0.0282
 3260SOL    HW221414   4.027   1.689   6.945  0.9641 -1.9315 -1.0128
 3261SOL     OW21415   4.098   0.408   7.973  0.0552 -0.9085  0.0135
 3261SOL    HW121416   4.148   0.486   7.948  1.9117 -1.6193  1.4554
 3261SOL    HW221417   4.070   0.379   7.886  1.0031 -0.5901 -0.3948
 3262SOL     OW21418   2.390   1.478  15.273  0.1524 -0.3116  0.5023
 3262SOL    HW121419   2.379   1.510  15.183  0.3261 -0.2908  0.4887
 3262SOL    HW221420   2.341   1.396  15.279  0.0451 -0.1405  2.0221
 3263SOL     OW21421   2.624   2.233   2.454 -0.5443  0.1632 -0.2040
 3263SOL    HW121422   2.717   2.217   2.467 -1.0313 -1.7115  0.9245
 3263SOL    HW221423   2.590   2.146   2.433 -0.0242 -0.2130  0.5256
 3264SOL     OW21424   4.488   2.148   5.405 -0.0018 -0.4904  0.0798
 3264SOL    HW121425   4.551   2.218   5.423  0.4007 -0.7685 -0.2431
 3264SOL    HW221426   4.417   2.159   5.468 -0.3938 -0.7652 -0.3097
 3265SOL     OW21427   2.788   3.365   3.366 -0.1087 -0.2997  0.5883
 3265SOL    HW121428   2.760   3.390   3.278  0.5494 -0.7816  0.2433
 3265SOL    HW221429   2.789   3.270   3.355  1.8741 -0.3315  1.0686
 3266SOL     OW21430   0.516   0.791  11.571  0.2251  0.4179  0.3697
 3266SOL    HW121431   0.535   0.881  11.599 -1.4869  1.2035 -1.0325
 3266SOL    HW221432   0.421   0.795  11.573  0.1967  2.1508 -3.4690
 3267SOL     OW21433   3.124   1.236   0.062 -0.2718 -0.3781  0.2092
 3267SOL    HW121434   3.206   1.281   0.082  0.4062 -2.4525  2.0719
 3267SOL    HW221435   3.117   1.232  17.726 -1.1632 -0.8133  0.2916
 3268SOL     OW21436   2.977   2.177  10.688  0.6122  0.1005  0.1201
 3268SOL    HW121437   3.017   2.104  10.641 -1.2774 -1.3976  0.8638
 3268SOL    HW221438   3.036   2.246  10.657  0.0195  0.5732  0.0354
 3269SOL     OW21439   3.156   3.592   2.513 -0.4668  0.7806  0.1978
 3269SOL    HW121440   3.150   3.509   2.561  0.8934  0.8615  0.5228
 3269SOL    HW221441   3.206   3.565   2.435 -0.3272 -0.0244  0.5650
 3270SOL     OW21442   2.150   1.774   0.442 -0.0842  0.1335  0.0928
 3270SOL    HW121443   2.190   1.687   0.439 -1.1593 -0.2960 -1.8593
 3270SOL    HW221444   2.059   1.744   0.436  0.4892 -1.9458  1.5437
 3271SOL     OW21445   1.742   2.495   1.134  0.3719 -0.7908  0.1978
 3271SOL    HW121446   1.677   2.439   1.178 -0.6278 -0.1645 -0.4591
 3271SOL    HW221447   1.825   2.462   1.167  0.5497 -0.2463  0.2857
 3272SOL     OW21448   0.431   0.154   1.630  0.3687  0.0408  0.6660
 3272SOL    HW121449   0.468   0.066   1.634 -1.4746 -0.7953 -0.5702
 3272SOL    HW221450   0.508   0.211   1.630  0.3768  0.0302  1.2114
 3273SOL     OW21451   0.423   3.113   2.278  0.0520 -0.4707  0.4429
 3273SOL    HW121452   0.375   3.195   2.291 -1.8508 -1.5668  0.3210
 3273SOL    HW221453   0.467   3.130   2.195 -1.2960  1.4050  0.1163
 3274SOL     OW21454   1.118   0.820   1.147  0.3909 -0.8681 -0.2837
 3274SOL    HW121455   1.036   0.861   1.173  0.4681 -2.0636  1.8996
 3274SOL    HW221456   1.165   0.834   1.230  0.3251  0.7487 -0.5212
 3275SOL     OW21457   2.580   2.004   9.278 -0.0715 -0.0766  0.2131
 3275SOL    HW121458   2.601   1.915   9.308  1.5144 -0.4548 -2.0674
 3275SOL    HW221459   2.611   2.047   9.358  0.4091  1.1285 -0.6318
 3276SOL     OW21460   0.653   2.977   5.058 -0.4273  0.3447  0.1342
 3276SOL    HW121461   0.671   3.015   5.143 -1.4296 -0.2841  0.6357
 3276SOL    HW221462   0.738   2.999   5.020  0.0286 -0.2650  0.7999
 3277SOL     OW21463   3.855   1.054   8.250 -0.0013  0.4044  0.0906
 3277SOL    HW121464   3.768   1.047   8.210  0.0501 -0.0476  0.0614
 3277SOL    HW221465   3.867   1.146   8.227 -1.7967  1.0973  1.9502
 3278SOL     OW21466   4.057   0.172   1.894  0.0564  0.1737  0.2479
 3278SOL    HW121467   4.023   0.086   1.921 -0.9952  0.1258 -1.1763
 3278SOL    HW221468   4.136   0.134   1.856  0.5244  0.0418  1.3738
 3279SOL     OW21469   3.657   4.489   2.235 -0.2869 -0.5342 -0.0921
 3279SOL    HW121470   3.656   4.515   2.327  1.1898 -0.2484 -0.1697
 3279SOL    HW221471   3.587   4.424   2.240 -0.4605 -0.0931  2.8479
 3280SOL     OW21472   0.698   2.070   2.063  0.6851  0.1041  0.3124
 3280SOL    HW121473   0.689   2.093   1.970 -1.1127  0.2016  0.5029
 3280SOL    HW221474   0.793   2.066   2.070  0.9182  0.0980 -2.7445
 3281SOL     OW21475   2.197   4.300   3.648 -0.4602 -0.5415  0.3459
 3281SOL    HW121476   2.245   4.279   3.568  1.5561  2.0557  0.8401
 3281SOL    HW221477   2.257   4.255   3.708  0.6368  0.8573  0.3100
 3282SOL     OW21478   4.508   1.520   4.313 -0.4655 -0.5779 -0.2370
 3282SOL    HW121479   4.478   1.538   4.402 -0.1432 -0.7496 -0.0953
 3282SOL    HW221480   4.544   1.431   4.315  0.9471 -0.0288 -1.5797
 3283SOL     OW21481   1.574   3.412  15.416 -0.1159 -0.0714  0.3660
 3283SOL    HW121482   1.656   3.373  15.385  0.2659  0.6993  0.3862
 3283SOL    HW221483   1.595   3.503  15.395 -0.9724  0.0706  0.1367
 3284SOL     OW21484   1.394   1.274   0.993 -0.1083 -0.4458 -0.2124
 3284SOL    HW121485   1.312   1.308   1.028  0.4424  0.7753 -0.1115
 3284SOL    HW221486   1.457   1.323   1.045 -1.6372  0.1070  1.1354
 3285SOL     OW21487   0.796   2.662  11.013 -0.9290  0.2723  0.3806
 3285SOL    HW121488   0.721   2.697  10.965 -1.0503 -0.1817  0.2396
 3285SOL    HW221489   0.867   2.704  10.964 -1.0656 -1.7237 -1.5063
 3286SOL     OW21490   0.517   1.769  15.356 -0.4274 -0.4080  0.1323
 3286SOL    HW121491   0.498   1.713  15.431  0.7629 -0.6025  0.2799
 3286SOL    HW221492   0.436   1.820  15.350  0.7887  1.2999 -1.8969
 3287SOL     OW21493   4.359   3.750   7.870 -0.2668  0.4097 -0.2252
 3287SOL    HW121494   4.364   3.662   7.909 -0.8088  0.5666  0.1969
 3287SOL    HW221495   4.448   3.769   7.841 -0.3085 -0.2186 -0.7763
 3288SOL     OW21496   3.818   0.868   6.033  0.4521  0.5530 -0.1108
 3288SOL    HW121497   3.755   0.882   5.962 -2.3067 -1.6839  1.8827
 3288SOL    HW221498   3.793   0.782   6.066  4.3733 -0.4785  0.2015
 3289SOL     OW21499   1.545   1.013   2.383 -0.1440  0.1731 -0.2086
 3289SOL    HW121500   1.497   1.016   2.301  1.2551 -0.4019 -1.0430
 3289SOL    HW221501   1.485   0.965   2.440  2.2581 -0.6078  1.7028
 3290SOL     OW21502   0.591   1.184   3.622  0.1779  0.4065 -0.3489
 3290SOL    HW121503   0.634   1.207   3.704  1.6285 -0.3715 -0.8740
 3290SOL    HW221504   0.668   1.180   3.564 -0.1195  4.4740 -1.0399
 3291SOL     OW21505   1.260   3.431   9.835  0.1861 -0.3208 -0.0548
 3291SOL    HW121506   1.215   3.482   9.902 -1.4936 -0.3467 -1.1635
 3291SOL    HW221507   1.350   3.444   9.864  0.5783 -3.4802  0.1880
 3292SOL     OW21508   2.237   1.456   7.223 -0.5882 -0.4394 -0.1182
 3292SOL    HW121509   2.146   1.484   7.214  0.1015  1.6151 -0.8374
 3292SOL    HW221510   2.228   1.368   7.188 -2.9740  0.3021 -1.3505
 3293SOL     OW21511   3.462   3.793   3.397  0.4776  0.6731  0.6718
 3293SOL    HW121512   3.554   3.792   3.425  0.1909  0.7712  1.6234
 3293SOL    HW221513   3.428   3.734   3.464 -2.9796  1.8549 -0.0402
 3294SOL     OW21514   4.512   1.930   3.593 -0.3538  0.3148  0.1215
 3294SOL    HW121515   4.521   1.896   3.681 -1.1688  1.7249  0.7596
 3294SOL    HW221516   4.606   1.931   3.576 -0.7835 -2.4811 -2.3804
 3295SOL     OW21517   3.133   3.100  15.271 -0.1098 -0.1425 -0.3518
 3295SOL    HW121518   3.164   3.046  15.199 -1.4130 -2.6854  0.9974
 3295SOL    HW221519   3.043   3.115  15.241 -0.8622 -2.4388  0.7461
 3296SOL     OW21520   2.653   0.495   5.739  0.1612 -0.0253  0.2270
 3296SOL    HW121521   2.651   0.524   5.830 -0.6697  0.7421 -0.0433
 3296SOL    HW221522   2.594   0.421   5.728  1.6605 -1.0891 -0.6840
 3297SOL     OW21523   1.444   1.012   8.831  0.0999 -0.6755  0.3191
 3297SOL    HW121524   1.455   1.006   8.736  1.5683  1.9353  0.3153
 3297SOL    HW221525   1.351   1.028   8.840  0.5402  2.8150 -1.1349
 3298SOL     OW21526   1.694   1.699  14.817 -0.0626 -0.2037 -0.3578
 3298SOL    HW121527   1.655   1.782  14.788  1.0868  0.2198 -0.6792
 3298SOL    HW221528   1.626   1.672  14.879 -1.5137 -0.6582 -2.1552
 3299SOL     OW21529   1.590   4.183   8.069 -0.0068 -0.3360  0.4599
 3299SOL    HW121530   1.536   4.247   8.116  0.6345 -0.2029  1.0291
 3299SOL    HW221531   1.592   4.116   8.138 -0.5700  0.5847  1.3768
 3300SOL     OW21532   3.952   2.407   8.696 -0.1625 -0.0036  0.5248
 3300SOL    HW121533   4.027   2.357   8.664  0.4954 -0.8853  3.4193
 3300SOL    HW221534   3.882   2.350   8.728 -1.2657  1.5350  0.8559
 3301SOL     OW21535   0.089   3.852   6.792 -0.3040 -0.0429  0.1074
 3301SOL    HW121536   0.141   3.872   6.714 -0.0839  0.4362  0.3749
 3301SOL    HW221537   0.048   3.939   6.792 -0.2675 -0.0256  0.3609
 3302SOL     OW21538   3.571   4.219   1.254  0.0410  0.3979  0.0702
 3302SOL    HW121539   3.659   4.184   1.240 -0.1989 -0.6761  1.2233
 3302SOL    HW221540   3.574   4.302   1.207  0.4321  0.3349 -0.0140
 3303SOL     OW21541   1.792   2.126   1.125  0.2265  0.3514 -0.0152
 3303SOL    HW121542   1.841   2.155   1.202  0.8627 -3.4269  0.9979
 3303SOL    HW221543   1.712   2.180   1.128  0.4112  0.6586 -0.5533
 3304SOL     OW21544   2.564   2.111   2.038  0.5660  0.0891  0.1201
 3304SOL    HW121545   2.498   2.177   2.061  1.9938  1.2006  1.0392
 3304SOL    HW221546   2.505   2.038   2.016 -0.3146  1.0945 -0.7976
 3305SOL     OW21547   2.230   1.881  15.379  1.1998 -0.8813 -0.2887
 3305SOL    HW121548   2.229   1.920  15.466  1.1138 -1.3672 -0.0724
 3305SOL    HW221549   2.284   1.943  15.330 -0.2605  1.0667  0.6002
 3306SOL     OW21550   4.499   3.042   8.494 -0.3180  0.0818  0.2154
 3306SOL    HW121551   4.496   2.965   8.437  0.5617 -0.8329  1.3947
 3306SOL    HW221552   4.576   3.078   8.450  0.5763 -2.0994 -0.0217
 3307SOL     OW21553   4.498   4.383   1.549  0.4416 -0.2535 -0.1725
 3307SOL    HW121554   4.428   4.446   1.532 -0.7829 -0.9103  2.4525
 3307SOL    HW221555   4.479   4.331   1.470 -0.0209  0.2818 -0.4133
 3308SOL     OW21556   3.898   1.282   7.059 -0.0062  0.0726 -0.1624
 3308SOL    HW121557   3.991   1.301   7.069 -0.0129 -0.5776  1.1115
 3308SOL    HW221558   3.854   1.276   7.144  1.0654 -3.1626  0.1583
 3309SOL     OW21559   4.059   3.596   7.300  0.1057  0.2176 -0.1909
 3309SOL    HW121560   4.004   3.537   7.352 -0.4091  1.2832  0.4666
 3309SOL    HW221561   4.018   3.681   7.313 -0.6114 -0.2323  0.5471
 3310SOL     OW21562   1.697   3.475   5.235 -0.1694 -0.0491 -0.0496
 3310SOL    HW121563   1.606   3.505   5.239 -0.3365 -0.6777  0.7989
 3310SOL    HW221564   1.720   3.479   5.328 -2.7882  2.5859  0.4994
 3311SOL     OW21565   4.333   2.814  14.724  0.5544  0.7349  0.1443
 3311SOL    HW121566   4.356   2.786  14.635  2.2235 -0.8882  1.0746
 3311SOL    HW221567   4.239   2.826  14.720  0.6094  1.1335  0.1348
 3312SOL     OW21568   2.331   2.106   5.498 -0.4428  0.1244  0.1398
 3312SOL    HW121569   2.367   2.143   5.579  3.5459 -2.2246 -0.5329
 3312SOL    HW221570   2.283   2.030   5.530 -0.9572  0.8712  1.1221
 3313SOL     OW21571   4.140   1.385   8.165 -0.1258  0.1363 -0.0913
 3313SOL    HW121572   4.173   1.374   8.076  0.3711 -0.0696  0.1195
 3313SOL    HW221573   4.221   1.390   8.215 -0.4643  0.4318  0.4350
 3314SOL     OW21574   0.323   1.033   8.402 -0.1362 -0.4806 -0.0500
 3314SOL    HW121575   0.347   1.125   8.391 -1.6278  0.0863  1.5765
 3314SOL    HW221576   0.277   1.013   8.321 -0.6316  0.1638  0.0786
 3315SOL     OW21577   1.212   2.417   2.070 -1.0808 -0.2622  0.2572
 3315SOL    HW121578   1.264   2.348   2.029 -1.9000 -1.0746  0.5834
 3315SOL    HW221579   1.240   2.418   2.162 -0.3531  0.3299  0.0268
 3316SOL     OW21580   0.283   1.238   9.164  0.7497  0.5273  0.2316
 3316SOL    HW121581   0.233   1.262   9.087  2.4244  0.4378 -0.8959
 3316SOL    HW221582   0.318   1.153   9.138  1.5434  0.9555 -0.1384
 3317SOL     OW21583   1.979   3.355   2.026 -0.8304 -0.5479  0.1226
 3317SOL    HW121584   1.915   3.351   2.097 -1.8203 -0.4401 -0.7507
 3317SOL    HW221585   2.048   3.307   2.071 -0.0767  0.0334 -0.4118
 3318SOL     OW21586   1.903   0.048   2.546  0.2327 -0.6486 -0.0331
 3318SOL    HW121587   1.844   0.102   2.494  1.3607  0.5440 -0.0605
 3318SOL    HW221588   1.860   0.041   2.631 -1.9365 -0.1867 -1.0950
 3319SOL     OW21589   3.505   4.074   9.632  0.2087  0.1857  0.0863
 3319SOL    HW121590   3.489   3.980   9.626  1.6815  0.0061 -1.0944
 3319SOL    HW221591   3.561   4.096   9.558 -0.8773  0.2148 -0.7298
 3320SOL     OW21592   0.469   3.988  12.565 -0.1314 -0.3257  0.0004
 3320SOL    HW121593   0.564   4.000  12.563  0.2943 -3.6085  0.6361
 3320SOL    HW221594   0.449   4.010  12.474 -0.6808  1.8444  0.6429
 3321SOL     OW21595   3.745   4.499   3.940  0.4065  0.7108  0.2161
 3321SOL    HW121596   3.783   4.554   4.009 -1.3507  0.3990  1.4455
 3321SOL    HW221597   3.811   4.433   3.922 -2.2147 -1.9037  0.2452
 3322SOL     OW21598   4.413   1.754   0.425  0.4946  0.3128  0.0910
 3322SOL    HW121599   4.405   1.659   0.426 -2.4127  0.5616  0.8609
 3322SOL    HW221600   4.501   1.758   0.462 -0.6429  2.7737  2.5988
 3323SOL     OW21601   0.566   3.177  16.537 -0.1151  0.0380 -0.3530
 3323SOL    HW121602   0.536   3.191  16.448 -3.0463  1.6495  0.8947
 3323SOL    HW221603   0.565   3.267  16.571  0.1488 -0.5609  1.2236
 3324SOL     OW21604   1.013   3.009   3.953  0.2767  0.3575  0.4781
 3324SOL    HW121605   1.027   2.918   3.979  0.6582 -0.2460 -1.8733
 3324SOL    HW221606   0.953   3.034   4.024 -0.8587  1.7060 -0.9716
 3325SOL     OW21607   4.137   1.776   8.026  0.1790  0.0501  0.0794
 3325SOL    HW121608   4.220   1.819   8.047 -0.0360  0.7841 -0.5398
 3325SOL    HW221609   4.160   1.734   7.944  1.8710  1.5362 -0.2206
 3326SOL     OW21610   0.476   0.205   3.069 -0.1746  0.5140 -0.4257
 3326SOL    HW121611   0.479   0.233   3.160  1.3412  0.4599 -0.4466
 3326SOL    HW221612   0.551   0.145   3.074 -0.1998  0.3728 -1.6714
 3327SOL     OW21613   0.688   1.171   1.669 -0.1304  0.0670 -0.0674
 3327SOL    HW121614   0.748   1.106   1.707 -0.3217  0.5275  1.0198
 3327SOL    HW221615   0.613   1.125   1.631  0.4110 -1.7140  1.0217
 3328SOL     OW21616   2.428   0.642   7.956 -0.0569 -0.4836  0.3019
 3328SOL    HW121617   2.508   0.661   8.005  2.0571 -2.9261 -2.1605
 3328SOL    HW221618   2.469   0.577   7.898 -1.1579 -0.2006 -0.7966
 3329SOL     OW21619   0.043   1.877   3.564 -0.0840  0.1847  0.1535
 3329SOL    HW121620   0.066   1.938   3.634 -0.0044 -0.1331  0.4060
 3329SOL    HW221621   0.079   1.923   3.489 -0.4380 -1.8069 -1.2487
 3330SOL     OW21622   0.069   2.936   7.778 -0.2733  0.4845 -0.0622
 3330SOL    HW121623   0.084   2.891   7.861  0.5727 -0.6018 -0.7993
 3330SOL    HW221624   4.733   2.898   7.736 -0.0639  0.1561 -0.1456
 3331SOL     OW21625   0.359   2.562   3.355  0.4644  0.3305  0.7003
 3331SOL    HW121626   0.283   2.518   3.317 -1.4731  3.3401  1.1041
 3331SOL    HW221627   0.407   2.586   3.276 -1.8012 -0.6510 -0.9636
 3332SOL     OW21628   0.272   0.426   5.345  0.2128  0.5773  0.7502
 3332SOL    HW121629   0.292   0.362   5.277  0.7451  1.2784  0.2520
 3332SOL    HW221630   0.313   0.388   5.423 -0.3243  0.1041  0.8082
 3333SOL     OW21631   0.156   1.050   4.215  0.2488 -0.1306 -0.5906
 3333SOL    HW121632   0.119   1.067   4.302  0.8817 -0.7392 -0.2047
 3333SOL    HW221633   0.163   1.137   4.175 -0.6215 -0.4692 -1.4743
 3334SOL     OW21634   1.084   3.241   7.962 -0.4824  0.3902  0.3404
 3334SOL    HW121635   1.068   3.305   8.032 -1.0847 -0.3828  0.9022
 3334SOL    HW221636   1.073   3.159   8.009 -0.9714 -0.4794 -1.2870
 3335SOL     OW21637   2.355   2.344   3.499  0.1397  0.0525 -0.0517
 3335SOL    HW121638   2.280   2.396   3.527 -0.8994 -0.9943 -0.9330
 3335SOL    HW221639   2.339   2.270   3.557  1.0388 -0.6380 -0.6779
 3336SOL     OW21640   2.713   1.605  11.924 -0.5407 -0.3047 -0.1476
 3336SOL    HW121641   2.707   1.641  11.835  0.6251 -0.1567 -0.1714
 3336SOL    HW221642   2.736   1.686  11.969 -0.4053 -1.1332  1.2485
 3337SOL     OW21643   3.283   3.252   9.951 -0.1488  0.4389 -0.0851
 3337SOL    HW121644   3.187   3.259   9.955 -0.3009 -0.6776 -1.7664
 3337SOL    HW221645   3.288   3.169  10.000 -0.1072  1.3990  1.5316
 3338SOL     OW21646   2.396   0.528  13.319 -0.4517 -0.0591  0.0555
 3338SOL    HW121647   2.474   0.474  13.310  0.4808  1.8425 -3.2443
 3338SOL    HW221648   2.440   0.597  13.367 -0.9601  0.8934 -0.8452
 3339SOL     OW21649   2.234   3.088   6.849  0.0887  0.0674 -0.0235
 3339SOL    HW121650   2.292   3.067   6.776 -0.3539 -0.2177 -0.2875
 3339SOL    HW221651   2.228   3.183   6.845 -0.7559  0.0289  0.2670
 3340SOL     OW21652   2.727   3.158   8.916 -0.3096  0.5336 -0.6086
 3340SOL    HW121653   2.668   3.169   8.841 -1.4998 -0.1588  0.2082
 3340SOL    HW221654   2.785   3.234   8.912 -2.6859  2.3735 -0.1650
 3341SOL     OW21655   1.166   3.159   6.870  0.3459  0.6344 -0.1620
 3341SOL    HW121656   1.215   3.087   6.830  1.4209  1.1888  0.1540
 3341SOL    HW221657   1.100   3.169   6.801  0.0640  0.5119  0.0946
 3342SOL     OW21658   0.977   3.338  11.573 -0.4336  0.5316  0.1248
 3342SOL    HW121659   0.954   3.306  11.660 -2.3011 -1.4320 -1.0807
 3342SOL    HW221660   1.057   3.386  11.594 -1.2074  0.7324  2.6631
 3343SOL     OW21661   4.186   4.498  13.920 -0.4269 -0.0286  0.1935
 3343SOL    HW121662   4.225   4.541  13.996 -1.7805  0.2875  0.6990
 3343SOL    HW221663   4.212   4.566  13.858  1.0677  0.3190  1.1933
 3344SOL     OW21664   0.513   0.960  10.020 -0.0609 -0.7362  0.2793
 3344SOL    HW121665   0.537   1.009  10.099 -0.2411 -0.4304  0.1438
 3344SOL    HW221666   0.443   0.906  10.056 -1.6318  0.9214 -0.3026
 3345SOL     OW21667   4.453   1.917  13.099  0.1378  1.0264 -0.0993
 3345SOL    HW121668   4.459   2.008  13.072 -0.7654  1.0796 -0.1361
 3345SOL    HW221669   4.530   1.914  13.156 -0.5233  0.0931  0.7483
 3346SOL     OW21670   4.232   4.218   3.529  0.0850  0.3028  0.5065
 3346SOL    HW121671   4.154   4.268   3.554  0.5067  1.0082  0.4107
 3346SOL    HW221672   4.242   4.169   3.611 -0.0260  0.7042  0.7562
 3347SOL     OW21673   3.637   4.624   6.467  0.1251 -0.0198  0.0436
 3347SOL    HW121674   3.548   4.659   6.476 -0.1176 -0.9019  1.0786
 3347SOL    HW221675   3.659   4.652   6.379  0.5788 -1.6968 -0.3690
 3348SOL     OW21676   3.226   1.778   0.451  0.0382 -0.4394  0.1976
 3348SOL    HW121677   3.231   1.743   0.362 -0.7774  0.9158 -0.3761
 3348SOL    HW221678   3.253   1.703   0.504 -1.2013  0.1009  1.5918
 3349SOL     OW21679   1.655   0.910  11.457 -0.0454  0.5648  0.0547
 3349SOL    HW121680   1.646   0.955  11.372  0.8175  4.0154  1.7797
 3349SOL    HW221681   1.570   0.867  11.455  0.1503  0.2535 -1.3082
 3350SOL     OW21682   0.370   2.194  14.588 -0.1395  0.3661  0.4572
 3350SOL    HW121683   0.443   2.135  14.607 -2.6712 -2.5122  1.1341
 3350SOL    HW221684   0.407   2.230  14.507 -1.3940  0.7872  0.0721
 3351SOL     OW21685   0.043   0.469   8.239 -0.3351 -0.4967  0.2524
 3351SOL    HW121686   0.119   0.417   8.212 -1.3366 -1.0506 -1.5088
 3351SOL    HW221687   0.015   0.432   8.322 -1.8318 -3.6476 -1.6460
 3352SOL     OW21688   3.713   4.598   0.546 -0.5502  0.0916  0.0130
 3352SOL    HW121689   3.744   4.528   0.603  0.6046  0.8832  0.3645
 3352SOL    HW221690   3.783   4.592   0.482 -1.9415 -2.5085 -1.2527
 3353SOL     OW21691   2.559   1.958  10.982  0.5954  0.3083 -0.0414
 3353SOL    HW121692   2.490   1.946  10.917  1.8465 -0.9090 -1.1308
 3353SOL    HW221693   2.629   1.995  10.928 -0.9297 -2.2019 -3.6743
 3354SOL     OW21694   1.670   1.369   0.585 -0.3629  0.1759 -0.1343
 3354SOL    HW121695   1.615   1.374   0.664  0.5798  0.2826  0.5202
 3354SOL    HW221696   1.623   1.309   0.528 -1.6530  0.4366  0.6229
 3355SOL     OW21697   2.485   1.604  14.089 -0.1422 -0.1429  0.4342
 3355SOL    HW121698   2.483   1.581  13.996 -0.3355 -0.3177  0.4838
 3355SOL    HW221699   2.446   1.691  14.092 -1.1933 -0.5762 -1.0188
 3356SOL     OW21700   4.120   2.384   9.406  0.4636 -0.8212 -0.2929
 3356SOL    HW121701   4.044   2.344   9.361 -1.6040 -0.3143  2.7792
 3356SOL    HW221702   4.084   2.417   9.488  2.2400  2.3567 -0.8122
 3357SOL     OW21703   3.146   2.111   5.928 -0.5470 -0.2066  0.6390
 3357SOL    HW121704   3.201   2.136   5.854 -0.1127 -0.9195  0.7183
 3357SOL    HW221705   3.068   2.077   5.883  0.8447 -2.4559 -0.0538
 3358SOL     OW21706   1.518   4.385  14.082 -0.8094  0.5417  0.2138
 3358SOL    HW121707   1.483   4.296  14.095  2.6802 -0.9079 -0.3009
 3358SOL    HW221708   1.458   4.412  14.013 -0.5769 -2.9983 -1.3675
 3359SOL     OW21709   2.451   3.147   1.228  0.0834 -0.0976  0.1424
 3359SOL    HW121710   2.367   3.190   1.246  0.5288  1.6301 -1.9608
 3359SOL    HW221711   2.475   3.208   1.158 -0.9445 -2.0263 -1.8575
 3360SOL     OW21712   1.007   1.660  16.582 -0.1316 -0.2154  0.3388
 3360SOL    HW121713   0.994   1.643  16.675 -1.0155  1.1326  0.4493
 3360SOL    HW221714   0.919   1.633  16.557 -0.0244  0.1595 -0.4521
 3361SOL     OW21715   2.836   0.128   0.169 -0.3006  0.0065 -0.1353
 3361SOL    HW121716   2.815   0.123   0.076  3.5558  2.1484 -1.1446
 3361SOL    HW221717   2.868   0.040   0.188  0.8191  0.3662 -0.3765
 3362SOL     OW21718   0.717   2.507   1.698 -0.3670 -0.1196 -1.0683
 3362SOL    HW121719   0.632   2.491   1.739 -0.5834  0.4836 -1.2678
 3362SOL    HW221720   0.719   2.602   1.683 -0.6335  0.1138  0.3200
 3363SOL     OW21721   0.640   0.370   8.343 -0.7699  0.8120 -0.1676
 3363SOL    HW121722   0.630   0.291   8.289 -2.2393  1.7227 -1.2143
 3363SOL    HW221723   0.679   0.344   8.426 -2.3307 -1.1775 -0.0679
 3364SOL     OW21724   1.631   2.097   7.072  0.4311 -0.6434 -0.4689
 3364SOL    HW121725   1.658   2.005   7.064 -1.5027 -1.3470  1.0637
 3364SOL    HW221726   1.541   2.088   7.039 -0.9569  0.2458  3.0492
 3365SOL     OW21727   1.874   1.242   9.313 -0.1795  0.6475  0.1630
 3365SOL    HW121728   1.824   1.189   9.375  0.1075 -1.2575 -1.2517
 3365SOL    HW221729   1.886   1.312   9.377  1.2715  0.7240 -0.1826
 3366SOL     OW21730   1.300   2.518  13.932  0.2395  0.2368 -0.4257
 3366SOL    HW121731   1.257   2.451  13.985  1.3391 -0.6027 -0.5801
 3366SOL    HW221732   1.255   2.501  13.849  0.3901  0.4450 -0.5490
 3367SOL     OW21733   3.202   1.408  17.457  0.1998  0.8061  0.0533
 3367SOL    HW121734   3.215   1.492  17.501  2.6648  1.5564 -2.1404
 3367SOL    HW221735   3.195   1.436  17.365 -0.3013  0.5201 -0.0001
 3368SOL     OW21736   0.624   0.320   6.374  0.1885  0.3206  0.0762
 3368SOL    HW121737   0.632   0.347   6.283 -0.6828  0.7875  0.1376
 3368SOL    HW221738   0.595   0.229   6.368 -0.7120  0.8870 -3.7994
 3369SOL     OW21739   2.116   3.068  11.290 -0.3580  0.0996  0.1982
 3369SOL    HW121740   2.083   2.978  11.288 -0.8792  0.2782  0.7569
 3369SOL    HW221741   2.176   3.055  11.364 -2.2711  1.2849  1.9590
 3370SOL     OW21742   4.037   2.916   8.729  0.0911 -0.1745  0.4755
 3370SOL    HW121743   4.040   2.824   8.705  2.9683  0.4505 -1.6361
 3370SOL    HW221744   3.949   2.937   8.696 -0.1524 -0.2687  1.0745
 3371SOL     OW21745   0.418   0.601   8.326 -0.3348  0.2551 -0.5602
 3371SOL    HW121746   0.508   0.631   8.313 -0.7895  1.0726 -1.7715
 3371SOL    HW221747   0.429   0.506   8.322 -0.1074  0.2155  0.8850
 3372SOL     OW21748   3.049   1.985   3.396  0.1300 -0.0772 -0.4639
 3372SOL    HW121749   2.956   1.984   3.374  0.0633  1.8753 -0.2252
 3372SOL    HW221750   3.043   1.923   3.468  1.9365 -1.9911 -1.9639
 3373SOL     OW21751   0.297   1.701  16.441 -0.3712  0.5743  0.3389
 3373SOL    HW121752   0.240   1.778  16.442  1.5119  1.9854 -0.4483
 3373SOL    HW221753   0.240   1.630  16.411  2.1720 -0.8607 -1.0892
 3374SOL     OW21754   0.764   4.476  14.041  0.0602  0.1439  0.3538
 3374SOL    HW121755   0.810   4.392  14.043 -1.1154 -0.5113 -0.7295
 3374SOL    HW221756   0.670   4.461  14.049  0.1366  0.4910  1.9875
 3375SOL     OW21757   3.266   4.008   3.616 -0.4888  0.0544  0.0894
 3375SOL    HW121758   3.238   4.023   3.707 -1.9584 -1.4440 -0.1277
 3375SOL    HW221759   3.316   3.927   3.609  0.1167  0.3196  1.2489
 3376SOL     OW21760   2.298   4.629  15.013  0.4477  0.3721 -0.3709
 3376SOL    HW121761   2.339   4.674  15.087  1.6668  1.7202 -1.8464
 3376SOL    HW221762   2.335   4.668  14.934  0.1135  2.1102  0.3316
 3377SOL     OW21763   0.536   2.681   6.253  0.0299 -0.1698 -0.0749
 3377SOL    HW121764   0.470   2.646   6.312 -0.6943 -0.7399 -1.2376
 3377SOL    HW221765   0.581   2.603   6.221 -0.0115 -1.1035  2.1232
 3378SOL     OW21766   1.474   1.264  14.777 -0.0184 -0.4825 -0.5963
 3378SOL    HW121767   1.522   1.238  14.857  0.5766  0.4026 -0.6669
 3378SOL    HW221768   1.385   1.238  14.798  0.2224  0.0873  1.1342
 3379SOL     OW21769   1.133   4.032   9.062 -0.1186  0.1236 -0.0480
 3379SOL    HW121770   1.097   3.979   8.991 -2.4349  1.4548  0.1526
 3379SOL    HW221771   1.135   4.114   9.014  2.1625 -0.9232 -1.7349
 3380SOL     OW21772   0.732   1.177   7.366 -0.3207  0.0992 -0.5117
 3380SOL    HW121773   0.704   1.254   7.416 -1.9504  0.0972 -1.4065
 3380SOL    HW221774   0.698   1.106   7.421  0.5929  0.0738  0.0210
 3381SOL     OW21775   3.197   3.659   4.505 -0.1745 -0.4801  0.0053
 3381SOL    HW121776   3.190   3.641   4.412 -0.4843  1.3923 -0.3319
 3381SOL    HW221777   3.137   3.596   4.546  2.4021 -0.5305  3.6932
 3382SOL     OW21778   2.127   0.902  14.882 -0.1352 -0.1320  0.1108
 3382SOL    HW121779   2.085   0.841  14.943  1.1605 -0.6490  0.4970
 3382SOL    HW221780   2.077   0.883  14.803  1.2272 -3.0031 -0.0822
 3383SOL     OW21781   2.834   3.555   8.289  0.0823 -0.0711  0.2707
 3383SOL    HW121782   2.851   3.642   8.324  1.6928  0.5799 -2.0898
 3383SOL    HW221783   2.857   3.554   8.196 -1.0566  0.3815 -0.0044
 3384SOL     OW21784   0.471   1.379   3.159 -0.4322 -0.2813 -0.5769
 3384SOL    HW121785   0.393   1.430   3.180 -0.4777 -0.3401 -0.6032
 3384SOL    HW221786   0.479   1.388   3.064 -2.4686  1.0952 -0.6017
 3385SOL     OW21787   0.642   0.724   1.133 -0.1890  0.2647 -1.2837
 3385SOL    HW121788   0.563   0.716   1.080 -1.8466 -2.9359  1.7019
 3385SOL    HW221789   0.625   0.810   1.171 -1.4017 -0.0098 -1.2255
 3386SOL     OW21790   4.019   2.661   8.999  0.1408 -0.2005  0.3464
 3386SOL    HW121791   4.015   2.757   8.997 -1.4362 -0.2692  0.4845
 3386SOL    HW221792   4.070   2.662   9.080 -1.1423 -3.0030  1.1671
 3387SOL     OW21793   3.604   1.429   9.600 -0.5709 -0.2505  0.0612
 3387SOL    HW121794   3.672   1.361   9.595 -0.9869 -0.6614  0.0206
 3387SOL    HW221795   3.651   1.503   9.638  1.5239 -0.8294 -1.4094
 3388SOL     OW21796   1.219   2.936   3.255  0.4089 -0.0332 -0.6149
 3388SOL    HW121797   1.306   2.970   3.273  0.3599 -0.6086  0.7174
 3388SOL    HW221798   1.208   2.868   3.322  0.5883  0.1322 -0.4160
 3389SOL     OW21799   4.448   1.965   1.336 -0.2972 -0.0824  0.0192
 3389SOL    HW121800   4.504   1.887   1.334 -2.6148 -1.7363 -0.5304
 3389SOL    HW221801   4.408   1.950   1.422  1.9870 -1.3121  0.8512
 3390SOL     OW21802   1.252   4.520   4.703  0.2167 -0.4209  0.8354
 3390SOL    HW121803   1.211   4.600   4.737 -1.0600 -0.3982 -0.7101
 3390SOL    HW221804   1.252   4.535   4.608 -1.4344  2.0996  1.2285
 3391SOL     OW21805   0.990   4.304   6.381 -0.7158  0.1840  0.3513
 3391SOL    HW121806   1.046   4.331   6.454  1.5521  0.8680 -1.6319
 3391SOL    HW221807   0.924   4.255   6.429 -1.2303 -0.1770 -0.7234
 3392SOL     OW21808   0.722   4.604   0.465 -0.4183 -0.4719  0.1004
 3392SOL    HW121809   0.772   4.622   0.385 -0.2635  2.2463  0.8029
 3392SOL    HW221810   0.683   4.691   0.477 -0.1380 -0.2704 -0.4302
 3393SOL     OW21811   1.921   3.444   1.711 -0.1490  0.6856 -0.2058
 3393SOL    HW121812   1.929   3.367   1.655  2.4141  1.7967 -1.3589
 3393SOL    HW221813   1.919   3.395   1.793 -0.9846  0.1177 -0.5710
 3394SOL     OW21814   3.174   4.220  17.268  0.7482 -0.0209 -0.2431
 3394SOL    HW121815   3.194   4.140  17.221 -2.1264 -0.2592 -1.0782
 3394SOL    HW221816   3.086   4.236  17.232  0.7028 -1.9728 -0.9738
 3395SOL     OW21817   0.671   3.399  12.083 -0.3126 -0.1234  0.4919
 3395SOL    HW121818   0.697   3.318  12.127  0.9483  1.3484  2.4306
 3395SOL    HW221819   0.746   3.423  12.029 -0.6818  0.7744  0.3768
 3396SOL     OW21820   2.259   1.873  11.715  0.4969  0.2723  0.2168
 3396SOL    HW121821   2.210   1.899  11.637  0.5538  0.4395  0.2365
 3396SOL    HW221822   2.321   1.813  11.674 -0.1283  0.0816 -0.4381
 3397SOL     OW21823   1.211   0.691   6.750 -0.1856 -0.3723 -0.2764
 3397SOL    HW121824   1.247   0.663   6.666 -1.7142 -1.7862 -0.4637
 3397SOL    HW221825   1.124   0.651   6.750  0.1435 -1.0906 -1.2180
 3398SOL     OW21826   4.399   1.154  14.032 -0.4160 -0.2734  0.7663
 3398SOL    HW121827   4.485   1.112  14.031  1.0166  2.6761  1.7036
 3398SOL    HW221828   4.351   1.116  13.959  0.7108  0.4069 -0.3279
 3399SOL     OW21829   4.163   1.651   4.316 -0.1773  0.3200  0.0306
 3399SOL    HW121830   4.161   1.558   4.339 -0.8645  0.0395 -1.1737
 3399SOL    HW221831   4.074   1.661   4.283 -0.5133  0.3927  0.9633
 3400SOL     OW21832   1.150   1.855   6.341 -0.1056  0.0921  0.0718
 3400SOL    HW121833   1.125   1.915   6.271  0.0822  0.9356  0.7101
 3400SOL    HW221834   1.242   1.839   6.318 -0.9054 -3.2251 -0.7610
 3401SOL     OW21835   4.404   0.130   6.603  0.8802  0.1314 -0.1563
 3401SOL    HW121836   4.367   0.184   6.532  0.2480  0.0182  0.0854
 3401SOL    HW221837   4.416   0.045   6.561 -2.1100  0.6904 -2.2387
 3402SOL     OW21838   3.353   0.080   7.259 -0.5649  0.1049  0.4832
 3402SOL    HW121839   3.344   0.163   7.305 -0.8665  0.0920  0.4481
 3402SOL    HW221840   3.396   0.024   7.324  2.7037 -1.7001 -3.2426
 3403SOL     OW21841   4.114   2.134   6.921 -0.5589 -0.3337  0.7902
 3403SOL    HW121842   4.182   2.195   6.893 -0.0348 -1.6563 -0.8349
 3403SOL    HW221843   4.150   2.053   6.884 -0.4250 -0.1553  0.5335
 3404SOL     OW21844   1.621   1.708   4.715  0.2328  0.1109 -0.8132
 3404SOL    HW121845   1.695   1.767   4.728 -0.0073  0.4699 -1.0654
 3404SOL    HW221846   1.555   1.773   4.689 -1.0280 -0.7172  0.3057
 3405SOL     OW21847   4.025   2.457   7.431 -0.4682 -0.0469  0.3240
 3405SOL    HW121848   4.106   2.412   7.407  0.6068  2.3624 -0.5422
 3405SOL    HW221849   4.000   2.397   7.502  2.3651 -0.1498  1.2107
 3406SOL     OW21850   1.494   3.743   3.060 -0.3131 -0.5529  0.0348
 3406SOL    HW121851   1.577   3.791   3.069 -0.7747  0.1054  0.7758
 3406SOL    HW221852   1.459   3.777   2.978 -0.0270  1.1994  0.6360
 3407SOL     OW21853   0.887   0.953   6.350  0.4601  0.5925  0.2686
 3407SOL    HW121854   0.947   1.028   6.341  0.4537  0.6029  0.3161
 3407SOL    HW221855   0.936   0.892   6.405 -0.0784 -0.4497 -0.4171
 3408SOL     OW21856   3.435   1.537   6.011  0.3122  0.0261  0.2134
 3408SOL    HW121857   3.470   1.536   5.922  1.0522  2.1761  0.4813
 3408SOL    HW221858   3.508   1.519   6.069 -0.6903 -0.7619  1.2338
 3409SOL     OW21859   3.140   0.536   3.565  0.3531  0.5507  0.2659
 3409SOL    HW121860   3.114   0.628   3.567 -1.2320  0.1546 -1.8281
 3409SOL    HW221861   3.056   0.491   3.580  1.3373 -1.6833 -0.9319
 3410SOL     OW21862   2.628   3.779  16.674 -0.2496  0.3958  0.3175
 3410SOL    HW121863   2.688   3.814  16.740  0.5792 -1.6335  0.6298
 3410SOL    HW221864   2.693   3.783  16.603 -0.1536  0.9950  0.4421
 3411SOL     OW21865   4.667   4.605  14.502 -0.3174  0.0715 -0.4976
 3411SOL    HW121866   4.658   4.649  14.587  1.8306  3.1272 -1.8779
 3411SOL    HW221867   4.574   4.592  14.485 -0.4059  0.1027 -0.0550
 3412SOL     OW21868   4.713   2.349   5.056 -0.0042  0.2071 -0.1872
 3412SOL    HW121869   4.724   2.443   5.039 -0.1124  0.2677  0.0674
 3412SOL    HW221870   0.046   2.348   5.118  0.6136 -1.6162 -0.9554
 3413SOL     OW21871   4.155   0.992  17.308 -0.1726  0.7111  0.2902
 3413SOL    HW121872   4.216   0.969  17.378 -0.0639 -2.4295 -0.8565
 3413SOL    HW221873   4.198   0.967  17.226 -0.0058 -0.5733  0.7839
 3414SOL     OW21874   3.370   3.586   8.455  0.0058  0.1293  0.3356
 3414SOL    HW121875   3.409   3.587   8.367 -1.6177  0.1540 -0.3981
 3414SOL    HW221876   3.281   3.604   8.423 -0.2560  0.4971  1.2639
 3415SOL     OW21877   1.178   1.931   5.429 -0.2872 -0.5437  0.2517
 3415SOL    HW121878   1.176   1.990   5.504  1.2285 -0.4462  0.2167
 3415SOL    HW221879   1.132   1.978   5.360  0.9878 -0.5777 -0.6226
 3416SOL     OW21880   4.519   4.395  16.234  0.0434 -0.0696 -0.3094
 3416SOL    HW121881   4.434   4.410  16.277 -0.2949  0.4177 -1.1495
 3416SOL    HW221882   4.565   4.479  16.235 -0.1282  0.0337 -1.2877
 3417SOL     OW21883   1.671   3.421   4.138 -0.5522 -0.2994  0.5524
 3417SOL    HW121884   1.581   3.425   4.173 -0.7433 -0.2226  0.0539
 3417SOL    HW221885   1.723   3.453   4.212 -0.7663 -1.1844  1.0836
 3418SOL     OW21886   0.471   1.553   7.640 -0.4907 -0.6975  0.5148
 3418SOL    HW121887   0.511   1.639   7.654 -2.1199  0.0676  0.5282
 3418SOL    HW221888   0.401   1.582   7.581 -1.0584 -0.0448  1.4960
 3419SOL     OW21889   1.274   2.037  12.850  0.0578  0.1264  0.0772
 3419SOL    HW121890   1.264   2.126  12.883  1.7261  0.8024 -1.2608
 3419SOL    HW221891   1.288   2.059  12.758  0.5545  2.7169  0.7904
 3420SOL     OW21892   0.805   0.148   8.878  0.5128 -0.6371  0.1497
 3420SOL    HW121893   0.889   0.181   8.908  0.0962 -1.0231  1.7642
 3420SOL    HW221894   0.768   0.142   8.966 -1.0693 -4.4030 -0.7530
 3421SOL     OW21895   2.749   0.262   8.141 -0.5063  0.2821 -0.5422
 3421SOL    HW121896   2.664   0.263   8.097 -0.5796  1.7881 -0.3809
 3421SOL    HW221897   2.784   0.346   8.111 -0.2994  0.1439 -0.6875
 3422SOL     OW21898   3.382   3.120   4.221 -0.2689 -0.5393  0.2816
 3422SOL    HW121899   3.431   3.202   4.230 -2.1318  0.9879 -3.2139
 3422SOL    HW221900   3.389   3.101   4.128  0.8526 -2.0225  0.6677
 3423SOL     OW21901   4.524   2.270   9.941  0.1182 -0.0529 -0.3976
 3423SOL    HW121902   4.522   2.198   9.878 -0.3646 -1.8987  1.7322
 3423SOL    HW221903   4.540   2.336   9.873 -1.9477  0.9754  0.1003
 3424SOL     OW21904   3.410   1.614  17.572  0.0336  0.0727 -0.3832
 3424SOL    HW121905   3.366   1.605  17.656 -1.2461 -1.0065 -1.1828
 3424SOL    HW221906   3.378   1.694  17.532 -0.6125  0.5853  1.1647
 3425SOL     OW21907   4.542   3.164   1.492 -0.1726 -0.6018 -0.2663
 3425SOL    HW121908   4.626   3.132   1.525  0.0780  2.4773  2.0433
 3425SOL    HW221909   4.542   3.258   1.507 -0.0322 -0.2932 -2.2427
 3426SOL     OW21910   2.117   4.569   3.595  0.2008  0.2940  0.1110
 3426SOL    HW121911   2.167   4.589   3.515 -0.3524 -0.6834 -0.4776
 3426SOL    HW221912   2.131   4.475   3.605  3.6731  1.1666  3.0869
 3427SOL     OW21913   2.277   2.718  14.731 -0.3763 -0.7905 -0.0660
 3427SOL    HW121914   2.207   2.681  14.678  0.1817 -1.6443 -0.2054
 3427SOL    HW221915   2.357   2.668  14.713  0.4092  0.4711 -0.1020
 3428SOL     OW21916   2.340   1.593   1.195  0.1678 -0.5657  0.2848
 3428SOL    HW121917   2.351   1.569   1.287  0.4774  0.8547  0.6262
 3428SOL    HW221918   2.310   1.510   1.158  1.3202 -1.3379  1.1100
 3429SOL     OW21919   1.117   2.762   1.016 -0.1270  0.4763  0.4513
 3429SOL    HW121920   1.081   2.828   0.957  2.3216 -0.2905 -1.8980
 3429SOL    HW221921   1.132   2.683   0.964  0.8575 -0.3570  2.0061
 3430SOL     OW21922   1.321   0.246   5.389 -0.5429 -0.2863  0.9310
 3430SOL    HW121923   1.254   0.293   5.439 -0.5690 -0.0319  0.6568
 3430SOL    HW221924   1.383   0.216   5.455 -1.0066  0.7351  1.8402
 3431SOL     OW21925   3.588   0.571   1.421  0.5024 -0.0716 -0.0624
 3431SOL    HW121926   3.613   0.663   1.426  1.3481 -0.4021  1.6439
 3431SOL    HW221927   3.549   0.569   1.333  1.0942  1.7892 -0.3545
 3432SOL     OW21928   0.292   0.420   3.530 -0.0184 -0.3089 -0.0086
 3432SOL    HW121929   0.211   0.374   3.552  0.1939 -1.2281 -1.1743
 3432SOL    HW221930   0.346   0.399   3.606  0.8117 -0.3264 -0.5979
 3433SOL     OW21931   1.380   0.565   3.878  0.1608 -0.4912 -0.4903
 3433SOL    HW121932   1.443   0.635   3.859  0.8042 -1.2174 -1.0499
 3433SOL    HW221933   1.296   0.610   3.872  0.3234  0.0008  0.9569
 3434SOL     OW21934   2.613   1.045   5.315  0.3797  0.1045  0.1391
 3434SOL    HW121935   2.620   1.062   5.409 -3.9691  0.3662  0.4507
 3434SOL    HW221936   2.706   1.032   5.299 -0.3196 -1.7014 -2.3078
 3435SOL     OW21937   2.737   4.543   8.581 -0.4065 -0.1728 -0.0140
 3435SOL    HW121938   2.644   4.555   8.560 -0.8478  0.9804  2.5882
 3435SOL    HW221939   2.717   4.525   8.673  1.5333 -1.8050  0.0965
 3436SOL     OW21940   1.891   1.026   4.132 -0.1828 -0.1887 -0.0639
 3436SOL    HW121941   1.845   0.994   4.209 -2.0952 -3.8175 -2.7088
 3436SOL    HW221942   1.935   0.945   4.106  1.2044  0.4507  0.3023
 3437SOL     OW21943   4.047   3.224   4.149  0.3923 -0.1097 -0.4900
 3437SOL    HW121944   4.121   3.191   4.097  0.2417 -1.6886  0.2873
 3437SOL    HW221945   4.038   3.310   4.108  0.2639 -0.5347 -1.3675
 3438SOL     OW21946   1.124   0.381   9.584  0.0429  0.0865 -0.3649
 3438SOL    HW121947   1.175   0.410   9.508  1.0050 -1.5577 -0.3550
 3438SOL    HW221948   1.188   0.383   9.656  0.4248 -0.8925 -0.6683
 3439SOL     OW21949   0.807   4.625  16.076 -0.2664 -1.1429  0.0361
 3439SOL    HW121950   0.802   4.714  16.042  2.1271 -1.2993 -0.7422
 3439SOL    HW221951   0.746   4.583  16.016  0.6568 -1.2009 -0.8766
 3440SOL     OW21952   0.013   2.275  12.459 -0.1294  0.1581 -0.1298
 3440SOL    HW121953   0.067   2.325  12.398  1.1579 -1.1264 -0.0403
 3440SOL    HW221954   4.698   2.239  12.390 -0.4655  0.9500 -0.2820
 3441SOL     OW21955   4.566   1.766   2.793  0.1108 -0.6166 -0.1332
 3441SOL    HW121956   4.565   1.713   2.713  0.3853 -0.0866 -0.4935
 3441SOL    HW221957   4.660   1.763   2.811  0.0569 -0.8343  0.1109
 3442SOL     OW21958   2.479   1.965   6.256  0.1144 -0.2045  0.6439
 3442SOL    HW121959   2.477   1.880   6.301 -0.5938  0.6413  2.1869
 3442SOL    HW221960   2.494   2.026   6.328  0.3565  0.0059  0.4160
 3443SOL     OW21961   3.683   3.468   2.364  0.0466  0.1462  0.0097
 3443SOL    HW121962   3.728   3.550   2.341  1.5108 -0.7772 -0.4635
 3443SOL    HW221963   3.674   3.486   2.457  0.4685 -0.7202  0.2144
 3444SOL     OW21964   1.197   2.277   8.553  0.5054  0.3568  0.1381
 3444SOL    HW121965   1.273   2.225   8.527  0.2468  0.0187  0.0555
 3444SOL    HW221966   1.221   2.297   8.644  0.8916 -1.2425  0.3865
 3445SOL     OW21967   2.896   2.315   8.840 -0.3640  0.2666  0.0950
 3445SOL    HW121968   2.910   2.222   8.822 -1.7386  0.1137 -0.2211
 3445SOL    HW221969   2.940   2.333   8.923 -0.9757  0.1255  0.4533
 3446SOL     OW21970   1.380   1.915   5.061  0.3546  0.3080  0.0784
 3446SOL    HW121971   1.372   1.982   4.993 -0.9674 -1.3012 -1.3262
 3446SOL    HW221972   1.383   1.966   5.142  2.7031  1.4792 -0.7271
 3447SOL     OW21973   1.170   3.755   6.174 -0.0807  0.1162  0.3694
 3447SOL    HW121974   1.204   3.695   6.240  0.4129 -0.3149 -0.2686
 3447SOL    HW221975   1.243   3.761   6.112  0.9514  1.8991  1.7501
 3448SOL     OW21976   2.923   4.515   8.061  0.6058 -0.3890 -0.4559
 3448SOL    HW121977   2.867   4.563   8.122  1.6105  0.9790 -0.6111
 3448SOL    HW221978   2.910   4.424   8.087 -1.7917  0.4749  1.3651
 3449SOL     OW21979   1.468   0.634   6.915  0.2951 -0.2763 -0.0516
 3449SOL    HW121980   1.400   0.567   6.914 -1.0672  1.1275 -0.6108
 3449SOL    HW221981   1.421   0.698   6.863 -2.2757 -2.6090 -0.5591
 3450SOL     OW21982   4.176   4.623   8.682  0.5739 -0.2102  0.1113
 3450SOL    HW121983   4.187   4.531   8.658  1.0284  0.5213 -2.4816
 3450SOL    HW221984   4.206   4.622   8.773  3.8564 -1.3816 -0.9782
 3451SOL     OW21985   3.088   3.694   3.529 -0.0790 -0.1226 -0.1372
 3451SOL    HW121986   3.036   3.714   3.451  1.1349  0.6246 -0.7648
 3451SOL    HW221987   3.107   3.776   3.575 -2.2673  0.9312 -1.1179
 3452SOL     OW21988   3.375   0.778   4.664 -0.3236 -0.0764  0.1419
 3452SOL    HW121989   3.463   0.772   4.701 -0.5995 -2.3173  0.4150
 3452SOL    HW221990   3.373   0.686   4.637 -0.0151  0.9219 -3.3819
 3453SOL     OW21991   4.580   4.338   0.847 -0.1014  0.1146 -0.6065
 3453SOL    HW121992   4.584   4.387   0.929 -1.3893  2.2677 -1.7972
 3453SOL    HW221993   4.599   4.250   0.877 -1.3491 -0.3360 -1.1306
 3454SOL     OW21994   4.430   1.479   9.220  0.6517 -0.2230  0.3515
 3454SOL    HW121995   4.452   1.572   9.220 -0.3261  0.0068  1.1073
 3454SOL    HW221996   4.440   1.464   9.314  0.3394  0.6184  0.5244
 3455SOL     OW21997   1.010   1.491   7.796  1.1978 -0.2773 -0.8948
 3455SOL    HW121998   0.963   1.571   7.773 -1.1201 -0.5660  2.7817
 3455SOL    HW221999   0.992   1.440   7.716 -0.8020  0.9662 -1.2280
 3456SOL     OW22000   0.389   1.310   8.378 -0.1925 -0.6709 -0.1466
 3456SOL    HW122001   0.389   1.358   8.461 -2.4307 -1.8697  0.5642
 3456SOL    HW222002   0.353   1.368   8.311 -1.3820 -1.6862 -0.3950
 3457SOL     OW22003   4.547   3.128   8.995  0.0661 -0.4984  0.1374
 3457SOL    HW122004   4.539   3.073   8.916 -0.2655  1.1936 -1.0017
 3457SOL    HW222005   4.544   3.214   8.953 -2.6154 -2.0970 -2.9271
 3458SOL     OW22006   3.150   1.777  16.488  0.4389  0.1692  0.0703
 3458SOL    HW122007   3.173   1.731  16.407 -0.0357  1.8779 -1.0431
 3458SOL    HW222008   3.209   1.749  16.557  0.8625 -0.1030 -0.4036
 3459SOL     OW22009   1.615   4.071   4.784  0.3011  0.6193  0.5270
 3459SOL    HW122010   1.652   4.143   4.732  1.1401  0.2983  0.6774
 3459SOL    HW222011   1.608   4.004   4.716  0.2378 -0.8090  1.9626
 3460SOL     OW22012   3.820   2.641   9.427 -0.6739  0.0801  0.5965
 3460SOL    HW122013   3.785   2.730   9.416  0.0537  0.1830 -1.0049
 3460SOL    HW222014   3.824   2.644   9.522  0.1593  3.0594  0.4736
 3461SOL     OW22015   3.388   0.243   5.324  0.3334 -0.2179 -0.0894
 3461SOL    HW122016   3.305   0.270   5.365 -0.7080  0.1537 -2.3968
 3461SOL    HW222017   3.432   0.180   5.380  0.7108  1.1292  1.1290
 3462SOL     OW22018   2.231   4.395  11.939  0.8162  0.3671  0.5758
 3462SOL    HW122019   2.291   4.339  11.988  0.6620  0.1421  0.5031
 3462SOL    HW222020   2.216   4.475  11.990  0.9304  1.0634 -0.4837
 3463SOL     OW22021   0.340   2.800   6.581  0.0890  0.9279  0.2929
 3463SOL    HW122022   0.252   2.783   6.613  0.5989  0.8614  1.6911
 3463SOL    HW222023   0.383   2.725   6.622  2.2693  1.0735 -1.7187
 3464SOL     OW22024   3.467   1.503   4.350 -0.5458 -0.1834 -0.7898
 3464SOL    HW122025   3.505   1.449   4.280  0.1030 -0.0021 -0.5767
 3464SOL    HW222026   3.543   1.525   4.404 -0.8883 -0.6279 -0.1209
 3465SOL     OW22027   4.628   1.121  13.182  0.4982 -0.3297  0.0249
 3465SOL    HW122028   4.598   1.033  13.205  0.6915 -0.8245 -1.6399
 3465SOL    HW222029   4.570   1.173  13.238  0.8302  2.9038 -2.6350
 3466SOL     OW22030   4.600   1.704   9.109 -0.0831 -0.0173 -0.6444
 3466SOL    HW122031   4.679   1.674   9.063  0.5351  0.2373  0.2417
 3466SOL    HW222032   4.641   1.757   9.178  0.1678  2.6187 -2.8324
 3467SOL     OW22033   1.613   0.649   2.221  0.6614 -0.7517 -0.0912
 3467SOL    HW122034   1.618   0.708   2.145  0.1861 -2.6824 -1.6244
 3467SOL    HW222035   1.597   0.712   2.291  0.9773 -1.3499  0.5199
 3468SOL     OW22036   2.053   0.220   7.025 -0.2488 -0.1072  0.5922
 3468SOL    HW122037   2.079   0.312   7.012  2.7006 -0.9903  0.3789
 3468SOL    HW222038   2.065   0.208   7.119 -2.4088  2.7674  1.2599
 3469SOL     OW22039   3.495   4.626   6.785 -0.0170  0.2083 -0.1415
 3469SOL    HW122040   3.496   4.721   6.797  1.5171 -0.0332  1.6463
 3469SOL    HW222041   3.502   4.630   6.690 -1.5463  2.4375 -0.1536
 3470SOL     OW22042   4.532   3.918  15.030  0.2157 -0.8204  0.1270
 3470SOL    HW122043   4.473   3.967  14.974 -1.6670 -1.9236  1.1502
 3470SOL    HW222044   4.547   3.982  15.099  0.8716 -1.5641  0.6838
 3471SOL     OW22045   0.549   3.303  10.919 -0.4434  0.3838 -0.3061
 3471SOL    HW122046   0.512   3.347  10.842 -2.1834  0.4651  0.5790
 3471SOL    HW222047   0.620   3.260  10.873 -2.1092 -0.0919 -2.4236
 3472SOL     OW22048   3.101   1.994   8.503  0.2088 -0.2502 -0.0978
 3472SOL    HW122049   3.034   1.997   8.435  0.2421  0.0383 -0.1197
 3472SOL    HW222050   3.050   1.966   8.579  2.8690  1.7633  2.4109
 3473SOL     OW22051   3.558   4.169   7.882  0.4810  0.0784 -0.5173
 3473SOL    HW122052   3.654   4.174   7.891  0.1870  0.7153  2.0200
 3473SOL    HW222053   3.551   4.215   7.798  0.7929  1.2583  0.1101
 3474SOL     OW22054   4.482   3.977   7.512  0.0631  0.5925  0.3378
 3474SOL    HW122055   4.486   3.907   7.578  0.0137  1.4306  1.2322
 3474SOL    HW222056   4.445   3.923   7.442  0.6664  1.5265 -0.6825
 3475SOL     OW22057   3.039   1.506   8.333  1.2532  0.0489  0.2292
 3475SOL    HW122058   3.114   1.498   8.274 -0.2751  0.6639 -1.7995
 3475SOL    HW222059   3.061   1.593   8.364  0.6314 -0.3828  1.8935
 3476SOL     OW22060   4.094   2.111   6.252 -0.6166 -0.6871 -0.2467
 3476SOL    HW122061   4.147   2.098   6.331 -1.6662  0.8967  0.7299
 3476SOL    HW222062   4.005   2.107   6.288 -0.3254  0.1643  0.5739
 3477SOL     OW22063   4.342   2.901   2.172 -0.0391  0.1676 -0.1806
 3477SOL    HW122064   4.369   2.815   2.203  0.8739  0.6659  0.3864
 3477SOL    HW222065   4.327   2.943   2.257  0.1035 -0.6892  0.2592
 3478SOL     OW22066   0.333   3.592   8.307 -0.8201  0.0608 -0.1468
 3478SOL    HW122067   0.322   3.514   8.252  2.2259  0.4313 -1.2837
 3478SOL    HW222068   0.375   3.550   8.383 -0.0273 -1.4642 -1.4063
 3479SOL     OW22069   1.229   2.979   8.877  0.3502 -0.2693 -0.3803
 3479SOL    HW122070   1.300   2.984   8.813  0.8790 -1.2956  0.1161
 3479SOL    HW222071   1.286   2.978   8.955  2.3825 -0.9385 -1.8750
 3480SOL     OW22072   4.563   2.777   8.037  0.1276  0.3213 -0.3769
 3480SOL    HW122073   4.657   2.793   8.030 -0.2212  3.4284  2.1640
 3480SOL    HW222074   4.566   2.688   8.002  1.4290 -0.0191  0.6357
 3481SOL     OW22075   3.899   3.794   5.330  0.7850  0.1622  0.3609
 3481SOL    HW122076   3.812   3.816   5.298  0.5276  0.4596  1.2725
 3481SOL    HW222077   3.881   3.820   5.420 -0.0679 -0.0629  0.2588
 3482SOL     OW22078   3.962   0.217   7.209 -0.1732 -0.3103 -0.0968
 3482SOL    HW122079   3.963   0.253   7.121 -2.8779  1.5033  0.5865
 3482SOL    HW222080   3.870   0.191   7.212  0.0180 -0.9130  0.3728
 3483SOL     OW22081   1.523   2.803  15.036 -0.3085 -0.1421  1.2070
 3483SOL    HW122082   1.580   2.867  14.992 -0.0534 -2.0076 -1.1857
 3483SOL    HW222083   1.597   2.751  15.068 -0.2238  0.2182  1.5934
 3484SOL     OW22084   3.958   3.498   1.705 -0.4236  1.5872 -0.6014
 3484SOL    HW122085   3.892   3.454   1.652  2.9201 -0.8448 -2.7632
 3484SOL    HW222086   3.905   3.516   1.783  0.8406  2.2051  0.1143
 3485SOL     OW22087   2.463   4.100   8.225 -0.4403 -0.4068 -0.8206
 3485SOL    HW122088   2.385   4.144   8.258  0.1160  0.3379 -0.4957
 3485SOL    HW222089   2.528   4.170   8.223 -0.4271 -0.3509  1.9236
 3486SOL     OW22090   0.824   1.783   5.291 -0.3104  0.4237 -0.2356
 3486SOL    HW122091   0.904   1.794   5.240  0.3872  2.0017  1.1691
 3486SOL    HW222092   0.755   1.797   5.227 -0.7123 -0.3932  0.0198
 3487SOL     OW22093   3.531   4.639   2.959 -0.3976  0.3259  0.0134
 3487SOL    HW122094   3.519   4.574   3.028 -2.1128 -0.4626 -1.0110
 3487SOL    HW222095   3.442   4.641   2.923  0.0011 -0.2427 -1.0354
 3488SOL     OW22096   1.913   3.351   7.106  0.2025  0.6526 -0.4576
 3488SOL    HW122097   1.885   3.363   7.015  2.1386  0.3191 -1.0993
 3488SOL    HW222098   1.860   3.421   7.145 -0.1443  0.5673 -0.7739
 3489SOL     OW22099   3.352   1.617  16.635  0.1683 -0.7945 -0.7431
 3489SOL    HW122100   3.321   1.549  16.695  0.0987  0.5591  0.7635
 3489SOL    HW222101   3.446   1.606  16.649  0.0206 -0.0900  0.7823
 3490SOL     OW22102   2.780   3.098   3.678 -0.6747 -0.6664  0.1610
 3490SOL    HW122103   2.836   3.174   3.665  1.5371 -2.8745 -3.1811
 3490SOL    HW222104   2.717   3.113   3.607  0.7356 -1.1446 -1.1986
 3491SOL     OW22105   2.494   0.593  11.255 -0.1142 -0.6367  0.2361
 3491SOL    HW122106   2.578   0.547  11.247  0.3555  0.1912  0.3603
 3491SOL    HW222107   2.499   0.656  11.182  0.4872 -0.2053  0.6453
 3492SOL     OW22108   2.196   3.587   1.643  0.3144 -0.2756  0.0533
 3492SOL    HW122109   2.132   3.538   1.695  0.0437 -0.2802 -0.2870
 3492SOL    HW222110   2.202   3.672   1.687  0.5802  0.5101 -1.4865
 3493SOL     OW22111   3.213   0.414  15.165  0.3490  0.0184 -0.4456
 3493SOL    HW122112   3.307   0.419  15.148  0.9593 -1.6684  2.5217
 3493SOL    HW222113   3.203   0.491  15.220 -0.9707  0.1393 -0.8381
 3494SOL     OW22114   0.053   4.637   4.770  0.2565  0.4004  0.6567
 3494SOL    HW122115   0.143   4.608   4.781  0.3673 -0.1609 -1.8241
 3494SOL    HW222116   0.039   4.660   4.862  4.3125 -0.3459  1.4628
 3495SOL     OW22117   2.858   4.585   4.938 -0.6658 -0.0045  0.1556
 3495SOL    HW122118   2.779   4.536   4.959 -0.1358 -0.3119  1.4907
 3495SOL    HW222119   2.827   4.675   4.944 -1.3188 -0.2526  0.4556
 3496SOL     OW22120   2.508   4.250   2.878 -0.5510 -0.4115  0.3163
 3496SOL    HW122121   2.541   4.204   2.801  0.1061  0.1156  0.2754
 3496SOL    HW222122   2.526   4.342   2.860  2.4347 -1.0438  0.0803
 3497SOL     OW22123   0.485   2.357  16.992  0.6860  0.1199  0.3128
 3497SOL    HW122124   0.479   2.391  17.081 -0.1323  0.5709  0.0811
 3497SOL    HW222125   0.397   2.385  16.970  0.7240  0.2707  0.3579
 3498SOL     OW22126   3.395   3.030   3.022  0.4156  0.3335 -0.6658
 3498SOL    HW122127   3.429   3.119   3.012 -1.9895  1.4380  0.9501
 3498SOL    HW222128   3.369   3.006   2.933 -1.1280  0.5316 -0.2592
 3499SOL     OW22129   1.290   3.468   5.986 -0.1828  0.2953  0.0543
 3499SOL    HW122130   1.246   3.444   6.068  0.6075 -1.2694  0.0378
 3499SOL    HW222131   1.319   3.382   5.955  3.7009  1.9948 -1.1349
 3500SOL     OW22132   0.341   1.721  15.790  0.0474  0.5759  0.4591
 3500SOL    HW122133   0.288   1.799  15.777 -2.0195 -0.7985  0.6622
 3500SOL    HW222134   0.357   1.683  15.703 -0.2544 -1.1430  1.1617
 3501SOL     OW22135   0.151   0.918   6.774  0.3631 -0.0958 -0.1600
 3501SOL    HW122136   0.165   0.848   6.710  0.9772  0.1244 -0.2639
 3501SOL    HW222137   0.117   0.873   6.851 -0.4979  1.2261  0.2310
 3502SOL     OW22138   3.752   2.676   9.077 -0.1984  0.0167 -0.1628
 3502SOL    HW122139   3.824   2.617   9.059  1.6904  2.1086  0.5415
 3502SOL    HW222140   3.690   2.624   9.129 -0.6733  2.9481  2.3009
 3503SOL     OW22141   2.778   0.896   1.354  0.3337  0.2976 -0.0137
 3503SOL    HW122142   2.805   0.963   1.291 -2.6410  1.7984  0.3429
 3503SOL    HW222143   2.710   0.943   1.402  0.9784  0.1059  1.0975
 3504SOL     OW22144   1.770   3.335  14.085  0.3668  0.1689  0.2089
 3504SOL    HW122145   1.847   3.279  14.091  0.4354 -0.1442 -3.5474
 3504SOL    HW222146   1.693   3.287  14.115 -0.3483  1.7253  0.8547
 3505SOL     OW22147   0.426   3.419   3.480 -0.2917 -0.1957 -0.0621
 3505SOL    HW122148   0.420   3.434   3.574  0.4763  2.1069 -0.3634
 3505SOL    HW222149   0.446   3.326   3.488  2.1674  0.4709  1.5343
 3506SOL     OW22150   0.353   1.178   5.817  0.5818 -0.2606 -0.3296
 3506SOL    HW122151   0.359   1.099   5.871  1.0009 -1.0950 -1.6101
 3506SOL    HW222152   0.260   1.196   5.834  0.3939 -1.3504 -0.1875
 3507SOL     OW22153   2.058   3.393   3.575  0.4298 -0.0301  0.4040
 3507SOL    HW122154   1.970   3.400   3.538  0.5937 -1.3025 -0.2348
 3507SOL    HW222155   2.044   3.315   3.629  1.1571  0.6197  1.5281
 3508SOL     OW22156   1.827   1.903   4.716 -0.2558 -0.5100  0.1583
 3508SOL    HW122157   1.789   1.938   4.797 -0.9146 -3.1060  0.9711
 3508SOL    HW222158   1.826   1.981   4.661  2.3741  0.8561  2.0890
 3509SOL     OW22159   2.791   3.343  11.701 -0.5584 -0.3455 -0.8919
 3509SOL    HW122160   2.708   3.299  11.683 -0.4077 -0.2148 -1.9099
 3509SOL    HW222161   2.758   3.388  11.779  0.8080  0.5528 -0.8354
 3510SOL     OW22162   4.404   0.635   0.279 -0.5466 -0.2925  0.0926
 3510SOL    HW122163   4.466   0.708   0.278 -1.8991  0.8505 -0.7109
 3510SOL    HW222164   4.347   0.669   0.210 -0.6974  0.0749  0.4031
 3511SOL     OW22165   0.620   2.040   0.064  0.6816  0.1135 -0.0086
 3511SOL    HW122166   0.585   1.962   0.022 -1.3222  0.7741  0.4268
 3511SOL    HW222167   0.715   2.037   0.051  0.7227 -0.4826  0.4181
 3512SOL     OW22168   0.802   0.105   8.069 -0.1659  0.1053 -0.4058
 3512SOL    HW122169   0.795   0.125   7.975 -1.6567 -0.9085 -0.4982
 3512SOL    HW222170   0.711   0.107   8.097 -0.0410 -2.0189  0.1880
 3513SOL     OW22171   0.139   2.924   4.091 -0.0228  0.1864  0.0172
 3513SOL    HW122172   0.055   2.952   4.129 -0.2264 -0.6426  0.1754
 3513SOL    HW222173   0.139   2.831   4.114 -2.5692  0.3852  0.8496
 3514SOL     OW22174   2.470   2.167   8.912 -0.2802  0.0391 -1.1539
 3514SOL    HW122175   2.404   2.134   8.851  0.2466  0.8063 -2.1300
 3514SOL    HW222176   2.507   2.240   8.863  0.0267  1.2336  0.8832
 3515SOL     OW22177   0.895   0.553   5.917 -0.1295 -0.4354 -0.0513
 3515SOL    HW122178   0.858   0.575   6.003  0.4864 -0.0365  0.1132
 3515SOL    HW222179   0.935   0.469   5.936  0.9275 -0.2514 -1.4508
 3516SOL     OW22180   0.478   2.187   7.385  0.5484  0.4807 -0.1121
 3516SOL    HW122181   0.480   2.277   7.353  1.3153  0.2541 -0.7052
 3516SOL    HW222182   0.385   2.184   7.408 -0.2083  1.1880 -3.1685
 3517SOL     OW22183   4.320   4.440   4.789  0.6888  0.1892  0.8208
 3517SOL    HW122184   4.404   4.449   4.833  3.0798 -1.4289 -3.3823
 3517SOL    HW222185   4.360   4.446   4.702 -2.1030 -0.2028 -0.5007
 3518SOL     OW22186   2.750   2.525   6.323 -0.1557 -0.1051  0.1164
 3518SOL    HW122187   2.805   2.603   6.317  2.2336 -1.6319  1.8613
 3518SOL    HW222188   2.777   2.481   6.404 -0.0819 -0.1019  0.0940
 3519SOL     OW22189   1.049   2.681  12.042  0.2548 -0.1031  0.5048
 3519SOL    HW122190   0.958   2.686  12.013  0.2475  1.1683  0.7376
 3519SOL    HW222191   1.072   2.588  12.036 -0.1053 -0.1366 -0.3354
 3520SOL     OW22192   3.975   2.180   9.201  0.5489 -0.3659 -0.1262
 3520SOL    HW122193   3.984   2.253   9.139 -1.2314  1.0630  1.2760
 3520SOL    HW222194   3.896   2.138   9.166  0.9105 -0.7376 -0.4991
 3521SOL     OW22195   3.688   3.110   6.627  0.7940  0.4396  0.3032
 3521SOL    HW122196   3.660   3.113   6.536  0.7063  0.6096  0.3370
 3521SOL    HW222197   3.609   3.133   6.676  1.0193  0.1764  0.7916
 3522SOL     OW22198   2.629   3.892   7.255  0.2697  0.3103  0.4087
 3522SOL    HW122199   2.639   3.901   7.349 -0.9982 -0.4606  0.6147
 3522SOL    HW222200   2.715   3.855   7.232 -0.2956 -0.5894 -0.2553
 3523SOL     OW22201   3.982   2.528  10.557 -0.0662 -0.1252  0.3779
 3523SOL    HW122202   4.007   2.554  10.646 -2.5773  1.5311  0.6262
 3523SOL    HW222203   3.887   2.527  10.570  0.2731  0.5888  2.9790
 3524SOL     OW22204   4.058   3.261  10.383 -0.6044 -0.5237 -0.3597
 3524SOL    HW122205   4.042   3.303  10.467 -1.6280 -1.7303  0.0466
 3524SOL    HW222206   4.115   3.185  10.398  0.1572  0.5870  2.2864
 3525SOL     OW22207   4.391   4.118  12.185 -0.5159  0.4384 -0.0236
 3525SOL    HW122208   4.406   4.079  12.272 -1.3610 -2.2405 -1.0860
 3525SOL    HW222209   4.480   4.115  12.151  0.5233 -1.1970  2.8663
 3526SOL     OW22210   1.669   1.403   8.840  0.0372 -0.5071 -0.3740
 3526SOL    HW122211   1.639   1.451   8.762  0.1744 -2.8424 -1.8494
 3526SOL    HW222212   1.658   1.311   8.818 -2.1986 -0.0205 -1.3115
 3527SOL     OW22213   1.052   4.270   8.506 -0.0703  0.0684 -0.3112
 3527SOL    HW122214   1.061   4.296   8.415 -0.9603 -0.1960 -0.4674
 3527SOL    HW222215   1.056   4.354   8.552  0.4827 -0.6414  0.9420
 3528SOL     OW22216   3.293   0.507  16.444 -0.3924 -0.1955 -0.2229
 3528SOL    HW122217   3.383   0.500  16.411 -0.7772  1.5428 -1.6321
 3528SOL    HW222218   3.244   0.452  16.382 -1.5819 -0.7232  1.1969
 3529SOL     OW22219   0.766   1.165   8.088 -0.1201  0.0398  0.6311
 3529SOL    HW122220   0.733   1.174   8.177 -2.3535 -1.2888 -0.0747
 3529SOL    HW222221   0.795   1.254   8.068 -0.9122  0.7032  2.4264
 3530SOL     OW22222   1.077   2.754  11.498  0.8749  0.3944 -0.4057
 3530SOL    HW122223   1.140   2.682  11.501  2.9272  2.1388 -1.1310
 3530SOL    HW222224   1.073   2.784  11.407 -1.0242 -0.8045 -0.6998
 3531SOL     OW22225   2.993   0.400   9.144  0.0875  0.6733  0.3715
 3531SOL    HW122226   2.933   0.326   9.136  0.8169  0.2058 -0.8780
 3531SOL    HW222227   3.042   0.394   9.062  0.0056  1.2999  0.2851
 3532SOL     OW22228   2.888   0.820  16.631  0.5053 -0.1086  0.6201
 3532SOL    HW122229   2.810   0.875  16.634  0.4471 -0.1409 -0.3289
 3532SOL    HW222230   2.850   0.739  16.666 -2.5911  0.8613 -0.5331
 3533SOL     OW22231   3.041   1.800   4.276  0.0060  0.4104 -0.4140
 3533SOL    HW122232   3.037   1.785   4.370  2.2522  0.3985 -0.3175
 3533SOL    HW222233   3.135   1.819   4.270 -0.0006  0.0489 -1.5686
 3534SOL     OW22234   3.289   0.474  17.251  0.0777  0.4459 -0.0393
 3534SOL    HW122235   3.230   0.506  17.182  0.0463 -1.1402 -0.7371
 3534SOL    HW222236   3.366   0.445  17.201 -0.0547  2.2788 -1.3555
 3535SOL     OW22237   4.309   1.161   8.504 -0.2402  0.3312 -0.0936
 3535SOL    HW122238   4.330   1.136   8.413 -0.9578 -3.4992  0.7767
 3535SOL    HW222239   4.373   1.109   8.553 -1.2286 -1.6610 -0.9017
 3536SOL     OW22240   3.747   1.108   6.259 -0.3327 -0.0906 -0.0522
 3536SOL    HW122241   3.714   1.119   6.348  3.7851 -0.7969  1.5889
 3536SOL    HW222242   3.837   1.090   6.287 -1.4663 -1.8574  2.5369
 3537SOL     OW22243   3.996   2.425  13.409 -0.0032 -0.1408  0.0238
 3537SOL    HW122244   4.027   2.353  13.355  0.2287  0.0903 -0.1544
 3537SOL    HW222245   4.069   2.455  13.464 -1.0160  1.5399  0.4484
 3538SOL     OW22246   3.162   1.600   0.234 -0.1753  0.0450  0.2494
 3538SOL    HW122247   3.087   1.549   0.206 -0.0275 -2.2026  3.9550
 3538SOL    HW222248   3.201   1.625   0.150  0.8573 -0.1673  0.6593
 3539SOL     OW22249   0.331   1.497   8.567 -0.5086  0.2173 -0.3885
 3539SOL    HW122250   0.327   1.571   8.506  0.7459  1.3696  0.9344
 3539SOL    HW222251   0.392   1.529   8.634 -0.2200  0.1483 -0.6211
 3540SOL     OW22252   4.106   2.064  16.214 -0.1405 -0.6617 -0.2818
 3540SOL    HW122253   4.040   2.009  16.171 -0.8184  0.8861 -1.2064
 3540SOL    HW222254   4.091   2.143  16.162  0.2057 -0.0583  0.5394
 3541SOL     OW22255   2.281   1.529   0.372 -0.0584  0.2125 -0.0305
 3541SOL    HW122256   2.369   1.531   0.336 -0.0384  1.9408  0.1319
 3541SOL    HW222257   2.264   1.434   0.374 -3.1249  0.7612  0.5101
 3542SOL     OW22258   0.286   1.544   9.799  0.0507  0.2895  0.0474
 3542SOL    HW122259   0.344   1.469   9.809 -1.1760 -0.4439  1.6924
 3542SOL    HW222260   0.200   1.506   9.817 -0.0291  0.0626 -0.8098
 3543SOL     OW22261   3.421   0.816   3.198  0.1056 -0.3558 -0.0369
 3543SOL    HW122262   3.337   0.828   3.155  0.8629 -1.3033 -1.7724
 3543SOL    HW222263   3.435   0.722   3.184  2.4640 -0.0673  0.2480
 3544SOL     OW22264   2.065   3.551   6.077 -0.1429 -0.2459  0.1310
 3544SOL    HW122265   2.103   3.613   6.015 -0.5057 -0.6040 -0.4393
 3544SOL    HW222266   1.975   3.554   6.046  0.0228 -0.1165 -0.3283
 3545SOL     OW22267   0.648   2.852   7.209 -0.3417  0.3747 -0.0550
 3545SOL    HW122268   0.722   2.870   7.267 -0.6963  0.7706  0.2643
 3545SOL    HW222269   0.630   2.940   7.178  2.3480  1.1297  0.5114
 3546SOL     OW22270   1.490   3.483   9.969 -0.3660 -0.1989  0.4984
 3546SOL    HW122271   1.506   3.564  10.018 -2.7923  0.0325  0.9037
 3546SOL    HW222272   1.559   3.428  10.007 -1.5659 -2.1007 -0.0826
 3547SOL     OW22273   3.287   0.316  14.382  0.1091 -0.2480 -0.4824
 3547SOL    HW122274   3.223   0.379  14.416  0.2224 -0.0386 -0.6606
 3547SOL    HW222275   3.238   0.235  14.401  1.2357 -0.7205  0.3985
 3548SOL     OW22276   1.273   2.278   7.385  0.3129  0.7254 -0.0008
 3548SOL    HW122277   1.297   2.368   7.363  1.0717  0.5715  0.1736
 3548SOL    HW222278   1.361   2.240   7.392 -0.2289 -0.6515 -0.6684
 3549SOL     OW22279   3.017   2.155  13.850  0.4005 -0.0462  0.8470
 3549SOL    HW122280   2.955   2.204  13.797  1.7977  2.1978  1.3023
 3549SOL    HW222281   3.071   2.119  13.780  0.6435  1.1146  0.4516
 3550SOL     OW22282   0.392   4.245   4.432  0.3767  0.0774  0.0664
 3550SOL    HW122283   0.357   4.309   4.494 -0.4179  0.3938 -0.7122
 3550SOL    HW222284   0.318   4.187   4.414  1.0299 -0.6202 -0.3868
 3551SOL     OW22285   2.001   1.307   1.357  0.5455  0.2920 -0.1964
 3551SOL    HW122286   2.040   1.232   1.402 -1.8513  0.4007  2.0078
 3551SOL    HW222287   2.059   1.375   1.391 -0.0454  0.8540 -0.3287
 3552SOL     OW22288   4.279   0.482   7.674  0.3786 -0.4377  0.1974
 3552SOL    HW122289   4.306   0.557   7.622  1.0803  0.1022  1.3483
 3552SOL    HW222290   4.295   0.518   7.761 -1.8928  0.6766  0.1487
 3553SOL     OW22291   2.804   3.022   4.934 -0.5054  0.3573 -0.4170
 3553SOL    HW122292   2.778   3.109   4.903 -1.9430 -0.2243 -0.8471
 3553SOL    HW222293   2.760   2.968   4.868  0.2063 -0.8917  0.1353
 3554SOL     OW22294   2.855   1.600   7.358 -0.4762  0.1227 -0.2138
 3554SOL    HW122295   2.867   1.683   7.313  1.1934 -0.7744 -1.4116
 3554SOL    HW222296   2.827   1.540   7.290 -2.7487  1.1615 -0.1884
 3555SOL     OW22297   2.051   4.578  10.836  0.2854 -0.3924  0.0557
 3555SOL    HW122298   2.134   4.622  10.856 -0.5469  0.3102  1.9471
 3555SOL    HW222299   2.096   4.504  10.796 -1.6441 -1.7686  0.4300
 3556SOL     OW22300   3.706   3.473   9.451  0.0269  0.3302 -0.2443
 3556SOL    HW122301   3.800   3.473   9.436  0.1429 -1.0370  0.4922
 3556SOL    HW222302   3.708   3.523   9.533  1.0531 -0.7547  0.3944
 3557SOL     OW22303   1.788   2.884   0.968  0.1068  0.0106  0.7185
 3557SOL    HW122304   1.843   2.879   1.046  3.1391 -2.1501 -1.5816
 3557SOL    HW222305   1.845   2.867   0.894  0.3351  0.8457  0.6962
 3558SOL     OW22306   2.898   2.933   8.960 -0.1991 -0.4674  0.2691
 3558SOL    HW122307   2.815   2.898   8.928  0.8680 -2.1064 -0.7254
 3558SOL    HW222308   2.881   3.027   8.970  0.1738 -0.3304 -0.3465
 3559SOL     OW22309   1.892   1.668   0.416 -0.1313  0.5841 -0.4326
 3559SOL    HW122310   1.818   1.610   0.400 -0.2297  0.6411 -0.1856
 3559SOL    HW222311   1.890   1.669   0.512 -1.1704  1.8758 -0.4496
 3560SOL     OW22312   2.968   4.691   2.699 -0.2542 -0.2158  0.0798
 3560SOL    HW122313   2.934   4.610   2.663 -1.5348  0.2814  0.1625
 3560SOL    HW222314   2.941   4.688   2.790 -1.4281 -2.4069 -0.3656
 3561SOL     OW22315   0.203   2.890   3.793 -0.1253  0.1247  0.3531
 3561SOL    HW122316   0.253   2.808   3.793 -1.5661 -0.7482  0.6941
 3561SOL    HW222317   0.185   2.907   3.885 -2.8721  0.8958 -0.3287
 3562SOL     OW22318   4.736   1.065  14.319  0.0265 -0.2258 -0.4773
 3562SOL    HW122319   4.655   1.096  14.360  1.2923 -1.3310  2.9006
 3562SOL    HW222320   0.004   0.989  14.377 -1.2975  0.1643  0.2215
 3563SOL     OW22321   4.421   1.269   6.964  0.0988  0.3630 -0.1539
 3563SOL    HW122322   4.431   1.189   7.016  2.5901  1.6652  1.3267
 3563SOL    HW222323   4.498   1.320   6.987  0.4660  0.0783 -0.7460
 3564SOL     OW22324   2.331   0.458   6.056 -0.0015 -0.1963 -0.0986
 3564SOL    HW122325   2.342   0.368   6.027  1.9924 -0.8859  2.7504
 3564SOL    HW222326   2.419   0.493   6.070  0.2891 -1.3235  0.8308
 3565SOL     OW22327   3.453   3.024   9.042 -0.1587  0.3478  0.2503
 3565SOL    HW122328   3.477   3.108   9.081 -3.3567  0.2991  2.3107
 3565SOL    HW222329   3.366   3.027   9.002 -0.8769 -0.3521  1.8024
 3566SOL     OW22330   4.215   1.445   9.943 -0.1591 -0.4126 -0.1888
 3566SOL    HW122331   4.260   1.444   9.859 -0.4329 -0.8332 -0.3306
 3566SOL    HW222332   4.233   1.534   9.972  2.9336 -0.8298 -0.7744
 3567SOL     OW22333   3.594   1.821   7.833 -0.4634 -0.2513  0.1053
 3567SOL    HW122334   3.545   1.763   7.892  1.2720 -0.4673  1.3142
 3567SOL    HW222335   3.581   1.903   7.881  0.8811 -0.6451  1.1280
 3568SOL     OW22336   3.418   1.327   7.871 -0.0949 -0.1821  0.3150
 3568SOL    HW122337   3.352   1.391   7.847 -0.5987 -0.7599  0.1492
 3568SOL    HW222338   3.439   1.345   7.963 -0.7437  2.0214  0.0200
 3569SOL     OW22339   4.655   4.156   7.072 -0.0054 -0.3446  0.0635
 3569SOL    HW122340   4.697   4.149   6.987  1.2059  1.4318  0.5123
 3569SOL    HW222341   4.629   4.065   7.088  3.0428 -0.7451  2.8856
 3570SOL     OW22342   4.730   4.033  11.228 -0.2729 -0.1860 -0.3729
 3570SOL    HW122343   0.022   4.012  11.140 -0.3648  0.1958 -0.4980
 3570SOL    HW222344   4.738   4.128  11.236 -2.8695  0.0435 -0.5908
 3571SOL     OW22345   4.423   3.763   8.311 -0.2686  0.6242  0.2182
 3571SOL    HW122346   4.401   3.673   8.285  2.9193  0.3389 -1.5147
 3571SOL    HW222347   4.395   3.809   8.233 -0.1815 -1.6883 -1.1735
 3572SOL     OW22348   1.075   4.320   9.059 -0.3953 -0.0821 -0.4357
 3572SOL    HW122349   1.005   4.376   9.025  1.9395  0.8506 -3.6860
 3572SOL    HW222350   1.149   4.351   9.008 -0.8937 -0.3841 -1.3380
 3573SOL     OW22351   1.675   1.187  15.587  0.1655  0.2144 -0.0492
 3573SOL    HW122352   1.609   1.249  15.557  0.5774 -0.1615 -1.7155
 3573SOL    HW222353   1.735   1.209  15.516  0.1477 -3.4068 -1.2050
 3574SOL     OW22354   2.749   2.698  17.122  0.7467  0.4543  0.2654
 3574SOL    HW122355   2.689   2.639  17.166 -0.1538  0.2823 -1.1713
 3574SOL    HW222356   2.743   2.772  17.183  1.1385  0.9235 -0.2585
 3575SOL     OW22357   1.563   2.693   9.447 -0.2122  0.5398 -0.0982
 3575SOL    HW122358   1.522   2.702   9.361 -2.6677 -1.7163  0.8053
 3575SOL    HW222359   1.497   2.743   9.495  1.0724  0.7400  1.4587
 3576SOL     OW22360   4.629   1.788   3.291 -0.4886 -0.3835  0.4149
 3576SOL    HW122361   4.670   1.874   3.301  1.5025 -1.1598 -1.0481
 3576SOL    HW222362   4.572   1.790   3.367 -1.1638  0.8495 -0.1345
 3577SOL     OW22363   2.039   4.130   5.176 -0.2549  0.2941  0.0841
 3577SOL    HW122364   1.992   4.053   5.210  0.7843  0.8023  2.6798
 3577SOL    HW222365   1.971   4.180   5.129  0.3924 -0.5436 -1.7177
 3578SOL     OW22366   3.223   1.457   5.596 -0.4454  0.5227 -0.0905
 3578SOL    HW122367   3.163   1.488   5.529  0.7181 -0.5274 -1.5939
 3578SOL    HW222368   3.304   1.474   5.548  0.8237 -0.9215  1.5317
 3579SOL     OW22369   0.767   1.520   5.304  0.2222 -1.0424 -0.5677
 3579SOL    HW122370   0.792   1.613   5.307  0.5442 -1.1281 -0.6292
 3579SOL    HW222371   0.825   1.485   5.236  1.2230  0.0543 -0.2900
 3580SOL     OW22372   4.147   2.800   6.451 -0.6584 -0.8711 -0.1747
 3580SOL    HW122373   4.213   2.772   6.513  0.1768 -1.5028 -1.3424
 3580SOL    HW222374   4.191   2.787   6.367  0.7860  1.1251  0.2880
 3581SOL     OW22375   0.173   1.220   6.387 -0.0721 -0.0750 -0.0738
 3581SOL    HW122376   0.252   1.228   6.333  1.0026 -0.5722  1.4114
 3581SOL    HW222377   0.168   1.306   6.429 -1.9047  0.1892 -0.8256
 3582SOL     OW22378   1.583   3.598   9.076  0.4413 -0.0550 -0.4068
 3582SOL    HW122379   1.584   3.503   9.090 -0.9694  0.1761  1.4198
 3582SOL    HW222380   1.515   3.616   9.141  1.9092  1.5990  0.6582
 3583SOL     OW22381   0.302   0.522  17.128 -0.1602  0.1033  0.1999
 3583SOL    HW122382   0.318   0.441  17.176 -0.0148  0.2562  0.4109
 3583SOL    HW222383   0.381   0.521  17.073 -1.1189 -0.5918 -1.1767
 3584SOL     OW22384   0.208   2.915   8.605 -0.3126  0.0502  0.2229
 3584SOL    HW122385   0.113   2.901   8.606 -0.4856  1.3258  1.9694
 3584SOL    HW222386   0.227   2.875   8.520  3.2116 -2.1476  2.0475
 3585SOL     OW22387   4.699   0.269   6.385  0.1140  0.3890  0.3615
 3585SOL    HW122388   4.668   0.356   6.361  2.2529  1.4910  1.5834
 3585SOL    HW222389   0.019   0.251   6.313 -2.6386  0.0260 -1.8392
 3586SOL     OW22390   4.373   0.240  14.709 -0.5136 -0.1064 -0.5739
 3586SOL    HW122391   4.297   0.200  14.752  0.3731  1.6336  2.6175
 3586SOL    HW222392   4.425   0.268  14.784 -1.8312  0.5685  0.0956
 3587SOL     OW22393   1.487   4.090   1.139 -0.3537  0.0364  0.4017
 3587SOL    HW122394   1.488   4.002   1.178  0.5636 -0.1962 -0.1425
 3587SOL    HW222395   1.464   4.076   1.048  0.0409 -0.5285  0.3886
 3588SOL     OW22396   4.740   0.890   5.606  0.5159 -0.1790 -0.3568
 3588SOL    HW122397   4.697   0.811   5.572 -0.7520 -0.1823  1.2394
 3588SOL    HW222398   0.034   0.931   5.527  0.5901 -1.0548 -0.7720
 3589SOL     OW22399   1.027   1.908   1.954 -0.4592  0.9860 -0.3499
 3589SOL    HW122400   1.108   1.926   1.907  0.4974 -1.5832  0.2898
 3589SOL    HW222401   1.006   1.821   1.919 -0.0759  1.2235 -1.1630
 3590SOL     OW22402   2.394   4.237   3.162 -0.1071 -0.1496  0.2413
 3590SOL    HW122403   2.438   4.309   3.207 -1.3848  0.4720  0.4830
 3590SOL    HW222404   2.456   4.219   3.091  1.9894  2.8733  1.3000
 3591SOL     OW22405   2.461   2.100  13.523 -0.0624  0.1228 -0.0450
 3591SOL    HW122406   2.439   2.046  13.598 -0.8610 -1.4147 -1.3941
 3591SOL    HW222407   2.483   2.031  13.460  0.5205 -0.8242  1.1853
 3592SOL     OW22408   2.775   4.380   9.355 -0.5957 -0.4707 -0.3557
 3592SOL    HW122409   2.866   4.356   9.336 -0.5577  0.2209 -1.0293
 3592SOL    HW222410   2.782   4.432   9.435 -1.0413 -1.3637  0.2739
 3593SOL     OW22411   4.553   1.083  11.310 -0.5904  0.1840 -0.0230
 3593SOL    HW122412   4.468   1.059  11.273 -0.8680 -1.2374  1.5337
 3593SOL    HW222413   4.516   1.105  11.395 -0.1291 -0.3394  0.3149
 3594SOL     OW22414   2.728   3.155   8.088 -0.5503  0.0083 -0.4775
 3594SOL    HW122415   2.638   3.125   8.098 -0.6799 -0.3828 -2.7001
 3594SOL    HW222416   2.733   3.195   8.001  0.6778 -1.2465 -0.9852
 3595SOL     OW22417   2.977   1.291   8.842 -0.0715  0.1237  0.0123
 3595SOL    HW122418   3.036   1.360   8.872  1.3579 -1.4372  0.7548
 3595SOL    HW222419   2.895   1.339   8.828  0.6896  1.6920  1.0201
 3596SOL     OW22420   3.141   1.632   6.733  0.2961  0.1805 -0.1366
 3596SOL    HW122421   3.196   1.649   6.657 -0.5305 -2.7284 -1.3944
 3596SOL    HW222422   3.076   1.702   6.735 -0.2742 -0.3405 -0.0362
 3597SOL     OW22423   3.040   0.981   2.298  0.2332 -0.0996  0.4197
 3597SOL    HW122424   2.952   1.017   2.315 -1.0052 -2.9926  0.0712
 3597SOL    HW222425   3.026   0.887   2.304 -0.4970  0.0276  0.8040
 3598SOL     OW22426   3.306   1.770   4.331 -0.1656  0.3268 -0.5136
 3598SOL    HW122427   3.308   1.833   4.403 -0.1903  0.8962 -1.0017
 3598SOL    HW222428   3.367   1.710   4.373  0.2019  0.9130 -0.2033
 3599SOL     OW22429   3.214   3.533   4.219 -0.2767 -0.1143 -0.0176
 3599SOL    HW122430   3.132   3.484   4.222  0.4579 -1.4048 -0.9462
 3599SOL    HW222431   3.248   3.515   4.131  0.1166  1.9863 -0.2988
 3600SOL     OW22432   3.143   3.595   5.669  0.0926  0.0122  0.2395
 3600SOL    HW122433   3.233   3.626   5.656  0.3157 -0.7743 -0.1204
 3600SOL    HW222434   3.143   3.537   5.745  1.6532 -1.7664 -1.1155
 3601SOL     OW22435   4.304   0.304   5.045 -0.1945 -0.3789  0.4464
 3601SOL    HW122436   4.227   0.248   5.041 -0.3706 -0.1491  0.6312
 3601SOL    HW222437   4.274   0.391   5.019 -0.5505 -0.9216 -0.9302
 3602SOL     OW22438   0.792   2.449   6.421  0.1524 -0.6318  0.3673
 3602SOL    HW122439   0.813   2.394   6.496 -0.8292  0.4202  1.4341
 3602SOL    HW222440   0.751   2.400   6.350  0.5614 -0.9195  0.3339
 3603SOL     OW22441   3.354   2.871  11.381 -0.1457  0.0105 -0.3026
 3603SOL    HW122442   3.295   2.946  11.388 -1.5652 -1.1985  0.5287
 3603SOL    HW222443   3.344   2.836  11.469  0.2722 -1.2375 -0.7532
 3604SOL     OW22444   3.380   0.569   3.089 -0.1329 -0.1577 -0.3778
 3604SOL    HW122445   3.345   0.535   3.172 -0.0138  0.9588  0.1285
 3604SOL    HW222446   3.349   0.499   3.032 -0.1378  1.0920 -1.8924
 3605SOL     OW22447   3.188   4.472   8.960 -0.0768  0.2065  0.5473
 3605SOL    HW122448   3.208   4.379   8.966  2.8455  0.9084  1.7150
 3605SOL    HW222449   3.092   4.477   8.959  0.0250  1.8165 -0.4601
 3606SOL     OW22450   0.837   4.711   7.264  0.2540 -0.0237 -0.0207
 3606SOL    HW122451   0.829   0.046   7.322  3.0185 -0.1087  0.4683
 3606SOL    HW222452   0.868   4.640   7.319 -0.1520 -1.3804 -1.5511
 3607SOL     OW22453   0.887   0.047   6.407 -0.1796  0.1281  0.4553
 3607SOL    HW122454   0.870   0.098   6.486 -0.2092 -0.2692  0.7058
 3607SOL    HW222455   0.929   4.715   6.453 -1.7328 -0.9407  0.1900
 3608SOL     OW22456   1.715   1.981  10.701  0.3469  0.0371  0.0245
 3608SOL    HW122457   1.741   2.045  10.767  2.6575  0.4711 -1.2904
 3608SOL    HW222458   1.643   2.027  10.658  0.8302  0.1459 -0.6769
 3609SOL     OW22459   0.468   4.310  16.021  0.1827 -0.5275  0.0360
 3609SOL    HW122460   0.398   4.298  16.085 -1.7353  0.7131 -1.8620
 3609SOL    HW222461   0.415   4.277  15.949 -2.0573  0.0807  1.4275
 3610SOL     OW22462   1.833   2.151   8.302  0.3327 -0.1592  0.1438
 3610SOL    HW122463   1.753   2.110   8.269  0.8939  0.0285 -1.4629
 3610SOL    HW222464   1.873   2.163   8.216  1.7017  0.0473  0.8068
 3611SOL     OW22465   3.276   4.228   2.818  0.0455 -0.3917  0.2023
 3611SOL    HW122466   3.344   4.253   2.756  1.2504 -2.0393  0.8777
 3611SOL    HW222467   3.317   4.157   2.867  0.0877  0.4354  1.3701
 3612SOL     OW22468   0.299   0.209   5.629  0.3705  0.0845 -0.1890
 3612SOL    HW122469   0.231   0.276   5.638  1.8359  1.3774  1.2292
 3612SOL    HW222470   0.238   0.135   5.637  0.4708  0.0025 -0.1848
 3613SOL     OW22471   4.720   0.213  15.781 -0.1488 -0.3295 -0.4443
 3613SOL    HW122472   4.739   0.303  15.753  2.7645 -1.0133 -0.6584
 3613SOL    HW222473   4.692   0.224  15.871  1.7111  0.7920 -0.0000
 3614SOL     OW22474   4.056   1.023   8.449 -0.3768  0.1883 -0.2817
 3614SOL    HW122475   3.987   1.043   8.386  0.3802 -0.5333 -1.3317
 3614SOL    HW222476   4.117   1.093   8.425 -1.1654  0.8953 -0.2407
 3615SOL     OW22477   0.611   3.581   8.082  0.8011 -0.2545  0.7797
 3615SOL    HW122478   0.684   3.524   8.057  2.4978  2.2137  0.1583
 3615SOL    HW222479   0.625   3.655   8.023  0.3527 -1.4256 -0.7987
 3616SOL     OW22480   1.048   2.594  17.155 -0.8025  0.4594 -0.3987
 3616SOL    HW122481   1.034   2.527  17.088 -0.7045 -1.3831  1.4307
 3616SOL    HW222482   0.981   2.656  17.126 -0.8318  0.7542  0.3026
 3617SOL     OW22483   2.488   3.689   5.133  0.6460  0.4601 -0.2261
 3617SOL    HW122484   2.486   3.756   5.202  1.4588  1.9240 -1.6538
 3617SOL    HW222485   2.530   3.618   5.182 -0.3732 -0.9168 -1.3534
 3618SOL     OW22486   2.769   1.566   6.915  0.1180 -0.1754 -0.2586
 3618SOL    HW122487   2.848   1.573   6.968 -1.2421  0.6587  1.6739
 3618SOL    HW222488   2.753   1.659   6.902 -1.4051 -0.4832 -0.6103
 3619SOL     OW22489   0.302   0.504   6.228  0.2150 -0.4270  0.0076
 3619SOL    HW122490   0.337   0.583   6.187 -3.4281  1.2927  0.2575
 3619SOL    HW222491   0.363   0.498   6.302 -0.6176  0.0196  0.7314
 3620SOL     OW22492   4.332   4.415   0.749  0.3662  0.4532  0.3757
 3620SOL    HW122493   4.338   4.501   0.792  1.6293  0.2587  0.5955
 3620SOL    HW222494   4.425   4.395   0.744  0.4201  0.9032 -0.5171
 3621SOL     OW22495   0.975   2.842  13.827  0.4766 -0.6318  0.2487
 3621SOL    HW122496   0.958   2.787  13.904 -0.0426 -0.3802  0.3151
 3621SOL    HW222497   0.936   2.789  13.758  1.4418 -2.4938  1.1458
 3622SOL     OW22498   1.189   1.097  10.312 -0.2991  0.2125  0.0921
 3622SOL    HW122499   1.117   1.156  10.332 -0.9986 -0.5479 -0.1942
 3622SOL    HW222500   1.167   1.093  10.219  0.6642 -0.9219 -0.0980
 3623SOL     OW22501   1.946   0.828   2.312  0.1971 -0.3875 -0.0498
 3623SOL    HW122502   1.954   0.908   2.364  1.7700  0.2936 -1.3239
 3623SOL    HW222503   1.932   0.870   2.227  1.0112 -2.3624 -1.1741
 3624SOL     OW22504   1.741   3.844  12.280 -0.6627  0.2170  0.0532
 3624SOL    HW122505   1.801   3.781  12.321 -3.4754 -0.5948  2.8355
 3624SOL    HW222506   1.800   3.903  12.231  1.5367 -1.1955  1.0084
 3625SOL     OW22507   0.727   3.558   7.736 -0.2081  0.1975 -0.0513
 3625SOL    HW122508   0.766   3.514   7.812 -0.0337  1.2741  0.4743
 3625SOL    HW222509   0.698   3.642   7.772 -0.1722 -0.1586  0.8176
 3626SOL     OW22510   3.701   0.519   5.309 -0.0490 -0.0302  0.5056
 3626SOL    HW122511   3.621   0.495   5.262  1.2619 -1.8606 -0.7634
 3626SOL    HW222512   3.701   0.455   5.380  2.7678 -1.6114 -0.9205
 3627SOL     OW22513   1.272   4.414   5.738  0.2037  0.0566 -0.2347
 3627SOL    HW122514   1.254   4.373   5.653  0.0172  0.0325 -0.1852
 3627SOL    HW222515   1.351   4.464   5.721  0.5969 -0.3908  0.3014
 3628SOL     OW22516   0.208   2.718   5.607  0.3773  0.4352  0.1207
 3628SOL    HW122517   0.238   2.805   5.633 -1.9156  1.7929 -1.7847
 3628SOL    HW222518   0.287   2.664   5.611 -1.1928 -1.7557  1.3920
 3629SOL     OW22519   2.242   4.137   4.549 -0.5570  0.0924  0.3852
 3629SOL    HW122520   2.326   4.099   4.577 -0.5344 -0.8117 -0.8600
 3629SOL    HW222521   2.257   4.129   4.455  5.0748  0.3990  1.2593
 3630SOL     OW22522   1.624   1.271   9.115  0.7973 -0.0076  0.8383
 3630SOL    HW122523   1.613   1.305   9.026  0.5418 -1.2798  0.3954
 3630SOL    HW222524   1.717   1.271   9.137  0.9827  0.2625  0.0434
 3631SOL     OW22525   3.555   0.010  17.487 -0.1234  0.4457  0.1934
 3631SOL    HW122526   3.476   4.714  17.527  0.5830 -1.5413 -0.1838
 3631SOL    HW222527   3.562   4.671  17.432  2.0512 -0.2251  1.4268
 3632SOL     OW22528   4.107   3.508   6.537 -0.0928 -0.2111  0.0840
 3632SOL    HW122529   4.043   3.570   6.504 -0.3827 -0.4008  0.2878
 3632SOL    HW222530   4.049   3.437   6.564 -1.4093 -0.4575 -3.4335
 3633SOL     OW22531   0.852   4.142  14.982 -0.5013  0.4265 -0.6452
 3633SOL    HW122532   0.902   4.202  15.036  0.6585  0.5783 -1.8910
 3633SOL    HW222533   0.909   4.135  14.905 -1.9345 -0.3017 -1.6552
 3634SOL     OW22534   3.841   2.237   6.897 -0.3384  0.0496  1.4283
 3634SOL    HW122535   3.823   2.286   6.817 -1.6706 -1.2847  0.9143
 3634SOL    HW222536   3.934   2.213   6.891  0.5176  2.6047  3.9517
 3635SOL     OW22537   2.577   2.164   4.391 -0.5844  0.0427 -0.1538
 3635SOL    HW122538   2.635   2.238   4.408  0.9160 -1.0908 -0.4319
 3635SOL    HW222539   2.566   2.177   4.297 -0.5363  2.8579  0.2256
 3636SOL     OW22540   2.331   2.458   2.169  0.3112 -0.2349  0.0075
 3636SOL    HW122541   2.300   2.424   2.085  0.8486 -0.2264 -0.1940
 3636SOL    HW222542   2.422   2.481   2.153 -0.4433  0.7524 -2.9731
 3637SOL     OW22543   4.425   2.596   3.845 -0.5833  0.0264 -0.2984
 3637SOL    HW122544   4.517   2.602   3.874 -1.2849  1.3705  1.6533
 3637SOL    HW222545   4.389   2.684   3.854  0.1109 -0.0084  2.8697
 3638SOL     OW22546   3.700   3.605   9.680 -0.1285 -0.6357 -0.3480
 3638SOL    HW122547   3.655   3.687   9.701  0.5465 -0.2241 -0.5262
 3638SOL    HW222548   3.707   3.557   9.762 -1.8293  0.3217  0.3624
 3639SOL     OW22549   4.363   1.052  10.503 -0.4151  0.1173  0.6411
 3639SOL    HW122550   4.413   1.034  10.583  2.2558  0.5206 -0.9169
 3639SOL    HW222551   4.306   1.125  10.529  1.0528  0.9515  1.5385
 3640SOL     OW22552   2.636   0.309   1.065 -0.3624 -0.2154 -0.4321
 3640SOL    HW122553   2.547   0.289   1.094 -0.8133  1.5218 -0.6301
 3640SOL    HW222554   2.612   0.352   0.983 -0.2694  1.4074  0.3980
 3641SOL     OW22555   3.110   2.160  17.566  0.3682 -0.4756 -0.3267
 3641SOL    HW122556   3.046   2.219  17.604 -0.8422  0.4657 -3.8542
 3641SOL    HW222557   3.177   2.220  17.533  0.8185  0.2247  1.8781
 3642SOL     OW22558   1.854   1.640   7.011  0.5036  0.3650 -0.1146
 3642SOL    HW122559   1.860   1.561   7.064  0.0853  1.0980  1.0332
 3642SOL    HW222560   1.762   1.626   6.991  0.7881 -0.8280 -0.5671
 3643SOL     OW22561   4.187   2.338   5.795  0.6450 -0.0118  0.3367
 3643SOL    HW122562   4.110   2.343   5.738  2.1596  0.8567 -1.6691
 3643SOL    HW222563   4.168   2.273   5.862  0.4752  0.6381  0.9147
 3644SOL     OW22564   1.494   1.116   3.425 -0.3785 -0.0830  0.2873
 3644SOL    HW122565   1.437   1.123   3.348  0.0363 -1.2875 -0.1229
 3644SOL    HW222566   1.567   1.070   3.384 -0.6349 -0.3561  0.1335
 3645SOL     OW22567   0.153   1.462   7.155 -0.6195 -0.6655 -0.0603
 3645SOL    HW122568   0.220   1.445   7.221  1.5157 -0.1080 -2.0888
 3645SOL    HW222569   0.089   1.512   7.204 -0.5247 -0.0653 -0.5550
 3646SOL     OW22570   1.762   2.260   6.486 -0.1108 -0.3088  0.1991
 3646SOL    HW122571   1.750   2.355   6.485  0.8357 -0.1715  2.1449
 3646SOL    HW222572   1.750   2.237   6.578  3.6356 -0.3416  0.6779
 3647SOL     OW22573   0.626   3.033  12.121  0.1816 -0.6862 -0.2365
 3647SOL    HW122574   0.644   2.940  12.134 -0.1821 -0.5023  1.5226
 3647SOL    HW222575   0.567   3.027  12.046 -0.4550 -0.4545  0.2487
 3648SOL     OW22576   1.774   0.520   4.166 -0.1730  0.1434  0.4406
 3648SOL    HW122577   1.812   0.439   4.200 -1.6869 -0.8658 -0.2426
 3648SOL    HW222578   1.682   0.523   4.194 -0.4748 -1.4200 -0.3303
 3649SOL     OW22579   1.696   4.615   6.192 -0.0705 -0.7269  0.6713
 3649SOL    HW122580   1.613   4.598   6.147  0.0470  1.3332 -0.3525
 3649SOL    HW222581   1.709   4.540   6.249  0.2610  0.4189  2.0845
 3650SOL     OW22582   1.764   3.388   3.578 -0.4337 -0.2431  0.0496
 3650SOL    HW122583   1.692   3.325   3.571 -2.0224  1.6647 -0.9156
 3650SOL    HW222584   1.726   3.450   3.640  1.7612  0.2253  0.9153
 3651SOL     OW22585   3.329   2.736  11.623  0.1127  0.1825  0.4257
 3651SOL    HW122586   3.341   2.641  11.630 -3.9547 -0.2491  1.6552
 3651SOL    HW222587   3.242   2.747  11.661 -1.0363 -0.6850 -1.9319
 3652SOL     OW22588   2.188   0.293   1.277  0.4386 -0.3359 -0.1692
 3652SOL    HW122589   2.256   0.267   1.340  1.4579  2.1441 -0.2588
 3652SOL    HW222590   2.122   0.320   1.341  0.6452 -1.1105  0.3785
 3653SOL     OW22591   1.485   4.648  11.599  0.9790  0.5745  0.4213
 3653SOL    HW122592   1.468   4.697  11.680 -0.4725 -0.9740  1.0364
 3653SOL    HW222593   1.532   4.574  11.638 -0.3266  0.1735  1.2152
 3654SOL     OW22594   2.946   3.973   3.672 -0.3628 -0.1259  0.1074
 3654SOL    HW122595   3.007   4.016   3.733  1.3690 -0.7571 -1.1893
 3654SOL    HW222596   2.869   3.981   3.730  0.3415 -0.6213  1.1136
 3655SOL     OW22597   3.251   0.770   5.882  0.5035  0.4129  0.2257
 3655SOL    HW122598   3.242   0.675   5.874  1.7823  0.2265  1.0436
 3655SOL    HW222599   3.322   0.777   5.946  2.3385 -0.3981 -1.6951
 3656SOL     OW22600   4.635   1.731   9.580 -0.1024  0.2985  0.4264
 3656SOL    HW122601   4.703   1.797   9.566 -0.8405  0.6533 -1.4632
 3656SOL    HW222602   4.683   1.665   9.531 -0.9832 -0.5531  0.7151
 3657SOL     OW22603   2.249   2.929   9.120 -0.0835 -0.0401  0.1636
 3657SOL    HW122604   2.186   2.882   9.174 -0.2481 -0.5892 -0.5045
 3657SOL    HW222605   2.278   2.859   9.062 -4.5232 -0.6169 -1.4047
 3658SOL     OW22606   3.829   1.559   8.420  0.2158 -0.0942  0.0634
 3658SOL    HW122607   3.915   1.566   8.380  0.1788  0.3987  0.0688
 3658SOL    HW222608   3.771   1.628   8.388  0.6336 -0.0922 -0.6779
 3659SOL     OW22609   1.057   0.238   6.851  0.0096  0.2818  0.1453
 3659SOL    HW122610   1.025   0.309   6.906 -1.3917  0.7490 -1.2681
 3659SOL    HW222611   1.083   0.173   6.917 -1.1385 -0.9618 -0.6048
 3660SOL     OW22612   3.226   0.418   4.685 -0.1999 -0.1712  0.5947
 3660SOL    HW122613   3.287   0.380   4.748 -0.7645 -0.5958  0.8828
 3660SOL    HW222614   3.237   0.353   4.617  1.1698  0.7538 -0.0770
 3661SOL     OW22615   0.466   0.331   3.292  0.0704 -0.0523 -0.2476
 3661SOL    HW122616   0.447   0.324   3.385 -2.4214  1.5289 -0.6281
 3661SOL    HW222617   0.539   0.393   3.288  0.5284 -0.4319  2.3648
 3662SOL     OW22618   0.848   1.405  13.248  0.3264 -0.0394  0.4623
 3662SOL    HW122619   0.797   1.402  13.329 -0.6725  1.3663 -0.1161
 3662SOL    HW222620   0.879   1.316  13.229  0.7529 -0.1249  1.5863
 3663SOL     OW22621   0.011   2.198   4.746 -0.3876 -0.1028 -0.3300
 3663SOL    HW122622   0.083   2.145   4.780 -1.5254 -1.2378  0.3017
 3663SOL    HW222623   4.723   2.150   4.668  0.1767  0.8081 -1.1034
 3664SOL     OW22624   2.480   2.527   4.406 -0.0066 -0.5654  0.8982
 3664SOL    HW122625   2.422   2.467   4.453 -1.7464  0.6123  0.2532
 3664SOL    HW222626   2.560   2.506   4.453  0.9355 -0.1697 -0.5395
 3665SOL     OW22627   3.611   4.444   6.984 -0.0247  0.2629  0.1613
 3665SOL    HW122628   3.650   4.408   6.905  0.1614  1.5465 -0.3309
 3665SOL    HW222629   3.534   4.488   6.950  0.5721  1.2700  0.1078
 3666SOL     OW22630   3.876   0.187   1.644 -0.0192 -0.4933 -0.4410
 3666SOL    HW122631   3.917   0.192   1.730 -2.0719  2.6432  0.3316
 3666SOL    HW222632   3.794   0.148   1.673 -2.4498  2.8096 -2.7887
 3667SOL     OW22633   1.377   3.085   6.643  0.8370  0.0561  0.9765
 3667SOL    HW122634   1.462   3.069   6.601  0.9999  0.6765  1.0656
 3667SOL    HW222635   1.375   3.180   6.634  1.5680  0.0654  0.8727
 3668SOL     OW22636   3.493   0.659   2.597  0.2247 -0.4423 -0.0151
 3668SOL    HW122637   3.484   0.661   2.693  0.7929 -0.2416  0.0360
 3668SOL    HW222638   3.422   0.604   2.563 -1.5448  1.2227  0.9896
 3669SOL     OW22639   0.651   1.633   8.450  0.2524 -0.0327  0.0285
 3669SOL    HW122640   0.626   1.661   8.538  0.4874 -0.2545  0.1630
 3669SOL    HW222641   0.683   1.545   8.469  2.3228  0.6214 -0.4368
 3670SOL     OW22642   2.419   2.867   8.281 -0.4732  0.3915 -0.2815
 3670SOL    HW122643   2.373   2.820   8.350  0.8904 -0.4897  0.0334
 3670SOL    HW222644   2.501   2.817   8.281 -1.1568 -0.7106 -3.4032
 3671SOL     OW22645   3.168   2.909   4.825  0.0233 -0.1631 -0.1785
 3671SOL    HW122646   3.137   2.988   4.781  0.2505  0.7726  1.3349
 3671SOL    HW222647   3.261   2.917   4.804  0.0764 -2.2563 -0.7357
 3672SOL     OW22648   1.492   0.544  11.116 -0.0176  0.2421  0.0466
 3672SOL    HW122649   1.586   0.527  11.119 -0.1357 -0.5840 -0.9547
 3672SOL    HW222650   1.482   0.550  11.211  1.6126 -2.9225  0.4161
 3673SOL     OW22651   2.744   1.933   3.658 -0.1863 -0.3077  0.4951
 3673SOL    HW122652   2.793   1.869   3.709  0.6026  0.8473  1.1706
 3673SOL    HW222653   2.749   1.889   3.572 -4.0710  0.3916 -0.0865
 3674SOL     OW22654   3.701   1.183   7.258 -0.1819  0.2891 -0.0416
 3674SOL    HW122655   3.647   1.144   7.189  1.5048  0.3387 -1.4058
 3674SOL    HW222656   3.635   1.239   7.299 -0.0734  2.0847 -2.2681
 3675SOL     OW22657   0.977   0.164   4.769 -0.5643 -0.1585  0.4197
 3675SOL    HW122658   0.932   0.106   4.830  0.6680 -3.2838 -1.6661
 3675SOL    HW222659   0.954   0.134   4.681  2.5578 -1.8724  0.1971
 3676SOL     OW22660   0.885   4.079  15.352 -0.7692 -0.1712  0.3502
 3676SOL    HW122661   0.917   4.145  15.290 -0.7169  1.0417  1.6638
 3676SOL    HW222662   0.909   3.995  15.313 -3.6577 -1.5423  1.5302
 3677SOL     OW22663   2.933   1.052   5.629  0.1572  0.4116 -0.2883
 3677SOL    HW122664   2.904   1.143   5.638  0.8996  0.5676  0.5408
 3677SOL    HW222665   2.996   1.052   5.701  1.2846 -0.3203 -1.2778
 3678SOL     OW22666   2.569   4.628   6.355 -0.4711 -0.1217  0.4186
 3678SOL    HW122667   2.576   4.538   6.325  2.0726  0.1771  0.1394
 3678SOL    HW222668   2.578   4.624   6.450  0.2922 -4.4212  0.1317
 3679SOL     OW22669   1.055   3.128   0.228  0.5776  0.1130  0.0917
 3679SOL    HW122670   1.090   3.091   0.147 -0.4069 -0.0796 -0.2455
 3679SOL    HW222671   1.008   3.052   0.263  0.6456  0.3383  0.6724
 3680SOL     OW22672   2.129   0.558  15.826  0.4235  0.0308  0.9012
 3680SOL    HW122673   2.216   0.561  15.866  1.2890 -1.1902 -0.9002
 3680SOL    HW222674   2.124   0.647  15.791  0.8306 -0.2554  0.1177
 3681SOL     OW22675   4.251   2.742   2.705  0.5665  0.3084  0.4896
 3681SOL    HW122676   4.198   2.716   2.780 -1.4482 -0.0499 -1.0646
 3681SOL    HW222677   4.186   2.801   2.666 -0.2569 -0.9425 -0.0227
 3682SOL     OW22678   3.178   0.460  17.523 -0.5146 -0.5765  0.3682
 3682SOL    HW122679   3.220   0.542  17.549 -1.6879  0.0432  0.3160
 3682SOL    HW222680   3.222   0.448  17.439  1.7887  1.2971  1.2921
 3683SOL     OW22681   3.087   0.449   4.250  0.3119 -0.4465 -0.3029
 3683SOL    HW122682   3.072   0.466   4.157  0.1686 -0.2659 -0.2461
 3683SOL    HW222683   3.183   0.456   4.253  0.1792  1.5988 -0.8232
 3684SOL     OW22684   2.841   2.775   8.063 -0.1254  0.0666  0.0276
 3684SOL    HW122685   2.818   2.845   8.001 -2.5696 -0.7412  0.0126
 3684SOL    HW222686   2.935   2.782   8.075 -0.0369  0.9519 -1.1496
 3685SOL     OW22687   1.308   3.682   8.188 -0.3876 -0.0908 -0.0271
 3685SOL    HW122688   1.308   3.590   8.214 -2.8095 -0.5363 -1.6475
 3685SOL    HW222689   1.362   3.721   8.257 -0.8867  0.1903  0.2054
 3686SOL     OW22690   0.536   1.044   4.913  0.0548  0.6069  0.4795
 3686SOL    HW122691   0.471   0.982   4.879  0.5359  1.0809 -1.3066
 3686SOL    HW222692   0.567   1.002   4.993  0.8323  1.4469  0.6119
 3687SOL     OW22693   1.222   1.059   6.264 -0.7256 -0.1329  0.2608
 3687SOL    HW122694   1.153   1.106   6.311 -1.6946 -1.6187  0.3232
 3687SOL    HW222695   1.213   0.979   6.315  0.4825 -1.5206 -1.6967
 3688SOL     OW22696   0.921   1.219   0.336  0.5750 -0.5084 -0.6479
 3688SOL    HW122697   0.926   1.156   0.264  0.2821 -0.9216 -0.3172
 3688SOL    HW222698   0.830   1.208   0.364  0.9636  0.0354  0.8095
 3689SOL     OW22699   0.773   1.668  13.242  0.5250  0.6718 -0.6585
 3689SOL    HW122700   0.785   1.707  13.156  2.2804 -1.1338 -1.2370
 3689SOL    HW222701   0.802   1.580  13.219  0.2256  0.9197 -1.9649
 3690SOL     OW22702   4.737   2.827   2.206 -0.4486  0.2441 -0.0477
 3690SOL    HW122703   4.723   2.762   2.275 -0.8824  0.6814  0.2696
 3690SOL    HW222704   0.077   2.869   2.237  0.2813 -1.1016 -0.1154
 3691SOL     OW22705   4.505   4.432  13.712 -0.0898 -0.1516 -0.2548
 3691SOL    HW122706   4.476   4.364  13.651  0.4292  0.4069 -1.1364
 3691SOL    HW222707   4.481   4.393  13.796 -1.0688 -0.0463 -0.4829
 3692SOL     OW22708   3.955   4.715   7.920 -0.2285 -0.3964  0.4949
 3692SOL    HW122709   3.995   4.636   7.958  0.3052  0.0343  0.8420
 3692SOL    HW222710   3.945   0.016   8.006  1.4394 -0.1236  0.5586
 3693SOL     OW22711   1.432   3.369   6.882 -0.1343  0.1257  0.1147
 3693SOL    HW122712   1.358   3.412   6.924 -0.3664 -1.3270  1.1925
 3693SOL    HW222713   1.495   3.367   6.955 -0.4496  2.9111  0.4649
 3694SOL     OW22714   0.667   4.178  15.468 -0.2985  0.5232 -0.8648
 3694SOL    HW122715   0.754   4.159  15.435  0.6549 -3.1516  3.9233
 3694SOL    HW222716   0.611   4.122  15.414 -0.2878 -0.1805 -0.1457
 3695SOL     OW22717   3.472   3.222  11.615 -0.2448 -0.3626  0.7503
 3695SOL    HW122718   3.548   3.236  11.671 -1.0122 -0.3221  1.7841
 3695SOL    HW222719   3.439   3.138  11.645 -2.0039 -0.6123 -1.8540
 3696SOL     OW22720   4.033   1.316   5.214 -0.0582  0.8636  0.0197
 3696SOL    HW122721   4.091   1.392   5.224  0.6658  0.4418 -1.0947
 3696SOL    HW222722   3.992   1.304   5.300 -1.0765 -0.7122 -0.6952
 3697SOL     OW22723   0.496   3.191   8.297  0.0228 -0.2695 -0.5769
 3697SOL    HW122724   0.562   3.126   8.322 -0.4677 -0.4706  0.1893
 3697SOL    HW222725   0.430   3.181   8.365  1.5049  0.9943  1.0445
 3698SOL     OW22726   2.892   1.314   5.681 -0.5042 -0.2326  0.7171
 3698SOL    HW122727   2.898   1.387   5.620  0.3839  0.5514  1.7310
 3698SOL    HW222728   2.818   1.340   5.736 -0.3816 -0.9622  1.2211
 3699SOL     OW22729   1.755   4.566   8.984  0.4861  0.1266 -0.0053
 3699SOL    HW122730   1.701   4.492   9.013  1.6116 -0.0390  1.6189
 3699SOL    HW222731   1.843   4.528   8.990 -0.8695 -2.8619  1.1787
 3700SOL     OW22732   4.191   3.085  11.641 -0.0577 -0.0253 -0.9254
 3700SOL    HW122733   4.172   2.996  11.610 -2.7894 -0.0600  0.8719
 3700SOL    HW222734   4.165   3.135  11.563 -0.7260  0.3198 -0.4720
 3701SOL     OW22735   4.218   3.574   9.800 -0.3574  0.2974 -0.7276
 3701SOL    HW122736   4.136   3.590   9.753 -1.0022  1.3829  0.7610
 3701SOL    HW222737   4.230   3.660   9.839 -1.2600  0.4169 -0.7031
 3702SOL     OW22738   0.944   2.294   8.442 -0.1328 -0.5463 -0.7313
 3702SOL    HW122739   0.971   2.275   8.352  0.0960 -3.0881 -0.1378
 3702SOL    HW222740   1.025   2.274   8.489 -0.7172 -1.6852 -0.2196
 3703SOL     OW22741   1.369   2.972   7.205 -0.0625 -0.6206 -0.8993
 3703SOL    HW122742   1.300   2.995   7.143 -1.5647  0.0874  1.0022
 3703SOL    HW222743   1.381   3.055   7.251  1.0784 -0.7733 -0.9321
 3704SOL     OW22744   4.369   3.223  10.561 -0.7607 -0.1347  0.0222
 3704SOL    HW122745   4.299   3.163  10.534  0.2204 -0.9327 -0.7576
 3704SOL    HW222746   4.323   3.263  10.635 -1.4822 -1.3087  0.2058
 3705SOL     OW22747   2.337   3.324   3.443  0.0031 -0.1563  0.1783
 3705SOL    HW122748   2.315   3.387   3.374  0.1352 -0.3335 -0.0229
 3705SOL    HW222749   2.255   3.317   3.493 -0.0952 -3.8366 -0.5540
 3706SOL     OW22750   1.535   1.540  14.981 -0.4412 -0.2837  0.0208
 3706SOL    HW122751   1.592   1.476  15.025  0.2457 -0.7128 -1.5046
 3706SOL    HW222752   1.450   1.498  14.996 -0.2951 -1.5140 -2.6412
 3707SOL     OW22753   1.542   2.857  14.326  0.0700 -0.1395  0.8280
 3707SOL    HW122754   1.503   2.801  14.259  0.8569 -2.0227  1.9344
 3707SOL    HW222755   1.595   2.923  14.282 -1.1451  0.9890  1.0754
 3708SOL     OW22756   2.864   1.888  16.440  0.1901 -0.9012 -0.4491
 3708SOL    HW122757   2.913   1.850  16.367 -0.9037 -1.5100 -0.8504
 3708SOL    HW222758   2.822   1.960  16.392  3.5708  1.0924 -0.4326
 3709SOL     OW22759   3.615   3.686   8.764  0.1389 -0.8254 -0.2193
 3709SOL    HW122760   3.645   3.747   8.697  1.4516 -1.1277  0.1065
 3709SOL    HW222761   3.700   3.683   8.808 -0.3730  2.4988  0.9509
 3710SOL     OW22762   1.028   3.738   7.974 -0.3425  0.1515  0.2896
 3710SOL    HW122763   1.020   3.688   7.893 -0.8966 -1.3256  1.2555
 3710SOL    HW222764   1.108   3.788   7.965 -0.2254  0.0646  0.8251
 3711SOL     OW22765   3.467   2.637   9.428  0.3395  0.0118 -0.3072
 3711SOL    HW122766   3.447   2.587   9.350  2.2291  0.4277 -1.0521
 3711SOL    HW222767   3.525   2.705   9.393  1.5615  0.1531  1.9842
 3712SOL     OW22768   0.211   3.441   7.921 -0.0186 -0.3720  0.1481
 3712SOL    HW122769   0.269   3.420   7.994 -1.0349  0.3275  1.1564
 3712SOL    HW222770   0.247   3.379   7.857 -0.8664  0.1238 -0.8190
 3713SOL     OW22771   2.124   4.447  11.410  0.9466  0.8538  0.1960
 3713SOL    HW122772   2.209   4.481  11.382 -0.0936  1.8244 -1.8534
 3713SOL    HW222773   2.107   4.497  11.490  2.6543 -1.7066  2.1526
 3714SOL     OW22774   4.688   3.241   6.237 -0.0476  0.3163  0.1276
 3714SOL    HW122775   4.626   3.173   6.209  2.3381 -1.2680 -1.3525
 3714SOL    HW222776   4.671   3.314   6.177  0.0744  0.6636  0.5175
 3715SOL     OW22777   0.938   0.303  11.082  0.2130  0.4154  0.2264
 3715SOL    HW122778   0.881   0.368  11.124 -2.8071 -0.8711 -1.9445
 3715SOL    HW222779   0.986   0.351  11.014  1.4871 -2.4012 -0.8442
 3716SOL     OW22780   0.720   0.638   8.533  0.6101 -0.2545  0.3427
 3716SOL    HW122781   0.637   0.616   8.576  0.3918 -1.5297 -0.7179
 3716SOL    HW222782   0.779   0.615   8.605 -1.1834 -2.1745  1.2120
 3717SOL     OW22783   0.238   4.489   2.148 -0.1289 -0.2795 -0.0444
 3717SOL    HW122784   0.209   4.482   2.057 -0.9923  1.2923  0.1119
 3717SOL    HW222785   0.272   4.399   2.154  0.8413  0.0956  0.1894
 3718SOL     OW22786   0.509   0.371   8.822 -0.2929  0.5984 -0.6604
 3718SOL    HW122787   0.505   0.441   8.757 -1.3512  1.5021  0.3649
 3718SOL    HW222788   0.569   0.404   8.890 -2.9908 -0.7769  2.3588
 3719SOL     OW22789   0.576   1.856   7.716 -0.0894 -0.0804  0.0854
 3719SOL    HW122790   0.506   1.883   7.775  1.0717 -0.6413  1.6972
 3719SOL    HW222791   0.646   1.910   7.753 -0.8184  0.8064  0.1576
 3720SOL     OW22792   2.964   0.305   5.101  0.2123  0.3898  0.2113
 3720SOL    HW122793   2.977   0.398   5.121  0.1448 -0.1784  2.8644
 3720SOL    HW222794   2.882   0.295   5.149 -1.2246  1.2925 -2.0443
 3721SOL     OW22795   1.955   1.598   3.443 -0.4120  0.0324  0.3393
 3721SOL    HW122796   1.880   1.607   3.501 -1.2364 -0.0688 -0.7197
 3721SOL    HW222797   2.029   1.580   3.501 -0.7203 -1.0814  0.3797
 3722SOL     OW22798   4.406   3.350   9.748  0.1715  0.3928  0.3186
 3722SOL    HW122799   4.335   3.411   9.767 -2.1253 -1.1500 -3.1533
 3722SOL    HW222800   4.470   3.414   9.717  1.0324 -1.1768 -1.1433
 3723SOL     OW22801   0.956   4.171  11.417 -0.3790 -0.6015 -0.1163
 3723SOL    HW122802   0.881   4.207  11.465  0.4549 -1.7788  2.1000
 3723SOL    HW222803   0.913   4.108  11.360 -0.2518 -0.2400 -0.6079
 3724SOL     OW22804   0.474   0.416  13.629 -0.3355 -0.3226 -0.2059
 3724SOL    HW122805   0.449   0.441  13.718  1.3349  0.7935 -0.0453
 3724SOL    HW222806   0.481   0.506  13.597  3.6774 -0.5920 -0.1327
 3725SOL     OW22807   2.443   3.581   2.800  0.0161 -0.1770  0.3187
 3725SOL    HW122808   2.413   3.517   2.864 -0.1452 -1.6508 -1.2226
 3725SOL    HW222809   2.362   3.599   2.752  1.8749  2.5273 -1.8001
 3726SOL     OW22810   2.654   2.840   8.537  0.3028 -0.2817 -0.1496
 3726SOL    HW122811   2.747   2.845   8.560  0.7356 -0.3309 -1.8352
 3726SOL    HW222812   2.661   2.834   8.441  1.1045 -0.7811 -0.0597
 3727SOL     OW22813   1.597   2.228   0.930  0.2104 -0.4815 -0.8129
 3727SOL    HW122814   1.639   2.308   0.898  0.0494  1.3899  3.5909
 3727SOL    HW222815   1.625   2.166   0.863 -0.7070 -0.4177 -1.2556
 3728SOL     OW22816   0.189   2.069   2.661  0.3539 -0.1818  0.1079
 3728SOL    HW122817   0.180   1.984   2.704  1.4141  0.1077  0.8925
 3728SOL    HW222818   0.224   2.036   2.578  0.7614 -0.6091  0.4561
 3729SOL     OW22819   2.324   4.592   3.404 -0.3521  0.6968  0.0280
 3729SOL    HW122820   2.388   4.522   3.389 -0.7030  0.3014  0.3642
 3729SOL    HW222821   2.274   4.598   3.323 -1.8578 -2.3133  0.7080
 3730SOL     OW22822   1.100   0.524   1.337 -0.3423 -0.2072  0.3291
 3730SOL    HW122823   1.019   0.570   1.359 -0.1748 -0.4428  1.4503
 3730SOL    HW222824   1.073   0.497   1.250 -0.2202 -0.3889  0.3472
 3731SOL     OW22825   1.614   2.859   3.892  0.1932  0.1784  0.1452
 3731SOL    HW122826   1.547   2.817   3.839 -0.4954  2.2781 -0.6445
 3731SOL    HW222827   1.687   2.863   3.831  0.6162  1.4908  0.7192
 3732SOL     OW22828   0.885   1.607   8.664  0.5305  0.1070 -0.8072
 3732SOL    HW122829   0.889   1.655   8.582 -0.5803  0.3169 -0.7476
 3732SOL    HW222830   0.839   1.529   8.632 -0.8540  0.5311  0.1051
 3733SOL     OW22831   2.910   2.544  16.109  0.4085  0.2373 -0.1558
 3733SOL    HW122832   2.880   2.626  16.070  0.2986 -0.9727 -2.5862
 3733SOL    HW222833   2.936   2.488  16.037  1.0402 -0.7625  0.8459
 3734SOL     OW22834   0.567   4.458   2.387 -0.2476 -0.3085  0.4263
 3734SOL    HW122835   0.499   4.392   2.367 -2.0242  0.6082  3.5781
 3734SOL    HW222836   0.626   4.401   2.437  0.4131 -0.2844 -0.3329
 3735SOL     OW22837   4.021   3.386  15.684 -0.0698  0.4940  0.0132
 3735SOL    HW122838   4.017   3.324  15.611 -3.3149  0.0873  0.5331
 3735SOL    HW222839   3.964   3.447  15.638 -0.0420  1.7439  1.6536
 3736SOL     OW22840   0.080   1.710   5.527  0.2415  0.7014  0.4955
 3736SOL    HW122841   0.000   1.709   5.474 -0.0064 -0.7390  0.9203
 3736SOL    HW222842   0.143   1.677   5.463 -0.6751  1.3262 -0.7375
 3737SOL     OW22843   3.240   3.287   2.550 -0.1431  0.3883 -0.1452
 3737SOL    HW122844   3.321   3.308   2.504 -1.0703  0.5032 -1.7391
 3737SOL    HW222845   3.257   3.310   2.641  1.7292 -2.6414  0.2890
 3738SOL     OW22846   2.840   0.306   2.819  0.8983 -0.5334 -0.6102
 3738SOL    HW122847   2.910   0.245   2.843 -1.0611 -1.7606  1.9483
 3738SOL    HW222848   2.805   0.271   2.737 -0.4617  0.3876 -0.4171
 3739SOL     OW22849   0.438   4.369   4.206 -0.8013 -0.2773  0.0861
 3739SOL    HW122850   0.449   4.456   4.245  0.3424 -0.0353 -0.7798
 3739SOL    HW222851   0.442   4.324   4.290  3.5948  1.2260  0.6663
 3740SOL     OW22852   4.627   2.218   9.474  0.0363  0.2014 -0.4647
 3740SOL    HW122853   4.536   2.248   9.484  0.2399  0.6748 -0.0655
 3740SOL    HW222854   4.635   2.164   9.552 -0.3378  0.7193 -0.0689
 3741SOL     OW22855   2.630   2.377   6.967 -0.2287 -0.4793  0.1084
 3741SOL    HW122856   2.659   2.467   6.978  1.0772 -0.8734 -0.1305
 3741SOL    HW222857   2.570   2.376   7.042 -0.2435  3.0568  0.1608
 3742SOL     OW22858   2.689   0.171   3.345 -0.3906  0.0774  0.3034
 3742SOL    HW122859   2.711   0.229   3.272  0.4188 -0.6601 -0.0410
 3742SOL    HW222860   2.602   0.188   3.380 -0.4117 -1.2442  0.8915
 3743SOL     OW22861   2.558   1.049   3.224  0.3990 -0.0251  0.2789
 3743SOL    HW122862   2.555   1.142   3.201  2.1304 -0.7364 -2.8610
 3743SOL    HW222863   2.464   1.030   3.231  0.6049 -1.1475  0.0656
 3744SOL     OW22864   2.715   4.717   9.269 -0.2578 -0.0531  0.2188
 3744SOL    HW122865   2.744   0.066   9.286 -1.8977  0.3548  0.7827
 3744SOL    HW222866   2.771   4.661   9.324  2.1705  1.0419 -1.1245
 3745SOL     OW22867   3.649   2.214  11.051 -0.0855  0.2965 -0.4379
 3745SOL    HW122868   3.587   2.140  11.057  1.7492 -1.3534 -1.6660
 3745SOL    HW222869   3.734   2.170  11.059 -0.2024 -0.0530 -1.0339
 3746SOL     OW22870   2.757   0.846   4.266  0.2505  0.1498 -0.7796
 3746SOL    HW122871   2.726   0.911   4.330 -0.2672 -0.6669 -0.1979
 3746SOL    HW222872   2.802   0.782   4.321 -0.4825 -0.2136 -0.6061
 3747SOL     OW22873   4.436   1.361  17.753  0.7281  0.2991  0.0011
 3747SOL    HW122874   4.355   1.312  17.740 -1.0911  3.4402 -0.4274
 3747SOL    HW222875   4.454   1.377  17.660  0.1887 -0.8630 -0.3001
 3748SOL     OW22876   4.642   1.269   4.855  0.6149  0.4858  0.0894
 3748SOL    HW122877   4.557   1.274   4.811  1.3711 -0.1010 -1.4154
 3748SOL    HW222878   4.699   1.299   4.785 -0.9616  1.5281 -0.7470
 3749SOL     OW22879   2.997   4.092   7.151 -0.4096  0.7260  0.4019
 3749SOL    HW122880   2.923   4.125   7.100  1.2921 -1.4092 -3.3971
 3749SOL    HW222881   3.064   4.097   7.083 -0.8198 -3.1227 -0.2897
 3750SOL     OW22882   1.088   2.057   4.466  0.2653  0.3620  0.6121
 3750SOL    HW122883   1.104   1.963   4.478  2.3019  0.6968  0.4797
 3750SOL    HW222884   1.143   2.097   4.533  1.7612  1.7527 -1.4778
 3751SOL     OW22885   0.868   2.332   9.281  0.2111  0.1502 -0.4539
 3751SOL    HW122886   0.933   2.367   9.342 -2.4251  2.0929  1.2646
 3751SOL    HW222887   0.789   2.379   9.308  1.3329  0.5763  2.1373
 3752SOL     OW22888   2.467   3.038   2.730 -0.2261  0.4309  0.3190
 3752SOL    HW122889   2.468   2.949   2.695 -2.6780 -0.6812  3.0168
 3752SOL    HW222890   2.380   3.042   2.770 -0.5835  1.9519 -0.6133
 3753SOL     OW22891   2.015   2.065   8.504  0.0895  0.2165  0.5117
 3753SOL    HW122892   1.932   2.039   8.544 -0.2507 -0.0392 -0.3593
 3753SOL    HW222893   1.973   2.109   8.431 -1.4308 -0.4504  0.9804
 3754SOL     OW22894   1.115   1.253   4.294  0.0862 -0.2177 -0.2401
 3754SOL    HW122895   1.040   1.205   4.259 -0.2060  2.2856 -3.0077
 3754SOL    HW222896   1.139   1.282   4.206 -2.7479  1.7734 -0.3563
 3755SOL     OW22897   0.401   3.184   6.984 -0.1721  0.2219  0.1294
 3755SOL    HW122898   0.350   3.103   6.981 -2.6641  1.7975  0.0796
 3755SOL    HW222899   0.342   3.243   6.936  0.1601  0.1548 -0.3612
 3756SOL     OW22900   1.170   1.908  11.609  0.5498 -0.1590  0.2566
 3756SOL    HW122901   1.102   1.884  11.672  1.3526  0.1634  1.2485
 3756SOL    HW222902   1.194   1.817  11.591  3.1166  0.3731  0.9930
 3757SOL     OW22903   0.444   0.265   9.612 -0.4127 -0.3644 -0.6426
 3757SOL    HW122904   0.360   0.231   9.581 -0.1584 -0.3140 -1.3932
 3757SOL    HW222905   0.506   0.211   9.562  0.7699 -0.0315  0.4527
 3758SOL     OW22906   4.553   2.207   6.389 -0.0662 -0.6873  0.8266
 3758SOL    HW122907   4.557   2.282   6.448  1.2526  0.1597 -0.3640
 3758SOL    HW222908   4.575   2.244   6.304  0.1661 -0.8139  0.8322
 3759SOL     OW22909   2.617   1.383  13.036 -0.1808 -0.2294 -0.0735
 3759SOL    HW122910   2.643   1.462  13.083 -2.0669 -0.9384  2.1571
 3759SOL    HW222911   2.525   1.377  13.062  0.1647  1.0009  1.3654
 3760SOL     OW22912   0.363   2.309   5.467 -0.3506 -0.5403 -0.7986
 3760SOL    HW122913   0.413   2.235   5.435  0.0846  0.5986 -2.7590
 3760SOL    HW222914   0.306   2.265   5.530 -1.4382  2.0649  0.0426
 3761SOL     OW22915   1.611   1.203  17.016 -0.3394 -0.5604 -0.0778
 3761SOL    HW122916   1.679   1.268  17.034 -2.0770  0.3799  3.1674
 3761SOL    HW222917   1.658   1.159  16.945  0.3970  1.0320 -0.5739
 3762SOL     OW22918   1.469   3.309   4.943  0.5973 -0.3609  0.3222
 3762SOL    HW122919   1.454   3.236   4.882  1.8907  1.0361 -1.6762
 3762SOL    HW222920   1.378   3.327   4.969  0.5830 -0.2640  0.2048
 3763SOL     OW22921   1.087   4.408  11.177 -0.3863  0.1327  0.2627
 3763SOL    HW122922   1.116   4.475  11.240 -0.1275 -0.6152  0.9435
 3763SOL    HW222923   1.119   4.450  11.097  0.9611  0.2196  0.8288
 3764SOL     OW22924   1.037   4.691   0.716 -0.4697 -0.2996  0.5803
 3764SOL    HW122925   1.125   4.656   0.729 -0.2797  1.4037  3.9306
 3764SOL    HW222926   1.015   4.649   0.633 -2.2852 -2.1106  1.9530
 3765SOL     OW22927   0.119   0.033   5.323 -0.6415 -0.4348  0.2645
 3765SOL    HW122928   0.154   4.695   5.363  0.7690  0.2392  0.3514
 3765SOL    HW222929   0.087   0.078   5.402  1.1176  1.0960  0.1014
 3766SOL     OW22930   0.262   4.227   1.505  0.4145 -0.4907 -0.0824
 3766SOL    HW122931   0.249   4.151   1.560  2.5558 -0.4053  0.5353
 3766SOL    HW222932   0.356   4.246   1.504  0.4667 -0.8935 -3.2754
 3767SOL     OW22933   3.930   2.128  13.359  0.0244  0.0596 -0.1305
 3767SOL    HW122934   3.844   2.164  13.339 -0.2787  0.2831  1.5109
 3767SOL    HW222935   3.936   2.051  13.304 -1.0185 -1.3967  1.8073
 3768SOL     OW22936   1.198   4.066   9.817 -0.5012  0.1567  0.2622
 3768SOL    HW122937   1.171   4.052   9.726  0.8704  1.5438 -0.3730
 3768SOL    HW222938   1.269   4.126   9.795 -0.2906 -1.5060 -3.6336
 3769SOL     OW22939   2.970   0.345   1.322 -0.4980  0.3117  1.0983
 3769SOL    HW122940   3.017   0.307   1.248 -0.5584  3.0779 -0.3752
 3769SOL    HW222941   3.007   0.433   1.331  0.7715  0.1237 -2.2956
 3770SOL     OW22942   4.446   2.923   0.662 -0.1450  0.0046 -0.8078
 3770SOL    HW122943   4.534   2.961   0.662 -0.7255  1.3771  1.6815
 3770SOL    HW222944   4.464   2.830   0.669 -1.4503 -0.2182 -0.3949
 3771SOL     OW22945   4.069   1.970   4.129  0.3119  0.1012 -0.1204
 3771SOL    HW122946   4.045   1.896   4.185  2.0154  0.4941  1.1547
 3771SOL    HW222947   4.156   1.996   4.159  0.9076 -0.0734 -1.7293
 3772SOL     OW22948   4.309   2.174   7.897  0.1344 -0.1147 -0.4767
 3772SOL    HW122949   4.366   2.205   7.827  0.3449  1.3521  0.3336
 3772SOL    HW222950   4.225   2.214   7.872  0.3910  0.6735 -0.0942
 3773SOL     OW22951   2.542   3.837   5.357 -0.8735  0.3889 -0.2031
 3773SOL    HW122952   2.584   3.923   5.357 -0.9183  0.4275  1.8069
 3773SOL    HW222953   2.578   3.793   5.434 -1.5905  0.6339  0.2814
 3774SOL     OW22954   2.435   3.928   9.012 -0.1135  0.2239  0.0105
 3774SOL    HW122955   2.404   4.005   8.965 -1.6058 -0.0031  0.6144
 3774SOL    HW222956   2.434   3.959   9.103  0.5374  0.3096 -0.0183
 3775SOL     OW22957   1.047   0.958   7.558  0.5032  0.4561 -1.2643
 3775SOL    HW122958   1.030   0.983   7.467  0.4666  2.3729 -0.7289
 3775SOL    HW222959   0.984   1.013   7.604  0.7501  1.3144 -1.9578
 3776SOL     OW22960   4.376   2.311   9.445 -0.1520  0.3335 -0.3234
 3776SOL    HW122961   4.281   2.303   9.435 -0.2327 -1.3659  1.8961
 3776SOL    HW222962   4.380   2.369   9.521  1.3695 -0.2867  0.0743
 3777SOL     OW22963   0.972   4.125   0.213  0.3693 -0.0686  0.0997
 3777SOL    HW122964   0.970   4.215   0.180  0.2995 -0.0935  0.0373
 3777SOL    HW222965   0.882   4.114   0.244  0.8512 -2.0204  0.8122
 3778SOL     OW22966   3.928   1.553   3.465  0.0867  0.1420  0.5811
 3778SOL    HW122967   3.997   1.569   3.529 -0.2638 -1.4990  1.3609
 3778SOL    HW222968   3.952   1.461   3.450  0.9073  0.5570 -0.6571
 3779SOL     OW22969   4.034   3.415   3.122  0.1811 -0.0156 -0.6312
 3779SOL    HW122970   4.115   3.444   3.163 -1.9679  1.4572  2.5957
 3779SOL    HW222971   4.027   3.479   3.051 -0.6939  1.8043  1.1016
 3780SOL     OW22972   0.074   1.892   9.227 -0.2623  0.3417  0.2872
 3780SOL    HW122973   0.111   1.895   9.139  1.1949 -0.2032  0.8917
 3780SOL    HW222974   0.139   1.827   9.252  1.6753  1.1178 -2.6164
 3781SOL     OW22975   4.031   4.639   3.744 -0.9512 -0.1188 -0.2604
 3781SOL    HW122976   4.014   4.696   3.669  0.7789 -1.3041 -1.5844
 3781SOL    HW222977   4.125   4.621   3.731 -0.5085  2.3893 -0.5950
 3782SOL     OW22978   2.783   3.563   9.355 -0.2211 -0.8210 -0.3166
 3782SOL    HW122979   2.757   3.477   9.320  0.3975 -1.7359  1.4456
 3782SOL    HW222980   2.810   3.543   9.444 -2.7282  1.5068  0.9493
 3783SOL     OW22981   2.148   0.845  16.687  0.3437 -0.0350  0.4289
 3783SOL    HW122982   2.121   0.754  16.675  0.9568 -0.7298  4.3053
 3783SOL    HW222983   2.117   0.891  16.609  1.5151  2.3290  1.3417
 3784SOL     OW22984   3.217   0.751   2.652  0.1928  0.0229 -0.1852
 3784SOL    HW122985   3.239   0.807   2.578 -1.3172 -2.3393 -2.4669
 3784SOL    HW222986   3.148   0.690   2.625 -0.5037  2.0168 -2.9770
 3785SOL     OW22987   3.218   1.576   3.620 -0.1557  0.4347  0.2290
 3785SOL    HW122988   3.211   1.559   3.526  1.1412 -1.3010  0.4390
 3785SOL    HW222989   3.283   1.512   3.648 -1.2207 -0.7917 -0.1017
 3786SOL     OW22990   3.857   3.352   2.789  0.1539 -0.0020  0.2436
 3786SOL    HW122991   3.901   3.275   2.755  0.5228 -0.3611  1.5205
 3786SOL    HW222992   3.799   3.324   2.860  0.8229  0.9995  1.1888
 3787SOL     OW22993   1.473   4.516   7.914 -0.1551  0.1599  0.0440
 3787SOL    HW122994   1.406   4.448   7.903  0.2066 -0.1060 -0.5388
 3787SOL    HW222995   1.547   4.457   7.896 -0.2838  0.1934 -0.6153
 3788SOL     OW22996   1.531   3.774   0.887 -0.2828 -0.2481 -0.0595
 3788SOL    HW122997   1.605   3.816   0.932 -1.7354  3.1598 -0.8623
 3788SOL    HW222998   1.566   3.685   0.892  0.5709  0.1059  0.3975
 3789SOL     OW22999   3.429   0.786   6.069 -0.0562 -0.4583 -0.0195
 3789SOL    HW123000   3.467   0.867   6.105 -2.6108  1.4633 -1.6492
 3789SOL    HW223001   3.464   0.725   6.134  1.1951 -0.2695 -0.5088
 3790SOL     OW23002   3.958   0.927  16.578  0.1583 -0.0255  0.6385
 3790SOL    HW123003   4.040   0.972  16.557 -0.4881  1.5169  1.4118
 3790SOL    HW223004   3.965   0.867  16.504 -1.5835  0.2006  0.3051
 3791SOL     OW23005   0.027   1.334   5.940  0.1935  0.1094  1.1869
 3791SOL    HW123006   4.725   1.305   6.021  0.2412 -0.7510  0.8984
 3791SOL    HW223007   0.029   1.251   5.892 -0.2137  0.0208  1.3186
 3792SOL     OW23008   1.419   1.734   5.495 -0.3588 -0.0192  0.1960
 3792SOL    HW123009   1.337   1.775   5.525  1.2952  1.1758  3.0470
 3792SOL    HW223010   1.381   1.652   5.463 -1.0277 -0.0370  1.0401
 3793SOL     OW23011   4.627   4.049   8.345  0.1541  0.0891 -0.3386
 3793SOL    HW123012   4.602   4.134   8.309  1.8362  0.2397 -1.1639
 3793SOL    HW223013   4.542   4.023   8.379  0.3531  2.1985  1.7221
 3794SOL     OW23014   3.971   2.376   8.981  0.0110 -0.0904  0.2867
 3794SOL    HW123015   3.988   2.387   8.887  0.8259 -0.9639  0.3263
 3794SOL    HW223016   4.019   2.449   9.020 -1.1247  0.7111  0.1725
 3795SOL     OW23017   0.776   1.489   3.837 -0.1705 -0.4346  0.3063
 3795SOL    HW123018   0.825   1.474   3.757 -0.5114  2.9064 -0.5421
 3795SOL    HW223019   0.730   1.405   3.840  0.9166 -1.0563 -0.3145
 3796SOL     OW23020   1.685   2.154   1.506  0.4307  0.7127 -0.1344
 3796SOL    HW123021   1.765   2.176   1.459 -0.0925  1.9418 -0.4754
 3796SOL    HW223022   1.613   2.169   1.444  0.6559 -1.7618 -0.9533
 3797SOL     OW23023   1.126   1.572   3.801 -0.1551 -0.2487 -0.1871
 3797SOL    HW123024   1.170   1.572   3.716  0.7008 -0.2161  0.2519
 3797SOL    HW223025   1.034   1.570   3.775  0.0070  0.4369 -0.8189
 3798SOL     OW23026   4.016   1.114   4.471  1.0086  0.0991  0.0284
 3798SOL    HW123027   4.013   1.081   4.561  3.4866  0.1821  0.1504
 3798SOL    HW223028   4.062   1.045   4.424  1.1345 -1.2603  2.1392
 3799SOL     OW23029   2.920   4.414   1.332  0.3333  0.1859  0.0703
 3799SOL    HW123030   2.998   4.384   1.284  1.1829  1.4812  0.6642
 3799SOL    HW223031   2.909   4.497   1.286 -1.5216  0.3634  0.8665
 3800SOL     OW23032   1.094   3.120   5.732  0.4718 -0.2609  0.5053
 3800SOL    HW123033   1.114   3.047   5.673  0.8280 -0.4781  0.8970
 3800SOL    HW223034   1.100   3.193   5.670 -0.4814  1.3665  2.3142
 3801SOL     OW23035   3.399   1.891   1.629 -0.0699  0.0568 -0.4318
 3801SOL    HW123036   3.366   1.827   1.567 -0.0961 -0.3550  0.0053
 3801SOL    HW223037   3.483   1.848   1.645 -0.0151  0.8559  1.4528
 3802SOL     OW23038   2.294   2.903   5.891 -0.0187  0.1329 -0.0628
 3802SOL    HW123039   2.349   2.845   5.944 -0.2607  0.1660  0.2279
 3802SOL    HW223040   2.351   2.940   5.824 -1.9739 -0.3074 -1.9570
 3803SOL     OW23041   0.377   1.801   7.177 -0.3360 -0.9911 -0.2047
 3803SOL    HW123042   0.457   1.854   7.171 -1.1880  0.4512  1.0322
 3803SOL    HW223043   0.391   1.752   7.258  1.9839  0.6279  0.4097
 3804SOL     OW23044   3.779   1.934   5.926  0.3570  0.5158  0.0179
 3804SOL    HW123045   3.795   2.023   5.897  0.3223  0.1296 -1.1693
 3804SOL    HW223046   3.684   1.935   5.940  0.4951  1.2219  0.8916
 3805SOL     OW23047   2.634   2.823   8.907  0.2007  0.1271  0.8706
 3805SOL    HW123048   2.682   2.741   8.917  1.3139  0.4483 -1.7752
 3805SOL    HW223049   2.564   2.812   8.971  0.0707 -0.9999  0.5265
 3806SOL     OW23050   2.792   0.193  16.156  0.5922 -0.4624 -0.2601
 3806SOL    HW123051   2.852   0.119  16.168  0.9625 -0.0991  0.1358
 3806SOL    HW223052   2.809   0.222  16.067 -1.1533 -3.8864 -1.7271
 3807SOL     OW23053   0.771   0.113   0.715 -0.0668 -0.0001  0.3999
 3807SOL    HW123054   0.739   0.129   0.803  1.3866  0.6570  0.7952
 3807SOL    HW223055   0.828   0.038   0.731  1.8875  1.2055 -0.9941
 3808SOL     OW23056   0.490   4.544   2.919  0.4880 -0.4027 -0.2315
 3808SOL    HW123057   0.457   4.540   2.829 -1.0416  2.6066  0.2066
 3808SOL    HW223058   0.436   4.614   2.955  1.7524  0.8586 -0.7511
 3809SOL     OW23059   1.408   1.018   1.120 -0.0128 -0.3562 -0.2878
 3809SOL    HW123060   1.318   1.049   1.127  0.7186  1.2306  1.9203
 3809SOL    HW223061   1.450   1.085   1.066  0.0048  0.3818  0.6515
 3810SOL     OW23062   4.404   1.136   3.981 -0.0194  0.0420  0.4827
 3810SOL    HW123063   4.477   1.196   3.964  1.4668 -1.8943  0.0872
 3810SOL    HW223064   4.461   1.066   4.013  0.9228  0.9090  0.7221
 3811SOL     OW23065   2.844   0.450  12.698 -0.1842  0.3311 -0.6441
 3811SOL    HW123066   2.895   0.389  12.646  0.7610 -0.1328  0.8281
 3811SOL    HW223067   2.914   0.505  12.733 -0.3782  0.2135 -0.0685
 3812SOL     OW23068   4.454   3.754   4.697 -0.3908  0.1267  0.0076
 3812SOL    HW123069   4.476   3.774   4.606 -0.6702  3.9409  0.7652
 3812SOL    HW223070   4.408   3.834   4.725 -0.5239  0.6037 -1.6146
 3813SOL     OW23071   0.974   2.745   4.664 -0.2812 -0.0668  0.3069
 3813SOL    HW123072   1.057   2.714   4.699 -0.3260  0.5634  0.9685
 3813SOL    HW223073   0.993   2.734   4.570  3.3541 -1.2397  1.1921
 3814SOL     OW23074   3.214   4.520   8.017 -0.0156  0.4287  0.0036
 3814SOL    HW123075   3.122   4.533   8.041 -0.2827 -0.5480 -0.4815
 3814SOL    HW223076   3.250   4.600   8.056  0.0459 -0.3573  1.5561
 3815SOL     OW23077   1.254   0.390   9.286 -0.6895  0.2889 -0.6286
 3815SOL    HW123078   1.247   0.328   9.214 -1.4182 -1.7270  1.1767
 3815SOL    HW223079   1.309   0.465   9.262 -0.8073  0.1973 -1.1682
 3816SOL     OW23080   3.113   0.204  10.554 -0.3101  0.8362  0.0138
 3816SOL    HW123081   3.196   0.246  10.528  0.1604 -1.5143 -2.2937
 3816SOL    HW223082   3.124   0.199  10.649  1.8669 -0.4150 -0.3042
 3817SOL     OW23083   0.001   1.150   2.489 -0.1789 -0.3066  0.8071
 3817SOL    HW123084   4.666   1.172   2.434 -1.2474  0.4296  2.5580
 3817SOL    HW223085   0.034   1.071   2.448 -1.6705  0.9518 -2.8036
 3818SOL     OW23086   4.573   1.903  13.717 -0.4757  0.1200 -0.1249
 3818SOL    HW123087   4.528   1.862  13.790  1.5511  2.7217  2.5919
 3818SOL    HW223088   4.514   1.881  13.644 -0.6278  0.5356 -0.1311
 3819SOL     OW23089   0.440   2.889   3.529 -0.2255  0.2819  0.5131
 3819SOL    HW123090   0.372   2.864   3.466 -2.6628  3.6795  1.8624
 3819SOL    HW223091   0.407   2.841   3.604 -1.8549  0.5972 -0.0088
 3820SOL     OW23092   1.064   3.187   9.003  0.0248  0.0531  0.3279
 3820SOL    HW123093   1.108   3.120   8.951 -1.7801 -0.6875 -0.2378
 3820SOL    HW223094   1.084   3.141   9.085  0.2501  2.3401  1.5642
 3821SOL     OW23095   2.377   0.833   7.655  0.8243  0.3323  0.5879
 3821SOL    HW123096   2.350   0.857   7.744 -1.5120 -2.1657  0.5365
 3821SOL    HW223097   2.471   0.826   7.672  1.0825  3.9037  0.7301
 3822SOL     OW23098   4.613   0.742   2.095  0.1400 -0.2352 -0.1823
 3822SOL    HW123099   4.592   0.815   2.153 -0.6486 -1.2221  0.7639
 3822SOL    HW223100   4.692   0.771   2.050 -1.0113  0.9688 -1.4448
 3823SOL     OW23101   3.736   0.566   6.100 -0.1688  0.5006 -0.1352
 3823SOL    HW123102   3.701   0.564   6.011  0.4537  0.8436 -0.3877
 3823SOL    HW223103   3.676   0.613   6.159 -0.5619  1.0947 -1.0051
 3824SOL     OW23104   4.390   0.978   2.547 -0.0852 -0.4600  0.1953
 3824SOL    HW123105   4.424   1.037   2.614 -0.9894  1.6953 -1.2032
 3824SOL    HW223106   4.469   0.931   2.520 -0.3328  0.5648 -2.3284
 3825SOL     OW23107   4.152   0.154   9.074 -0.7635  0.5730 -0.0689
 3825SOL    HW123108   4.066   0.166   9.034 -1.5603 -0.8055  1.2202
 3825SOL    HW223109   4.205   0.218   9.027  0.3528 -1.5044 -1.6065
 3826SOL     OW23110   3.749   0.558   8.883  0.1871 -0.5703 -0.3086
 3826SOL    HW123111   3.828   0.547   8.830  2.2230  0.6203  2.4346
 3826SOL    HW223112   3.797   0.544   8.965  0.5171  0.1808 -0.3775
 3827SOL     OW23113   0.103   1.174   6.684  0.5713 -0.1051 -0.0108
 3827SOL    HW123114   0.138   1.094   6.724  1.7381  0.4118  0.0181
 3827SOL    HW223115   0.135   1.245   6.740  0.5948  0.7826 -1.1598
 3828SOL     OW23116   0.501   2.440   7.244  0.0015 -0.0875  0.2489
 3828SOL    HW123117   0.578   2.415   7.194 -1.3288  2.8584 -3.3479
 3828SOL    HW223118   0.535   2.517   7.290 -1.5378  1.5005 -1.2327
 3829SOL     OW23119   0.605   0.073   3.331 -0.3517 -0.2523  0.2246
 3829SOL    HW123120   0.622   0.167   3.325 -0.6574 -0.3076 -1.7806
 3829SOL    HW223121   0.646   0.046   3.249 -0.8621  0.6243 -0.3208
 3830SOL     OW23122   1.653   2.202   3.121 -0.1167 -0.1024  0.4353
 3830SOL    HW123123   1.679   2.142   3.191 -0.1328 -0.0031  0.5270
 3830SOL    HW223124   1.698   2.170   3.042 -0.8894 -1.7246  0.6533
 3831SOL     OW23125   0.692   0.381   5.267  0.2656 -0.0542  0.1400
 3831SOL    HW123126   0.599   0.370   5.285  0.7567 -0.9871  2.1028
 3831SOL    HW223127   0.692   0.328   5.188  1.9929  3.2689 -2.1045
 3832SOL     OW23128   3.645   1.780   1.689  0.3995  0.0050 -0.0975
 3832SOL    HW123129   3.724   1.817   1.648  0.8278 -0.0986  0.6278
 3832SOL    HW223130   3.663   1.687   1.679 -0.6682 -0.2772  0.6896
 3833SOL     OW23131   3.604   2.620   2.241 -0.7459  0.1917  0.2788
 3833SOL    HW123132   3.654   2.699   2.219 -0.3325  0.2905  1.6212
 3833SOL    HW223133   3.650   2.589   2.319 -1.4581  0.5163  0.8308
 3834SOL     OW23134   2.139   2.616  17.066 -0.3216  0.0285  0.7944
 3834SOL    HW123135   2.107   2.706  17.059 -2.0536 -0.5705  1.0628
 3834SOL    HW223136   2.067   2.585  17.121 -0.7457  1.0418  0.8033
 3835SOL     OW23137   2.531   0.748   1.977 -0.1721 -0.7557 -0.2698
 3835SOL    HW123138   2.545   0.765   1.883 -1.0695  0.0591 -0.2555
 3835SOL    HW223139   2.601   0.797   2.021 -0.8939  0.1847 -0.1551
 3836SOL     OW23140   1.438   3.917  15.857  0.3221  0.0748  0.0364
 3836SOL    HW123141   1.443   3.825  15.883 -2.7876 -0.7127 -2.0996
 3836SOL    HW223142   1.468   3.922  15.767  1.1161  0.4949  0.3254
 3837SOL     OW23143   3.463   2.475  12.774 -0.0337 -0.2573  0.0366
 3837SOL    HW123144   3.447   2.404  12.837 -1.8305 -1.9679 -2.3481
 3837SOL    HW223145   3.385   2.524  12.799  1.3978  1.2214  1.6103
 3838SOL     OW23146   4.700   4.452   8.461  0.1325  0.2543  0.0683
 3838SOL    HW123147   4.663   4.406   8.385 -0.0318 -0.0188  0.3102
 3838SOL    HW223148   0.043   4.484   8.428 -0.2084 -1.3069 -2.3549
 3839SOL     OW23149   0.643   1.183   8.335 -0.0054  0.1038  0.4503
 3839SOL    HW123150   0.549   1.197   8.336 -0.3891 -2.4896  1.5994
 3839SOL    HW223151   0.632   1.105   8.390 -1.3539  0.7210  1.0353
 3840SOL     OW23152   2.240   4.390   1.508  0.3523 -0.5414  0.2737
 3840SOL    HW123153   2.316   4.370   1.452  1.2454  0.6432  1.0711
 3840SOL    HW223154   2.285   4.393   1.592 -0.6268  2.1397  0.6714
 3841SOL     OW23155   3.680   3.361   6.378  0.9449  0.2592 -0.6047
 3841SOL    HW123156   3.658   3.270   6.356 -0.4158  0.5888 -0.6270
 3841SOL    HW223157   3.713   3.392   6.294  3.4364 -1.3544 -0.2081
 3842SOL     OW23158   1.821   4.141   3.536  0.2764  0.0967 -0.1786
 3842SOL    HW123159   1.880   4.138   3.612  0.0793  0.8251 -0.0005
 3842SOL    HW223160   1.888   4.149   3.468  1.1844  0.3868  0.7395
 3843SOL     OW23161   2.394   4.713  14.769 -0.2794  0.3701  0.1220
 3843SOL    HW123162   2.414   0.063  14.745 -0.1183  0.3112  0.0282
 3843SOL    HW223163   2.338   4.681  14.698  2.4183 -0.9229 -1.4633
 3844SOL     OW23164   2.904   1.447  17.359 -0.9027  1.0671 -0.2698
 3844SOL    HW123165   2.980   1.441  17.301 -0.1529  1.4076  0.6852
 3844SOL    HW223166   2.839   1.392  17.315  0.4878 -0.7005 -0.0631
 3845SOL     OW23167   0.989   1.870   3.470 -0.1853  0.3046 -0.1414
 3845SOL    HW123168   0.957   1.915   3.391  0.4107  0.5144 -0.2689
 3845SOL    HW223169   0.909   1.837   3.511 -0.6670 -0.0208 -1.3155
 3846SOL     OW23170   1.645   4.249   3.293 -0.4221 -0.1515  0.2388
 3846SOL    HW123171   1.589   4.300   3.352 -0.0262 -0.8433  1.2252
 3846SOL    HW223172   1.727   4.234   3.340  0.1734  0.5351 -0.5753
 3847SOL     OW23173   2.008   0.862   3.711 -0.5372  0.3617 -0.2286
 3847SOL    HW123174   2.023   0.956   3.706  2.3056 -0.0348  0.4807
 3847SOL    HW223175   2.015   0.850   3.616 -3.3982 -2.4017 -0.0697
 3848SOL     OW23176   0.286   1.722  16.733  0.2030 -0.5970 -0.4505
 3848SOL    HW123177   0.340   1.666  16.677  1.6684 -0.5643  0.9130
 3848SOL    HW223178   0.206   1.683  16.699 -0.0945  0.1115 -0.5471
 3849SOL     OW23179   3.741   3.459   4.507 -0.4141  0.0027 -0.1764
 3849SOL    HW123180   3.653   3.426   4.522 -0.9090  0.5200 -1.9393
 3849SOL    HW223181   3.747   3.506   4.424  0.6387 -0.6387 -0.4666
 3850SOL     OW23182   3.262   3.487   3.952  0.6569 -0.3619 -0.6208
 3850SOL    HW123183   3.343   3.454   3.912 -1.2750 -3.0415 -2.3070
 3850SOL    HW223184   3.198   3.433   3.906  2.8102 -2.7904 -0.7554
 3851SOL     OW23185   2.027   1.393   9.745  0.0758 -0.5179 -0.5667
 3851SOL    HW123186   1.954   1.378   9.804  0.5917 -0.5956  0.0503
 3851SOL    HW223187   2.068   1.307   9.739  2.5553  0.5861  0.4819
 3852SOL     OW23188   4.307   2.806   3.942  0.1222  0.2062 -0.0560
 3852SOL    HW123189   4.216   2.832   3.957  0.2011 -0.7141  2.0618
 3852SOL    HW223190   4.334   2.787   4.032  2.8571 -0.9977 -1.1349
 3853SOL     OW23191   0.522   1.702   8.985  1.0341 -0.1760  0.2824
 3853SOL    HW123192   0.586   1.684   9.053 -0.1580  0.0024  1.4531
 3853SOL    HW223193   0.474   1.619   8.984 -0.1032  0.5003 -0.7299
 3854SOL     OW23194   2.354   1.857   6.959  0.8065  0.4651 -0.3148
 3854SOL    HW123195   2.351   1.787   6.894 -1.2742  1.8938 -1.7680
 3854SOL    HW223196   2.373   1.926   6.895 -1.4265 -1.2884 -2.8491
 3855SOL     OW23197   2.436   2.514   4.756  0.1549  0.4013  0.5188
 3855SOL    HW123198   2.362   2.508   4.816  1.3063  2.8004  2.1980
 3855SOL    HW223199   2.416   2.445   4.693  0.2800  2.2525 -1.5726
 3856SOL     OW23200   3.685   3.310  11.744  0.3063  0.1853  0.1509
 3856SOL    HW123201   3.777   3.313  11.718  0.1467 -0.7224 -0.5326
 3856SOL    HW223202   3.695   3.370  11.818  1.1404  0.3885 -0.1324
 3857SOL     OW23203   3.080   1.503   7.566 -0.5873  0.1075 -0.0655
 3857SOL    HW123204   3.001   1.456   7.592 -1.4348  2.1527  1.0876
 3857SOL    HW223205   3.047   1.573   7.510  1.7427 -0.0318 -1.6141
 3858SOL     OW23206   1.327   4.438   6.892 -0.2930 -0.1977 -0.0031
 3858SOL    HW123207   1.394   4.497   6.928 -2.0689  0.0854  2.8902
 3858SOL    HW223208   1.366   4.353   6.914  2.7712  0.8387 -1.4713
 3859SOL     OW23209   0.869   2.445  14.155  0.2451 -0.4223 -0.0005
 3859SOL    HW123210   0.875   2.525  14.104  1.2685 -0.9738 -0.7406
 3859SOL    HW223211   0.938   2.393  14.114  1.4405  1.0815  0.0848
 3860SOL     OW23212   1.185   1.579   7.436 -0.4922 -0.0493 -0.3121
 3860SOL    HW123213   1.111   1.518   7.434 -1.3539  0.9392  2.5549
 3860SOL    HW223214   1.186   1.632   7.356  0.4433 -1.1171 -1.0182
 3861SOL     OW23215   0.090   0.008   7.905 -0.6458 -0.0601  0.0766
 3861SOL    HW123216   0.007   0.056   7.902 -0.3010  0.6566  1.7200
 3861SOL    HW223217   0.147   0.068   7.857  0.0460 -0.4052  0.4684
 3862SOL     OW23218   0.640   1.819   5.090  0.1369  0.6327 -0.0112
 3862SOL    HW123219   0.596   1.742   5.054  0.8946  0.9464 -1.5949
 3862SOL    HW223220   0.574   1.885   5.071 -1.1674 -1.0687 -1.3976
 3863SOL     OW23221   0.505   4.281   5.871  0.0299  0.1436  0.1374
 3863SOL    HW123222   0.507   4.329   5.954 -0.8812  1.0628 -0.3855
 3863SOL    HW223223   0.410   4.280   5.861 -0.1967 -1.3803  2.4527
 3864SOL     OW23224   3.203   3.765   6.729 -0.4737  0.2287 -0.5525
 3864SOL    HW123225   3.109   3.760   6.713 -0.9469 -0.1691  2.2123
 3864SOL    HW223226   3.227   3.833   6.667  0.9929 -1.6602 -2.0448
 3865SOL     OW23227   3.630   1.117   2.551 -0.4549 -0.1754 -0.5213
 3865SOL    HW123228   3.617   1.056   2.624 -1.3647 -0.1773 -0.6831
 3865SOL    HW223229   3.596   1.080   2.469  0.2490  1.6862 -1.6565
 3866SOL     OW23230   1.812   2.443   5.950  0.0689 -0.3172  0.1900
 3866SOL    HW123231   1.764   2.505   5.896  3.0047  1.1709 -0.7165
 3866SOL    HW223232   1.903   2.469   5.934  0.9620 -3.8791 -0.6162
 3867SOL     OW23233   1.333   2.819   4.119 -0.2878  0.0819 -0.1178
 3867SOL    HW123234   1.364   2.847   4.032  0.1039  1.2900  0.4157
 3867SOL    HW223235   1.415   2.789   4.158 -0.2092  1.3093  0.6676
 3868SOL     OW23236   1.575   1.598  15.287  0.0015 -0.0829 -0.7039
 3868SOL    HW123237   1.648   1.644  15.246  1.6517 -0.1254  2.2012
 3868SOL    HW223238   1.579   1.505  15.265 -2.0326 -0.1018 -0.9962
 3869SOL     OW23239   1.475   2.474  17.085 -0.0425  0.6516 -0.3239
 3869SOL    HW123240   1.422   2.468  17.165 -0.0135  2.1688 -0.1990
 3869SOL    HW223241   1.436   2.550  17.041  1.0922  0.0031 -2.4703
 3870SOL     OW23242   2.145   0.875   5.957  0.3784  0.1731  0.4517
 3870SOL    HW123243   2.052   0.876   5.935  0.6431 -1.7346 -0.6568
 3870SOL    HW223244   2.153   0.783   5.982 -0.5388  0.4737  1.8840
 3871SOL     OW23245   0.517   3.539   4.916 -0.0161 -0.4885 -0.1866
 3871SOL    HW123246   0.484   3.604   4.853  0.2263 -0.1642  0.0187
 3871SOL    HW223247   0.585   3.590   4.960 -0.8663 -2.3312  3.2571
 3872SOL     OW23248   4.429   1.405   2.504  0.2373  0.4630 -0.3062
 3872SOL    HW123249   4.474   1.366   2.579  0.9785  1.3670 -0.2676
 3872SOL    HW223250   4.348   1.355   2.512  0.6052 -0.1364 -0.3369
 3873SOL     OW23251   2.614   2.719  13.112  0.2308 -0.0913  0.2243
 3873SOL    HW123252   2.674   2.678  13.050 -1.0248  0.0928 -1.1375
 3873SOL    HW223253   2.651   2.679  13.190  1.0186 -0.2197 -0.2135
 3874SOL     OW23254   3.008   1.556  16.819 -0.4869 -0.3184  0.4804
 3874SOL    HW123255   2.949   1.519  16.753  1.5794 -1.4513 -0.7247
 3874SOL    HW223256   2.944   1.576  16.887 -3.3315  0.3245 -2.4182
 3875SOL     OW23257   4.541   2.022   1.765  0.2632 -0.1717 -0.0469
 3875SOL    HW123258   4.636   2.008   1.760  0.1427  0.6831 -4.4609
 3875SOL    HW223259   4.514   2.073   1.689 -1.3721  0.5126  1.0181
 3876SOL     OW23260   1.522   0.135  10.941  0.3703 -0.7058  0.1667
 3876SOL    HW123261   1.548   0.052  10.981  0.7477 -0.6409  0.0551
 3876SOL    HW223262   1.537   0.200  11.010 -0.9388 -0.1802 -0.0438
 3877SOL     OW23263   1.869   2.444   6.947 -0.3710  0.4328  0.2753
 3877SOL    HW123264   1.892   2.453   6.854  0.3947 -1.5853  0.2728
 3877SOL    HW223265   1.865   2.536   6.974 -0.1578  0.9184 -1.3419
 3878SOL     OW23266   4.625   3.995   5.737 -0.3107  0.1554  0.5758
 3878SOL    HW123267   4.596   4.004   5.646  1.8037  0.9724 -0.0127
 3878SOL    HW223268   4.544   4.015   5.784  1.5950  4.6060  1.9462
 3879SOL     OW23269   4.395   2.575   5.429 -0.0434  0.5958  0.3152
 3879SOL    HW123270   4.418   2.542   5.342 -0.6068 -1.8563  1.0851
 3879SOL    HW223271   4.473   2.549   5.479  1.4716 -0.1653 -2.4440
 3880SOL     OW23272   2.973   2.847   5.350 -0.1853 -0.0296  0.7982
 3880SOL    HW123273   2.988   2.849   5.255  1.0031 -1.3278  0.9587
 3880SOL    HW223274   3.048   2.896   5.381  0.5380  1.6563 -3.7061
 3881SOL     OW23275   3.285   4.129   5.278  0.4674 -0.0190 -0.2511
 3881SOL    HW123276   3.312   4.069   5.208  0.4683  1.2160 -1.3124
 3881SOL    HW223277   3.200   4.168   5.258  1.1952  2.1450  0.8167
 3882SOL     OW23278   1.298   0.733  10.349 -0.4445  0.0280 -0.2296
 3882SOL    HW123279   1.267   0.759  10.262 -1.0873 -1.6334 -0.4987
 3882SOL    HW223280   1.307   0.819  10.391 -1.2181  0.0305 -0.0479
 3883SOL     OW23281   3.342   3.204   1.983 -0.0482 -0.7424  0.4692
 3883SOL    HW123282   3.269   3.143   1.994  0.7688 -2.1665 -1.9794
 3883SOL    HW223283   3.407   3.146   2.024 -0.6226 -0.6224  1.5524
 3884SOL     OW23284   1.068   0.051   7.035 -0.1475  0.0722 -0.1107
 3884SOL    HW123285   1.023   0.084   7.113 -1.9267 -2.9062  0.1320
 3884SOL    HW223286   1.157   0.033   7.066 -1.0009 -4.0879 -0.0332
 3885SOL     OW23287   1.447   3.054   5.536 -0.5423 -0.1884 -0.4810
 3885SOL    HW123288   1.462   3.005   5.455 -0.2274  0.8359 -1.0391
 3885SOL    HW223289   1.360   3.018   5.555 -0.2473  0.2726  1.7259
 3886SOL     OW23290   4.598   0.503   9.444 -0.5988 -0.4047 -0.1304
 3886SOL    HW123291   4.572   0.516   9.535 -3.5511  0.8749 -1.1669
 3886SOL    HW223292   4.607   0.594   9.415  1.7328 -1.4294 -2.6485
 3887SOL     OW23293   1.444   0.770   1.564 -0.2710 -0.1750  0.1302
 3887SOL    HW123294   1.391   0.821   1.624 -0.6611  1.1581 -1.3335
 3887SOL    HW223295   1.399   0.786   1.481  2.1718  0.4477 -1.0674
 3888SOL     OW23296   1.745   2.021  10.304 -0.5323 -0.3131 -0.4710
 3888SOL    HW123297   1.801   1.964  10.251 -1.5083  0.0667 -1.8837
 3888SOL    HW223298   1.694   1.965  10.363  0.7143 -1.5861 -0.5747
 3889SOL     OW23299   1.389   4.542  11.359 -0.0584  0.1772  0.2124
 3889SOL    HW123300   1.328   4.604  11.318 -2.2648 -2.4525 -0.4289
 3889SOL    HW223301   1.417   4.589  11.438 -1.8097  0.8512  0.4406
 3890SOL     OW23302   2.890   1.641   4.129  0.0597 -0.3664 -0.0765
 3890SOL    HW123303   2.947   1.702   4.175 -1.6057  2.1818 -1.4047
 3890SOL    HW223304   2.945   1.629   4.051 -0.5395  1.5862 -0.8162
 3891SOL     OW23305   3.653   1.095   3.350 -0.4863 -0.3466 -0.3048
 3891SOL    HW123306   3.604   1.014   3.364 -2.1381  0.8556  0.7859
 3891SOL    HW223307   3.606   1.154   3.409 -2.8717 -2.5591 -0.0044
 3892SOL     OW23308   4.297   0.703   8.702  0.0434  0.4961  0.2835
 3892SOL    HW123309   4.364   0.649   8.744 -0.6309 -0.5746  0.0122
 3892SOL    HW223310   4.323   0.792   8.726  1.9526 -0.3121  1.2018
 3893SOL     OW23311   1.356   3.662   6.424 -0.2139 -0.2267 -0.1556
 3893SOL    HW123312   1.430   3.610   6.393  0.7943  1.1430 -0.0382
 3893SOL    HW223313   1.322   3.601   6.490  1.3833 -0.0521  0.8214
 3894SOL     OW23314   3.999   2.914  12.319  0.1745 -0.2789  0.0433
 3894SOL    HW123315   3.973   2.994  12.364 -2.7675 -0.0100 -2.1026
 3894SOL    HW223316   4.017   2.935  12.227  0.1314  1.0313  0.3416
 3895SOL     OW23317   2.910   4.178   3.500 -0.0271 -0.5328 -0.2726
 3895SOL    HW123318   2.848   4.124   3.451  1.5726 -1.3697 -1.3526
 3895SOL    HW223319   2.938   4.119   3.570 -2.5102 -0.4163  0.8266
 3896SOL     OW23320   3.939   4.526   0.387 -0.0880  0.0998 -0.4304
 3896SOL    HW123321   4.013   4.534   0.447  0.2714 -1.4632 -0.6711
 3896SOL    HW223322   3.974   4.573   0.311 -1.3741 -1.2100 -1.8155
 3897SOL     OW23323   3.907   0.551   5.574  0.2159  0.0263  0.2667
 3897SOL    HW123324   3.832   0.491   5.578  2.4521 -2.7983  0.1012
 3897SOL    HW223325   3.906   0.552   5.478 -1.2665 -0.9927  0.2704
 3898SOL     OW23326   3.008   3.486   7.766 -0.8719 -0.1839 -0.4097
 3898SOL    HW123327   2.979   3.541   7.693 -1.6417 -2.0952 -1.5607
 3898SOL    HW223328   3.078   3.431   7.730 -0.3654 -0.2963  0.7566
 3899SOL     OW23329   4.715   3.956   4.306 -0.0157  0.1146 -0.4590
 3899SOL    HW123330   4.725   3.888   4.239  1.6712 -0.1376  0.0457
 3899SOL    HW223331   4.644   4.009   4.270 -0.9448 -1.0052 -0.3107
 3900SOL     OW23332   2.019   4.412   8.941 -0.1739 -0.5693  0.0443
 3900SOL    HW123333   2.023   4.392   9.035 -5.1014  2.3635  0.9058
 3900SOL    HW223334   2.007   4.332   8.892  0.0065 -0.2694 -0.4847
 3901SOL     OW23335   1.328   1.017  14.330  0.1336 -0.5036 -0.0226
 3901SOL    HW123336   1.339   1.087  14.395  1.2279 -0.3717 -0.3545
 3901SOL    HW223337   1.371   0.944  14.374 -0.9874 -1.8268 -1.1198
 3902SOL     OW23338   0.278   0.443   4.828 -0.1341 -0.2995 -0.2233
 3902SOL    HW123339   0.361   0.482   4.857 -1.8275  2.5731  0.7335
 3902SOL    HW223340   0.285   0.351   4.854  0.8215 -0.4728 -1.0900
 3903SOL     OW23341   0.592   3.630   9.525  0.0606  0.0864 -0.3708
 3903SOL    HW123342   0.655   3.635   9.454 -0.5012 -0.2637 -0.8933
 3903SOL    HW223343   0.655   3.620   9.597 -0.9877  0.5911  0.6305
 3904SOL     OW23344   2.376   0.978   0.921 -0.9452 -0.3369 -0.1646
 3904SOL    HW123345   2.323   1.037   0.975 -1.0026  2.5625 -3.3851
 3904SOL    HW223346   2.319   0.901   0.918  1.3320 -1.9274 -2.4287
 3905SOL     OW23347   1.402   0.430   4.874 -0.2019 -0.0969 -0.3184
 3905SOL    HW123348   1.378   0.378   4.951  1.2848  0.3853  0.4699
 3905SOL    HW223349   1.397   0.511   4.924  1.9238  0.3587 -0.8734
 3906SOL     OW23350   4.421   4.704  13.454  0.7989  0.3801  0.3024
 3906SOL    HW123351   4.370   0.011  13.389  4.7911  1.0266 -2.2747
 3906SOL    HW223352   4.495   0.023  13.466  1.0687 -0.3584  2.3569
 3907SOL     OW23353   0.960   2.690  16.759 -0.1506 -0.0093 -0.3725
 3907SOL    HW123354   0.939   2.625  16.692 -2.1182  0.3171 -0.0736
 3907SOL    HW223355   0.904   2.668  16.834 -1.1742  0.1370 -1.1012
 3908SOL     OW23356   2.793   0.553   2.888 -0.3825 -0.0155 -0.0666
 3908SOL    HW123357   2.881   0.591   2.894 -0.8326  1.1536 -0.9344
 3908SOL    HW223358   2.812   0.467   2.851 -1.1504 -0.2545  0.1016
 3909SOL     OW23359   1.222   4.180   8.828  0.2672  0.4598 -0.3096
 3909SOL    HW123360   1.309   4.148   8.803  0.8837  1.6745  0.3177
 3909SOL    HW223361   1.177   4.101   8.798 -0.8130  1.0191 -0.1423
 3910SOL     OW23362   3.730   2.464   5.771  0.5161 -0.4446  0.2908
 3910SOL    HW123363   3.667   2.472   5.844 -0.7466  2.2521 -1.0915
 3910SOL    HW223364   3.668   2.492   5.704  1.0425  0.9950  0.3921
 3911SOL     OW23365   1.969   1.659   8.986  0.2865 -0.1631 -0.3287
 3911SOL    HW123366   1.935   1.569   8.991  0.8993 -0.2896  1.6540
 3911SOL    HW223367   2.064   1.645   8.993  0.4621  1.2509  0.0054
 3912SOL     OW23368   3.176   2.636   7.827 -0.3140  0.6629 -0.1068
 3912SOL    HW123369   3.163   2.692   7.903 -1.0080  1.1616 -0.5872
 3912SOL    HW223370   3.256   2.594   7.856 -0.1797  0.1281 -1.2567
 3913SOL     OW23371   1.919   2.853   0.749  0.2094 -0.3315 -0.4417
 3913SOL    HW123372   1.944   2.901   0.671  1.9791  0.7109  0.7851
 3913SOL    HW223373   1.989   2.788   0.754 -0.7764 -1.4621 -1.1288
 3914SOL     OW23374   2.097   1.108   3.003  0.7544  0.6364 -0.1514
 3914SOL    HW123375   2.003   1.094   3.008  0.9121 -0.5010 -0.3807
 3914SOL    HW223376   2.099   1.195   3.044  1.4386  0.6461 -0.1999
 3915SOL     OW23377   2.103   4.255   2.294  0.3714 -0.1135  0.2347
 3915SOL    HW123378   2.084   4.348   2.308 -3.3451 -0.5788 -1.9102
 3915SOL    HW223379   2.154   4.246   2.214 -0.4881  1.9762 -0.5446
 3916SOL     OW23380   1.600   2.461   8.198  0.1786  0.1991 -0.5256
 3916SOL    HW123381   1.595   2.383   8.253 -0.1975 -0.0606 -0.9331
 3916SOL    HW223382   1.527   2.443   8.139  0.8238  3.4482 -2.3024
 3917SOL     OW23383   3.289   0.870  14.709 -0.1642 -0.2845 -0.0195
 3917SOL    HW123384   3.230   0.841  14.640 -0.2274  2.8347 -1.2802
 3917SOL    HW223385   3.318   0.786  14.743 -1.7544 -0.0463  1.9364
 3918SOL     OW23386   1.996   2.477   3.182 -0.0399  0.0825 -0.6269
 3918SOL    HW123387   2.015   2.508   3.094 -1.3369 -0.0682 -0.9673
 3918SOL    HW223388   1.901   2.486   3.173 -0.3129 -0.5234  1.6729
 3919SOL     OW23389   3.635   1.816   9.230  0.4145  0.2356  0.3092
 3919SOL    HW123390   3.615   1.734   9.183  0.8791  0.1400  0.2734
 3919SOL    HW223391   3.716   1.790   9.273  0.0799  1.0826  1.4249
 3920SOL     OW23392   1.181   1.252  10.693  0.0012 -0.0836 -0.3414
 3920SOL    HW123393   1.239   1.300  10.751 -0.0967 -0.0694 -0.2557
 3920SOL    HW223394   1.126   1.330  10.683  1.7622  1.2621  0.5871
 3921SOL     OW23395   2.859   2.673   1.489 -0.1921  0.4631  0.8815
 3921SOL    HW123396   2.869   2.593   1.542 -1.4365  0.5256  1.2012
 3921SOL    HW223397   2.783   2.659   1.432  0.2692  0.2624  0.3075
 3922SOL     OW23398   0.295   0.532   7.355 -0.4497 -0.0295 -0.0721
 3922SOL    HW123399   0.373   0.506   7.405 -0.9523 -0.4031  0.5253
 3922SOL    HW223400   0.342   0.578   7.286  0.1919 -0.0940  0.3187
 3923SOL     OW23401   3.354   0.192  16.913 -0.5408 -0.1156 -0.0969
 3923SOL    HW123402   3.317   0.278  16.933  0.4591  0.2419  0.1961
 3923SOL    HW223403   3.327   0.187  16.821  2.1323  1.2078 -0.9464
 3924SOL     OW23404   2.001   4.151   4.634 -0.6579  1.1089 -0.0510
 3924SOL    HW123405   2.096   4.151   4.624 -0.5228  0.2822  1.2236
 3924SOL    HW223406   1.993   4.093   4.710 -0.9046  1.8694  0.5126
 3925SOL     OW23407   1.282   1.223   9.842  0.5496 -0.0770  0.0834
 3925SOL    HW123408   1.259   1.314   9.825 -1.9394 -0.8505 -0.7643
 3925SOL    HW223409   1.262   1.214   9.935  0.8702 -1.9751 -0.0309
 3926SOL     OW23410   1.318   3.778  10.071 -0.3802  0.0785 -0.5671
 3926SOL    HW123411   1.413   3.783  10.056  0.1069 -1.2403  1.9309
 3926SOL    HW223412   1.293   3.865  10.103 -3.0846 -0.9722  0.1209
 3927SOL     OW23413   0.441   4.435  13.981  0.1308  0.7644  0.6024
 3927SOL    HW123414   0.384   4.462  14.052 -0.0932  2.5314 -0.2354
 3927SOL    HW223415   0.393   4.472  13.906  0.9383 -0.7269 -0.6628
 3928SOL     OW23416   4.172   3.959  12.273 -0.1892 -0.0373  0.1385
 3928SOL    HW123417   4.096   3.902  12.286 -0.1177 -0.0861  0.3489
 3928SOL    HW223418   4.213   3.906  12.204 -0.3795 -1.3730  1.0473
 3929SOL     OW23419   0.587   4.536  15.932  0.1276 -0.6504  0.5967
 3929SOL    HW123420   0.614   4.492  15.851 -1.1667  0.3717 -0.3912
 3929SOL    HW223421   0.535   4.464  15.967 -2.1243  1.6307  1.9163
 3930SOL     OW23422   0.440   2.405  12.276 -0.0902 -0.6747 -0.2297
 3930SOL    HW123423   0.442   2.336  12.343  0.0967 -0.6360 -0.1971
 3930SOL    HW223424   0.521   2.381  12.231  0.4007 -0.0428  0.3111
 3931SOL     OW23425   4.590   0.527  16.300 -0.7276  0.6460 -0.5129
 3931SOL    HW123426   4.604   0.608  16.251  2.0224  0.9146  0.7208
 3931SOL    HW223427   4.667   0.472  16.288  0.1637  2.0178 -0.9592
 3932SOL     OW23428   1.128   1.575   1.626  0.0916 -0.3498 -0.3362
 3932SOL    HW123429   1.154   1.485   1.608  2.5949  0.8086 -2.4299
 3932SOL    HW223430   1.214   1.617   1.623  0.4883 -1.1963 -0.9179
 3933SOL     OW23431   3.907   4.629   9.034 -0.3476  0.6309  0.8673
 3933SOL    HW123432   3.858   4.549   9.054 -3.1884  1.8313 -1.4191
 3933SOL    HW223433   3.846   4.684   8.985  1.8220  2.6445  0.4199
 3934SOL     OW23434   2.967   1.994  17.048  0.3220 -0.0963 -0.4221
 3934SOL    HW123435   2.992   1.981  16.956 -0.3817 -1.4586 -0.4097
 3934SOL    HW223436   2.996   2.085  17.058 -0.1594  0.1235 -1.0263
 3935SOL     OW23437   1.356   2.217   5.402  0.2264  0.0709  0.2359
 3935SOL    HW123438   1.305   2.187   5.477 -0.3599 -0.0558 -0.2155
 3935SOL    HW223439   1.416   2.143   5.388 -0.2084  0.1296 -2.0115
 3936SOL     OW23440   1.395   2.006  17.580 -0.3848 -0.1387 -0.6254
 3936SOL    HW123441   1.396   1.937  17.646  1.9437  0.1370 -0.3550
 3936SOL    HW223442   1.326   1.988  17.516 -0.1852  0.5314 -1.0351
 3937SOL     OW23443   2.108   1.505   6.679  0.4459 -0.1065  0.5752
 3937SOL    HW123444   2.021   1.471   6.701  0.4701 -0.7024 -0.2673
 3937SOL    HW223445   2.107   1.488   6.585 -2.0101  1.3378  0.3443
 3938SOL     OW23446   0.622   1.309   1.380 -0.3246 -0.0292 -1.5105
 3938SOL    HW123447   0.586   1.245   1.441 -1.2546  0.6629 -1.3275
 3938SOL    HW223448   0.608   1.388   1.433 -2.8327 -1.9540  0.6945
 3939SOL     OW23449   2.429   4.220   4.793 -0.0449  0.4664 -0.5708
 3939SOL    HW123450   2.424   4.307   4.834  0.1932 -0.1178  0.7021
 3939SOL    HW223451   2.358   4.184   4.846  0.0006  0.3434 -0.5948
 3940SOL     OW23452   2.911   4.687   1.493 -0.0597  0.1755 -0.3409
 3940SOL    HW123453   2.945   4.598   1.506 -0.1300  0.3862  1.3381
 3940SOL    HW223454   2.889   4.670   1.402  2.0309  1.0891 -1.0023
 3941SOL     OW23455   3.431   3.678   4.866 -0.0446 -0.3889 -0.0680
 3941SOL    HW123456   3.409   3.595   4.908 -0.8614 -1.1620 -2.0357
 3941SOL    HW223457   3.341   3.706   4.848  0.4839  0.9809 -0.5828
 3942SOL     OW23458   1.524   0.232   4.462 -0.2114  0.1371  0.1902
 3942SOL    HW123459   1.437   0.216   4.500 -0.1797 -1.2957 -0.3136
 3942SOL    HW223460   1.556   0.302   4.518  0.3492 -1.7066  2.1956
 3943SOL     OW23461   4.569   0.793  14.249  0.0661 -0.4442  0.5756
 3943SOL    HW123462   4.501   0.742  14.293  2.1918 -1.4462  2.6624
 3943SOL    HW223463   4.627   0.826  14.318 -0.1944 -3.0247  2.0055
 3944SOL     OW23464   0.438   4.686   2.496  0.4459 -0.4392 -0.0820
 3944SOL    HW123465   0.388   0.009   2.445 -0.2512 -1.4235 -0.6150
 3944SOL    HW223466   0.479   4.636   2.425 -1.8033 -0.0129 -1.6699
 3945SOL     OW23467   0.302   2.337   7.885 -0.2405  0.2797  0.1612
 3945SOL    HW123468   0.235   2.350   7.818 -0.7825 -0.1861  0.6138
 3945SOL    HW223469   0.364   2.285   7.833  2.2464  0.3517  3.0124
 3946SOL     OW23470   4.512   3.236   9.975  0.2114  0.0756  0.3400
 3946SOL    HW123471   4.527   3.284   9.894  0.8700 -0.8645 -0.0933
 3946SOL    HW223472   4.417   3.226   9.974  0.2433 -0.1808 -0.0066
 3947SOL     OW23473   0.202   3.498   4.804 -0.0231  0.3650  0.4176
 3947SOL    HW123474   0.197   3.408   4.836 -0.8353 -0.2919 -1.5838
 3947SOL    HW223475   0.115   3.536   4.817  0.2019  0.9737  0.1238
 3948SOL     OW23476   3.388   3.326   8.006  0.1598 -0.1144 -0.9366
 3948SOL    HW123477   3.376   3.231   8.001 -1.6190 -0.0220  1.7912
 3948SOL    HW223478   3.340   3.353   8.084 -1.7892  0.5342 -2.3759
 3949SOL     OW23479   3.997   3.927   1.794  0.8327  0.0846  0.1264
 3949SOL    HW123480   3.903   3.914   1.796  0.6257  1.0139 -3.3851
 3949SOL    HW223481   4.008   4.001   1.734 -0.6907  0.1204 -0.0944
 3950SOL     OW23482   0.353   3.240   3.143  0.2464 -0.2571 -0.4371
 3950SOL    HW123483   0.406   3.256   3.065  0.5651  2.0290  0.2379
 3950SOL    HW223484   0.419   3.233   3.212 -1.0728 -0.3154  0.8212
 3951SOL     OW23485   3.246   4.096   4.286  0.1875 -0.0370  0.3564
 3951SOL    HW123486   3.304   4.137   4.350 -0.9475  0.2475  1.2104
 3951SOL    HW223487   3.287   4.011   4.272  0.3991  0.5625 -2.6448
 3952SOL     OW23488   1.797   0.762   0.945 -0.1363  0.3236  0.1812
 3952SOL    HW123489   1.728   0.740   1.008  0.2820  0.4451  0.6921
 3952SOL    HW223490   1.847   0.681   0.957 -0.6120  0.0555  0.3126
 3953SOL     OW23491   2.397   2.753   4.291  0.5070  0.1593 -0.0148
 3953SOL    HW123492   2.418   2.678   4.347  0.0229  0.5685  0.7062
 3953SOL    HW223493   2.461   2.741   4.220 -0.6102  0.1278 -1.0067
 3954SOL     OW23494   3.138   4.714  12.124 -0.7151 -0.1108  0.0437
 3954SOL    HW123495   3.082   4.638  12.140 -1.9471  1.1358  1.5678
 3954SOL    HW223496   3.093   0.036  12.067 -1.7793 -2.4460 -1.6599
 3955SOL     OW23497   4.120   2.851   1.522  0.0631 -0.3558  0.0068
 3955SOL    HW123498   4.062   2.860   1.447 -1.3434  1.2124  1.2756
 3955SOL    HW223499   4.078   2.776   1.565 -2.2279 -0.1025 -1.8388
 3956SOL     OW23500   4.086   3.629   0.157  0.5426  0.0112  0.0789
 3956SOL    HW123501   4.179   3.617   0.173  0.4556  1.5169  1.7093
 3956SOL    HW223502   4.081   3.598   0.066  0.2241  2.0293 -0.5900
 3957SOL     OW23503   3.129   2.078  16.443  0.2735  0.6123  0.2195
 3957SOL    HW123504   3.187   2.152  16.421 -0.0519  0.7468 -0.1948
 3957SOL    HW223505   3.053   2.092  16.386  0.4162 -0.3120 -0.1874
 3958SOL     OW23506   4.057   4.728  15.345  0.4977 -0.1184  0.0289
 3958SOL    HW123507   4.033   4.650  15.394 -0.0824  0.7696  1.1546
 3958SOL    HW223508   4.050   0.062  15.406 -0.7526 -0.3478  0.1543
 3959SOL     OW23509   0.983   0.936   8.999 -0.1328 -0.1079 -0.3547
 3959SOL    HW123510   1.043   0.924   9.072  0.2510 -1.1729 -0.8412
 3959SOL    HW223511   1.040   0.962   8.926 -0.8982  0.7493 -0.6532
 3960SOL     OW23512   0.093   1.408   8.612 -0.0957  0.0517  0.1743
 3960SOL    HW123513   0.180   1.441   8.591  0.4463 -1.8042 -0.5005
 3960SOL    HW223514   0.060   1.403   8.522 -1.7498  0.0038  0.7806
 3961SOL     OW23515   1.432   1.100   2.825  0.2329  0.2396 -0.2719
 3961SOL    HW123516   1.525   1.088   2.806 -0.4864  1.8012 -4.8091
 3961SOL    HW223517   1.403   1.125   2.737  1.4730  0.1671 -0.7001
 3962SOL     OW23518   2.461   1.847   1.990 -0.1817  0.0857  0.3169
 3962SOL    HW123519   2.368   1.825   1.986 -0.1824 -0.3786  3.0607
 3962SOL    HW223520   2.494   1.761   2.015  1.0076  0.7008  0.9039
 3963SOL     OW23521   1.458   0.359   4.211  0.1008 -0.5400  0.0992
 3963SOL    HW123522   1.477   0.451   4.232  0.9297 -0.7666  0.3375
 3963SOL    HW223523   1.477   0.314   4.293  1.7097  2.1332  1.1929
 3964SOL     OW23524   0.436   3.510   9.156  0.4633  0.3462 -0.2529
 3964SOL    HW123525   0.465   3.523   9.066 -0.8977 -2.0048 -1.0082
 3964SOL    HW223526   0.524   3.504   9.193 -0.3734  0.1494  1.6976
 3965SOL     OW23527   1.405   4.375   5.030  0.3352 -0.1312 -0.1337
 3965SOL    HW123528   1.495   4.355   5.054 -0.1589 -2.5597 -0.3702
 3965SOL    HW223529   1.416   4.376   4.935 -1.1605  0.2171 -0.3081
 3966SOL     OW23530   3.946   4.304   9.344 -0.1766 -0.5830  0.0526
 3966SOL    HW123531   3.976   4.227   9.393 -2.5890 -1.1240  0.6970
 3966SOL    HW223532   4.021   4.313   9.286 -0.6136 -0.2637 -0.4600
 3967SOL     OW23533   3.250   2.179   5.701 -0.0783  0.1792 -0.5445
 3967SOL    HW123534   3.339   2.171   5.667  0.6471 -0.6486  1.6042
 3967SOL    HW223535   3.211   2.239   5.637  1.4656 -0.4086 -2.0357
 3968SOL     OW23536   2.588   3.106   2.966 -0.0041  0.0038 -0.0520
 3968SOL    HW123537   2.560   3.105   2.875 -0.6661  1.0314  0.1314
 3968SOL    HW223538   2.612   3.014   2.977  1.7867  0.4920  0.2181
 3969SOL     OW23539   2.717   1.875  11.179 -0.2171  0.4642  0.0131
 3969SOL    HW123540   2.693   1.925  11.101  0.3349  0.0501 -0.4173
 3969SOL    HW223541   2.645   1.889  11.241 -2.3199 -0.7853 -2.1447
 3970SOL     OW23542   1.691   4.023   2.007  0.7422 -0.4812 -0.2051
 3970SOL    HW123543   1.727   3.939   1.977  0.6368 -0.3075 -0.8229
 3970SOL    HW223544   1.611   4.020   1.953  0.0600 -0.5484  0.8111
 3971SOL     OW23545   2.602   4.198   5.191 -0.2368 -0.2250 -0.5728
 3971SOL    HW123546   2.516   4.158   5.204  0.7601 -1.4260  2.3241
 3971SOL    HW223547   2.661   4.128   5.163  1.5135  1.1277 -0.2329
 3972SOL     OW23548   1.792   0.664   9.011  0.6366  0.5825 -0.0242
 3972SOL    HW123549   1.705   0.629   8.990  0.1623  1.6514  0.1677
 3972SOL    HW223550   1.765   0.717   9.086  2.2167  1.7599 -0.2793
 3973SOL     OW23551   1.920   0.977   1.663 -0.6242  0.6116 -0.2138
 3973SOL    HW123552   1.934   0.882   1.656 -1.4565  0.5334 -0.8157
 3973SOL    HW223553   2.001   1.007   1.705  1.2132 -2.7582 -1.3188
 3974SOL     OW23554   1.936   2.870   2.541  0.4701 -0.3624  0.0436
 3974SOL    HW123555   2.011   2.810   2.548 -1.3173 -2.4560  1.0510
 3974SOL    HW223556   1.949   2.893   2.449  4.4282 -2.7227 -0.0204
 3975SOL     OW23557   1.755   1.778  16.617 -0.0206 -0.8142  0.2751
 3975SOL    HW123558   1.673   1.761  16.663 -0.2823  0.7671  0.3899
 3975SOL    HW223559   1.717   1.832  16.547  1.6057 -2.3572 -1.7917
 3976SOL     OW23560   1.942   1.374   7.826  0.3991 -0.8468  0.6456
 3976SOL    HW123561   1.898   1.345   7.745 -0.1325 -0.7290  0.8914
 3976SOL    HW223562   1.886   1.447   7.852  0.2585 -0.3071 -1.1984
 3977SOL     OW23563   4.208   0.015   4.569  0.4025  0.6376 -0.0101
 3977SOL    HW123564   4.154   0.086   4.601 -0.1349  0.3474 -0.2708
 3977SOL    HW223565   4.222   0.050   4.481  1.5441  0.5520  0.1382
 3978SOL     OW23566   2.353   4.542  13.593  0.0764 -0.4663 -0.3001
 3978SOL    HW123567   2.275   4.487  13.593 -0.1637 -0.1170  0.0453
 3978SOL    HW223568   2.312   4.623  13.622  0.8558  0.2914 -1.3226
 3979SOL     OW23569   4.192   4.277   3.996 -0.1635 -0.4587 -0.1525
 3979SOL    HW123570   4.137   4.306   4.069 -0.4048  0.2848 -0.6301
 3979SOL    HW223571   4.275   4.309   4.031  0.6052 -0.5330 -1.8729
 3980SOL     OW23572   3.511   0.411   5.151  0.2362  0.0356 -0.2270
 3980SOL    HW123573   3.445   0.468   5.113  0.0956  0.4478  0.6346
 3980SOL    HW223574   3.457   0.361   5.212  2.9697  0.3650  2.4502
 3981SOL     OW23575   2.199   4.245   2.019  0.2180  0.0506  0.1386
 3981SOL    HW123576   2.198   4.171   1.959  0.3665  0.4996 -0.4203
 3981SOL    HW223577   2.146   4.308   1.970  1.1632 -1.4790 -2.8650
 3982SOL     OW23578   1.627   4.011   5.996 -0.2385 -0.0832 -0.3673
 3982SOL    HW123579   1.566   4.028   5.923  1.6610 -1.4393 -2.2798
 3982SOL    HW223580   1.711   4.025   5.952 -1.7037  2.4531 -2.3810
 3983SOL     OW23581   4.694   2.992   2.595  0.3881 -0.1176  0.3938
 3983SOL    HW123582   4.614   2.939   2.593  0.1640  0.2209  0.2024
 3983SOL    HW223583   4.653   3.068   2.552 -0.2371 -0.2464  0.7563
 3984SOL     OW23584   4.145   1.015  14.872  0.2398 -0.0573 -0.2377
 3984SOL    HW123585   4.097   0.942  14.833 -0.8902 -0.5585  2.0518
 3984SOL    HW223586   4.096   1.090  14.840 -1.5029 -0.7677  0.7659
 3985SOL     OW23587   3.383   2.433   2.794  0.0233  0.1484  0.3739
 3985SOL    HW123588   3.341   2.445   2.709 -0.2405 -0.2736  0.4493
 3985SOL    HW223589   3.462   2.383   2.772 -0.4117 -0.3602 -0.0280
 3986SOL     OW23590   1.560   2.804  17.619  0.5957  0.1550  0.4060
 3986SOL    HW123591   1.566   2.738  17.689  1.4442  0.5168  0.6758
 3986SOL    HW223592   1.653   2.813  17.602  0.2348  0.5836 -1.3334
 3987SOL     OW23593   2.993   0.023   6.881  0.2806  0.7073 -0.4416
 3987SOL    HW123594   3.084   0.017   6.909 -0.7997  0.6445  3.0120
 3987SOL    HW223595   2.973   4.670   6.886 -0.7998  0.9276 -0.6984
 3988SOL     OW23596   3.532   0.390   2.360 -0.3975  0.5606  0.4018
 3988SOL    HW123597   3.576   0.306   2.375 -0.1217  0.5243 -0.6231
 3988SOL    HW223598   3.594   0.454   2.325 -0.2339 -0.2361 -0.7612
 3989SOL     OW23599   4.731   3.744   4.139  0.7788 -0.0585  0.0941
 3989SOL    HW123600   4.731   3.649   4.149 -0.6775 -0.2316 -1.4485
 3989SOL    HW223601   0.039   3.755   4.057  1.1655  2.3181  0.6546
 3990SOL     OW23602   1.398   3.816   5.727  0.5682 -0.5583  0.1153
 3990SOL    HW123603   1.328   3.870   5.690  1.9448  0.9260 -0.3326
 3990SOL    HW223604   1.434   3.871   5.797 -1.6092  1.7838 -0.6083
 3991SOL     OW23605   1.295   3.058   9.545  0.1256 -0.0713  0.3450
 3991SOL    HW123606   1.374   3.113   9.541  0.6805 -0.8390  0.6691
 3991SOL    HW223607   1.231   3.113   9.590  0.3211 -0.4694  1.1228
 3992SOL     OW23608   0.290   4.234   5.230 -0.4411  0.1061  0.5926
 3992SOL    HW123609   0.318   4.314   5.186  2.4598 -0.4195  1.4690
 3992SOL    HW223610   0.226   4.275   5.288 -2.1491  0.1176 -1.3261
 3993SOL     OW23611   4.619   3.398   5.678  0.1543  0.1398 -0.0619
 3993SOL    HW123612   4.666   3.481   5.675 -0.3875  0.4264 -0.6696
 3993SOL    HW223613   4.541   3.421   5.728 -0.8289  0.5849 -1.7939
 3994SOL     OW23614   2.306   3.373  10.038  0.0784 -0.3664  0.3451
 3994SOL    HW123615   2.330   3.447  10.095 -1.2274  1.1539 -1.0868
 3994SOL    HW223616   2.388   3.324  10.038  0.1694 -0.2081 -0.3807
 3995SOL     OW23617   1.119   4.077   7.898 -0.3066 -0.3283 -0.4705
 3995SOL    HW123618   1.025   4.067   7.912 -0.2477 -0.0591  0.1071
 3995SOL    HW223619   1.160   4.004   7.946 -1.3911 -1.5579 -1.4336
 3996SOL     OW23620   4.023   0.606  14.106 -0.4584 -0.0220 -0.5720
 3996SOL    HW123621   3.934   0.583  14.081  0.1853 -1.7343 -1.2862
 3996SOL    HW223622   4.066   0.634  14.025  1.8050 -0.0801  0.5926
 3997SOL     OW23623   3.392   1.134   5.057 -0.5752  0.2115  0.1157
 3997SOL    HW123624   3.452   1.184   5.111  1.0107 -1.5902  0.0226
 3997SOL    HW223625   3.325   1.120   5.124 -1.6674 -0.1797 -1.0458
 3998SOL     OW23626   2.103   0.968  16.927  0.1043 -0.4075  0.1044
 3998SOL    HW123627   2.114   0.919  16.845  0.2224 -0.6307  0.2541
 3998SOL    HW223628   2.177   0.933  16.977 -0.6606 -0.1257  1.4415
 3999SOL     OW23629   2.340   2.759   1.515  0.0796 -0.7199 -0.8903
 3999SOL    HW123630   2.417   2.706   1.534  0.1667  0.0722  1.0139
 3999SOL    HW223631   2.379   2.843   1.494  0.4037  0.1356  3.1309
 4000SOL     OW23632   1.509   3.808   1.192  0.0770 -0.1783 -0.2492
 4000SOL    HW123633   1.498   3.729   1.246  1.4738  0.1328  0.4895
 4000SOL    HW223634   1.596   3.835   1.223 -1.0232  1.8781  0.9869
 4001SOL     OW23635   0.385   4.648   9.417  0.0596 -0.1211 -0.8436
 4001SOL    HW123636   0.341   4.733   9.421  0.7081  0.0803  2.0422
 4001SOL    HW223637   0.306   4.595   9.422  0.5693 -0.7224  0.8890
 4002SOL     OW23638   0.292   2.289  12.956 -0.3848  0.1175 -0.9965
 4002SOL    HW123639   0.312   2.375  12.993 -0.5815 -1.1234  1.9819
 4002SOL    HW223640   0.319   2.303  12.865  0.1958 -3.9778 -1.4441
 4003SOL     OW23641   3.931   3.415  11.671 -0.2622  0.0444  0.4081
 4003SOL    HW123642   3.922   3.475  11.745  1.6980  1.6157 -0.6390
 4003SOL    HW223643   4.010   3.372  11.703 -1.3660 -1.0797  1.6199
 4004SOL     OW23644   4.326   1.467   3.244 -0.3081 -0.0342  0.6684
 4004SOL    HW123645   4.320   1.503   3.156 -0.4444  0.5294  0.9008
 4004SOL    HW223646   4.237   1.431   3.246 -0.1221 -0.4509  1.6556
 4005SOL     OW23647   0.941   0.293   1.561 -0.2148 -0.2177  0.6060
 4005SOL    HW123648   0.853   0.258   1.548 -0.7871  0.8960  1.4879
 4005SOL    HW223649   0.986   0.253   1.487 -0.2730  0.6881  0.0832
 4006SOL     OW23650   3.521   1.330   8.109 -0.0650  0.2425 -0.2992
 4006SOL    HW123651   3.567   1.351   8.191  0.0853  0.4907 -0.4492
 4006SOL    HW223652   3.520   1.234   8.118 -2.8304  0.1396 -1.9082
 4007SOL     OW23653   3.237   1.588  10.924  0.4026 -0.2013 -0.2324
 4007SOL    HW123654   3.189   1.505  10.926  0.6075 -0.3831 -3.0651
 4007SOL    HW223655   3.300   1.584  10.996  0.9964  0.8049 -0.7037
 4008SOL     OW23656   4.032   1.203   3.840 -0.0497 -0.3159  0.4833
 4008SOL    HW123657   4.102   1.161   3.789 -0.0343  1.2496 -0.8034
 4008SOL    HW223658   3.976   1.126   3.850 -1.6547  0.7233 -0.6179
 4009SOL     OW23659   4.328   2.908   6.839  0.0356  1.1054  0.1241
 4009SOL    HW123660   4.283   2.962   6.774 -1.0083 -1.3228 -1.1319
 4009SOL    HW223661   4.282   2.940   6.917  0.7402  0.2963  0.8706
 4010SOL     OW23662   2.951   1.432  11.042 -0.2131 -0.0646  0.3178
 4010SOL    HW123663   3.037   1.394  11.060 -0.4572 -0.3735  0.8126
 4010SOL    HW223664   2.938   1.399  10.953 -1.4567  0.0117  0.4778
 4011SOL     OW23665   3.966   4.191  11.749 -0.0043 -0.1631 -0.1742
 4011SOL    HW123666   3.899   4.230  11.805  1.9308  1.0250  1.3290
 4011SOL    HW223667   3.950   4.240  11.668 -2.0643 -0.7391 -0.1120
 4012SOL     OW23668   3.849   1.729   8.788  0.1630 -0.2748 -0.0441
 4012SOL    HW123669   3.774   1.703   8.735 -0.4405  0.7100  0.3247
 4012SOL    HW223670   3.880   1.651   8.834  1.2666  0.8809  1.1461
 4013SOL     OW23671   0.643   2.188   0.977  0.3412  0.4623 -0.0183
 4013SOL    HW123672   0.559   2.227   0.998 -1.2033 -2.1827 -1.2878
 4013SOL    HW223673   0.617   2.099   1.000  1.6365 -0.7565 -3.1937
 4014SOL     OW23674   2.846   2.440   5.538 -0.2457  0.0298 -0.6620
 4014SOL    HW123675   2.814   2.521   5.497 -1.1745 -0.0173 -0.0545
 4014SOL    HW223676   2.787   2.378   5.496 -2.3254  1.4575  0.0907
 4015SOL     OW23677   3.637   3.073   4.510 -1.2533  0.6280 -0.3916
 4015SOL    HW123678   3.675   3.115   4.433  0.5935  0.2450  0.3049
 4015SOL    HW223679   3.716   3.053   4.560 -0.8881  0.2349 -1.1230
 4016SOL     OW23680   0.883   3.279   4.363 -0.5779  0.2191  0.1492
 4016SOL    HW123681   0.850   3.336   4.294 -0.6935 -1.6794 -1.3708
 4016SOL    HW223682   0.848   3.319   4.443 -1.2875  0.9468 -0.5416
 4017SOL     OW23683   3.764   4.120   7.131  0.0337  0.4338 -0.7635
 4017SOL    HW123684   3.673   4.092   7.125 -0.4829  1.4533  2.2192
 4017SOL    HW223685   3.790   4.111   7.039  1.1517 -2.0064 -0.2213
 4018SOL     OW23686   1.420   0.825   8.128 -0.3241 -0.1967  0.1920
 4018SOL    HW123687   1.395   0.875   8.050 -0.6437 -2.8429 -1.3922
 4018SOL    HW223688   1.440   0.741   8.087 -0.8793 -0.9781  1.5148
 4019SOL     OW23689   4.157   2.217   2.875 -0.0364  0.0203 -0.2312
 4019SOL    HW123690   4.098   2.151   2.837 -0.0624  0.8150 -1.5963
 4019SOL    HW223691   4.241   2.175   2.857 -1.2610 -0.6942 -4.4931
 4020SOL     OW23692   0.476   1.793   9.748  0.3458 -0.9811 -0.4507
 4020SOL    HW123693   0.418   1.852   9.797  0.4307 -2.0864  0.9941
 4020SOL    HW223694   0.429   1.713   9.773 -0.9035 -1.3963 -4.0740
 4021SOL     OW23695   0.829   0.638   5.662  0.6213  0.3073 -0.3511
 4021SOL    HW123696   0.842   0.605   5.751  1.0762 -1.2413 -0.9936
 4021SOL    HW223697   0.875   0.568   5.615 -0.2597  0.0832 -0.8819
 4022SOL     OW23698   1.416   4.386   3.409 -0.6267 -0.1741 -0.2817
 4022SOL    HW123699   1.369   4.445   3.468 -0.7323  0.5771 -1.1119
 4022SOL    HW223700   1.350   4.319   3.392  0.4599 -1.4084  0.3121
 4023SOL     OW23701   4.626   3.779  12.961  0.3272 -0.2356  0.2286
 4023SOL    HW123702   4.718   3.764  12.983  0.7768 -0.7101 -1.9852
 4023SOL    HW223703   4.578   3.697  12.956 -0.5945  0.2128  1.5887
 4024SOL     OW23704   0.316   2.137   1.749  0.5219 -0.1147  0.0123
 4024SOL    HW123705   0.332   2.115   1.841 -0.6001 -1.1049 -0.0335
 4024SOL    HW223706   0.353   2.225   1.742  0.6828 -0.1669  0.2145
 4025SOL     OW23707   1.094   2.832   1.296  0.4039 -0.5242 -0.0769
 4025SOL    HW123708   1.114   2.921   1.266  0.4662 -0.2206  0.8680
 4025SOL    HW223709   1.067   2.803   1.208 -1.0024 -0.2288  0.2599
 4026SOL     OW23710   0.634   2.958   2.293  0.0245  0.2795  0.4766
 4026SOL    HW123711   0.678   3.040   2.270  0.1994 -0.4066 -1.6029
 4026SOL    HW223712   0.542   2.984   2.297  0.0862  0.4175  1.0607
 4027SOL     OW23713   1.196   0.183   0.414 -0.6899 -0.3268  0.7728
 4027SOL    HW123714   1.224   0.232   0.336 -0.0503 -0.3975  0.9542
 4027SOL    HW223715   1.180   0.097   0.377  2.2215 -0.4186 -0.2920
 4028SOL     OW23716   2.066   0.408   7.793 -0.7116  0.2358  0.4587
 4028SOL    HW123717   2.130   0.344   7.763 -2.0192 -0.7045 -0.3015
 4028SOL    HW223718   2.062   0.462   7.714  1.1659  0.9125  0.8184
 4029SOL     OW23719   4.285   0.954  13.845  0.3027 -0.0231  0.6090
 4029SOL    HW123720   4.308   0.939  13.753 -1.4926  2.1344 -0.2037
 4029SOL    HW223721   4.228   1.028  13.825 -0.1715 -0.6527 -0.3784
 4030SOL     OW23722   0.896   4.427   1.887 -0.3229  0.6217  0.4334
 4030SOL    HW123723   0.851   4.439   1.804  0.2394  3.1724  0.4993
 4030SOL    HW223724   0.921   4.515   1.914  0.5837  0.3565  0.4862
 4031SOL     OW23725   1.064   2.762   4.032  0.3128  0.2311  0.4372
 4031SOL    HW123726   1.156   2.761   4.059  0.2794 -0.5019  0.5250
 4031SOL    HW223727   1.017   2.707   4.095  0.1101 -0.4296 -0.2898
 4032SOL     OW23728   4.240   0.113   0.409 -0.4859 -0.6374 -0.4877
 4032SOL    HW123729   4.180   0.084   0.477 -0.7429 -0.2238 -0.5325
 4032SOL    HW223730   4.259   0.029   0.368  2.2348  0.2480 -1.0103
 4033SOL     OW23731   4.393   0.308   8.162  0.2866 -0.3393 -0.0888
 4033SOL    HW123732   4.376   0.401   8.175 -2.2557 -0.6097 -1.4514
 4033SOL    HW223733   4.488   0.303   8.163  0.3565  1.0944  0.5032
 4034SOL     OW23734   1.649   0.812  10.698 -0.5121  0.4005 -0.7142
 4034SOL    HW123735   1.638   0.750  10.625  1.5097  1.0618 -1.5622
 4034SOL    HW223736   1.680   0.753  10.767 -3.5602  0.0614  0.3613
 4035SOL     OW23737   0.173   2.201   3.046  0.2106 -0.0906  0.2112
 4035SOL    HW123738   0.146   2.227   2.958  1.9328  0.9284 -0.0136
 4035SOL    HW223739   0.212   2.115   3.035 -0.8992 -0.4427 -0.9170
 4036SOL     OW23740   3.068   1.481  10.358  0.3670  0.2743 -0.1627
 4036SOL    HW123741   3.089   1.535  10.282 -1.4377  0.0970 -0.8055
 4036SOL    HW223742   2.978   1.512  10.372  0.5396  0.7265 -0.0589
 4037SOL     OW23743   4.047   4.316   8.383 -0.2256  0.3069  0.2002
 4037SOL    HW123744   4.001   4.390   8.422 -0.8979 -1.4900  2.7699
 4037SOL    HW223745   3.993   4.243   8.413  0.5877 -1.0519 -1.6489
 4038SOL     OW23746   3.486   4.538  11.742  0.6279 -0.5402 -0.0390
 4038SOL    HW123747   3.423   4.548  11.814 -0.2847 -0.4614 -0.8545
 4038SOL    HW223748   3.480   4.445  11.720  2.8272 -0.9633  1.1659
 4039SOL     OW23749   2.512   2.248   3.779  0.3757  0.2531 -0.4227
 4039SOL    HW123750   2.476   2.176   3.728 -0.9068 -0.1282  1.0465
 4039SOL    HW223751   2.569   2.201   3.840 -0.3864 -0.6255 -0.4046
 4040SOL     OW23752   3.732   1.867   4.282 -0.1084  0.0685  0.1192
 4040SOL    HW123753   3.809   1.824   4.246 -0.1108 -0.2176  0.4521
 4040SOL    HW223754   3.684   1.872   4.199 -2.6579  2.5930  1.7428
 4041SOL     OW23755   3.405   1.680   8.418  0.1124  0.1175  0.0711
 4041SOL    HW123756   3.311   1.691   8.430 -0.1657 -2.0691 -0.0365
 4041SOL    HW223757   3.424   1.595   8.458 -3.6939 -0.0660  1.5026
 4042SOL     OW23758   1.006   4.415   3.650 -0.2683 -0.0103  0.2769
 4042SOL    HW123759   1.054   4.446   3.573  1.0365  2.3428  2.0486
 4042SOL    HW223760   1.023   4.485   3.712 -0.3369  0.7887 -0.6087
 4043SOL     OW23761   1.700   1.982  16.437 -0.1472 -0.7850  0.4671
 4043SOL    HW123762   1.629   2.032  16.479  0.0515 -0.9317  0.9824
 4043SOL    HW223763   1.754   2.053  16.402 -0.0357  0.2745  2.7774
 4044SOL     OW23764   4.287   2.124   6.458  0.4862 -0.0406 -0.8649
 4044SOL    HW123765   4.288   2.093   6.548  0.8163 -1.4143 -1.3390
 4044SOL    HW223766   4.371   2.169   6.457  0.5612 -0.1498  0.7560
 4045SOL     OW23767   0.893   0.729  11.619  0.3217 -0.4296 -0.3791
 4045SOL    HW123768   0.865   0.811  11.576 -1.3862 -0.1900  1.1535
 4045SOL    HW223769   0.927   0.673  11.549 -1.2643 -0.5821 -1.0527
 4046SOL     OW23770   0.093   0.384   9.427 -0.4270 -0.1400  0.6918
 4046SOL    HW123771   0.001   0.405   9.444 -0.6460 -0.3488 -0.2479
 4046SOL    HW223772   0.130   0.468   9.456  0.6599 -0.6001  0.6464
 4047SOL     OW23773   3.050   1.069  16.259 -0.0720 -0.7201  0.8553
 4047SOL    HW123774   2.983   1.035  16.318 -1.1984  1.3002  0.7550
 4047SOL    HW223775   3.021   1.161  16.254  0.3638 -0.6229  0.0833
 4048SOL     OW23776   4.217   3.519   5.292 -0.0464 -0.0785 -0.1061
 4048SOL    HW123777   4.155   3.582   5.256 -0.8686 -1.5804 -1.3425
 4048SOL    HW223778   4.259   3.485   5.213  0.4776  0.3564 -0.0086
 4049SOL     OW23779   3.854   1.610   9.164 -0.3078 -0.0254  0.2357
 4049SOL    HW123780   3.932   1.555   9.164 -0.7209 -0.6293  1.7355
 4049SOL    HW223781   3.864   1.652   9.250  1.9834  0.5800 -0.3478
 4050SOL     OW23782   0.903   0.599   4.928  0.0505  0.0868 -0.2228
 4050SOL    HW123783   0.846   0.671   4.955  0.8494  0.0735  1.5053
 4050SOL    HW223784   0.838   0.528   4.929  0.9686 -0.7512 -0.6992
 4051SOL     OW23785   3.931   2.766   3.629 -0.2502 -0.2886 -0.0818
 4051SOL    HW123786   4.023   2.770   3.654 -0.4448 -0.0817  0.6148
 4051SOL    HW223787   3.942   2.703   3.558  1.4385  1.4507 -1.3678
 4052SOL     OW23788   0.551   0.760   4.063  0.0380  0.2792  0.4828
 4052SOL    HW123789   0.506   0.698   4.121  1.2261 -0.3601  0.7106
 4052SOL    HW223790   0.521   0.723   3.980 -1.6659 -1.4346  1.8480
 4053SOL     OW23791   0.924   2.881   3.528  0.2320  0.2141 -0.0057
 4053SOL    HW123792   0.932   2.847   3.617 -0.1027 -2.7829 -1.1182
 4053SOL    HW223793   1.013   2.857   3.502  0.4971  1.5789 -0.3370
 4054SOL     OW23794   2.678   1.946   4.516 -1.0332 -0.2002 -0.6774
 4054SOL    HW123795   2.721   1.991   4.589 -0.9721 -0.5098 -0.5176
 4054SOL    HW223796   2.642   2.019   4.467 -0.9279  1.8119  2.2089
 4055SOL     OW23797   1.843   0.521  16.923 -0.6843 -0.2064  0.2123
 4055SOL    HW123798   1.769   0.557  16.972 -0.1222 -0.3231  1.1574
 4055SOL    HW223799   1.834   0.427  16.936 -0.5601 -0.0405  1.4697
 4056SOL     OW23800   2.825   2.407   6.076 -0.0362  0.2726 -0.6820
 4056SOL    HW123801   2.812   2.430   6.168  0.9327 -1.0217 -0.2274
 4056SOL    HW223802   2.737   2.376   6.054  0.3813 -1.3862  0.0053
 4057SOL     OW23803   2.740   1.477   5.134 -0.1362 -0.1579 -0.0493
 4057SOL    HW123804   2.661   1.439   5.172 -0.3937  0.0417 -0.3763
 4057SOL    HW223805   2.796   1.407   5.167  2.1825  0.4589 -2.6146
 4058SOL     OW23806   3.235   0.208   1.796 -0.0228  0.1537  0.4485
 4058SOL    HW123807   3.160   0.195   1.739  0.8714 -3.3830  0.0545
 4058SOL    HW223808   3.304   0.207   1.730  1.5713  0.8108  2.1094
 4059SOL     OW23809   2.107   0.020   9.576 -0.0167 -0.4133  0.5814
 4059SOL    HW123810   2.048   4.725   9.642 -1.1154 -0.6658 -0.5351
 4059SOL    HW223811   2.049   0.048   9.505 -2.4093 -2.1801  1.8618
 4060SOL     OW23812   2.466   4.463  14.830  0.7684 -0.2486  0.1768
 4060SOL    HW123813   2.451   4.554  14.805 -2.3193 -1.0194 -0.7154
 4060SOL    HW223814   2.535   4.465  14.896  0.2123 -1.5098  0.7993
 4061SOL     OW23815   4.391   0.401  10.634 -1.0692 -0.1110  0.4603
 4061SOL    HW123816   4.369   0.492  10.650  1.9194  0.9022 -1.1597
 4061SOL    HW223817   4.472   0.392  10.685 -0.2217  1.0621 -0.6692
 4062SOL     OW23818   4.005   4.353   2.364  0.2941  0.1397 -0.4952
 4062SOL    HW123819   3.921   4.315   2.335  0.0007  0.8608 -0.5857
 4062SOL    HW223820   3.992   4.330   2.456 -0.7597 -1.6551 -1.0803
 4063SOL     OW23821   4.652   3.443   6.076 -0.2915  0.0018 -0.0063
 4063SOL    HW123822   4.617   3.526   6.046 -0.8489 -0.1704  0.1765
 4063SOL    HW223823   4.712   3.422   6.004  0.5819  1.2967  0.3482
 4064SOL     OW23824   3.201   4.240   2.494 -0.6331  0.5177 -0.3691
 4064SOL    HW123825   3.128   4.224   2.554 -1.0044  2.5092 -0.3039
 4064SOL    HW223826   3.247   4.156   2.492  1.7433  1.7881  1.1532
 4065SOL     OW23827   0.354   4.657   6.927 -0.3974 -0.4547 -0.6000
 4065SOL    HW123828   0.263   4.631   6.938 -0.0486 -1.4558 -0.0657
 4065SOL    HW223829   0.383   4.572   6.893  0.2090  0.0880 -1.4471
 4066SOL     OW23830   0.969   0.999  12.578 -0.0666 -0.2267  0.0138
 4066SOL    HW123831   0.936   0.981  12.490  0.1638 -0.3332 -0.0516
 4066SOL    HW223832   0.900   1.055  12.613  1.0011  0.0186  1.7374
 4067SOL     OW23833   2.524   4.456   3.874  0.0418  0.0173 -1.4565
 4067SOL    HW123834   2.615   4.440   3.849  0.4519 -0.7312  0.5092
 4067SOL    HW223835   2.484   4.369   3.867  0.7392 -0.4206 -0.0399
 4068SOL     OW23836   3.264   4.402   3.096 -0.4024 -0.0140  0.1549
 4068SOL    HW123837   3.355   4.410   3.125 -0.4527 -2.3466  0.9337
 4068SOL    HW223838   3.267   4.448   3.013  1.9210  0.8504  0.7272
 4069SOL     OW23839   2.121   2.569   6.848  0.1409 -0.3144  0.6126
 4069SOL    HW123840   2.160   2.647   6.809  0.4171 -0.6332  0.2418
 4069SOL    HW223841   2.070   2.531   6.776  2.4509  1.7187 -2.1139
 4070SOL     OW23842   4.281   3.759   6.068 -0.6097 -0.2273 -0.2918
 4070SOL    HW123843   4.285   3.818   6.143 -0.8364 -2.7780  1.7387
 4070SOL    HW223844   4.253   3.820   6.000 -0.2123 -0.8483 -1.0184
 4071SOL     OW23845   1.434   2.703   1.381  0.0129  0.0084  0.2082
 4071SOL    HW123846   1.439   2.790   1.340  0.6365 -0.8012 -1.4445
 4071SOL    HW223847   1.511   2.698   1.438  0.7400  0.2194 -0.7372
 4072SOL     OW23848   2.479   1.531   8.830 -0.2069  0.1288  0.4667
 4072SOL    HW123849   2.445   1.593   8.894 -0.3718 -0.8652  1.3397
 4072SOL    HW223850   2.469   1.579   8.748 -4.1234 -1.2898  0.1070
 4073SOL     OW23851   2.497   2.648   3.611 -0.4216 -0.5794  0.1007
 4073SOL    HW123852   2.462   2.613   3.693  0.3932  0.1630  0.7752
 4073SOL    HW223853   2.568   2.585   3.601  1.7112  1.7020  0.7961
 4074SOL     OW23854   4.295   0.082   1.789 -0.1734 -0.6207 -0.3974
 4074SOL    HW123855   4.344   0.116   1.714  0.7946  0.1017  0.5631
 4074SOL    HW223856   4.340   0.116   1.866  0.8994 -0.7515 -0.9620
 4075SOL     OW23857   3.720   0.645   6.817  0.4939 -0.1365 -0.5438
 4075SOL    HW123858   3.644   0.702   6.823  2.3169  2.1814  0.3019
 4075SOL    HW223859   3.782   0.713   6.794  0.9989 -0.4618 -0.1528
 4076SOL     OW23860   1.972   3.220  15.581 -0.4041  0.3380 -0.3994
 4076SOL    HW123861   2.036   3.274  15.627  0.0650  0.5187 -1.2686
 4076SOL    HW223862   1.937   3.165  15.651 -0.9740 -0.4347 -1.2870
 4077SOL     OW23863   1.315   4.523  16.195  0.2156  0.0642 -0.1904
 4077SOL    HW123864   1.222   4.519  16.172  0.3081 -1.1203 -0.4057
 4077SOL    HW223865   1.351   4.568  16.119 -2.0302  1.2618 -0.5575
 4078SOL     OW23866   0.202   1.854   8.993  0.0572  0.0258 -0.1671
 4078SOL    HW123867   0.289   1.893   8.980  0.9758 -1.6994  0.9241
 4078SOL    HW223868   0.152   1.883   8.917  1.3561 -0.2803 -1.1494
 4079SOL     OW23869   0.140   3.309   2.028  0.0322  0.1176 -0.2050
 4079SOL    HW123870   0.065   3.338   1.976 -1.2319 -0.7084  1.1529
 4079SOL    HW223871   0.115   3.218   2.046  0.3219  0.1405  0.3130
 4080SOL     OW23872   1.482   1.117   9.456  0.1490 -0.5073  0.2279
 4080SOL    HW123873   1.467   1.192   9.513  1.1047  0.6980 -1.1030
 4080SOL    HW223874   1.576   1.108   9.468  0.3096  0.0855 -0.5576
 4081SOL     OW23875   1.098   0.437   3.938 -0.1388  0.0613  0.3532
 4081SOL    HW123876   1.099   0.533   3.938  1.1035  0.0414  1.4915
 4081SOL    HW223877   1.159   0.413   4.008  0.4736  3.8899  1.1154
 4082SOL     OW23878   3.629   1.191  12.735  0.3082  0.2302  0.3382
 4082SOL    HW123879   3.564   1.228  12.794  0.2475  0.7124 -0.0329
 4082SOL    HW223880   3.616   1.238  12.653  0.1637  0.0167  0.2403
 4083SOL     OW23881   2.327   1.279   6.748  0.1098 -0.0253  0.7992
 4083SOL    HW123882   2.244   1.290   6.795 -0.9112 -2.3571 -0.4382
 4083SOL    HW223883   2.385   1.270   6.824 -1.2247  0.2405  1.8622
 4084SOL     OW23884   0.219   1.693   4.549  0.0303  0.1674 -0.7723
 4084SOL    HW123885   0.300   1.664   4.590 -0.6336 -2.0761 -1.0504
 4084SOL    HW223886   0.200   1.613   4.500  1.6267 -0.9207  0.3865
 4085SOL     OW23887   3.109   1.103   3.595 -0.0967  1.0165  0.1450
 4085SOL    HW123888   3.092   1.180   3.541  0.6185  1.9330  1.2469
 4085SOL    HW223889   3.140   1.043   3.527  1.8830 -0.6125  2.5031
 4086SOL     OW23890   4.506   3.135   3.607  0.3750  0.0989  0.0179
 4086SOL    HW123891   4.527   3.048   3.640  0.4408 -0.3576 -1.2391
 4086SOL    HW223892   4.414   3.120   3.586  0.2421 -0.5996  1.0779
 4087SOL     OW23893   1.114   4.069   7.296 -0.8766  0.1449 -0.0694
 4087SOL    HW123894   1.178   3.999   7.307 -0.0387  0.9036 -0.1883
 4087SOL    HW223895   1.135   4.135   7.362 -0.5814  1.2612 -1.2805
 4088SOL     OW23896   3.525   0.367  10.897  0.3107  0.8735  0.1737
 4088SOL    HW123897   3.597   0.372  10.834 -1.1689  0.4853 -1.5275
 4088SOL    HW223898   3.563   0.350  10.983  3.9546  1.1641 -1.3881
 4089SOL     OW23899   4.295   3.451   2.869  0.2710  0.0832  0.4313
 4089SOL    HW123900   4.327   3.538   2.891 -0.1049 -0.1218  1.7592
 4089SOL    HW223901   4.211   3.449   2.916 -0.7904 -0.5704 -1.4781
 4090SOL     OW23902   2.341   1.934   0.313  0.5474  0.1860 -0.1940
 4090SOL    HW123903   2.262   1.896   0.352  1.0487  0.6478  1.2906
 4090SOL    HW223904   2.400   1.859   0.304 -0.3919 -0.3557 -1.7524
 4091SOL     OW23905   4.530   0.020   4.034  0.4139 -0.6601 -0.1112
 4091SOL    HW123906   4.511   0.096   3.980 -2.1052 -0.3254  1.2606
 4091SOL    HW223907   4.447   0.001   4.077  0.9374  1.6601  1.9195
 4092SOL     OW23908   2.337   3.755   7.268  0.2533  0.3572  0.5285
 4092SOL    HW123909   2.432   3.748   7.258  0.4081 -1.2392  2.9928
 4092SOL    HW223910   2.323   3.661   7.280  0.7601  0.4889  2.1959
 4093SOL     OW23911   2.202   4.150   9.192  0.2062  0.6672 -0.6749
 4093SOL    HW123912   2.285   4.121   9.230  0.6005  2.9677  0.2602
 4093SOL    HW223913   2.178   4.223   9.249 -0.9927  0.0862 -0.4382
 4094SOL     OW23914   0.559   3.450   3.029 -0.0390  0.5061 -0.5436
 4094SOL    HW123915   0.512   3.494   3.100 -2.2927  0.9398 -2.3160
 4094SOL    HW223916   0.501   3.462   2.954 -0.6136  0.0547 -0.1715
 4095SOL     OW23917   2.251   2.444   3.253  0.3909 -0.4713 -0.5579
 4095SOL    HW123918   2.157   2.460   3.240  0.9508  1.5653 -2.0835
 4095SOL    HW223919   2.259   2.421   3.346 -1.7796 -0.8715 -0.4611
 4096SOL     OW23920   1.771   3.025  17.689 -0.6892 -0.1806 -0.1964
 4096SOL    HW123921   1.719   2.983  17.757 -0.4131  0.1395  0.2125
 4096SOL    HW223922   1.844   2.964  17.675  0.5115  1.2034  0.0099
 4097SOL     OW23923   1.683   0.005   4.525 -0.6578 -0.2130  0.6409
 4097SOL    HW123924   1.639   4.721   4.606 -1.8411  1.8128  0.5978
 4097SOL    HW223925   1.639   0.087   4.503  1.7392  1.3265  1.6575
 4098SOL     OW23926   2.063   3.727  10.028 -0.0522  0.1056 -0.0841
 4098SOL    HW123927   2.024   3.656  10.079 -0.7062  0.8011  0.3761
 4098SOL    HW223928   2.103   3.667   9.965  1.2030  0.9230 -0.0717
 4099SOL     OW23929   4.608   3.888   6.507  0.4053 -0.6134  0.3506
 4099SOL    HW123930   4.670   3.920   6.441  1.3435 -0.5379  1.2785
 4099SOL    HW223931   4.666   3.833   6.559  4.0184  0.0190 -3.0290
 4100SOL     OW23932   4.107   0.651   3.158  0.1390 -0.7107  0.6998
 4100SOL    HW123933   4.087   0.735   3.200 -2.2028 -1.8704  1.9659
 4100SOL    HW223934   4.043   0.589   3.194 -0.3668 -0.5582  0.0552
 4101SOL     OW23935   1.940   3.915  14.461  0.5767  0.1928  0.7970
 4101SOL    HW123936   1.975   4.002  14.477  0.5137  0.5787 -1.1968
 4101SOL    HW223937   2.013   3.872  14.417 -0.0918  0.4235 -0.5523
 4102SOL     OW23938   2.424   4.685   3.131  0.7471  0.1346  0.2721
 4102SOL    HW123939   2.392   4.623   3.065 -0.3624  1.4447 -0.4142
 4102SOL    HW223940   2.358   0.014   3.124 -1.6666 -2.3060 -1.3579
 4103SOL     OW23941   1.479   1.966  10.101  0.3814 -0.2958  0.2546
 4103SOL    HW123942   1.514   1.910  10.171 -0.7892 -1.5032 -0.1368
 4103SOL    HW223943   1.555   2.021  10.081  0.8916 -0.4014  1.8418
 4104SOL     OW23944   0.552   3.781   1.220 -0.5164 -0.2753 -0.1905
 4104SOL    HW123945   0.459   3.758   1.228 -0.7016  0.3528 -0.5441
 4104SOL    HW223946   0.560   3.848   1.152  0.7133  0.1815  0.4091
 4105SOL     OW23947   3.488   3.120   5.972  0.4651  0.0848 -0.4137
 4105SOL    HW123948   3.523   3.201   5.935 -0.0186  1.0008  1.0874
 4105SOL    HW223949   3.405   3.120   5.923 -0.2016  2.7813  0.6867
 4106SOL     OW23950   4.116   0.534   6.384  0.1609  0.5903 -0.0838
 4106SOL    HW123951   4.061   0.612   6.390  1.2652  1.5866 -3.2914
 4106SOL    HW223952   4.093   0.507   6.295 -1.6523  0.1363  0.5217
 4107SOL     OW23953   1.833   1.759   8.773  0.0465  0.3021 -0.2923
 4107SOL    HW123954   1.828   1.695   8.702 -0.4041  1.1096 -0.9846
 4107SOL    HW223955   1.882   1.712   8.841 -1.5408  1.4440  1.6514
 4108SOL     OW23956   2.870   3.430  10.977 -0.1220 -0.1149  0.3237
 4108SOL    HW123957   2.960   3.400  10.961 -0.4847 -1.3576  0.5885
 4108SOL    HW223958   2.886   3.523  10.960  0.3469 -0.7172 -2.5219
 4109SOL     OW23959   0.155   0.432  13.835 -0.1518 -1.0727  0.0744
 4109SOL    HW123960   0.189   0.469  13.917 -2.3251 -1.6325  1.2292
 4109SOL    HW223961   0.212   0.481  13.777 -0.2525 -0.2600  0.6608
 4110SOL     OW23962   1.301   1.867   1.281  0.4624 -0.0576 -0.5235
 4110SOL    HW123963   1.286   1.783   1.237  1.0616  0.4706 -1.7371
 4110SOL    HW223964   1.216   1.881   1.322  0.9245 -1.4158  0.9109
 4111SOL     OW23965   0.948   0.371   3.568  0.0507 -0.2948  0.6175
 4111SOL    HW123966   0.989   0.288   3.592  0.4640 -0.6587 -1.3754
 4111SOL    HW223967   1.025   0.427   3.556  0.4214 -1.2282 -1.2176
 4112SOL     OW23968   0.310   2.954   7.667 -0.7623 -0.3402 -0.0944
 4112SOL    HW123969   0.216   2.958   7.681 -0.2521  1.3546  2.6716
 4112SOL    HW223970   0.343   3.025   7.721 -1.4431 -0.7971  0.9062
 4113SOL     OW23971   2.476   4.165   1.673  0.2597  0.1159 -0.3897
 4113SOL    HW123972   2.497   4.251   1.710 -0.6492  0.3132 -0.3418
 4113SOL    HW223973   2.386   4.148   1.700  0.8449 -0.2917  1.3046
 4114SOL     OW23974   3.886   2.036  11.016  0.3565 -0.0472  0.1653
 4114SOL    HW123975   3.967   1.986  11.007  1.1108  0.7708  2.3238
 4114SOL    HW223976   3.843   1.984  11.085  1.4607  0.2286  1.0492
 4115SOL     OW23977   0.830   0.339   5.513  0.1334 -0.5713  0.1302
 4115SOL    HW123978   0.785   0.358   5.431  0.1146 -1.4108 -0.0526
 4115SOL    HW223979   0.814   0.245   5.517 -2.4168 -0.2509 -2.3536
 4116SOL     OW23980   1.662   1.961   7.605  0.7060 -0.0694  0.6519
 4116SOL    HW123981   1.579   1.984   7.647 -0.4972 -2.4921 -0.4004
 4116SOL    HW223982   1.730   1.987   7.666  1.3617 -0.3932  0.0597
 4117SOL     OW23983   0.673   4.154   8.366  0.1371 -0.0212 -0.2630
 4117SOL    HW123984   0.729   4.093   8.317 -1.0323 -0.4990 -1.0214
 4117SOL    HW223985   0.643   4.116   8.449 -0.9195  2.7594  0.6102
 4118SOL     OW23986   3.562   0.443  17.580 -0.6420 -0.2439  0.1547
 4118SOL    HW123987   3.484   0.464  17.632 -0.7399 -3.3334  1.2687
 4118SOL    HW223988   3.523   0.381  17.518 -2.2335  0.2552  0.6535
 4119SOL     OW23989   1.323   3.306  16.128  0.3049 -0.2073 -0.5432
 4119SOL    HW123990   1.368   3.360  16.062 -0.1576  0.0774 -0.6293
 4119SOL    HW223991   1.364   3.329  16.212  1.3414 -1.1755 -0.7852
 4120SOL     OW23992   4.689   0.577  14.581  0.1759 -0.3484 -0.6145
 4120SOL    HW123993   0.003   0.604  14.655  0.3818  0.5576 -1.1060
 4120SOL    HW223994   4.600   0.552  14.608 -0.0251  1.2290  0.1450
 4121SOL     OW23995   3.007   1.043   7.435  0.4856 -0.1870 -0.2314
 4121SOL    HW123996   3.040   0.990   7.362 -3.1329 -0.8019 -1.4340
 4121SOL    HW223997   2.971   1.110   7.377 -0.8694 -2.0562 -1.5439
 4122SOL     OW23998   2.691   2.702  14.066 -0.1603 -0.1910 -0.1474
 4122SOL    HW123999   2.697   2.666  13.978 -0.2185  1.4975 -0.8478
 4122SOL    HW224000   2.738   2.785  14.051 -1.1660  0.4531  0.2378
 4123SOL     OW24001   1.820   4.619  10.725 -0.5687 -0.3016 -0.4981
 4123SOL    HW124002   1.896   4.602  10.780 -1.2841 -1.1515  0.2305
 4123SOL    HW224003   1.758   4.547  10.738 -0.7884  0.0573  0.4423
 4124SOL     OW24004   4.023   0.528   6.114 -0.0007  0.2504 -0.5365
 4124SOL    HW124005   3.930   0.540   6.095 -0.1276  0.0158 -0.0609
 4124SOL    HW224006   4.060   0.578   6.041  2.3167  0.5270  0.7993
 4125SOL     OW24007   4.563   0.437  14.323  1.0071 -0.0977  0.6177
 4125SOL    HW124008   4.632   0.486  14.367  0.7672  0.2888  0.5668
 4125SOL    HW224009   4.480   0.470  14.358  1.2472 -0.6752  1.7177
 4126SOL     OW24010   1.130   1.227   2.622 -0.2143  0.5631 -0.5083
 4126SOL    HW124011   1.108   1.233   2.529  1.1061 -0.4703 -0.8851
 4126SOL    HW224012   1.067   1.159   2.646  0.7202 -0.2675 -0.4221
 4127SOL     OW24013   3.917   4.020  10.822  0.0808 -0.1829  0.5028
 4127SOL    HW124014   4.006   4.027  10.858  0.5495 -0.8009 -0.5449
 4127SOL    HW224015   3.888   3.958  10.889  3.9981 -1.8692  0.6655
 4128SOL     OW24016   4.331   4.201   7.564  0.0327  0.0690  0.1311
 4128SOL    HW124017   4.274   4.167   7.632 -0.9106 -0.5637 -0.9907
 4128SOL    HW224018   4.406   4.141   7.560 -1.8764 -2.2657 -0.2091
 4129SOL     OW24019   4.664   0.867  14.492  0.3736 -0.4670  0.2215
 4129SOL    HW124020   4.674   0.923  14.569 -1.5927  1.3459 -0.8436
 4129SOL    HW224021   4.696   0.779  14.511 -1.1121 -0.7660  1.3240
 4130SOL     OW24022   1.543   2.235   7.866 -0.3182  0.1799  0.0640
 4130SOL    HW124023   1.540   2.318   7.818 -0.2786  0.9082  1.3260
 4130SOL    HW224024   1.496   2.175   7.809 -1.0120 -0.4311  1.2904
 4131SOL     OW24025   4.304   2.808   3.471  0.0757  0.6199  0.9675
 4131SOL    HW124026   4.382   2.752   3.464  0.0442  0.5960  0.8150
 4131SOL    HW224027   4.250   2.752   3.528 -0.2002 -0.6755 -0.5716
 4132SOL     OW24028   3.086   4.311  15.949 -0.0302  0.3343 -0.3288
 4132SOL    HW124029   3.037   4.300  16.031  0.5451 -0.0432 -0.0338
 4132SOL    HW224030   3.163   4.254  15.953  0.3226  0.5941 -3.7944
 4133SOL     OW24031   2.343   0.448   4.759  0.1445 -0.5289  0.2828
 4133SOL    HW124032   2.269   0.465   4.701 -0.8614 -3.3099  0.7416
 4133SOL    HW224033   2.393   0.390   4.701 -0.1532 -1.1397  0.6404
 4134SOL     OW24034   3.261   1.740   7.055  0.1257  0.1229  0.4185
 4134SOL    HW124035   3.234   1.807   7.119 -0.7037  1.5966 -1.4937
 4134SOL    HW224036   3.224   1.767   6.971  0.4563  1.0713  0.5769
 4135SOL     OW24037   0.192   1.001   1.474  0.9511 -0.1073  0.3501
 4135SOL    HW124038   0.167   0.914   1.443 -2.0937  0.6135  0.7134
 4135SOL    HW224039   0.195   1.045   1.388  1.0137 -0.0972  0.3581
 4136SOL     OW24040   2.198   0.309   2.066  0.0070  0.2777 -0.1256
 4136SOL    HW124041   2.290   0.286   2.080 -0.3642 -0.9431  0.2958
 4136SOL    HW224042   2.174   0.260   1.987 -0.6977  2.1192 -1.0476
 4137SOL     OW24043   3.706   4.224  14.586 -0.3375 -0.3809  0.0221
 4137SOL    HW124044   3.794   4.238  14.549 -1.4706  1.9233 -1.8431
 4137SOL    HW224045   3.688   4.316  14.608  0.2945 -0.8295  2.3690
 4138SOL     OW24046   2.404   2.412  11.387 -0.2721 -0.1724 -0.1895
 4138SOL    HW124047   2.336   2.476  11.369  0.2157  0.2559 -0.4955
 4138SOL    HW224048   2.481   2.459  11.420  0.3106 -0.2886 -1.3937
 4139SOL     OW24049   4.089   4.247  16.046  0.1254  0.1831  0.5356
 4139SOL    HW124050   4.010   4.195  16.033 -0.0686  0.7920 -0.7071
 4139SOL    HW224051   4.051   4.334  16.033 -1.8309 -0.6224  0.8158
 4140SOL     OW24052   2.267   4.215   6.603 -0.1361  0.7301  0.1514
 4140SOL    HW124053   2.348   4.264   6.586 -0.0875  0.1115 -1.4260
 4140SOL    HW224054   2.283   4.176   6.689 -3.2381  0.1780  0.4768
 4141SOL     OW24055   0.730   3.057   8.492  0.5182  0.0823  0.3758
 4141SOL    HW124056   0.781   3.014   8.561 -0.1012 -0.8050  0.2841
 4141SOL    HW224057   0.662   2.995   8.467 -0.4967  1.0190  0.8362
 4142SOL     OW24058   0.946   2.168  13.938 -0.4444  0.7622  0.7411
 4142SOL    HW124059   0.873   2.180  13.878  1.4643 -0.1848 -1.7665
 4142SOL    HW224060   0.926   2.091  13.992 -0.7449  1.1622  1.1992
 4143SOL     OW24061   3.450   2.715   2.840  0.3806 -0.5244  0.3882
 4143SOL    HW124062   3.436   2.623   2.818 -1.2313 -0.2890  0.3643
 4143SOL    HW224063   3.463   2.717   2.935 -1.2907  0.6917  0.5927
 4144SOL     OW24064   0.919   3.248   5.130 -0.4789 -0.2634 -0.5038
 4144SOL    HW124065   0.835   3.261   5.086 -0.3672 -1.7454 -1.1744
 4144SOL    HW224066   0.936   3.156   5.109  1.0098  0.1243 -0.9939
 4145SOL     OW24067   4.342   0.957  17.548 -0.4585  0.0151  0.4147
 4145SOL    HW124068   4.315   0.866  17.555 -3.6636  0.9696  0.4270
 4145SOL    HW224069   4.437   0.945  17.554 -0.2244  1.1576 -1.1171
 4146SOL     OW24070   3.986   3.427   3.547 -0.0336  0.7702  0.2813
 4146SOL    HW124071   4.028   3.432   3.633  0.5404  0.3691  0.0248
 4146SOL    HW224072   3.893   3.414   3.565 -0.0985 -0.2682 -0.7986
 4147SOL     OW24073   1.633   2.153   6.261  0.2001 -0.2182 -0.0902
 4147SOL    HW124074   1.682   2.102   6.197 -2.5125 -0.6698 -1.7994
 4147SOL    HW224075   1.699   2.189   6.321 -2.1654  1.6330  1.3978
 4148SOL     OW24076   0.491   1.959   9.232  0.1084 -0.3336 -0.1774
 4148SOL    HW124077   0.512   1.974   9.325  0.6187 -3.2749  0.1923
 4148SOL    HW224078   0.549   1.885   9.218  0.3720 -0.2322  0.3806
 4149SOL     OW24079   0.148   2.912   2.769  0.6446 -0.0294  0.2444
 4149SOL    HW124080   0.104   2.943   2.690  0.0466 -1.2850  0.0743
 4149SOL    HW224081   0.076   2.927   2.830  1.1515 -0.9437  1.0735
 4150SOL     OW24082   1.139   3.403   2.650  0.2621  0.2006 -0.1400
 4150SOL    HW124083   1.109   3.337   2.588  0.5759 -1.2061  1.1952
 4150SOL    HW224084   1.232   3.378   2.654  0.2807  0.2362 -0.3470
 4151SOL     OW24085   3.185   0.339   0.193  0.0768  0.5017  0.3376
 4151SOL    HW124086   3.236   0.402   0.142 -0.3962  1.3389  0.9098
 4151SOL    HW224087   3.159   0.276   0.125 -1.7484  3.3281 -1.5799
 4152SOL     OW24088   3.732   2.243   1.606 -0.0591  0.6251  0.4186
 4152SOL    HW124089   3.721   2.170   1.545 -0.8483 -0.4662  1.8627
 4152SOL    HW224090   3.662   2.219   1.666  0.0536  0.0341  0.3172
 4153SOL     OW24091   3.904   1.334   4.962  0.0103  0.0807  0.9266
 4153SOL    HW124092   3.974   1.313   4.899 -1.4392 -0.5664 -0.4741
 4153SOL    HW224093   3.959   1.318   5.039  1.5014  0.0211 -0.1301
 4154SOL     OW24094   4.243   0.898   9.344  0.3527  0.0693  0.1605
 4154SOL    HW124095   4.192   0.977   9.361  0.5329 -0.0232  1.1628
 4154SOL    HW224096   4.246   0.900   9.249 -1.1636  0.0892  0.1164
 4155SOL     OW24097   4.418   0.986   7.032  0.2312 -0.0162 -0.2432
 4155SOL    HW124098   4.417   0.939   6.948 -0.4307  0.3495 -0.4443
 4155SOL    HW224099   4.330   0.967   7.065  0.9038 -1.7868  0.4946
 4156SOL     OW24100   0.525   3.723   5.184 -0.3933 -0.3036  0.2234
 4156SOL    HW124101   0.477   3.718   5.268 -1.0369  0.3647 -0.1008
 4156SOL    HW224102   0.481   3.793   5.136  1.6721  0.9801  0.2185
 4157SOL     OW24103   0.282   2.271   2.409  0.3943 -1.0698 -0.5225
 4157SOL    HW124104   0.197   2.230   2.427  0.8876 -1.2872  1.2755
 4157SOL    HW224105   0.254   2.353   2.369  3.2252  0.5868  0.8656
 4158SOL     OW24106   0.844   4.572  10.632  0.3081  0.2146 -0.1441
 4158SOL    HW124107   0.783   4.567  10.705  0.0732  0.6175 -0.3096
 4158SOL    HW224108   0.779   4.543  10.568  0.7452 -1.1509  0.0325
 4159SOL     OW24109   3.362   3.196   4.537 -0.0882  0.4336  0.6590
 4159SOL    HW124110   3.308   3.153   4.470  0.4657  0.9092 -0.0973
 4159SOL    HW224111   3.437   3.137   4.540  0.2953  0.9454  1.0388
 4160SOL     OW24112   2.102   2.381   2.678  0.0495  0.0160 -0.1988
 4160SOL    HW124113   2.069   2.317   2.740  0.8621  0.2629  0.4772
 4160SOL    HW224114   2.032   2.378   2.611 -1.2459  1.4140  1.0897
 4161SOL     OW24115   0.579   3.829   8.985 -0.1879  0.1248  0.4665
 4161SOL    HW124116   0.492   3.849   8.951 -1.0101 -0.6531  2.1411
 4161SOL    HW224117   0.592   3.744   8.942  0.0326  0.0565  0.6664
 4162SOL     OW24118   0.518   2.147   4.695  0.4371 -0.0773 -0.1971
 4162SOL    HW124119   0.456   2.208   4.735  1.3466 -1.2328  3.0521
 4162SOL    HW224120   0.485   2.145   4.606 -1.9002  1.7263  0.6204
 4163SOL     OW24121   0.255   0.163   9.393  0.6651 -0.0581 -0.4758
 4163SOL    HW124122   0.188   0.223   9.426  1.1822 -0.2268  0.8503
 4163SOL    HW224123   0.309   0.223   9.342  0.0875  0.6440 -0.2642
 4164SOL     OW24124   0.625   1.161   6.045  0.5977  0.0733  0.4457
 4164SOL    HW124125   0.686   1.210   6.101  2.1923 -0.5878 -0.7375
 4164SOL    HW224126   0.679   1.175   5.967 -0.9446  1.7765 -0.3269
 4165SOL     OW24127   4.720   1.456   5.711 -0.4883 -0.0495 -0.0774
 4165SOL    HW124128   4.731   1.421   5.799 -1.4100 -1.3364 -0.4759
 4165SOL    HW224129   0.015   1.545   5.711  0.5166 -0.4520 -0.0931
 4166SOL     OW24130   4.328   4.264   5.572 -0.6002  0.3561  0.2663
 4166SOL    HW124131   4.297   4.327   5.508 -2.4634 -0.1023  0.7266
 4166SOL    HW224132   4.249   4.245   5.623 -1.5164  0.7517 -1.0224
 4167SOL     OW24133   0.593   0.925   7.021 -0.0900  0.3679  0.0423
 4167SOL    HW124134   0.519   0.966   6.976  2.3904  1.3683 -3.1783
 4167SOL    HW224135   0.544   0.874   7.085 -0.5935  1.5345  0.5670
 4168SOL     OW24136   3.226   3.766   7.337  0.6668 -0.3054 -0.1158
 4168SOL    HW124137   3.155   3.717   7.380 -0.0818  0.2863 -0.6793
 4168SOL    HW224138   3.281   3.771   7.415 -0.0874 -0.1875  0.4145
 4169SOL     OW24139   0.710   2.778  12.308 -0.2180  0.2029  0.4710
 4169SOL    HW124140   0.662   2.842  12.361  0.1745  0.8925 -0.0103
 4169SOL    HW224141   0.648   2.737  12.247 -2.1842  1.0094  1.9199
 4170SOL     OW24142   0.195   3.307   4.299  0.1863 -0.0009  0.0421
 4170SOL    HW124143   0.178   3.224   4.343 -1.9455 -0.4152 -1.5524
 4170SOL    HW224144   0.212   3.365   4.373  0.8851 -0.3586  0.1575
 4171SOL     OW24145   3.048   2.513   4.090  0.2358 -0.0768  0.0807
 4171SOL    HW124146   3.084   2.564   4.163 -0.3504  1.0759 -0.4442
 4171SOL    HW224147   3.001   2.588   4.055  2.4075  0.7662 -1.0280
 4172SOL     OW24148   3.176   3.223   3.464  0.0952 -0.1803 -0.2491
 4172SOL    HW124149   3.230   3.250   3.390  0.1735 -0.1642 -0.1870
 4172SOL    HW224150   3.183   3.128   3.458  0.1416 -0.0891 -1.5813
 4173SOL     OW24151   2.559   2.500   2.417  0.3979 -0.0827 -0.0369
 4173SOL    HW124152   2.571   2.406   2.425  1.5015 -0.0587 -1.3464
 4173SOL    HW224153   2.627   2.519   2.352  0.2995  1.2629  0.2367
 4174SOL     OW24154   2.272   4.223   0.151  0.2401 -0.3640  0.0404
 4174SOL    HW124155   2.193   4.275   0.167  0.4738 -0.0345  0.1219
 4174SOL    HW224156   2.245   4.186   0.067 -1.7649  0.2687  0.4262
 4175SOL     OW24157   2.431   1.028   7.334 -0.8456 -0.3634 -0.0070
 4175SOL    HW124158   2.367   1.073   7.388  1.1374  1.3338  0.9438
 4175SOL    HW224159   2.498   1.031   7.403 -0.3643 -1.1066 -0.4460
 4176SOL     OW24160   2.494   0.032  12.588  0.2763 -0.0763  0.0189
 4176SOL    HW124161   2.460   0.062  12.504  0.2825 -1.8693 -0.6235
 4176SOL    HW224162   2.509   0.115  12.632 -0.2800 -0.6516  1.3132
 4177SOL     OW24163   4.408   0.262   5.786 -0.1754  0.5123  0.0689
 4177SOL    HW124164   4.461   0.317   5.843  0.8716  1.7347 -2.0849
 4177SOL    HW224165   4.418   0.172   5.818  0.7589  0.1350 -1.3064
 4178SOL     OW24166   4.267   3.714   9.179  0.2565 -0.5521  0.2562
 4178SOL    HW124167   4.324   3.690   9.252 -1.0670  0.3058  1.5777
 4178SOL    HW224168   4.318   3.691   9.102 -0.4567  0.6416 -0.5818
 4179SOL     OW24169   2.811   4.261  11.306 -0.1132 -0.2324  0.7871
 4179SOL    HW124170   2.772   4.204  11.373  1.6717 -0.6785  1.4596
 4179SOL    HW224171   2.792   4.348  11.340  5.7759  1.0361  0.8061
 4180SOL     OW24172   2.865   2.162   6.767 -0.2521  0.2437 -0.2570
 4180SOL    HW124173   2.826   2.153   6.679  1.4420  0.1715 -1.0015
 4180SOL    HW224174   2.825   2.090   6.814 -0.5843 -0.4023 -1.5154
 4181SOL     OW24175   3.712   0.073  16.692  0.3429  0.0572  0.0762
 4181SOL    HW124176   3.757   4.730  16.708  0.2645  0.0316  0.1642
 4181SOL    HW224177   3.680   0.064  16.602  0.5541 -0.6364  0.0632
 4182SOL     OW24178   0.501   0.888   0.769  0.2503 -0.2487  0.7384
 4182SOL    HW124179   0.588   0.928   0.774 -0.0807  0.5593 -0.0297
 4182SOL    HW224180   0.501   0.851   0.680 -0.1398 -0.2417  0.7355
 4183SOL     OW24181   1.315   2.734   7.599  0.2611  0.2120 -0.2739
 4183SOL    HW124182   1.282   2.815   7.636  0.4923 -0.2125  0.8710
 4183SOL    HW224183   1.264   2.725   7.518 -0.3606 -3.4241  0.5094
 4184SOL     OW24184   2.745   3.496   0.841 -0.3040 -0.8480 -0.4241
 4184SOL    HW124185   2.819   3.438   0.823  1.8191  0.7118  3.2573
 4184SOL    HW224186   2.761   3.580   0.800  2.3730 -1.3259 -0.3241
 4185SOL     OW24187   3.684   1.893   3.421 -0.5323 -0.1358  0.0853
 4185SOL    HW124188   3.725   1.978   3.438  1.8369 -0.9584 -1.4393
 4185SOL    HW224189   3.597   1.928   3.403  0.7459  2.0634 -1.9834
 4186SOL     OW24190   2.894   2.781  10.483 -0.0549  0.0344  0.3706
 4186SOL    HW124191   2.888   2.698  10.530  1.3688  0.6823  1.6799
 4186SOL    HW224192   2.853   2.759  10.399  4.2588 -0.1062 -1.7052
 4187SOL     OW24193   3.550   3.458   1.148  0.4305 -0.8998 -0.0022
 4187SOL    HW124194   3.635   3.458   1.106  0.7087  1.4359  0.5555
 4187SOL    HW224195   3.500   3.411   1.080 -1.3112  2.2083 -0.8630
 4188SOL     OW24196   4.519   4.535  12.182 -0.5647  0.2259  0.2678
 4188SOL    HW124197   4.563   4.618  12.166  2.0288 -0.9959  1.0538
 4188SOL    HW224198   4.519   4.501  12.092  1.3799 -0.1244  0.4045
 4189SOL     OW24199   4.060   2.885   2.574 -0.3191  0.0198  0.9295
 4189SOL    HW124200   4.112   2.938   2.514 -1.7549 -2.6014 -2.6290
 4189SOL    HW224201   3.996   2.836   2.521  0.5213 -1.0887  0.9507
 4190SOL     OW24202   4.496   1.746  10.744 -0.0724  0.4917  0.2504
 4190SOL    HW124203   4.501   1.765  10.837 -1.9203 -1.1520  0.6694
 4190SOL    HW224204   4.437   1.816  10.715 -0.2626  0.5821  0.8605
 4191SOL     OW24205   0.655   1.280   7.122 -0.4009 -0.1417  0.6531
 4191SOL    HW124206   0.680   1.223   7.195  0.2523  0.8135  1.1773
 4191SOL    HW224207   0.668   1.214   7.054  1.1179  1.3971 -0.5511
 4192SOL     OW24208   4.152   2.667   1.913  0.2169 -0.2710 -0.5920
 4192SOL    HW124209   4.226   2.607   1.921  1.5617  1.5028  0.0880
 4192SOL    HW224210   4.181   2.715   1.836 -0.5122 -0.6122 -1.0784
 4193SOL     OW24211   1.432   1.749   6.139 -0.2394 -0.0061  0.1494
 4193SOL    HW124212   1.527   1.737   6.142 -0.3970 -0.6626  2.0573
 4193SOL    HW224213   1.405   1.705   6.219 -1.7901 -1.5595 -1.2007
 4194SOL     OW24214   0.952   2.332   9.661 -0.8555 -0.1850  0.6694
 4194SOL    HW124215   1.019   2.371   9.717 -0.5666  0.2826  0.0079
 4194SOL    HW224216   1.002   2.302   9.585 -1.5176  0.3324  0.0217
 4195SOL     OW24217   3.416   3.230   1.679  0.1731 -0.0124  0.0423
 4195SOL    HW124218   3.509   3.219   1.701 -0.1427 -1.2621  0.7007
 4195SOL    HW224219   3.426   3.309   1.625  0.5455  0.9858  1.5562
 4196SOL     OW24220   0.691   1.638   4.083 -0.1269  0.2695 -0.6615
 4196SOL    HW124221   0.715   1.607   3.996  1.8161 -2.4256  0.8465
 4196SOL    HW224222   0.748   1.580   4.134  1.3446  1.3912 -1.0274
 4197SOL     OW24223   2.228   1.073   2.756 -0.4206 -0.2543  0.0794
 4197SOL    HW124224   2.213   1.054   2.848 -0.1721 -1.4932 -0.1324
 4197SOL    HW224225   2.213   1.168   2.760 -0.4926 -0.1398 -2.7895
 4198SOL     OW24226   1.686   0.206   4.967  0.0367  0.0446  0.4746
 4198SOL    HW124227   1.628   0.241   5.035 -1.5977 -1.5525 -0.0911
 4198SOL    HW224228   1.629   0.155   4.910  0.2106 -0.0317  0.3700
 4199SOL     OW24229   3.698   0.559   2.218 -0.1335  0.1256  0.3594
 4199SOL    HW124230   3.717   0.591   2.306  0.3003  1.5366 -0.2584
 4199SOL    HW224231   3.774   0.579   2.164  0.3556 -0.4396  0.8497
 4200SOL     OW24232   3.830   3.884  14.345 -0.6726 -0.2427  0.2044
 4200SOL    HW124233   3.763   3.902  14.411 -1.4152  1.8900 -1.1628
 4200SOL    HW224234   3.792   3.920  14.265  0.8858 -0.2561 -0.5402
 4201SOL     OW24235   4.198   1.615   7.049 -0.3148 -0.4206 -0.3648
 4201SOL    HW124236   4.227   1.618   6.957  0.3354  0.7484 -0.1241
 4201SOL    HW224237   4.273   1.663   7.085  1.6221 -3.1029 -0.8082
 4202SOL     OW24238   1.111   3.032   8.524 -0.1831 -0.1182 -0.1154
 4202SOL    HW124239   1.053   2.999   8.593 -1.5701 -0.8769 -1.6375
 4202SOL    HW224240   1.128   3.114   8.572 -0.7364  0.6203 -1.1735
 4203SOL     OW24241   1.268   0.703  17.731 -0.0600 -0.1199  0.7424
 4203SOL    HW124242   1.344   0.753   0.004 -1.5690  1.9044  1.1877
 4203SOL    HW224243   1.239   0.751  17.653 -2.3072 -2.9056 -0.1184
 4204SOL     OW24244   0.992   0.035  11.074  0.0369 -1.0880  0.0037
 4204SOL    HW124245   1.015   0.014  10.983 -1.0588 -0.4375 -0.4324
 4204SOL    HW224246   0.974   0.129  11.074  1.1824 -0.8765 -0.8965
 4205SOL     OW24247   2.452   4.367   8.886 -0.2344  0.7296 -0.0455
 4205SOL    HW124248   2.491   4.442   8.841 -0.5135  1.2751  0.6174
 4205SOL    HW224249   2.526   4.330   8.935  0.9417  0.6851 -1.8421
 4206SOL     OW24250   1.865   2.968   4.304  0.2277 -0.5542 -0.5215
 4206SOL    HW124251   1.819   3.014   4.233  2.6219  1.1530 -0.9731
 4206SOL    HW224252   1.891   2.891   4.254  1.2947  0.7133 -1.9074
 4207SOL     OW24253   1.628   4.033   1.567  0.4093  0.1903 -1.3498
 4207SOL    HW124254   1.651   3.980   1.492 -0.8286 -1.3561 -0.6382
 4207SOL    HW224255   1.612   3.960   1.627 -0.3979  1.5877  0.1572
 4208SOL     OW24256   0.999   4.688   1.907 -0.2663 -0.3346  0.1143
 4208SOL    HW124257   1.071   4.679   1.970  1.0485 -1.5629 -1.5638
 4208SOL    HW224258   1.053   4.732   1.841 -0.3226 -0.5720 -0.0900
 4209SOL     OW24259   0.447   0.158   4.986 -0.3523  0.1121  0.2115
 4209SOL    HW124260   0.370   0.175   5.040  0.2262 -0.2176  1.1292
 4209SOL    HW224261   0.416   0.133   4.898  0.3786 -0.0976  0.0087
 4210SOL     OW24262   1.120   2.034   6.874  0.1948 -0.5265 -0.1924
 4210SOL    HW124263   1.124   2.003   6.783  1.3654 -2.1525  0.4114
 4210SOL    HW224264   1.121   2.128   6.858 -2.2024 -0.5474 -0.4566
 4211SOL     OW24265   4.170   3.356   8.350 -0.9587  0.9196 -0.0043
 4211SOL    HW124266   4.098   3.383   8.407  0.5037  1.8532  1.4099
 4211SOL    HW224267   4.121   3.311   8.282 -0.9668  0.9864 -0.0424
 4212SOL     OW24268   4.360   2.130   1.115 -0.5639  0.0712 -0.0189
 4212SOL    HW124269   4.406   2.063   1.065 -1.3852  1.1867 -2.2651
 4212SOL    HW224270   4.385   2.105   1.204 -0.1651  0.8377  0.0859
 4213SOL     OW24271   1.704   3.557  17.042  0.4068  0.2040  0.3280
 4213SOL    HW124272   1.755   3.617  16.987  3.6996 -0.9229  2.1236
 4213SOL    HW224273   1.734   3.470  17.015  0.1595  0.4379 -0.6968
 4214SOL     OW24274   4.229   3.006  13.959  0.4753  0.1988  0.1547
 4214SOL    HW124275   4.162   2.946  13.926 -0.4321  1.2241  0.1518
 4214SOL    HW224276   4.178   3.071  14.006 -0.6568 -1.6877  1.5054
 4215SOL     OW24277   2.336   2.380   5.118  0.0321  0.0872 -0.5372
 4215SOL    HW124278   2.319   2.329   5.039  1.2263  0.4197 -1.0072
 4215SOL    HW224279   2.258   2.436   5.121  0.5212  0.7210  0.1747
 4216SOL     OW24280   1.060   0.855   2.584 -0.1804  0.0188  0.0814
 4216SOL    HW124281   0.994   0.859   2.653 -2.0082  1.0386 -1.7519
 4216SOL    HW224282   1.060   0.759   2.580 -0.6330  0.0562 -0.7368
 4217SOL     OW24283   2.706   0.079  11.884  0.0733 -0.0835 -0.0828
 4217SOL    HW124284   2.649   0.094  11.959 -1.9353  1.2280 -1.8687
 4217SOL    HW224285   2.644   0.059  11.814  1.9080  2.2668 -2.4132
 4218SOL     OW24286   2.391   2.972   2.348  0.5606 -0.0530  0.0667
 4218SOL    HW124287   2.394   3.010   2.436 -0.4345 -2.0004  0.9227
 4218SOL    HW224288   2.369   2.879   2.356 -0.3056  0.2301  0.9786
 4219SOL     OW24289   1.368   4.195  12.175 -0.0505  0.4322 -0.0548
 4219SOL    HW124290   1.435   4.260  12.152 -0.1327  0.7703  0.6656
 4219SOL    HW224291   1.318   4.192  12.093  1.9022 -0.5926 -1.2277
 4220SOL     OW24292   4.702   3.466   3.785  0.4745  0.2221  0.2973
 4220SOL    HW124293   0.027   3.532   3.763  0.7473 -0.5752 -1.2237
 4220SOL    HW224294   0.020   3.403   3.827 -1.8195 -1.7746  0.5114
 4221SOL     OW24295   3.891   0.532   4.159 -0.1212 -0.0317 -0.3502
 4221SOL    HW124296   3.848   0.551   4.243  0.7072 -1.7181  0.4582
 4221SOL    HW224297   3.981   0.511   4.187 -0.0240 -0.7154 -1.2125
 4222SOL     OW24298   3.242   2.666   5.317 -0.0066  0.0396  0.0563
 4222SOL    HW124299   3.259   2.746   5.268  0.6239 -1.6395 -2.4566
 4222SOL    HW224300   3.226   2.694   5.407  1.0563 -0.7125  0.4740
 4223SOL     OW24301   1.936   3.206   1.061  0.3982  0.3097  0.1159
 4223SOL    HW124302   2.005   3.266   1.034  2.3305 -0.6596  2.8680
 4223SOL    HW224303   1.878   3.195   0.986 -0.0955 -1.2826  0.7382
 4224SOL     OW24304   1.011   4.668   2.681 -0.1097  0.6514 -0.2133
 4224SOL    HW124305   1.106   4.672   2.680 -0.1044  0.6709  0.4023
 4224SOL    HW224306   1.002   4.660   2.776  0.5154 -0.7171 -0.2831
 4225SOL     OW24307   1.258   4.549  16.451  0.6384 -0.0774  0.1611
 4225SOL    HW124308   1.181   4.496  16.429  0.8392  0.5886 -2.1233
 4225SOL    HW224309   1.304   4.550  16.366 -0.8302  0.6690 -0.6209
 4226SOL     OW24310   1.046   0.792  11.850  0.5695 -0.2713 -0.7879
 4226SOL    HW124311   0.998   0.766  11.771 -0.0350 -2.0845  0.1657
 4226SOL    HW224312   1.126   0.740  11.845 -0.5516 -2.2283  1.0823
 4227SOL     OW24313   4.342   3.734   7.299 -0.0783 -0.0704  0.3022
 4227SOL    HW124314   4.247   3.728   7.305 -0.1306  1.8635  1.5211
 4227SOL    HW224315   4.368   3.705   7.386  0.2239 -0.8847 -0.0640
 4228SOL     OW24316   2.567   0.118   5.183 -0.2117 -0.2316  0.4805
 4228SOL    HW124317   2.472   0.109   5.187 -0.7377  4.9146 -0.7448
 4228SOL    HW224318   2.592   0.184   5.118 -0.2953 -1.5902 -0.9469
 4229SOL     OW24319   3.045   1.829   3.641  0.3824  0.4360 -0.5195
 4229SOL    HW124320   3.104   1.760   3.611  0.3056  0.0582  0.1950
 4229SOL    HW224321   3.101   1.889   3.689  0.6678  0.6823 -1.1540
 4230SOL     OW24322   3.778   0.682   8.172  0.0452  0.3261 -0.0507
 4230SOL    HW124323   3.779   0.754   8.235  2.4023  0.4712 -0.2310
 4230SOL    HW224324   3.719   0.619   8.214 -0.3466  0.5184 -0.3145
 4231SOL     OW24325   2.603   4.474  13.486 -0.3199  0.2969  0.4769
 4231SOL    HW124326   2.619   4.560  13.448 -0.7660  0.0323 -0.3086
 4231SOL    HW224327   2.511   4.485  13.512  0.1359 -1.0448  2.7118
 4232SOL     OW24328   4.344   4.436  15.922 -0.4476  0.3049  0.1197
 4232SOL    HW124329   4.316   4.384  15.846 -1.7687  1.6607 -0.3340
 4232SOL    HW224330   4.354   4.363  15.983 -1.5150 -0.4810 -0.6456
 4233SOL     OW24331   3.861   3.884   7.185  0.3252  0.0742  0.0931
 4233SOL    HW124332   3.921   3.909   7.256 -1.3578  1.3642  1.0513
 4233SOL    HW224333   3.841   3.969   7.148  1.5611 -0.4114 -1.6892
 4234SOL     OW24334   3.977   0.276   2.174  0.1186 -0.6594 -0.0004
 4234SOL    HW124335   3.984   0.267   2.079 -1.0203 -0.1535 -0.1292
 4234SOL    HW224336   3.967   0.185   2.203 -2.6187  0.0679  1.2905
 4235SOL     OW24337   1.801   1.262   4.259 -0.9511 -0.1944  0.5555
 4235SOL    HW124338   1.881   1.211   4.274  0.2990  1.5643 -0.2275
 4235SOL    HW224339   1.767   1.220   4.179  1.9693 -0.0712 -0.7504
 4236SOL     OW24340   1.795   3.199  15.150 -0.0208 -0.2100  1.0591
 4236SOL    HW124341   1.822   3.272  15.206  2.5776  0.5494 -1.2201
 4236SOL    HW224342   1.858   3.127  15.144 -0.9311 -1.0642  1.7149
 4237SOL     OW24343   2.131   1.845   5.854  0.3171 -0.3248  0.2754
 4237SOL    HW124344   2.150   1.834   5.948 -1.5640  0.5767  0.7456
 4237SOL    HW224345   2.040   1.874   5.858 -0.4475 -2.8525  1.4197
 4238SOL     OW24346   3.606   2.585   8.838 -0.6960  0.3410  0.0777
 4238SOL    HW124347   3.524   2.586   8.887  1.0512 -0.1447  3.0045
 4238SOL    HW224348   3.668   2.642   8.885  2.6670 -1.7040 -1.9273
 4239SOL     OW24349   1.886   0.770   5.434 -0.2205  0.5026 -0.4885
 4239SOL    HW124350   1.869   0.812   5.518  0.2557 -0.7903  0.2491
 4239SOL    HW224351   1.803   0.724   5.424 -0.9214  1.6190  0.2510
 4240SOL     OW24352   4.196   4.643  16.232 -0.1442 -0.7321 -0.1036
 4240SOL    HW124353   4.160   4.654  16.144 -1.7819  3.2797  1.0586
 4240SOL    HW224354   4.182   4.735  16.256 -0.2353 -0.5531 -0.8321
 4241SOL     OW24355   3.453   2.639   6.356  0.0422  0.1221  0.3938
 4241SOL    HW124356   3.419   2.562   6.311 -1.7173  0.4712  1.1436
 4241SOL    HW224357   3.411   2.633   6.441 -0.5058  3.3464  0.3473
 4242SOL     OW24358   3.708   3.534   3.312 -0.0490 -0.2949  0.0549
 4242SOL    HW124359   3.703   3.625   3.343 -0.9132 -1.0755  2.2315
 4242SOL    HW224360   3.665   3.486   3.383 -0.3698 -1.3222 -0.8417
 4243SOL     OW24361   3.508   1.367   4.793  0.2931 -0.5496  0.2918
 4243SOL    HW124362   3.558   1.350   4.873 -1.3087 -0.3693  1.3271
 4243SOL    HW224363   3.420   1.379   4.828 -0.0878 -0.9810 -0.5262
 4244SOL     OW24364   1.286   0.233   9.080 -0.2964  0.0900  0.1506
 4244SOL    HW124365   1.343   0.168   9.122 -1.5692 -0.7718  0.5640
 4244SOL    HW224366   1.318   0.220   8.991 -0.7539  0.0947 -0.0127
 4245SOL     OW24367   1.135   2.116   6.252 -0.6987 -0.1144  0.5719
 4245SOL    HW124368   1.142   2.168   6.332 -0.6997  0.8072 -0.0309
 4245SOL    HW224369   1.228   2.097   6.239 -0.9717 -0.7823 -0.4558
 4246SOL     OW24370   2.763   0.260   5.314  0.2697 -0.7561  0.5328
 4246SOL    HW124371   2.740   0.351   5.330  1.4353 -0.4267  0.2980
 4246SOL    HW224372   2.676   0.229   5.288  0.4609  0.2885 -1.3340
 4247SOL     OW24373   4.136   3.694   5.662 -0.2063  0.5093 -0.2012
 4247SOL    HW124374   4.087   3.630   5.609  0.2848 -0.4231  0.4761
 4247SOL    HW224375   4.097   3.771   5.620 -0.3149  1.9875  2.6263
 4248SOL     OW24376   1.322   2.650  15.141  1.1257  0.0205  0.0200
 4248SOL    HW124377   1.243   2.704  15.142  0.2164 -1.3136  0.4482
 4248SOL    HW224378   1.391   2.712  15.163  1.9375 -0.7993 -0.1901
 4249SOL     OW24379   3.449   0.327   5.968  0.5696 -0.0892 -0.0505
 4249SOL    HW124380   3.354   0.332   5.980  0.9289  0.9254  2.5113
 4249SOL    HW224381   3.465   0.420   5.956  2.3605 -0.6397 -1.8938
 4250SOL     OW24382   0.857   4.651  11.289 -0.0879  0.3136  0.0811
 4250SOL    HW124383   0.775   4.696  11.310 -0.0523 -0.0894  1.1302
 4250SOL    HW224384   0.887   4.685  11.206  1.8363 -2.4714 -0.3673
 4251SOL     OW24385   3.541   3.926   3.077 -0.1908 -0.2186  0.1087
 4251SOL    HW124386   3.622   3.972   3.100  0.3420 -0.8640 -0.4695
 4251SOL    HW224387   3.588   3.843   3.063  1.7957  0.9708 -0.2734
 4252SOL     OW24388   1.589   4.018   8.286  0.4603  0.6011  0.2481
 4252SOL    HW124389   1.527   4.064   8.342 -0.7937 -0.1974 -0.4877
 4252SOL    HW224390   1.665   4.017   8.345  0.9005  1.8049 -0.2993
 4253SOL     OW24391   2.888   2.514   2.727  0.2994  0.1309 -0.0861
 4253SOL    HW124392   2.792   2.507   2.729  0.6004 -2.8437  3.3310
 4253SOL    HW224393   2.902   2.586   2.666  1.3444  0.2797  0.3495
 4254SOL     OW24394   4.077   0.000   0.622  0.8201  0.5536 -0.6796
 4254SOL    HW124395   4.027   4.680   0.677  2.7568 -0.7545 -0.3226
 4254SOL    HW224396   4.010   0.033   0.563  1.7357  3.0966 -0.2945
 4255SOL     OW24397   1.770   0.976   1.431 -0.1529 -0.5583 -0.2770
 4255SOL    HW124398   1.828   1.017   1.366 -1.7006  1.3690 -0.4742
 4255SOL    HW224399   1.815   0.991   1.514 -4.3691 -0.3333  1.9753
 4256SOL     OW24400   0.470   1.971   1.507  0.1312  0.6594 -0.0188
 4256SOL    HW124401   0.380   2.005   1.501  0.5298  1.8686  0.8385
 4256SOL    HW224402   0.460   1.893   1.452 -0.7847 -1.6083  3.3896
 4257SOL     OW24403   2.521   4.015   6.258 -0.0300  0.1856  0.4472
 4257SOL    HW124404   2.611   4.006   6.290 -0.3832  0.7481  1.6262
 4257SOL    HW224405   2.467   4.010   6.337 -1.1371 -0.0116 -0.3235
 4258SOL     OW24406   1.227   2.478   5.533 -1.1181  0.0310 -0.0651
 4258SOL    HW124407   1.201   2.435   5.615 -0.6984  0.1603  0.1389
 4258SOL    HW224408   1.321   2.461   5.539 -0.6926  1.9970 -1.1650
 4259SOL     OW24409   2.841   2.677   2.426 -0.0759  0.1301 -1.0673
 4259SOL    HW124410   2.934   2.694   2.409 -0.2827  0.5543 -1.7432
 4259SOL    HW224411   2.827   2.623   2.348  0.0455 -0.2179 -0.8524
 4260SOL     OW24412   3.729   3.257  15.855 -0.7465 -0.1238  0.4463
 4260SOL    HW124413   3.821   3.238  15.875  0.2041  3.1466 -0.8758
 4260SOL    HW224414   3.740   3.257  15.760 -3.3123  0.4364  0.1402
 4261SOL     OW24415   0.103   1.311  15.124  0.0810  0.2414 -0.0031
 4261SOL    HW124416   0.059   1.380  15.075 -0.6031 -1.1065 -1.2983
 4261SOL    HW224417   0.033   1.282  15.183  0.6025 -0.3513  0.3126
 4262SOL     OW24418   1.003   1.607   9.687 -0.4528 -0.3263  0.2739
 4262SOL    HW124419   1.075   1.575   9.633  0.0681  1.6775 -0.2290
 4262SOL    HW224420   1.025   1.699   9.706 -0.0284  0.1534 -2.5170
 4263SOL     OW24421   4.094   2.442   2.766 -0.0338 -0.7147 -0.4530
 4263SOL    HW124422   4.128   2.485   2.845 -2.0509 -0.5868  0.3622
 4263SOL    HW224423   4.105   2.351   2.796 -0.7009 -0.0010  1.9541
 4264SOL     OW24424   4.455   4.576   1.946 -0.1437 -0.6072 -0.6382
 4264SOL    HW124425   4.429   4.492   1.908 -0.3625 -1.0214  0.4473
 4264SOL    HW224426   4.537   4.588   1.898  1.8822 -0.8774  2.8148
 4265SOL     OW24427   2.119   3.529   4.253 -0.4929  0.0875  0.1586
 4265SOL    HW124428   2.080   3.446   4.283 -1.8465  0.6294 -0.1209
 4265SOL    HW224429   2.143   3.574   4.334  0.0168 -1.5568  0.9298
 4266SOL     OW24430   2.540   2.618  14.722 -0.6928  0.2302  0.1580
 4266SOL    HW124431   2.523   2.645  14.632  0.8225 -0.9238 -0.4600
 4266SOL    HW224432   2.618   2.669  14.744  1.7856 -3.6175  0.2970
 4267SOL     OW24433   1.766   4.005  11.121  0.0884  0.2349 -0.1712
 4267SOL    HW124434   1.798   3.915  11.120 -1.1323 -0.2175  1.6548
 4267SOL    HW224435   1.851   4.048  11.120  0.0119  0.4014  0.3427
 4268SOL     OW24436   3.356   3.839   4.271 -0.3884 -0.4503  0.3762
 4268SOL    HW124437   3.299   3.804   4.203  0.2379 -0.1681 -0.2863
 4268SOL    HW224438   3.437   3.813   4.228  0.1321  1.4587  0.1976
 4269SOL     OW24439   1.551   1.801   6.519  0.6076  0.6440  0.4584
 4269SOL    HW124440   1.500   1.878   6.546 -1.2422  0.1476 -1.6491
 4269SOL    HW224441   1.639   1.836   6.533  0.7782 -0.5605  2.4327
 4270SOL     OW24442   1.563   1.998   8.842 -0.1688  0.0510  0.3301
 4270SOL    HW124443   1.522   2.084   8.851  0.0718  0.1175  0.8173
 4270SOL    HW224444   1.637   1.998   8.904 -0.1305 -1.9203  0.2804
 4271SOL     OW24445   0.047   4.142   5.498 -0.6870 -0.1904  0.7496
 4271SOL    HW124446   4.713   4.122   5.441  1.3168 -1.6863 -1.3677
 4271SOL    HW224447   0.016   4.224   5.536 -0.6171 -0.4729  1.4055
 4272SOL     OW24448   3.505   0.711   2.877  0.1641 -0.5157  0.2973
 4272SOL    HW124449   3.442   0.687   2.945  0.9637  0.4734  1.4042
 4272SOL    HW224450   3.563   0.635   2.885  1.2460  0.1385 -1.4250
 4273SOL     OW24451   2.288   3.591   7.917  0.2828  0.2016  0.3018
 4273SOL    HW124452   2.214   3.650   7.906 -1.2652 -2.2146 -2.4263
 4273SOL    HW224453   2.284   3.569   8.010  1.1607 -2.7217 -0.3443
 4274SOL     OW24454   3.475   3.372   1.427  0.4249 -0.3613  0.0325
 4274SOL    HW124455   3.394   3.326   1.407  0.2140 -0.4993  1.2632
 4274SOL    HW224456   3.514   3.389   1.341  2.0379  0.5916  0.9368
 4275SOL     OW24457   4.054   1.196   6.081 -0.5918  0.3156  0.4906
 4275SOL    HW124458   4.129   1.246   6.047  1.1392 -0.5358  3.0219
 4275SOL    HW224459   3.990   1.266   6.072 -0.1034  0.8110  0.7865
 4276SOL     OW24460   1.145   2.377  13.739 -0.1507 -0.5228  0.0474
 4276SOL    HW124461   1.050   2.367  13.745  0.0025 -0.9276  1.6903
 4276SOL    HW224462   1.171   2.286  13.722  1.6845  0.0096 -0.0251
 4277SOL     OW24463   2.229   3.674   6.575 -0.2169  0.3358  0.1690
 4277SOL    HW124464   2.141   3.636   6.580  0.5600 -1.1908  1.9571
 4277SOL    HW224465   2.222   3.742   6.508  0.5443 -0.2382 -0.4934
 4278SOL     OW24466   3.952   2.615   4.068  0.0130  0.0906  0.3558
 4278SOL    HW124467   4.033   2.630   4.020 -1.1902  0.7321 -1.4625
 4278SOL    HW224468   3.915   2.696   4.034  0.0715 -0.9706 -2.2234
 4279SOL     OW24469   0.171   3.614   3.672  0.3371  0.2697 -0.1677
 4279SOL    HW124470   0.130   3.700   3.665  0.7791  0.3588 -1.7321
 4279SOL    HW224471   0.263   3.622   3.697  0.4906  1.3264 -1.0671
 4280SOL     OW24472   1.270   2.779  13.802 -0.3664  0.1314  0.5631
 4280SOL    HW124473   1.265   2.842  13.873 -0.0772 -0.7733  1.3786
 4280SOL    HW224474   1.271   2.695  13.847  2.3162  1.2644  2.5959
 4281SOL     OW24475   2.229   4.122  17.667 -0.0488 -0.1540 -0.0529
 4281SOL    HW124476   2.174   4.132  17.589 -1.5544 -2.7856  0.6702
 4281SOL    HW224477   2.233   4.027  17.678  0.1391 -0.0377  0.8194
 4282SOL     OW24478   0.494   0.597   4.933  0.0897 -0.0308  0.0620
 4282SOL    HW124479   0.574   0.576   4.884  0.5552 -1.4667  1.4122
 4282SOL    HW224480   0.518   0.680   4.973  0.9808 -0.7738  1.0904
 4283SOL     OW24481   2.871   4.454   2.623 -0.3675 -0.0272 -0.9750
 4283SOL    HW124482   2.889   4.363   2.648 -0.3619 -0.4187 -2.3992
 4283SOL    HW224483   2.921   4.452   2.541  0.8127  2.9180 -0.3330
 4284SOL     OW24484   2.695   2.141   3.933 -0.5937  0.0184 -0.7997
 4284SOL    HW124485   2.721   2.049   3.925  0.6807  0.1852  1.3259
 4284SOL    HW224486   2.764   2.163   3.996 -0.9850  0.5617 -0.5576
 4285SOL     OW24487   0.971   1.788   4.906  0.4944  0.1881 -0.0406
 4285SOL    HW124488   1.000   1.781   4.997 -2.0354 -0.0651  0.7467
 4285SOL    HW224489   0.957   1.882   4.902  0.0793  0.1165 -0.2527
 4286SOL     OW24490   1.135   0.740  17.467 -0.1499 -0.1883  0.6095
 4286SOL    HW124491   1.188   0.660  17.466  1.0798  0.6348 -0.2583
 4286SOL    HW224492   1.202   0.797  17.429 -2.0018  2.0834  0.6981
 4287SOL     OW24493   0.840   1.528   5.553 -0.5872 -0.4292  0.3512
 4287SOL    HW124494   0.773   1.581   5.596  0.2215  0.4925  0.4693
 4287SOL    HW224495   0.794   1.505   5.473  0.2860 -1.4645  0.1350
 4288SOL     OW24496   1.659   4.022   2.787  0.3697 -0.4582  0.4901
 4288SOL    HW124497   1.656   4.020   2.691 -0.1778  0.7225  0.4694
 4288SOL    HW224498   1.739   4.075   2.788 -0.4656  0.8175  0.6474
 4289SOL     OW24499   3.180   2.992   8.965  0.1775  0.1096 -0.4648
 4289SOL    HW124500   3.087   2.968   8.964  0.3257 -0.5757  2.4290
 4289SOL    HW224501   3.186   3.037   8.881  0.3689 -0.8517 -0.9728
 4290SOL     OW24502   2.958   3.348   7.381 -0.1291 -0.0938 -0.2185
 4290SOL    HW124503   2.971   3.254   7.368 -0.0376  0.0625 -1.2647
 4290SOL    HW224504   2.921   3.347   7.470  0.7512 -0.3360  0.1462
 4291SOL     OW24505   1.624   1.817  17.359 -0.2738  0.2726  0.7792
 4291SOL    HW124506   1.580   1.872  17.294  1.6162 -0.5915 -1.2423
 4291SOL    HW224507   1.574   1.735  17.363 -0.6710  0.6154  2.8907
 4292SOL     OW24508   3.280   0.685  16.696 -0.3209  0.2753 -0.1705
 4292SOL    HW124509   3.326   0.769  16.695  1.9559 -0.9859 -0.9780
 4292SOL    HW224510   3.327   0.641  16.625 -0.4359  1.1697 -0.8065
 4293SOL     OW24511   0.997   0.142   9.280  0.3850  0.0165 -0.6487
 4293SOL    HW124512   0.940   0.069   9.258 -0.2890 -0.3185  2.3329
 4293SOL    HW224513   1.079   0.112   9.240  0.2498  1.2990 -1.8936
 4294SOL     OW24514   2.099   4.506   8.680  0.6499  0.7050 -0.5808
 4294SOL    HW124515   2.051   4.586   8.701 -0.9500 -0.1233 -1.0262
 4294SOL    HW224516   2.089   4.475   8.770  2.4875  0.6416 -0.4023
 4295SOL     OW24517   0.069   2.330  17.129 -0.0604  0.0822 -0.1025
 4295SOL    HW124518   0.100   2.367  17.212  0.1935  0.5958 -0.4314
 4295SOL    HW224519   0.043   2.239  17.147 -1.4672  0.5008 -0.0496
 4296SOL     OW24520   0.036   0.524   9.999 -0.2059 -0.1074  0.1557
 4296SOL    HW124521   4.690   0.565  10.010 -0.5234 -0.9548  0.8363
 4296SOL    HW224522   0.075   0.587   9.939 -1.4820  0.2542 -0.2934
 4297SOL     OW24523   3.043   3.786   8.191 -0.3391 -0.0751 -0.3579
 4297SOL    HW124524   2.989   3.848   8.239 -0.7406  0.0967 -1.0213
 4297SOL    HW224525   3.061   3.832   8.108 -0.5416  1.1435  0.2723
 4298SOL     OW24526   1.457   3.980   1.851 -0.0254 -0.1143  0.0665
 4298SOL    HW124527   1.376   3.978   1.901  0.6738  2.0960  1.2878
 4298SOL    HW224528   1.454   3.910   1.786  0.7299 -0.6077  0.5541
 4299SOL     OW24529   0.644   0.902  15.825 -0.1996  0.2061  0.4120
 4299SOL    HW124530   0.654   0.821  15.874  0.6448  1.3724  2.1856
 4299SOL    HW224531   0.617   0.866  15.741 -0.1306  2.3213 -0.5269
 4300SOL     OW24532   4.275   3.006   6.070  0.1429 -0.0098 -0.3835
 4300SOL    HW124533   4.234   3.092   6.079  0.9367  0.2691  0.4745
 4300SOL    HW224534   4.192   2.959   6.082  0.3566 -0.7662 -1.8664
 4301SOL     OW24535   4.583   0.203   3.673  0.1825 -0.2760 -0.6041
 4301SOL    HW124536   4.648   0.270   3.652  1.2388 -0.8330  0.9412
 4301SOL    HW224537   4.579   0.146   3.596 -0.8596  0.1262 -0.8555
 4302SOL     OW24538   2.473   3.043   8.086 -0.7613  0.1849  0.1148
 4302SOL    HW124539   2.459   2.979   8.156 -0.1478 -0.2787 -0.1861
 4302SOL    HW224540   2.395   3.099   8.090  0.3553  1.7792 -0.4367
 4303SOL     OW24541   4.384   3.188   4.054 -0.0555 -0.3149 -0.0418
 4303SOL    HW124542   4.440   3.264   4.033  0.3474 -0.9116 -1.1202
 4303SOL    HW224543   4.343   3.164   3.971 -1.9831  1.1432  0.4912
 4304SOL     OW24544   1.608   1.767  10.320  0.1036 -0.1436  0.0565
 4304SOL    HW124545   1.674   1.698  10.316 -0.5166 -0.7606  0.5886
 4304SOL    HW224546   1.524   1.726  10.338 -0.2267 -0.5949 -2.4581
 4305SOL     OW24547   1.871   0.263  16.906  0.6857  0.1880  0.3849
 4305SOL    HW124548   1.856   0.308  16.823  3.5263  2.0284  0.9073
 4305SOL    HW224549   1.843   0.173  16.887 -0.0258  1.1980 -3.1902
 4306SOL     OW24550   3.376   0.093  17.164  0.0763  0.2477 -0.3655
 4306SOL    HW124551   3.368   0.142  17.081  0.2961 -0.4724 -0.8109
 4306SOL    HW224552   3.407   0.167  17.216  0.9546 -2.5564  3.0303
 4307SOL     OW24553   3.319   4.510   5.404 -0.6532 -0.2206 -0.4780
 4307SOL    HW124554   3.336   4.478   5.316 -0.3717 -0.7663 -0.2248
 4307SOL    HW224555   3.225   4.526   5.399 -0.4504  1.2405  0.2613
 4308SOL     OW24556   4.277   0.694   5.736  0.5614  0.2594 -0.6182
 4308SOL    HW124557   4.260   0.619   5.680 -0.7921  0.1213 -0.0132
 4308SOL    HW224558   4.288   0.764   5.672  3.7874  2.3580  2.2160
 4309SOL     OW24559   2.822   1.590  16.617  0.2265  0.3421  0.2430
 4309SOL    HW124560   2.755   1.577  16.684  0.0572 -2.7336 -0.5583
 4309SOL    HW224561   2.796   1.678  16.588 -1.5584  0.6056  2.6101
 4310SOL     OW24562   1.212   0.724  16.302  0.4024 -0.1315 -0.5289
 4310SOL    HW124563   1.194   0.687  16.215  2.9751 -3.5740  0.4093
 4310SOL    HW224564   1.221   0.817  16.282 -0.7219 -0.4595 -2.6879
 4311SOL     OW24565   3.879   0.260   3.727  0.0902 -0.1098  0.3927
 4311SOL    HW124566   3.789   0.250   3.697 -0.1676  0.3123  1.0217
 4311SOL    HW224567   3.857   0.267   3.820  2.0036 -1.3286  0.9294
 4312SOL     OW24568   3.141   0.209   5.947 -0.2050 -0.2787  0.2532
 4312SOL    HW124569   3.081   0.149   5.903  0.8382 -0.8112 -0.4422
 4312SOL    HW224570   3.148   0.175   6.036  2.6102 -0.5256 -0.0729
 4313SOL     OW24571   1.962   3.976   1.712 -0.9553  0.4795  0.3723
 4313SOL    HW124572   1.954   3.911   1.642  0.8075  1.3576 -0.6492
 4313SOL    HW224573   1.930   3.923   1.785 -0.8683 -0.1331 -0.0348
 4314SOL     OW24574   0.489   2.386   1.819  0.7916 -0.4558 -0.2445
 4314SOL    HW124575   0.524   2.372   1.906  1.2752  0.8755 -0.2239
 4314SOL    HW224576   0.473   2.480   1.832  1.1444 -0.4198 -0.0756
 4315SOL     OW24577   0.746   0.875  11.977  0.4475 -0.5294 -0.6897
 4315SOL    HW124578   0.826   0.822  11.970  0.2578 -0.8967 -0.0377
 4315SOL    HW224579   0.685   0.814  11.937 -1.0154 -0.1224  0.9292
 4316SOL     OW24580   3.949   2.110  12.857  0.6436  0.2155  0.5519
 4316SOL    HW124581   3.932   2.043  12.924  1.0333 -0.2290  0.2022
 4316SOL    HW224582   4.037   2.136  12.883  0.6519 -0.7265  1.4931
 4317SOL     OW24583   4.464   1.364   0.874 -0.1652  0.5451  0.0828
 4317SOL    HW124584   4.505   1.281   0.898 -0.9677 -0.6975 -2.7827
 4317SOL    HW224585   4.377   1.331   0.852  0.6264 -2.2496  1.0738
 4318SOL     OW24586   0.240   0.090   8.373 -0.1852  0.0761 -0.3318
 4318SOL    HW124587   0.309   0.026   8.391  0.7764  1.3090  0.3677
 4318SOL    HW224588   0.234   0.128   8.461 -1.3814 -0.0665 -0.3484
 4319SOL     OW24589   3.441   1.678   7.560 -0.5480  0.0437  0.3592
 4319SOL    HW124590   3.376   1.668   7.629  0.0056 -0.6753  0.7731
 4319SOL    HW224591   3.444   1.772   7.543 -0.9624  0.2017  1.1947
 4320SOL     OW24592   4.247   3.364   7.311 -0.5417 -0.0268  0.6073
 4320SOL    HW124593   4.193   3.443   7.312 -1.8711 -0.9153 -0.9161
 4320SOL    HW224594   4.317   3.380   7.374  0.5628  1.2651 -0.9684
 4321SOL     OW24595   4.575   3.361  10.485 -0.5129  0.1248  0.5522
 4321SOL    HW124596   4.510   3.314  10.537  1.2051 -0.1420  2.4637
 4321SOL    HW224597   4.545   3.338  10.397  0.8749 -0.8874  0.3456
 4322SOL     OW24598   0.834   4.105   7.887 -0.2381  0.0812  0.1957
 4322SOL    HW124599   0.881   4.174   7.839  3.3295 -1.3532  1.6354
 4322SOL    HW224600   0.789   4.046   7.827 -0.3734 -0.2584  0.6305
 4323SOL     OW24601   1.796   3.488   2.934 -0.1975 -0.1186 -0.1261
 4323SOL    HW124602   1.853   3.412   2.925 -0.7479 -0.5252 -0.1752
 4323SOL    HW224603   1.719   3.445   2.971 -0.5062 -0.1874 -0.8521
 4324SOL     OW24604   3.740   1.493   5.818  0.1864 -0.0974  0.0458
 4324SOL    HW124605   3.818   1.542   5.846 -0.6032  1.5236 -0.5619
 4324SOL    HW224606   3.681   1.563   5.792 -1.8244 -1.7161  0.3183
 4325SOL     OW24607   2.872   2.942   7.617 -0.0708 -0.5518  0.4150
 4325SOL    HW124608   2.919   3.000   7.558  1.1239 -0.1794  1.7403
 4325SOL    HW224609   2.934   2.869   7.610  0.5050 -0.1367  1.3393
 4326SOL     OW24610   2.641   0.008   4.393 -0.1017 -0.1923 -0.0996
 4326SOL    HW124611   2.650   4.663   4.352 -0.3520 -0.8868  1.3055
 4326SOL    HW224612   2.546   0.017   4.399 -0.0828  2.0232 -2.7009
 4327SOL     OW24613   0.467   2.797  15.663 -0.2746 -0.2908 -0.4268
 4327SOL    HW124614   0.514   2.847  15.596 -0.7222 -0.3471 -0.7857
 4327SOL    HW224615   0.501   2.712  15.635  0.3095 -0.6067  1.2803
 4328SOL     OW24616   0.884   4.219   6.834  0.1889 -0.2037 -0.3520
 4328SOL    HW124617   0.947   4.154   6.867 -1.1500 -1.0720  0.4849
 4328SOL    HW224618   0.926   4.298   6.870  0.7233  0.2528 -1.9943
 4329SOL     OW24619   1.397   4.326  17.221  0.1480  0.3269  0.3545
 4329SOL    HW124620   1.486   4.352  17.245 -0.5617  1.4951  1.7606
 4329SOL    HW224621   1.401   4.231  17.233 -0.6081  0.6882  3.5805
 4330SOL     OW24622   1.835   2.025   6.143 -0.4292  0.4030  0.1137
 4330SOL    HW124623   1.897   2.074   6.198  0.4490  1.3059 -1.7042
 4330SOL    HW224624   1.867   1.937   6.168 -0.5911  0.5472  0.8443
 4331SOL     OW24625   1.695   4.576  13.715 -0.5764  0.1224 -0.4119
 4331SOL    HW124626   1.745   4.657  13.711 -0.5515  0.1306  0.0489
 4331SOL    HW224627   1.727   4.534  13.635  0.5901 -0.4989  0.3871
 4332SOL     OW24628   3.442   1.134   9.618 -0.0057  0.5182 -0.5278
 4332SOL    HW124629   3.489   1.077   9.558  1.2717 -0.2364  1.1896
 4332SOL    HW224630   3.371   1.074   9.639  1.8915 -1.4811  0.1857
 4333SOL     OW24631   0.623   4.423   2.107  0.0392  0.1960  0.1688
 4333SOL    HW124632   0.710   4.383   2.103  0.7982  1.9160 -0.4464
 4333SOL    HW224633   0.624   4.449   2.199 -1.2240  0.1092  0.2022
 4334SOL     OW24634   1.017   3.000   4.427  0.2222 -0.2711 -0.1573
 4334SOL    HW124635   0.925   2.981   4.408  0.3575 -1.6066  0.5615
 4334SOL    HW224636   0.999   3.014   4.520  0.2920 -2.1633  0.1352
 4335SOL     OW24637   4.578   0.864   9.749 -0.0604  0.4315 -0.3051
 4335SOL    HW124638   4.523   0.901   9.818 -2.2543  0.4518 -2.1075
 4335SOL    HW224639   4.665   0.895   9.777  0.0738 -0.3908  0.1916
 4336SOL     OW24640   3.383   0.464  14.147  0.0257  0.7523  0.2142
 4336SOL    HW124641   3.315   0.506  14.095  0.1975  1.2827  0.4212
 4336SOL    HW224642   3.334   0.401  14.202 -1.4520  0.8223 -1.0200
 4337SOL     OW24643   2.787   3.798  15.835  0.3837 -0.2398  0.4193
 4337SOL    HW124644   2.749   3.726  15.787 -2.2269 -0.2729  2.5352
 4337SOL    HW224645   2.840   3.753  15.901 -0.1600  1.4520  2.0282
 4338SOL     OW24646   1.569   0.378   3.623 -0.2023 -0.1170 -0.0064
 4338SOL    HW124647   1.486   0.397   3.667 -0.7434  0.2623 -1.1876
 4338SOL    HW224648   1.624   0.387   3.701 -0.8362  0.6762  0.3477
 4339SOL     OW24649   1.791   0.418   3.790 -0.1308 -0.1834  0.3587
 4339SOL    HW124650   1.872   0.470   3.796 -0.9520  0.9399  1.7745
 4339SOL    HW224651   1.777   0.402   3.884  0.4418 -1.2988  0.2506
 4340SOL     OW24652   3.620   3.905   6.368 -0.1520  0.1034  0.1156
 4340SOL    HW124653   3.588   3.983   6.413 -2.5777 -0.3120 -0.8571
 4340SOL    HW224654   3.669   3.875   6.445 -2.5989 -0.9933  1.2666
 4341SOL     OW24655   2.397   0.654   6.912  0.4048 -0.6296 -0.1194
 4341SOL    HW124656   2.357   0.741   6.911  0.7489 -0.5043 -3.7083
 4341SOL    HW224657   2.489   0.676   6.927  0.1523  0.1955  0.2264
 4342SOL     OW24658   0.706   0.412   4.903 -0.2566  0.0884  0.5185
 4342SOL    HW124659   0.716   0.327   4.946  0.6178  0.2731  0.6773
 4342SOL    HW224660   0.637   0.377   4.847  0.4928 -1.9116  0.8674
 4343SOL     OW24661   0.155   4.589  17.694 -0.0788  0.1539  0.0243
 4343SOL    HW124662   0.196   4.504  17.712  1.6680  0.5231 -2.1979
 4343SOL    HW224663   0.067   4.584  17.732  0.2955  0.1357  0.8875
 4344SOL     OW24664   3.466   1.237  14.244  0.0957  0.7613 -0.2219
 4344SOL    HW124665   3.412   1.244  14.323  0.5634 -2.0790  0.3407
 4344SOL    HW224666   3.554   1.264  14.271  0.0431  1.0989 -0.3923
 4345SOL     OW24667   3.719   2.158   5.714 -0.2217 -0.4316 -0.2010
 4345SOL    HW124668   3.756   2.238   5.751  1.3635 -2.5974  2.9039
 4345SOL    HW224669   3.630   2.182   5.690 -0.4589  0.0234  1.1624
 4346SOL     OW24670   0.907   1.203  10.121 -0.4024 -0.1891  0.0211
 4346SOL    HW124671   0.980   1.149  10.091 -1.7158 -1.1183 -1.5032
 4346SOL    HW224672   0.867   1.228  10.038  0.5856  1.2972 -0.0076
 4347SOL     OW24673   0.329   0.518   2.323 -0.4256 -0.0517  0.3672
 4347SOL    HW124674   0.405   0.563   2.359  0.2585 -1.7858  1.0920
 4347SOL    HW224675   0.344   0.514   2.229 -2.8746  2.3623 -0.1408
 4348SOL     OW24676   1.522   1.363   7.904 -0.1580 -0.2883  0.3710
 4348SOL    HW124677   1.431   1.363   7.873  0.1132 -0.8466 -0.4048
 4348SOL    HW224678   1.543   1.448   7.942  1.3184 -0.2375 -0.5559
 4349SOL     OW24679   0.737   2.947   9.664 -0.4756  0.5843  0.3865
 4349SOL    HW124680   0.695   3.002   9.730  0.0576  1.7574 -0.2514
 4349SOL    HW224681   0.829   2.973   9.657  0.4257 -2.7235 -0.2801
 4350SOL     OW24682   0.893   0.025   7.523  0.0614  0.0900 -0.3976
 4350SOL    HW124683   0.952   0.066   7.586 -2.6559  1.7423  1.0383
 4350SOL    HW224684   0.895   4.672   7.546  0.4994  0.3254  0.5288
 4351SOL     OW24685   2.303   2.360   8.684 -0.2031  0.0838 -0.0551
 4351SOL    HW124686   2.237   2.338   8.749  1.6899  1.3639  2.2976
 4351SOL    HW224687   2.362   2.420   8.730 -1.2672  1.2042 -0.1488
 4352SOL     OW24688   4.288   4.416  16.388  0.2338 -0.1549 -0.2234
 4352SOL    HW124689   4.269   4.485  16.324  0.6576 -1.8846 -2.2374
 4352SOL    HW224690   4.254   4.453  16.469  0.0385  0.2795 -0.5012
 4353SOL     OW24691   2.962   0.356   3.242  0.1462 -0.6177 -0.1719
 4353SOL    HW124692   2.910   0.425   3.283  2.9533  0.9104  0.8370
 4353SOL    HW224693   2.923   0.281   3.288  1.3241 -0.5227  0.9939
 4354SOL     OW24694   1.811   1.333  11.105  0.4615 -0.3710 -0.1249
 4354SOL    HW124695   1.899   1.368  11.109 -1.4607  4.3024  1.0067
 4354SOL    HW224696   1.827   1.251  11.058 -0.7875  0.4256 -1.9576
 4355SOL     OW24697   0.683   0.356   3.467  0.5545 -0.3514 -0.1352
 4355SOL    HW124698   0.777   0.341   3.480  0.4543 -0.4749  0.4263
 4355SOL    HW224699   0.685   0.436   3.415  0.5208  0.1386  0.6277
 4356SOL     OW24700   3.459   3.741   6.880 -0.2545  0.3051  0.2019
 4356SOL    HW124701   3.378   3.689   6.887 -0.0748  0.1768  1.3847
 4356SOL    HW224702   3.515   3.688   6.937 -0.5750 -1.0447 -0.7564
 4357SOL     OW24703   3.950   4.676  15.723 -0.0408 -0.0778  0.2967
 4357SOL    HW124704   3.993   0.011  15.683  1.7192 -0.5508  1.2874
 4357SOL    HW224705   3.904   4.632  15.652  1.5019 -0.7417 -0.2767
 4358SOL     OW24706   2.803   2.938  14.064  0.1712  1.0315  0.3848
 4358SOL    HW124707   2.793   3.033  14.064  1.6686  1.1959  0.2626
 4358SOL    HW224708   2.894   2.925  14.036  0.5800  0.2584  2.1048
 4359SOL     OW24709   2.969   2.378   0.237  0.2707  0.2603  0.5307
 4359SOL    HW124710   2.939   2.426   0.160  0.7689 -0.2066  0.0425
 4359SOL    HW224711   2.890   2.336   0.270 -0.3168  1.9587  1.2517
 4360SOL     OW24712   1.416   4.612  15.951 -0.0986 -0.2418 -0.0572
 4360SOL    HW124713   1.371   4.689  15.916  0.2099 -1.0540 -2.2654
 4360SOL    HW224714   1.483   4.597  15.884 -1.2259  0.6100 -1.3762
 4361SOL     OW24715   4.381   4.426   3.509 -0.4934 -0.8140  0.2883
 4361SOL    HW124716   4.345   4.338   3.508 -1.3921 -0.4374 -0.7673
 4361SOL    HW224717   4.475   4.415   3.494 -0.4793  1.2774 -1.1871
 4362SOL     OW24718   0.586   2.473   3.511 -0.2019  0.7855 -0.0417
 4362SOL    HW124719   0.628   2.554   3.482  0.0937  0.6411 -0.0083
 4362SOL    HW224720   0.510   2.463   3.453 -0.1542 -1.6281  0.3010
 4363SOL     OW24721   4.057   0.123   5.032  0.0237 -0.1763  0.4913
 4363SOL    HW124722   4.074   0.124   5.127 -0.4842 -2.3648  0.6165
 4363SOL    HW224723   4.123   0.055   5.015  0.7959  0.0658  2.5360
 4364SOL     OW24724   2.382   3.738   1.193 -0.2157 -0.3737  0.0954
 4364SOL    HW124725   2.465   3.696   1.168  0.2790  0.1035  0.9355
 4364SOL    HW224726   2.349   3.684   1.265  0.6640  0.8312  1.4056
 4365SOL     OW24727   0.920   2.144   7.610 -0.4961  0.6677 -0.4463
 4365SOL    HW124728   0.894   2.223   7.564 -0.4744  0.8647 -0.1248
 4365SOL    HW224729   0.993   2.182   7.660 -0.7153 -1.0320  1.2150
 4366SOL     OW24730   1.665   0.404   1.843  0.0850 -0.1972 -0.1779
 4366SOL    HW124731   1.597   0.468   1.823  1.4456  1.7298  1.4320
 4366SOL    HW224732   1.609   0.333   1.874 -0.2310 -0.2542 -0.8826
 4367SOL     OW24733   1.167   0.596   4.819 -0.1252 -0.2598 -0.1973
 4367SOL    HW124734   1.210   0.672   4.858  0.6694 -0.1145 -1.3897
 4367SOL    HW224735   1.075   0.604   4.845 -0.4780  1.2374 -1.9519
 4368SOL     OW24736   1.308   1.167   7.649  0.2885  0.2076  0.9985
 4368SOL    HW124737   1.243   1.216   7.699 -0.9191  1.1112 -1.4579
 4368SOL    HW224738   1.294   1.204   7.562  0.4045  0.2941  1.0161
 4369SOL     OW24739   2.032   2.930   2.285  0.4060 -0.5711 -0.2939
 4369SOL    HW124740   2.097   3.000   2.277 -0.3558  0.3191  1.3473
 4369SOL    HW224741   1.989   2.948   2.201  2.1250 -0.9680 -1.2446
 4370SOL     OW24742   2.685   1.038   6.952 -0.0644  0.0074 -0.3349
 4370SOL    HW124743   2.700   1.084   6.869 -1.2169 -1.3392 -1.2988
 4370SOL    HW224744   2.672   1.115   7.007 -0.4129  0.3756 -0.9270
 4371SOL     OW24745   0.229   3.997   2.112  0.5524 -0.1196  0.4618
 4371SOL    HW124746   0.148   4.041   2.085  0.5065 -1.8398 -2.2010
 4371SOL    HW224747   0.225   3.922   2.053  1.0475 -1.4225  2.0931
 4372SOL     OW24748   3.287   4.203  15.615 -0.2517 -0.1462 -0.2897
 4372SOL    HW124749   3.302   4.267  15.685  0.0978  1.4223 -1.8039
 4372SOL    HW224750   3.224   4.147  15.660  0.2952 -0.6882 -0.1969
 4373SOL     OW24751   3.926   1.707   4.174  0.1604 -0.7073  0.4320
 4373SOL    HW124752   3.876   1.743   4.101  1.0229  1.0524  0.6892
 4373SOL    HW224753   3.884   1.621   4.179  0.2693 -0.7572  0.5091
 4374SOL     OW24754   2.807   1.019  10.023 -0.2585  0.6599  0.4295
 4374SOL    HW124755   2.819   0.927  10.043 -0.0116  1.0304  1.9848
 4374SOL    HW224756   2.728   1.036  10.075 -1.0443 -2.1961  0.1620
 4375SOL     OW24757   0.169   4.016  15.835  0.0157  0.2579 -0.2820
 4375SOL    HW124758   0.251   3.983  15.799 -1.2552 -1.2755 -1.7599
 4375SOL    HW224759   0.113   3.942  15.815  1.3417 -1.1309  1.0797
 4376SOL     OW24760   4.374   2.998   8.071  0.2131 -0.1887 -0.9837
 4376SOL    HW124761   4.445   2.935   8.057  2.3862  1.9377  0.6895
 4376SOL    HW224762   4.423   3.079   8.076 -0.6583  0.2631  0.1915
 4377SOL     OW24763   1.392   3.142   6.282  0.0448 -0.5991 -0.8574
 4377SOL    HW124764   1.356   3.053   6.274 -0.2794 -0.6610  1.3566
 4377SOL    HW224765   1.321   3.197   6.252  1.8101  2.3611  0.4175
 4378SOL     OW24766   2.798   4.221   7.598 -0.0431  0.2862  0.2165
 4378SOL    HW124767   2.891   4.218   7.621 -0.0194  1.7597  0.2797
 4378SOL    HW224768   2.784   4.315   7.591 -0.5415  0.0940 -1.3982
 4379SOL     OW24769   4.221   2.987  16.632 -0.4148  0.3448 -0.4580
 4379SOL    HW124770   4.242   2.935  16.709 -0.0795  2.0730  0.6281
 4379SOL    HW224771   4.290   2.961  16.571 -1.4616 -1.7876 -0.7191
 4380SOL     OW24772   3.110   1.849  16.794  0.3665  0.2287  0.8705
 4380SOL    HW124773   3.205   1.849  16.784  0.4236 -0.0503  1.3627
 4380SOL    HW224774   3.087   1.764  16.832  1.5644 -0.1841  0.6885
 4381SOL     OW24775   3.591   3.329   8.974  0.2004 -0.3104  0.2047
 4381SOL    HW124776   3.591   3.328   9.070 -2.0228 -2.3650  0.1954
 4381SOL    HW224777   3.670   3.380   8.959  0.2347 -1.0727 -2.1217
 4382SOL     OW24778   3.099   0.716   8.266  0.5523  0.1768 -0.7868
 4382SOL    HW124779   3.180   0.690   8.311  1.8105  0.8060 -2.6917
 4382SOL    HW224780   3.102   0.811   8.277  0.8681  0.0074  0.6219
 4383SOL     OW24781   0.728   0.561   1.782 -0.0395 -0.3925 -0.4387
 4383SOL    HW124782   0.661   0.550   1.848 -1.2189 -1.1297 -1.7640
 4383SOL    HW224783   0.671   0.580   1.708  0.9632  2.0499 -0.5931
 4384SOL     OW24784   0.679   2.461   8.241  0.5053 -0.0098 -0.2876
 4384SOL    HW124785   0.604   2.445   8.183 -0.9000 -1.4156  1.9091
 4384SOL    HW224786   0.644   2.526   8.302  0.5962 -0.1343 -0.1044
 4385SOL     OW24787   4.325   0.380   4.740  0.2122  0.7419 -0.0328
 4385SOL    HW124788   4.404   0.360   4.689  0.4553  0.4730  0.4497
 4385SOL    HW224789   4.331   0.473   4.721  1.2032  0.7628  0.3752
 4386SOL     OW24790   1.763   3.610   9.860  0.2580  0.1107  0.5509
 4386SOL    HW124791   1.830   3.646   9.919 -0.5604  0.0930  1.5072
 4386SOL    HW224792   1.720   3.551   9.922 -0.3646  0.9728  0.9408
 4387SOL     OW24793   2.811   1.574  10.301  0.3304 -0.0050 -0.1440
 4387SOL    HW124794   2.758   1.496  10.287 -1.8998  2.0238 -2.9729
 4387SOL    HW224795   2.760   1.651  10.274  1.3573  1.0502  0.8774
 4388SOL     OW24796   3.027   0.891   4.660  0.6441 -0.2409 -0.1372
 4388SOL    HW124797   2.940   0.854   4.674  1.1004 -1.0888  0.4947
 4388SOL    HW224798   3.075   0.809   4.653  2.5707  0.7410  1.4136
 4389SOL     OW24799   0.050   3.809   8.668 -0.2789 -0.2481 -0.2529
 4389SOL    HW124800   0.123   3.756   8.698  0.0621 -0.2521 -1.0768
 4389SOL    HW224801   4.728   3.741   8.642 -1.4074 -0.2485  2.5382
 4390SOL     OW24802   0.823   3.117   4.125  0.2923 -0.8222 -0.1132
 4390SOL    HW124803   0.734   3.095   4.152 -0.5266  2.6844  0.1189
 4390SOL    HW224804   0.839   3.183   4.193  0.8832  0.6681 -1.7008
 4391SOL     OW24805   0.350   1.915  17.451 -0.3152 -0.1410 -0.0640
 4391SOL    HW124806   0.305   2.000  17.449 -1.1735 -0.5467  2.2874
 4391SOL    HW224807   0.400   1.926  17.531 -0.5752  1.0459 -0.0542
 4392SOL     OW24808   2.125   3.835   2.532 -0.4214 -0.0419 -0.0113
 4392SOL    HW124809   2.121   3.829   2.627 -2.2619 -1.7345 -0.2040
 4392SOL    HW224810   2.177   3.915   2.528 -2.3725  1.1371 -1.7377
 4393SOL     OW24811   0.465   3.405   8.533  0.0865 -0.0564 -0.0076
 4393SOL    HW124812   0.385   3.370   8.494 -0.3690 -0.1850  1.0591
 4393SOL    HW224813   0.495   3.337   8.593  0.3553 -2.4668 -2.8682
 4394SOL     OW24814   1.489   0.478   7.735 -0.3542 -0.0487  0.3803
 4394SOL    HW124815   1.519   0.533   7.663 -0.1126 -0.0677  0.4643
 4394SOL    HW224816   1.567   0.425   7.755  0.2800 -0.8604 -4.2831
 4395SOL     OW24817   2.362   4.738   4.391 -0.0260 -0.3741 -1.1998
 4395SOL    HW124818   2.358   0.026   4.300  1.7620 -0.3612 -1.2750
 4395SOL    HW224819   2.303   4.663   4.397 -0.7862  0.1062 -2.5955
 4396SOL     OW24820   0.098   3.271   7.120 -0.4531 -0.2629  0.2625
 4396SOL    HW124821   0.081   3.321   7.041  2.9531  0.8080  0.2074
 4396SOL    HW224822   0.150   3.339   7.165 -0.2735  1.1174 -2.0363
 4397SOL     OW24823   4.081   4.616  14.188 -0.0416 -0.7872  0.4749
 4397SOL    HW124824   4.156   4.672  14.205 -3.1498  2.5644  3.1392
 4397SOL    HW224825   4.011   4.679  14.170  1.1364  0.5092  0.4598
 4398SOL     OW24826   1.534   3.202   8.259 -0.1948  0.1196  0.3128
 4398SOL    HW124827   1.576   3.174   8.178 -0.1302  2.7970 -0.5739
 4398SOL    HW224828   1.596   3.185   8.329  1.2825  0.4811 -0.9228
 4399SOL     OW24829   4.233   4.105  14.655  0.0594 -0.6740  0.1504
 4399SOL    HW124830   4.148   4.077  14.622 -0.0948 -1.7844  1.4907
 4399SOL    HW224831   4.230   4.189  14.610 -2.4742 -0.2143  1.1757
 4400SOL     OW24832   1.701   0.956   6.866 -0.0706  0.2369  0.1846
 4400SOL    HW124833   1.648   0.891   6.912 -2.1563  1.4815 -0.4756
 4400SOL    HW224834   1.712   1.020   6.937 -2.0517  0.8751 -0.1076
 4401SOL     OW24835   1.877   0.606   2.195  0.1359 -0.4975 -0.8454
 4401SOL    HW124836   1.785   0.596   2.219  1.1145  1.0047  3.6377
 4401SOL    HW224837   1.912   0.666   2.261  1.0947 -0.2482 -1.5750
 4402SOL     OW24838   0.862   1.510   2.106 -0.5359 -0.3342 -0.1616
 4402SOL    HW124839   0.791   1.558   2.147 -1.0425 -1.2410  0.0211
 4402SOL    HW224840   0.846   1.534   2.014 -2.5951 -0.9641  0.0409
 4403SOL     OW24841   1.861   3.012   8.725  0.0942 -0.3874 -0.1228
 4403SOL    HW124842   1.932   3.055   8.772 -0.3944  0.1425  0.1218
 4403SOL    HW224843   1.866   3.063   8.644 -0.0550  1.4380  1.0103
 4404SOL     OW24844   0.594   4.417   8.367 -0.1379 -0.1828 -0.3542
 4404SOL    HW124845   0.560   4.395   8.280 -0.6565  1.1059 -0.4647
 4404SOL    HW224846   0.630   4.330   8.386 -0.4398 -0.4735 -1.0878
 4405SOL     OW24847   2.330   0.358   3.364 -0.0571 -0.4131  0.4656
 4405SOL    HW124848   2.363   0.269   3.362 -0.8624 -0.6907 -0.5658
 4405SOL    HW224849   2.361   0.393   3.281 -2.4962  2.6694  0.8423
 4406SOL     OW24850   3.178   1.250   8.372 -0.4472  0.0528 -0.1412
 4406SOL    HW124851   3.157   1.334   8.329  1.5403  0.7150  0.1841
 4406SOL    HW224852   3.158   1.277   8.461 -1.0499 -0.5530 -0.0973
 4407SOL     OW24853   2.721   2.103   5.022 -0.0544 -0.0335 -0.3018
 4407SOL    HW124854   2.812   2.095   5.047 -0.0863  0.3805 -0.0592
 4407SOL    HW224855   2.685   2.168   5.082  0.0112 -1.4827  1.3115
 4408SOL     OW24856   2.204   4.431  15.410 -0.5321  1.0616  0.3513
 4408SOL    HW124857   2.150   4.506  15.386 -0.1029  0.9790 -0.9055
 4408SOL    HW224858   2.256   4.431  15.330 -0.0723  0.1367  0.6465
 4409SOL     OW24859   2.296   3.875   0.684 -0.1451  0.2237 -0.7040
 4409SOL    HW124860   2.370   3.834   0.728 -0.7431  1.5903  1.5799
 4409SOL    HW224861   2.332   3.958   0.652  0.3378 -0.2998 -1.5039
 4410SOL     OW24862   2.028   2.974  14.722 -0.3455 -0.4345 -0.9802
 4410SOL    HW124863   1.995   2.927  14.645  2.9252 -0.3164 -2.4839
 4410SOL    HW224864   1.962   2.962  14.789  1.0398  0.2203  0.4953
 4411SOL     OW24865   3.393   1.038   4.598 -0.7459  0.2858  0.2761
 4411SOL    HW124866   3.391   0.945   4.622 -0.7264  0.2819  0.2618
 4411SOL    HW224867   3.322   1.030   4.535 -0.3301 -0.4124 -0.0977
 4412SOL     OW24868   3.034   0.791  12.075 -0.0764 -0.0589  0.3377
 4412SOL    HW124869   3.053   0.839  12.155  1.5443 -0.1046 -0.0206
 4412SOL    HW224870   3.104   0.823  12.018  1.5614 -0.5347  2.0726
 4413SOL     OW24871   0.688   2.162   8.481 -0.5167  0.3183  0.1300
 4413SOL    HW124872   0.682   2.101   8.408  0.9162 -0.7374  0.9058
 4413SOL    HW224873   0.776   2.199   8.473  0.0914 -1.1161  0.2275
 4414SOL     OW24874   0.644   3.704   6.556  0.1663 -0.9118  0.4185
 4414SOL    HW124875   0.731   3.741   6.568 -0.0808  0.5541 -2.4148
 4414SOL    HW224876   0.592   3.768   6.604  0.4138  0.4414 -1.1073
 4415SOL     OW24877   3.288   1.396   6.432  0.7637  0.1767 -0.2055
 4415SOL    HW124878   3.196   1.377   6.450  0.3744  1.6817 -0.6803
 4415SOL    HW224879   3.294   1.485   6.467 -1.8612  0.3911 -0.3272
 4416SOL     OW24880   2.865   0.985  17.151 -0.3506 -0.2087 -0.1328
 4416SOL    HW124881   2.778   0.974  17.111 -1.3132 -0.1083  1.9167
 4416SOL    HW224882   2.834   0.982  17.242  2.5002 -0.2188  0.8216
 4417SOL     OW24883   4.529   1.430   2.065 -0.3584  1.0682  0.1744
 4417SOL    HW124884   4.537   1.382   1.982 -0.6922 -0.6115  1.1271
 4417SOL    HW224885   4.436   1.450   2.078 -0.9599  0.6569 -3.5270
 4418SOL     OW24886   2.319   1.036   8.530  0.0227  0.4190 -0.0886
 4418SOL    HW124887   2.408   1.000   8.529  0.2717  0.9372  3.2318
 4418SOL    HW224888   2.333   1.130   8.544  2.6099 -0.2029  1.4704
 4419SOL     OW24889   0.832   0.427   6.500 -0.4254 -0.1242  0.0050
 4419SOL    HW124890   0.856   0.347   6.547  2.2593  0.8302  0.2920
 4419SOL    HW224891   0.757   0.397   6.449  0.0089  0.6990 -1.1103
 4420SOL     OW24892   2.059   1.027  17.186  0.3488  0.0079  0.1757
 4420SOL    HW124893   2.056   0.933  17.207 -1.1309  0.7976  3.4989
 4420SOL    HW224894   2.060   1.016  17.091 -1.3482 -3.2301  0.5303
 4421SOL     OW24895   4.546   4.323   2.314  0.1220  0.1299  0.0861
 4421SOL    HW124896   4.597   4.370   2.248 -0.3600  1.0214  0.3421
 4421SOL    HW224897   4.455   4.338   2.288 -0.2346  0.3945  1.4939
 4422SOL     OW24898   1.414   1.000   7.375  0.2542  0.2723  0.8136
 4422SOL    HW124899   1.504   1.006   7.407  0.3370  2.0022  0.2664
 4422SOL    HW224900   1.421   0.940   7.300  1.0892 -0.3953  1.4283
 4423SOL     OW24901   2.767   2.620  14.896  0.5273 -0.5455  0.5594
 4423SOL    HW124902   2.704   2.646  14.963  0.6362  0.0544  0.4237
 4423SOL    HW224903   2.843   2.677  14.906  1.6054 -1.9483  0.3928
 4424SOL     OW24904   2.433   1.767   8.961  0.0863 -0.0527 -0.1650
 4424SOL    HW124905   2.479   1.736   9.039 -0.1726  0.0163  0.0179
 4424SOL    HW224906   2.483   1.847   8.944 -2.9376  1.8130 -0.2971
 4425SOL     OW24907   2.272   4.102   6.867 -0.4037 -0.3229  0.5342
 4425SOL    HW124908   2.234   4.114   6.954  1.8965  0.1055  1.4701
 4425SOL    HW224909   2.254   4.008   6.860  1.0812 -0.7168  2.0406
 4426SOL     OW24910   2.512   1.903  13.363 -0.3011  1.0145 -0.0307
 4426SOL    HW124911   2.470   1.818  13.356  1.1488  0.1633  1.4530
 4426SOL    HW224912   2.597   1.896  13.319 -0.9346 -0.3903 -1.0387
 4427SOL     OW24913   4.067   3.697   8.571  0.2765  0.3635  0.2164
 4427SOL    HW124914   4.108   3.615   8.597  1.1864  0.1091 -2.0871
 4427SOL    HW224915   3.984   3.661   8.541  0.9883 -0.2992 -0.9634
 4428SOL     OW24916   0.061   3.246   8.098 -0.1603  0.3271  0.3119
 4428SOL    HW124917   0.025   3.209   8.018 -1.8390 -0.7355  1.5600
 4428SOL    HW224918   0.059   3.341   8.093 -1.4420  0.2499 -0.4813
 4429SOL     OW24919   1.455   4.290   6.413 -0.3724 -0.2076  0.4982
 4429SOL    HW124920   1.475   4.273   6.322 -2.4296  0.6355 -0.1169
 4429SOL    HW224921   1.532   4.251   6.454 -0.7627 -1.1332  0.3426
 4430SOL     OW24922   0.994   4.174  13.285 -0.6072  0.2786  0.7283
 4430SOL    HW124923   0.899   4.176  13.275 -0.6416 -0.2372  0.9201
 4430SOL    HW224924   1.013   4.267  13.288  2.6564 -0.2761 -2.2485
 4431SOL     OW24925   2.159   3.872  14.308 -0.5870  0.1110  0.1448
 4431SOL    HW124926   2.223   3.943  14.303 -1.0261  0.4479 -0.7212
 4431SOL    HW224927   2.197   3.819  14.238 -1.7463  1.0572 -1.2096
 4432SOL     OW24928   0.369   2.036   5.461 -0.0664  0.1283 -0.2286
 4432SOL    HW124929   0.427   1.960   5.474 -0.9104 -0.9458 -2.7046
 4432SOL    HW224930   0.328   2.009   5.379  1.3991 -2.1601 -0.2214
 4433SOL     OW24931   2.226   3.305   1.533 -0.4435  0.3055  0.4967
 4433SOL    HW124932   2.252   3.392   1.563 -1.6996  0.9986 -0.4140
 4433SOL    HW224933   2.222   3.319   1.439 -0.0035 -0.3892  0.3726
 4434SOL     OW24934   4.737   4.145   4.988 -0.4428 -0.1610 -0.2217
 4434SOL    HW124935   4.688   4.143   4.906  1.3846 -0.2179 -1.3130
 4434SOL    HW224936   0.084   4.129   4.953  0.6347 -0.5383  2.6597
 4435SOL     OW24937   3.319   0.689  13.445 -0.3815 -0.4186  0.1962
 4435SOL    HW124938   3.377   0.679  13.520 -1.4864  0.9026  1.2286
 4435SOL    HW224939   3.323   0.604  13.402  0.6317  0.7606 -2.0197
 4436SOL     OW24940   1.434   3.539   5.690 -0.1690  0.3218  0.1949
 4436SOL    HW124941   1.435   3.633   5.672 -0.7943  0.2070 -0.4304
 4436SOL    HW224942   1.342   3.529   5.716 -0.4861  1.6831 -0.4139
 4437SOL     OW24943   0.914   1.161  13.159  0.4936 -1.1024  0.2219
 4437SOL    HW124944   1.005   1.181  13.137  0.8068  0.0971  2.5990
 4437SOL    HW224945   0.899   1.093  13.093 -2.0373  0.0473 -0.3562
 4438SOL     OW24946   2.195   0.709   5.706  0.1945 -0.3434  0.3916
 4438SOL    HW124947   2.169   0.801   5.706  1.0260 -0.1141  2.3743
 4438SOL    HW224948   2.276   0.707   5.757  0.5640  0.3096 -0.1706
 4439SOL     OW24949   3.254   2.375   8.147 -0.1601 -0.2953 -0.7306
 4439SOL    HW124950   3.176   2.322   8.134 -1.1098  0.8521  0.3562
 4439SOL    HW224951   3.232   2.412   8.232 -2.5390 -1.8652 -0.6591
 4440SOL     OW24952   0.687   2.643   0.722 -0.2962 -0.2940 -0.1107
 4440SOL    HW124953   0.767   2.592   0.727  0.8715  1.3975 -1.8111
 4440SOL    HW224954   0.641   2.622   0.804 -1.3008 -0.5665 -0.7397
 4441SOL     OW24955   0.627   2.985  12.468 -0.4229  0.1506 -0.1878
 4441SOL    HW124956   0.552   3.044  12.481 -0.2743  0.2180  0.3623
 4441SOL    HW224957   0.642   2.963  12.560 -1.0070 -0.6345 -0.2843
 4442SOL     OW24958   1.360   1.325   6.320 -0.1519  0.4099  0.3799
 4442SOL    HW124959   1.346   1.234   6.347 -1.0954  0.6769  0.7835
 4442SOL    HW224960   1.436   1.326   6.262 -0.7983 -0.8438 -0.4766
 4443SOL     OW24961   1.313   3.365   8.273  0.1801 -0.1348  0.4421
 4443SOL    HW124962   1.383   3.300   8.280 -1.5985 -1.8070  2.6579
 4443SOL    HW224963   1.230   3.321   8.288  0.3829 -0.2395  1.2622
 4444SOL     OW24964   4.733   2.407  12.760  0.2214 -0.2500  0.1262
 4444SOL    HW124965   0.064   2.442  12.707  2.8675 -0.5650  3.5229
 4444SOL    HW224966   0.022   2.317  12.772 -0.0746 -0.3382  0.2027
 4445SOL     OW24967   3.487   2.690   0.928 -0.1062  0.2139 -0.1070
 4445SOL    HW124968   3.399   2.661   0.903  0.9228 -1.5980 -1.6718
 4445SOL    HW224969   3.500   2.751   0.855 -0.9241 -1.5819 -1.7684
 4446SOL     OW24970   0.435   2.348   4.031  0.0637  0.4428  0.1686
 4446SOL    HW124971   0.496   2.346   4.105 -0.5558  1.2659  0.7056
 4446SOL    HW224972   0.503   2.363   3.966  2.1608  1.0372  2.5026
 4447SOL     OW24973   0.472   3.234  12.476  0.0533  0.1600 -0.4704
 4447SOL    HW124974   0.484   3.290  12.553  0.1389 -1.9399  1.0479
 4447SOL    HW224975   0.387   3.258  12.437 -0.0114 -0.8141 -0.9250
 4448SOL     OW24976   0.506   0.315   5.801  0.4512  0.4716  0.9486
 4448SOL    HW124977   0.450   0.258   5.748  0.1200  2.0578 -0.4140
 4448SOL    HW224978   0.515   0.390   5.742 -0.3239  0.3218  0.6377
 4449SOL     OW24979   2.129   1.529   1.491 -0.1644  0.3895 -0.1312
 4449SOL    HW124980   2.132   1.521   1.587 -4.1252  1.0759  0.0719
 4449SOL    HW224981   2.107   1.621   1.475 -0.1831  0.0744 -1.8883
 4450SOL     OW24982   3.259   2.773   5.587 -0.5864 -0.5165  0.1576
 4450SOL    HW124983   3.340   2.723   5.597 -0.9654 -0.5055  3.2098
 4450SOL    HW224984   3.191   2.719   5.627 -0.8176 -0.7301 -0.5246
 4451SOL     OW24985   2.529   1.837   3.995 -0.0851 -0.3836  0.4557
 4451SOL    HW124986   2.539   1.758   4.049 -0.1713 -0.3354  0.5408
 4451SOL    HW224987   2.620   1.867   4.004  0.9311 -2.5331 -2.2159
 4452SOL     OW24988   0.887   4.650   3.987  0.4572  1.1573  0.5003
 4452SOL    HW124989   0.910   4.665   3.895 -1.0422 -0.3755 -0.1284
 4452SOL    HW224990   0.933   4.568   4.003 -0.2908  0.6739  0.2278
 4453SOL     OW24991   4.693   3.189   6.692 -0.2093  0.3943 -0.8717
 4453SOL    HW124992   4.690   3.246   6.616  1.1908 -0.0471 -1.2539
 4453SOL    HW224993   4.708   3.240   6.771 -0.0496  0.1149 -0.7199
 4454SOL     OW24994   0.581   4.316  14.514  0.1189 -0.0881  0.1018
 4454SOL    HW124995   0.669   4.355  14.518  0.7675 -1.4161 -1.1576
 4454SOL    HW224996   0.530   4.382  14.562  0.0428 -0.9976  1.2728
 4455SOL     OW24997   2.958   2.139   1.562 -0.4263 -0.8747 -0.2395
 4455SOL    HW124998   2.882   2.123   1.506 -0.4386 -1.9275  0.0669
 4455SOL    HW224999   3.022   2.118   1.494  0.9109  0.6350  0.5552
 4456SOL     OW25000   2.786   0.941   1.073 -0.3007  0.5745  0.1943
 4456SOL    HW125001   2.725   0.879   1.033  0.7548 -0.2821 -0.0670
 4456SOL    HW225002   2.748   1.019   1.032 -1.8697  0.2372  1.0249
 4457SOL     OW25003   1.647   3.622   8.057  0.1998 -0.2492  0.5345
 4457SOL    HW125004   1.683   3.533   8.064 -1.2029 -0.7841  0.8984
 4457SOL    HW225005   1.555   3.608   8.077  0.2419  0.3593  1.1381
 4458SOL     OW25006   3.823   4.252   1.467  0.6247  0.0826  0.4104
 4458SOL    HW125007   3.802   4.198   1.390 -0.4502 -0.8304  1.3577
 4458SOL    HW225008   3.833   4.335   1.420  2.9683  0.6653  1.9737
 4459SOL     OW25009   2.834   3.588   3.737 -0.2096  0.2292 -0.7944
 4459SOL    HW125010   2.929   3.590   3.731 -0.1458 -3.0132 -1.1531
 4459SOL    HW225011   2.805   3.605   3.647 -1.1661 -1.4587 -0.8201
 4460SOL     OW25012   1.647   1.343   2.708 -0.2213  0.1284  0.3213
 4460SOL    HW125013   1.554   1.340   2.686 -0.4629 -2.2417  1.7107
 4460SOL    HW225014   1.680   1.254   2.720 -1.2716 -0.0017  2.1883
 4461SOL     OW25015   2.363   3.093   1.688  0.4948 -0.2102  0.0476
 4461SOL    HW125016   2.423   3.096   1.614  0.1105  1.9131 -0.1799
 4461SOL    HW225017   2.314   3.169   1.653 -0.5877 -0.6378  0.6285
 4462SOL     OW25018   2.718   3.312   4.874  0.2056 -0.5540  0.0732
 4462SOL    HW125019   2.752   3.397   4.902 -0.5171  0.4389 -2.0860
 4462SOL    HW225020   2.741   3.314   4.781  1.6955  0.4675  0.4765
 4463SOL     OW25021   2.335   0.004  13.802  0.0163 -0.1131  0.2133
 4463SOL    HW125022   2.420   0.014  13.759  0.6718 -0.1302  1.4809
 4463SOL    HW225023   2.309   0.096  13.801 -0.7653 -0.3494 -0.4606
 4464SOL     OW25024   3.188   3.088  11.450 -0.3646 -0.1215  0.0515
 4464SOL    HW125025   3.215   3.179  11.460  0.1842 -0.2968  0.1494
 4464SOL    HW225026   3.118   3.084  11.514  0.7581 -0.8921  1.2317
 4465SOL     OW25027   0.850   4.139  11.893  0.7777  0.1274  0.0928
 4465SOL    HW125028   0.832   4.056  11.848 -3.0191  1.4926 -0.8638
 4465SOL    HW225029   0.941   4.123  11.917  0.2603 -0.6057  1.5543
 4466SOL     OW25030   3.851   3.091   5.505 -0.3156  0.2482 -0.1856
 4466SOL    HW125031   3.887   3.143   5.433  0.3753 -1.6599 -1.2117
 4466SOL    HW225032   3.925   3.092   5.566 -1.1792  1.1464  0.8580
 4467SOL     OW25033   3.999   4.533   2.845 -0.3970 -0.7870  0.4613
 4467SOL    HW125034   3.982   4.531   2.940  1.2131 -0.2019  0.7636
 4467SOL    HW225035   4.054   4.611   2.836 -0.9142 -0.4047  0.6181
 4468SOL     OW25036   2.334   1.625   6.785  0.6159  0.3548 -0.0088
 4468SOL    HW125037   2.255   1.581   6.751  2.6242 -0.9779 -2.9914
 4468SOL    HW225038   2.372   1.561   6.845  0.5248  0.6069  0.3187
 4469SOL     OW25039   0.502   3.818  14.864 -0.0564  0.0416 -0.1994
 4469SOL    HW125040   0.567   3.837  14.932  1.5616 -1.0451 -1.4876
 4469SOL    HW225041   0.418   3.838  14.906 -0.0257  3.3379 -1.7316
 4470SOL     OW25042   2.163   1.521  12.501 -0.0408  0.2143 -0.0779
 4470SOL    HW125043   2.170   1.426  12.510 -0.2947  0.3127  1.2330
 4470SOL    HW225044   2.244   1.534  12.451  0.4006  1.8543  1.0550
 4471SOL     OW25045   2.937   4.703   9.478 -0.1719 -0.6825 -0.1687
 4471SOL    HW125046   2.995   4.651   9.533  4.0673  0.5539 -3.4066
 4471SOL    HW225047   2.990   0.032   9.438 -0.9229 -0.2180 -0.3468
 4472SOL     OW25048   0.838   0.994  11.549 -0.3122  0.1332 -0.7019
 4472SOL    HW125049   0.804   1.048  11.620 -0.7833 -0.4484 -0.4913
 4472SOL    HW225050   0.841   1.063  11.482 -2.1782  0.7235 -0.1650
 4473SOL     OW25051   2.923   0.187   3.485  0.2725  0.3710 -0.3155
 4473SOL    HW125052   2.914   0.265   3.540  0.9573  1.2464 -1.4550
 4473SOL    HW225053   2.831   0.160   3.488  0.7020 -0.8459  2.0896
 4474SOL     OW25054   1.204   0.596   7.739  0.1633 -0.0126 -0.1871
 4474SOL    HW125055   1.221   0.634   7.653  0.0909  0.9903  0.2365
 4474SOL    HW225056   1.281   0.544   7.760 -0.1761 -0.1656  0.6562
 4475SOL     OW25057   0.755   0.082   3.081 -0.1252  0.0857 -0.2511
 4475SOL    HW125058   0.775   0.107   2.991 -1.7517 -2.1280 -1.2623
 4475SOL    HW225059   0.838   0.111   3.117  0.1322 -1.9259  0.7873
 4476SOL     OW25060   3.942   4.684  17.286  0.0026 -0.2915  0.3698
 4476SOL    HW125061   4.031   4.657  17.308  0.0092 -0.4679  0.1322
 4476SOL    HW225062   3.955   0.010  17.218  0.1944  1.1278  1.7779
 4477SOL     OW25063   2.935   2.269   2.013  0.0975 -0.2744  0.7336
 4477SOL    HW125064   2.921   2.185   1.969 -0.5008  0.3951 -0.3524
 4477SOL    HW225065   2.937   2.236   2.103 -1.6952 -1.4270  0.3442
 4478SOL     OW25066   2.166   3.847   6.821 -0.4083  0.1922 -0.0367
 4478SOL    HW125067   2.087   3.881   6.777 -0.6773 -2.1880 -1.3658
 4478SOL    HW225068   2.165   3.755   6.795 -2.4857  0.6806 -1.6763
 4479SOL     OW25069   1.532   2.167   4.436 -0.4980 -0.0410  0.7684
 4479SOL    HW125070   1.509   2.235   4.372  2.2241  0.3457  0.1915
 4479SOL    HW225071   1.498   2.089   4.393 -0.3596  1.3384 -1.8039
 4480SOL     OW25072   3.723   1.747   7.578 -0.0384  0.1246  0.4668
 4480SOL    HW125073   3.703   1.761   7.671  1.3292  0.4525  0.7099
 4480SOL    HW225074   3.643   1.703   7.551 -0.3276 -0.6485  2.5576
 4481SOL     OW25075   0.800   4.254   6.572 -0.1806 -0.5062 -0.0796
 4481SOL    HW125076   0.769   4.175   6.528 -0.3728  0.0844 -1.0198
 4481SOL    HW225077   0.796   4.231   6.664 -1.3351 -1.9527 -0.4953
 4482SOL     OW25078   3.821   3.371  11.083 -0.1677 -0.2218  0.1407
 4482SOL    HW125079   3.795   3.324  11.162  0.5802 -1.9473 -0.6408
 4482SOL    HW225080   3.800   3.460  11.110 -0.4823  0.4194 -2.2211
 4483SOL     OW25081   4.578   1.311   9.615 -0.0178 -0.7927  0.2119
 4483SOL    HW125082   4.632   1.329   9.537 -1.3957  0.6407 -0.4156
 4483SOL    HW225083   4.616   1.229   9.645 -1.2626 -1.7675 -0.8269
 4484SOL     OW25084   3.731   2.869   2.227 -0.0103  0.2751 -0.0944
 4484SOL    HW125085   3.803   2.900   2.172 -1.1795  0.6444 -1.4020
 4484SOL    HW225086   3.706   2.946   2.278 -1.5792 -0.1770 -0.1778
 4485SOL     OW25087   1.847   1.654   5.903  0.0783  0.2640 -0.7637
 4485SOL    HW125088   1.842   1.744   5.870  1.6675  0.8016  0.5117
 4485SOL    HW225089   1.933   1.632   5.866 -0.0807  0.5927 -1.3377
 4486SOL     OW25090   4.716   3.429   2.393  0.2191 -0.4859  0.2581
 4486SOL    HW125091   4.731   3.426   2.488  2.0481  3.8945  0.1041
 4486SOL    HW225092   0.019   3.509   2.365 -1.9477  0.9236  0.9322
 4487SOL     OW25093   3.408   0.147  15.937 -0.2570  0.0632 -0.5551
 4487SOL    HW125094   3.422   0.085  16.008 -0.3696  1.6971  0.8946
 4487SOL    HW225095   3.321   0.176  15.966 -0.5702 -1.9405  0.4691
 4488SOL     OW25096   1.566   2.471   7.749  0.1182  0.4691  0.2392
 4488SOL    HW125097   1.550   2.508   7.662 -0.6415 -1.5051 -0.4611
 4488SOL    HW225098   1.564   2.544   7.811  0.9349  1.0252 -0.3798
 4489SOL     OW25099   2.520   2.590   6.601 -0.7097  0.1213 -0.1698
 4489SOL    HW125100   2.589   2.525   6.589 -2.0217 -1.6603  1.8434
 4489SOL    HW225101   2.538   2.617   6.692 -1.4881 -0.9882  0.3132
 4490SOL     OW25102   2.344   3.387  16.209  0.4481 -0.3070  0.5829
 4490SOL    HW125103   2.437   3.368  16.213  0.6786  0.9536  1.0831
 4490SOL    HW225104   2.334   3.453  16.277 -1.9951  0.5385 -0.5690
 4491SOL     OW25105   3.508   4.086   6.855 -0.6433  0.1628 -0.0033
 4491SOL    HW125106   3.427   4.137   6.850 -0.4853  0.3752 -0.3830
 4491SOL    HW225107   3.551   4.113   6.774 -0.5119  0.8106  0.2802
 4492SOL     OW25108   3.066   0.977  16.759 -0.2906  0.0721 -0.4895
 4492SOL    HW125109   3.134   0.987  16.693  0.8210 -1.0253  0.5100
 4492SOL    HW225110   3.012   0.908  16.722  2.3496 -1.2184 -1.8612
 4493SOL     OW25111   1.911   1.531  16.576  0.1005  0.3789  0.3999
 4493SOL    HW125112   1.924   1.529  16.481 -1.1246 -0.0898  0.2395
 4493SOL    HW225113   1.863   1.614  16.577 -2.1280 -0.8926  0.7154
 4494SOL     OW25114   3.249   2.649  10.676 -0.2606 -0.3625 -0.6981
 4494SOL    HW125115   3.299   2.671  10.755  1.6082 -1.1369 -1.6826
 4494SOL    HW225116   3.233   2.733  10.633  0.4794 -0.3632 -0.9652
 4495SOL     OW25117   3.347   3.254  15.104 -0.2927 -0.4505  0.3619
 4495SOL    HW125118   3.291   3.271  15.028  0.5238  1.8194  0.2701
 4495SOL    HW225119   3.342   3.160  15.090  0.3176 -0.4335  0.0390
 4496SOL     OW25120   3.442   2.815   6.634  0.1840  0.2964 -0.1668
 4496SOL    HW125121   3.389   2.742   6.667 -1.5490  1.6896  0.0916
 4496SOL    HW225122   3.525   2.772   6.655  0.6788  0.9095 -0.8729
 4497SOL     OW25123   3.739   3.317   2.156  0.3953  0.1606  0.2018
 4497SOL    HW125124   3.678   3.332   2.084  0.3323  1.1638  0.4623
 4497SOL    HW225125   3.707   3.381   2.219  0.7402  1.1655 -0.6483
 4498SOL     OW25126   3.487   3.013   2.093  0.4142 -0.1885  0.9816
 4498SOL    HW125127   3.508   3.027   2.185  1.3873 -0.2788  0.7728
 4498SOL    HW225128   3.573   3.004   2.052  0.4095  3.5241  0.1711
 4499SOL     OW25129   1.869   0.358   2.606  0.1580  0.1382  0.0078
 4499SOL    HW125130   1.786   0.401   2.628  0.4187  0.0904  1.0960
 4499SOL    HW225131   1.832   0.297   2.542  1.2044 -0.0993 -0.3777
 4500SOL     OW25132   1.695   0.347   7.826  0.1639  0.2657  0.3154
 4500SOL    HW125133   1.769   0.342   7.887  1.7437 -1.5849 -1.7747
 4500SOL    HW225134   1.699   0.253   7.812  0.6853  0.4033 -0.4230
 4501SOL     OW25135   0.481   2.870   2.879  0.2908 -0.1047 -0.8866
 4501SOL    HW125136   0.444   2.940   2.826  1.4098  0.0482 -1.4792
 4501SOL    HW225137   0.411   2.845   2.939  2.0404  0.5679  1.3982
 4502SOL     OW25138   4.390   2.176   5.001 -0.0413 -0.2267  0.1595
 4502SOL    HW125139   4.344   2.133   5.074 -1.1834 -0.0790 -0.4657
 4502SOL    HW225140   4.322   2.221   4.952 -3.2397 -3.6445  1.3674
 4503SOL     OW25141   4.168   0.764   2.615  0.3214  0.0493  0.3162
 4503SOL    HW125142   4.208   0.846   2.588  0.0552  0.3984  0.9652
 4503SOL    HW225143   4.239   0.700   2.628 -0.5212 -0.0735  4.3329
 4504SOL     OW25144   2.664   4.306  13.275 -0.3893  0.0211 -0.2074
 4504SOL    HW125145   2.629   4.357  13.348 -0.2392  1.1125 -0.9030
 4504SOL    HW225146   2.642   4.214  13.294  0.1248  0.2002  1.3077
 4505SOL     OW25147   4.507   1.425  10.386 -0.3128 -0.1229  0.7130
 4505SOL    HW125148   4.474   1.452  10.472  1.7005  0.3657  1.3171
 4505SOL    HW225149   4.600   1.440  10.402 -0.2950  0.3824  0.1804
 4506SOL     OW25150   3.536   1.694   5.750 -0.4537 -0.2667 -0.4537
 4506SOL    HW125151   3.589   1.742   5.686 -0.3167 -0.3234 -0.3808
 4506SOL    HW225152   3.451   1.738   5.744 -1.2551 -1.6834  0.5401
 4507SOL     OW25153   2.205   0.636   7.613  0.3894  0.3323 -0.0509
 4507SOL    HW125154   2.276   0.697   7.633 -0.3008  1.3964 -0.8762
 4507SOL    HW225155   2.251   0.552   7.614  0.7632  0.5292 -3.0580
 4508SOL     OW25156   1.543   4.248   7.352 -0.0279 -0.5891  0.3458
 4508SOL    HW125157   1.524   4.323   7.409  3.1622  0.7198 -0.2718
 4508SOL    HW225158   1.482   4.264   7.280  0.4336 -1.7328 -0.2928
 4509SOL     OW25159   2.379   2.828  11.955  0.1356  0.2039 -0.3348
 4509SOL    HW125160   2.321   2.786  12.019  2.1283 -1.3002  0.4916
 4509SOL    HW225161   2.459   2.826  12.007  0.7572  0.2226 -1.2904
 4510SOL     OW25162   3.879   1.084   5.135  0.0627  0.0844  0.5133
 4510SOL    HW125163   3.950   1.147   5.144  0.9329 -0.8649  0.3074
 4510SOL    HW225164   3.911   1.016   5.195  0.6120  0.0409  0.1666
 4511SOL     OW25165   1.434   4.234  16.265  0.6405  0.3339 -0.3598
 4511SOL    HW125166   1.361   4.173  16.262  0.5468  0.6505 -4.3483
 4511SOL    HW225167   1.414   4.281  16.346  0.5864  0.9926 -0.7535
 4512SOL     OW25168   0.140   4.653   7.265  0.3091 -0.0294 -0.2722
 4512SOL    HW125169   0.155   4.626   7.174 -1.0366 -0.6799 -0.2988
 4512SOL    HW225170   0.052   4.691   7.261  0.1331 -0.5804 -1.7987
 4513SOL     OW25171   1.350   1.785   5.884 -0.1445 -0.0081  0.0085
 4513SOL    HW125172   1.430   1.797   5.833  1.1089 -1.0738  1.7433
 4513SOL    HW225173   1.379   1.787   5.975  0.0071 -0.1692 -0.0360
 4514SOL     OW25174   4.084   1.712   2.077 -0.1163  0.2462 -0.2023
 4514SOL    HW125175   4.116   1.683   1.992  0.7235  1.2307 -0.2317
 4514SOL    HW225176   4.023   1.783   2.057 -0.4413  0.1410  0.4227
 4515SOL     OW25177   3.288   0.516  12.578  0.1024 -0.1335  0.1767
 4515SOL    HW125178   3.381   0.513  12.601  0.2929 -0.4068 -0.6331
 4515SOL    HW225179   3.271   0.422  12.584 -1.7129  0.1839  0.0214
 4516SOL     OW25180   1.063   3.515   3.551 -0.2994 -0.5469  0.4730
 4516SOL    HW125181   1.107   3.581   3.496  1.2937 -1.3677  0.7741
 4516SOL    HW225182   0.988   3.487   3.499 -0.5059 -1.0885  1.0709
 4517SOL     OW25183   0.404   1.969   9.934 -0.5083 -0.4712 -0.4541
 4517SOL    HW125184   0.327   1.917   9.957 -1.5570  1.3740  0.1564
 4517SOL    HW225185   0.363   2.045   9.891 -1.7465 -0.4884  0.6893
 4518SOL     OW25186   3.815   4.424   6.682 -0.3921 -0.0871 -0.4754
 4518SOL    HW125187   3.784   4.514   6.687 -0.1134 -0.0036 -0.2691
 4518SOL    HW225188   3.901   4.428   6.724 -1.7201 -0.2744  2.2620
 4519SOL     OW25189   0.902   2.474   3.697  0.1373  0.3678  0.3567
 4519SOL    HW125190   0.906   2.379   3.690  2.3452  0.4184  1.0365
 4519SOL    HW225191   0.916   2.504   3.608  1.7571  2.3936  1.3078
 4520SOL     OW25192   0.376   1.275   9.776  0.1225 -0.0204 -0.5845
 4520SOL    HW125193   0.435   1.201   9.761 -0.3570  0.0386 -2.7106
 4520SOL    HW225194   0.314   1.251   9.845 -0.1246 -0.4427 -0.9539
 4521SOL     OW25195   4.463   1.328   1.806  0.1022  0.2951 -0.0493
 4521SOL    HW125196   4.481   1.234   1.808 -0.3659  0.1781 -1.1368
 4521SOL    HW225197   4.384   1.337   1.752 -0.1510  0.6896  0.3813
 4522SOL     OW25198   3.722   3.912   2.772  0.2800 -0.0866 -0.2458
 4522SOL    HW125199   3.743   4.004   2.755 -3.3656  0.3916 -2.0913
 4522SOL    HW225200   3.753   3.895   2.861  1.0539  1.2028 -0.2677
 4523SOL     OW25201   1.433   2.333  13.143  0.3910 -0.1987  0.3424
 4523SOL    HW125202   1.415   2.333  13.049 -1.2098  2.8151  0.6591
 4523SOL    HW225203   1.384   2.256  13.172  1.8692 -1.4366 -0.4164
 4524SOL     OW25204   0.427   0.076  17.282  0.2622 -0.3454  0.6306
 4524SOL    HW125205   0.397   0.062  17.371 -0.7415 -3.1554 -0.1567
 4524SOL    HW225206   0.364   0.026  17.231  2.2715 -1.2304 -1.0311
 4525SOL     OW25207   2.743   3.772   9.184  0.6895  0.1637  0.1545
 4525SOL    HW125208   2.760   3.714   9.258  2.5725 -1.0958 -1.2671
 4525SOL    HW225209   2.659   3.804   9.216  0.1756 -1.2452  0.1802
 4526SOL     OW25210   1.897   3.150   7.908 -0.7691  0.9299 -0.6072
 4526SOL    HW125211   1.913   3.143   7.814 -1.6177  0.0412 -0.6920
 4526SOL    HW225212   1.977   3.161   7.959 -1.1029 -0.9991  0.3615
 4527SOL     OW25213   0.913   1.101   2.731 -0.0143 -0.1190 -0.4569
 4527SOL    HW125214   0.824   1.072   2.752  0.5046 -0.5717  1.1306
 4527SOL    HW225215   0.942   1.114   2.821 -0.9987 -1.1422  0.0103
 4528SOL     OW25216   4.727   3.407   2.677  0.3023 -0.2398 -0.0234
 4528SOL    HW125217   4.632   3.421   2.674  0.2862 -0.1669  0.8105
 4528SOL    HW225218   0.013   3.495   2.702  0.4521 -0.5194  0.7738
 4529SOL     OW25219   4.288   1.916  16.374  0.6508 -0.7355 -0.1023
 4529SOL    HW125220   4.228   1.959  16.314 -0.0253 -0.7750  0.5469
 4529SOL    HW225221   4.284   1.974  16.450  1.3058 -0.6104 -0.1605
 4530SOL     OW25222   4.305   2.133   0.100 -0.6312 -0.3870 -0.0257
 4530SOL    HW125223   4.363   2.057   0.109  0.9488  0.8793  0.6499
 4530SOL    HW225224   4.234   2.101   0.156 -0.8544  0.3725  0.1319
 4531SOL     OW25225   2.772   3.116  15.681  0.1423  0.3474  0.6372
 4531SOL    HW125226   2.835   3.082  15.744  0.6790 -2.1215 -1.2431
 4531SOL    HW225227   2.690   3.078  15.712  0.9749 -0.7754  1.4530
 4532SOL     OW25228   0.695   1.576   7.854  0.0097 -0.1164 -0.1903
 4532SOL    HW125229   0.661   1.652   7.902  1.4246  0.6586 -0.4452
 4532SOL    HW225230   0.616   1.525   7.835  0.1484 -0.8109  1.0616
 4533SOL     OW25231   2.736   2.771   6.102  0.3651 -0.0661  0.4416
 4533SOL    HW125232   2.769   2.723   6.025  0.1596  0.5400 -0.0198
 4533SOL    HW225233   2.804   2.747   6.165 -0.2550 -0.4550  0.9588
 4534SOL     OW25234   1.209   1.665  11.983 -0.0629 -0.2250 -0.2826
 4534SOL    HW125235   1.296   1.625  11.971 -0.3806 -1.2424  0.8696
 4534SOL    HW225236   1.181   1.615  12.059 -3.3844 -0.2192 -1.5346
 4535SOL     OW25237   3.129   0.157   9.360 -0.0919  0.4680  0.2049
 4535SOL    HW125238   3.075   0.201   9.295 -1.3444 -2.1310 -0.5336
 4535SOL    HW225239   3.192   0.104   9.311  0.7000  1.3708  0.2719
 4536SOL     OW25240   3.750   2.954  13.773 -0.2464  0.4042  0.3018
 4536SOL    HW125241   3.699   2.878  13.802  0.7450  0.5781  2.4954
 4536SOL    HW225242   3.696   3.007  13.713  0.1935  0.4381 -0.0637
 4537SOL     OW25243   2.892   1.650   3.844  0.2865  0.1941  0.2176
 4537SOL    HW125244   2.862   1.564   3.875  1.1967 -0.6534 -1.2384
 4537SOL    HW225245   2.953   1.638   3.771  0.4434 -1.1460  0.5630
 4538SOL     OW25246   4.100   1.304   3.505  0.0980  0.0997  0.1036
 4538SOL    HW125247   4.145   1.327   3.586 -0.0986  1.8199 -0.2867
 4538SOL    HW225248   4.013   1.271   3.524 -0.1211  1.6278  1.6869
 4539SOL     OW25249   0.699   0.550   6.811 -0.2244 -0.1608 -0.4621
 4539SOL    HW125250   0.660   0.499   6.740 -0.3674  0.4057 -0.7924
 4539SOL    HW225251   0.628   0.605   6.843  0.2041  0.0429  0.1489
 4540SOL     OW25252   4.221   3.931  11.729  0.5027  0.6095  0.8799
 4540SOL    HW125253   4.211   3.961  11.638  0.5416  0.9848  1.0014
 4540SOL    HW225254   4.203   3.838  11.713  1.0211  0.2971  2.1851
 4541SOL     OW25255   2.465   1.009   2.641  0.5532  0.1704 -0.0908
 4541SOL    HW125256   2.409   1.061   2.699 -0.8010  0.1666 -1.3860
 4541SOL    HW225257   2.542   1.063   2.626 -0.0220  0.9176 -0.3677
 4542SOL     OW25258   1.432   0.801   2.794  0.5672  0.5063  0.3956
 4542SOL    HW125259   1.520   0.777   2.821  0.8763  2.7448  1.3986
 4542SOL    HW225260   1.413   0.881   2.843 -2.8979 -0.2423  0.2958
 4543SOL     OW25261   1.410   3.915   8.881 -0.0985  0.1864 -0.3678
 4543SOL    HW125262   1.317   3.895   8.866 -0.0560  0.4820 -1.0107
 4543SOL    HW225263   1.451   3.838   8.841  2.5691  0.5953  1.6190
 4544SOL     OW25264   4.272   0.692   9.522  0.0029 -0.2777 -0.3708
 4544SOL    HW125265   4.265   0.760   9.455  0.5675  0.0491 -0.0959
 4544SOL    HW225266   4.293   0.616   9.469  0.5238  0.4403 -1.1925
 4545SOL     OW25267   2.974   0.794  16.347  0.0395  0.6646 -0.6480
 4545SOL    HW125268   2.952   0.809  16.439 -0.8472  1.6436 -1.0226
 4545SOL    HW225269   3.069   0.803  16.353 -0.2130  0.5350  3.0721
 4546SOL     OW25270   1.018   3.630   7.707  0.9176 -0.0430 -0.1985
 4546SOL    HW125271   0.928   3.607   7.684  0.2788  0.7104  1.5860
 4546SOL    HW225272   1.052   3.541   7.695  0.2338 -0.4446  0.8259
 4547SOL     OW25273   2.117   1.324   6.415 -0.6241  0.0937 -0.6760
 4547SOL    HW125274   2.110   1.282   6.329 -1.6733 -1.3639  0.1501
 4547SOL    HW225275   2.073   1.262   6.471 -0.7803 -0.9479 -1.9558
 4548SOL     OW25276   4.249   0.269   2.485 -0.1437 -0.2379  0.0676
 4548SOL    HW125277   4.270   0.212   2.558 -0.9227  0.1521  0.5972
 4548SOL    HW225278   4.164   0.302   2.513 -0.4014 -0.3340 -0.5955
 4549SOL     OW25279   2.913   1.461   0.124 -0.4940 -0.1498 -0.1695
 4549SOL    HW125280   2.827   1.484   0.087 -0.6139 -1.7477 -0.8575
 4549SOL    HW225281   2.943   1.411   0.049  0.8766 -0.3429  0.5028
 4550SOL     OW25282   3.434   1.909  11.228  0.8643  0.0709 -0.3450
 4550SOL    HW125283   3.409   1.998  11.204 -3.4120 -0.8668  0.5609
 4550SOL    HW225284   3.363   1.887  11.290  0.9271  0.8389 -0.0004
 4551SOL     OW25285   1.126   2.852  16.898  0.9709  0.0866 -0.7059
 4551SOL    HW125286   1.175   2.788  16.950 -1.0217 -2.2496 -1.7162
 4551SOL    HW225287   1.093   2.798  16.826 -1.7863  1.1301 -0.2243
 4552SOL     OW25288   1.244   1.849   7.688  0.0318  0.0846  0.1274
 4552SOL    HW125289   1.167   1.860   7.632  0.2747  0.0651 -0.2119
 4552SOL    HW225290   1.283   1.763   7.672  0.1881  0.2583 -0.4182
 4553SOL     OW25291   3.891   0.047   4.634  0.9060 -0.4563 -0.2600
 4553SOL    HW125292   3.957   0.114   4.649 -0.3233  0.6072  0.4410
 4553SOL    HW225293   3.848   0.050   4.719 -2.2753  0.4050 -1.8902
 4554SOL     OW25294   0.958   3.762   3.840  0.3367  0.5722  0.2975
 4554SOL    HW125295   1.041   3.756   3.792 -1.1608  0.7752 -2.2810
 4554SOL    HW225296   0.953   3.673   3.876  0.9195  0.5388  0.2936
 4555SOL     OW25297   4.504   1.476  10.075 -0.1810  0.4800  0.4001
 4555SOL    HW125298   4.466   1.497  10.160  0.8613 -0.6475  1.1378
 4555SOL    HW225299   4.446   1.416  10.028  0.9208 -0.5414  0.3663
 4556SOL     OW25300   0.862   0.765   3.591 -0.2126 -0.4153 -0.4043
 4556SOL    HW125301   0.948   0.724   3.578 -0.9479 -2.4574  1.0688
 4556SOL    HW225302   0.840   0.760   3.684  0.9349 -0.2269 -0.1245
 4557SOL     OW25303   3.226   2.653   3.448 -0.4539 -0.2973  0.1478
 4557SOL    HW125304   3.219   2.673   3.355  0.9492 -0.7865 -0.0545
 4557SOL    HW225305   3.243   2.560   3.441  1.5237  0.2398 -1.9799
 4558SOL     OW25306   3.747   0.235   3.426 -0.1234 -0.2195 -0.3801
 4558SOL    HW125307   3.669   0.289   3.431 -0.3479 -0.4930 -0.9949
 4558SOL    HW225308   3.817   0.293   3.457 -0.7494  0.5188 -0.3575
 4559SOL     OW25309   3.804   4.172  15.022  0.3370  0.6253 -0.0393
 4559SOL    HW125310   3.874   4.170  14.957 -1.6904 -0.4417 -2.1427
 4559SOL    HW225311   3.858   4.171  15.102  2.3206  2.8474 -1.3583
 4560SOL     OW25312   1.813   3.776   7.910  0.1481 -0.8906 -0.1472
 4560SOL    HW125313   1.749   3.834   7.869  0.1359 -0.4560  0.4901
 4560SOL    HW225314   1.751   3.735   7.970 -0.7411  1.5437  0.5735
 4561SOL     OW25315   1.016   3.672   7.284  0.1790 -0.1538 -0.0430
 4561SOL    HW125316   1.103   3.677   7.325  0.6347 -1.2502 -0.8400
 4561SOL    HW225317   1.033   3.658   7.190  0.6905 -2.1463  0.3430
 4562SOL     OW25318   1.285   3.090   9.892 -0.1825  0.8612 -0.0604
 4562SOL    HW125319   1.352   3.043   9.841 -1.2953 -0.2044 -0.5283
 4562SOL    HW225320   1.306   3.183   9.883  2.2324  0.4255  0.8483
 4563SOL     OW25321   0.418   4.650   8.165 -0.5823  0.0563  0.1642
 4563SOL    HW125322   0.408   4.637   8.259  2.1708  0.0572  0.4399
 4563SOL    HW225323   0.416   4.560   8.130  3.6916  0.0785 -0.1132
 4564SOL     OW25324   2.313   0.309   1.524  0.2171 -0.0478  0.5003
 4564SOL    HW125325   2.384   0.366   1.493  0.5930 -0.6052  0.3360
 4564SOL    HW225326   2.363   0.244   1.574  0.7969 -0.3519 -0.4689
 4565SOL     OW25327   0.878   1.570   1.526 -0.5187  0.4379 -0.1600
 4565SOL    HW125328   0.867   1.648   1.470  1.4373  0.7943 -0.0379
 4565SOL    HW225329   0.961   1.589   1.569 -1.6882  3.2043  0.8721
 4566SOL     OW25330   4.501   4.193   2.042 -0.1041  0.1899  0.0107
 4566SOL    HW125331   4.457   4.246   1.976  0.6489  0.2675 -0.4271
 4566SOL    HW225332   4.430   4.134   2.068  1.0602 -1.1250  0.1921
 4567SOL     OW25333   4.497   3.178  12.074 -0.2186  0.0271 -0.7760
 4567SOL    HW125334   4.494   3.183  11.979 -0.1704 -2.4377 -0.8996
 4567SOL    HW225335   4.547   3.100  12.099 -0.1459 -0.2605 -1.8410
 4568SOL     OW25336   2.295   0.835  17.098 -1.0213  0.0643 -0.1230
 4568SOL    HW125337   2.224   0.816  17.160  0.6342  0.5231  1.9198
 4568SOL    HW225338   2.364   0.846  17.164 -2.0039  0.0270  0.9195
 4569SOL     OW25339   2.804   0.782   6.673 -0.4518  0.5336 -0.3423
 4569SOL    HW125340   2.831   0.874   6.677 -4.2756  1.7578 -2.4972
 4569SOL    HW225341   2.883   0.728   6.674 -2.1944 -2.0082 -0.4937
 4570SOL     OW25342   4.235   1.934   7.697  0.4387 -0.7171  0.0318
 4570SOL    HW125343   4.250   2.025   7.723 -0.5022 -0.6809  0.4621
 4570SOL    HW225344   4.211   1.887   7.776  0.3022 -0.2076  0.2977
 4571SOL     OW25345   3.984   2.527  13.825  0.4424  0.1009 -0.5666
 4571SOL    HW125346   3.979   2.540  13.730  2.5485  2.0276 -0.4139
 4571SOL    HW225347   4.076   2.526  13.851  0.1539  1.5014  0.4995
 4572SOL     OW25348   4.032   3.295   9.157 -0.1138  0.1108 -0.2170
 4572SOL    HW125349   4.077   3.336   9.083  0.4822  1.2830  0.7930
 4572SOL    HW225350   4.036   3.377   9.206  2.0244 -0.7845  1.0992
 4573SOL     OW25351   1.956   1.493   3.853 -0.1180 -0.4115  0.2828
 4573SOL    HW125352   1.907   1.566   3.892 -1.2293  0.2668 -2.3584
 4573SOL    HW225353   1.883   1.432   3.843 -0.3249 -0.1980  0.4502
 4574SOL     OW25354   2.575   0.986   8.552 -0.7863  0.3366  1.0925
 4574SOL    HW125355   2.640   0.948   8.493 -1.5647  0.3323  0.2470
 4574SOL    HW225356   2.625   1.031   8.620 -1.5619 -0.5881  2.2770
 4575SOL     OW25357   2.424   4.377   9.637 -0.5821 -0.1075  0.0773
 4575SOL    HW125358   2.426   4.368   9.542  1.3515 -0.1166  0.1151
 4575SOL    HW225359   2.402   4.470   9.634  0.9052  0.2043 -1.3895
 4576SOL     OW25360   0.039   2.827  16.709 -0.1059 -0.1424  0.2027
 4576SOL    HW125361   0.031   2.799  16.800  1.1659 -2.0899 -0.3016
 4576SOL    HW225362   4.695   2.870  16.696  0.5571  1.4669  1.1886
 4577SOL     OW25363   2.205   1.786  12.933  0.1585 -0.0322  0.1140
 4577SOL    HW125364   2.216   1.712  12.873  1.0346 -0.0037  0.2277
 4577SOL    HW225365   2.254   1.850  12.882  2.8323 -0.9168  1.5445
 4578SOL     OW25366   4.520   2.168  13.560  0.0943  0.1653  0.0271
 4578SOL    HW125367   4.439   2.173  13.611 -0.0273  0.9815 -0.2569
 4578SOL    HW225368   4.545   2.260  13.554 -2.6145  1.0335  1.9702
 4579SOL     OW25369   2.788   2.145   3.041  0.0068  0.0782 -0.5100
 4579SOL    HW125370   2.789   2.239   3.021 -2.5219 -0.0537 -1.2663
 4579SOL    HW225371   2.857   2.103   2.990  0.7545 -0.1261  0.6514
 4580SOL     OW25372   4.613   1.663   5.209 -0.1608  0.5950  0.0124
 4580SOL    HW125373   4.645   1.595   5.269 -0.6357  0.6551  0.3365
 4580SOL    HW225374   4.539   1.699   5.259 -1.1488 -3.5028  1.5291
 4581SOL     OW25375   4.436   3.031   5.530 -0.6055  0.4575  0.0228
 4581SOL    HW125376   4.418   3.054   5.622  1.5223  0.0721  0.5411
 4581SOL    HW225377   4.493   3.101   5.498  1.2537 -0.9387  0.2772
 4582SOL     OW25378   4.437   4.188  16.041 -0.1939 -0.1391  0.8112
 4582SOL    HW125379   4.486   4.106  16.050 -0.0109 -0.1408 -0.2731
 4582SOL    HW225380   4.466   4.235  16.120  0.9874 -0.8431  0.7949
 4583SOL     OW25381   2.619   0.317   0.000  0.5430 -0.2260 -0.4745
 4583SOL    HW125382   2.625   0.251  17.690  2.0573 -0.2210 -0.3412
 4583SOL    HW225383   2.674   0.383  17.716 -0.1197  0.1901 -0.6885
 4584SOL     OW25384   1.826   3.728   9.138 -0.2479 -0.1108 -0.4147
 4584SOL    HW125385   1.778   3.767   9.212 -0.7532  1.4727 -1.5754
 4584SOL    HW225386   1.763   3.663   9.107 -0.5081 -1.2195  2.3619
 4585SOL     OW25387   3.140   3.218   6.422  0.0049 -0.2516  0.0692
 4585SOL    HW125388   3.198   3.159   6.469  0.0450  3.5416  4.7139
 4585SOL    HW225389   3.210   3.283   6.410 -0.9976  1.1194  1.6773
 4586SOL     OW25390   0.135   2.051   3.354 -0.0976  0.1228  0.7444
 4586SOL    HW125391   0.226   2.081   3.363  0.3254 -0.4000 -1.7913
 4586SOL    HW225392   0.084   2.132   3.356 -3.3839 -1.8496 -3.6856
 4587SOL     OW25393   1.179   2.113   5.619  0.4363 -0.3943 -0.4016
 4587SOL    HW125394   1.187   2.203   5.650 -5.5605 -0.3925  0.9587
 4587SOL    HW225395   1.165   2.074   5.705  0.4239  0.0716 -0.1921
 4588SOL     OW25396   2.786   2.490   7.465 -0.1791  0.4602  0.3645
 4588SOL    HW125397   2.812   2.398   7.453  2.2212  1.2563 -0.4803
 4588SOL    HW225398   2.785   2.507   7.559  0.8564  0.7448  0.3230
 4589SOL     OW25399   3.197   1.639   4.113 -0.3409  0.2695  0.2742
 4589SOL    HW125400   3.234   1.690   4.184 -0.0266  0.7352 -0.2253
 4589SOL    HW225401   3.275   1.640   4.057 -0.3859 -1.9041  0.1578
 4590SOL     OW25402   2.084   2.303   8.017 -0.0869  0.1642  0.8914
 4590SOL    HW125403   2.007   2.293   7.961  0.2137 -2.4404  0.9376
 4590SOL    HW225404   2.136   2.230   7.984 -1.3876 -0.2702 -0.1914
 4591SOL     OW25405   2.024   3.927  11.248 -0.0944  0.0003  0.1212
 4591SOL    HW125406   2.062   3.997  11.300 -1.7683  0.2334  1.0166
 4591SOL    HW225407   2.063   3.943  11.162  2.0527 -0.5679  0.9847
 4592SOL     OW25408   3.977   3.963   9.207 -0.2046 -0.2517 -0.2104
 4592SOL    HW125409   4.016   4.033   9.155 -0.1633 -0.3116 -0.2597
 4592SOL    HW225410   4.058   3.915   9.226 -0.1633  0.0378  0.3575
 4593SOL     OW25411   4.082   2.080   5.331 -0.1492  0.7243 -0.0310
 4593SOL    HW125412   4.073   2.069   5.426  1.0245  2.5414  0.2905
 4593SOL    HW225413   4.111   2.171   5.326  0.9774  0.3142 -1.1151
 4594SOL     OW25414   4.001   0.017   1.484  0.4960  0.3698  0.4038
 4594SOL    HW125415   4.037   4.703   1.555 -0.0194 -0.5981 -0.0867
 4594SOL    HW225416   3.960   0.088   1.534  1.0719  1.7110 -1.0309
 4595SOL     OW25417   3.256   4.055   5.661  0.2042 -0.4787  0.4507
 4595SOL    HW125418   3.273   4.149   5.652 -0.3631 -0.4041  0.1667
 4595SOL    HW225419   3.336   4.020   5.621 -0.3525 -3.1399  1.6410
 4596SOL     OW25420   0.459   1.581  11.671 -0.8105 -0.1052  0.0559
 4596SOL    HW125421   0.476   1.653  11.732  0.0709  1.6277 -2.2297
 4596SOL    HW225422   0.420   1.524  11.738  0.1813 -1.5263 -0.5853
 4597SOL     OW25423   3.378   0.990   7.269  0.4712  0.1270 -0.2493
 4597SOL    HW125424   3.348   0.929   7.336  2.4222  0.3509  0.8246
 4597SOL    HW225425   3.420   1.053   7.327 -0.0675  0.0499  0.2322
 4598SOL     OW25426   1.196   2.988  15.291  0.7442  0.1063  0.2618
 4598SOL    HW125427   1.149   2.908  15.267 -1.2042  1.8574 -1.6908
 4598SOL    HW225428   1.250   2.992  15.211  1.6960 -0.1214  0.8862
 4599SOL     OW25429   4.083   2.913  15.261  0.1007  0.1547  0.0362
 4599SOL    HW125430   4.072   2.869  15.177  0.1894 -0.7247  0.4825
 4599SOL    HW225431   4.170   2.876  15.281 -0.0374 -0.8926 -1.2644
 4600SOL     OW25432   1.614   0.542  12.078  0.2627  0.2059 -0.5921
 4600SOL    HW125433   1.585   0.597  12.150  2.6867  0.6889 -0.0023
 4600SOL    HW225434   1.581   0.590  12.002 -4.5155  0.1973  1.4924
 4601SOL     OW25435   3.733   0.263  17.211  0.3871 -0.2483  0.1662
 4601SOL    HW125436   3.815   0.283  17.257 -0.9025  1.4507  1.7198
 4601SOL    HW225437   3.770   0.195  17.156 -2.5412 -1.8109  0.1269
 4602SOL     OW25438   0.808   4.510   5.958 -0.5082  0.1067 -0.3457
 4602SOL    HW125439   0.894   4.475   5.934 -0.0700  1.6192 -0.9946
 4602SOL    HW225440   0.810   4.474   6.046 -1.5955 -1.2195 -0.8708
 4603SOL     OW25441   3.815   0.673   3.046 -0.0090 -0.1612 -0.2077
 4603SOL    HW125442   3.751   0.602   3.054  0.1096 -0.3441 -0.9187
 4603SOL    HW225443   3.765   0.753   3.059  1.8926  1.0710 -0.5096
 4604SOL     OW25444   0.524   1.096   2.320  0.4597  0.8378 -0.1592
 4604SOL    HW125445   0.597   1.054   2.276 -0.4483 -0.2746 -0.6046
 4604SOL    HW225446   0.473   1.018   2.341  1.4581  0.2789  0.1682
 4605SOL     OW25447   2.540   4.170   6.877 -0.2887 -0.7103  0.5666
 4605SOL    HW125448   2.568   4.083   6.907 -1.3702 -0.8837  1.0536
 4605SOL    HW225449   2.446   4.158   6.891  0.1424 -1.7499  2.5725
 4606SOL     OW25450   1.012   3.953   6.083  0.2415  0.4853  0.6167
 4606SOL    HW125451   1.054   3.867   6.078 -0.8036 -0.0852  1.5326
 4606SOL    HW225452   1.064   3.999   6.148 -0.5231  1.6058  0.4405
 4607SOL     OW25453   4.416   0.814   1.745  0.0559  0.2473  0.1622
 4607SOL    HW125454   4.395   0.742   1.686  2.1717 -1.0626  1.0022
 4607SOL    HW225455   4.405   0.765   1.826  0.9213  0.2473  0.2872
 4608SOL     OW25456   4.217   4.055   7.844  0.7321 -0.2305 -0.1508
 4608SOL    HW125457   4.284   4.076   7.909 -0.4251 -1.9158  1.5484
 4608SOL    HW225458   4.137   4.072   7.892  0.0194 -4.4366  0.1214
 4609SOL     OW25459   2.974   2.689  12.047  0.7225 -0.1425  0.0971
 4609SOL    HW125460   2.893   2.643  12.027  0.8102  0.0157 -0.6176
 4609SOL    HW225461   2.998   2.636  12.123 -0.3523  0.2518  0.7116
 4610SOL     OW25462   0.083   3.151  11.945  0.4946  0.0184 -0.1018
 4610SOL    HW125463   0.176   3.161  11.926  0.4713  0.1072 -0.1711
 4610SOL    HW225464   0.061   3.242  11.965 -1.6040 -0.9697  2.0488
 4611SOL     OW25465   4.183   3.640   3.584 -0.2264 -0.0089 -0.1368
 4611SOL    HW125466   4.109   3.585   3.559  0.4768 -0.6540 -0.7993
 4611SOL    HW225467   4.196   3.598   3.669 -0.4376  0.4355  0.1149
 4612SOL     OW25468   2.884   3.248  12.722 -0.4455 -0.5336 -0.6464
 4612SOL    HW125469   2.894   3.343  12.719 -1.5504 -0.4090 -0.2929
 4612SOL    HW225470   2.971   3.219  12.749 -1.2652 -0.6905  1.7918
 4613SOL     OW25471   1.925   0.699   3.161  0.4853  0.8131 -0.2200
 4613SOL    HW125472   1.916   0.693   3.066  1.5923 -1.6132 -0.1829
 4613SOL    HW225473   2.020   0.700   3.176  0.5025 -2.2874  0.0308
 4614SOL     OW25474   2.551   2.839  10.630  0.2045  0.1375  0.0631
 4614SOL    HW125475   2.504   2.886  10.561  1.4133  0.9186 -0.2277
 4614SOL    HW225476   2.480   2.785  10.664 -0.2031 -0.3747 -1.6019
 4615SOL     OW25477   0.829   2.981   7.435  0.0342 -0.5036  0.0347
 4615SOL    HW125478   0.839   2.898   7.482  0.0090 -0.6601 -0.2399
 4615SOL    HW225479   0.768   3.029   7.491 -1.1916 -1.8240 -0.1640
 4616SOL     OW25480   0.175   1.119  10.244  0.8537 -0.6882 -0.2787
 4616SOL    HW125481   0.150   1.132  10.335 -1.3400 -0.1549 -0.9461
 4616SOL    HW225482   0.106   1.062  10.208 -0.0364  1.9201 -2.6880
 4617SOL     OW25483   4.621   1.570   0.730 -0.2110  0.4688 -0.2393
 4617SOL    HW125484   4.552   1.512   0.761  2.4349 -1.9709  1.0376
 4617SOL    HW225485   4.686   1.509   0.696  0.6671  0.6669  1.1013
 4618SOL     OW25486   3.802   1.820   3.049  0.5294  0.7401  0.1413
 4618SOL    HW125487   3.767   1.827   2.960  0.5123  0.6679  0.1419
 4618SOL    HW225488   3.847   1.735   3.045 -1.0174 -0.0003 -1.4404
 4619SOL     OW25489   2.665   4.373   6.496  0.2107  0.4507 -0.5266
 4619SOL    HW125490   2.641   4.293   6.542  1.8714 -0.4432 -1.2291
 4619SOL    HW225491   2.645   4.446   6.555 -1.1421 -0.7970  0.5643
 4620SOL     OW25492   1.516   3.905   6.465 -0.5097  0.1817  0.2861
 4620SOL    HW125493   1.582   3.895   6.396 -0.6979 -1.1742  0.2849
 4620SOL    HW225494   1.448   3.847   6.429  1.0377 -2.2780  1.2797
 4621SOL     OW25495   4.018   0.797  14.814  0.0075  0.0664 -0.6106
 4621SOL    HW125496   4.016   0.703  14.797  0.9513  0.1666 -1.2258
 4621SOL    HW225497   3.948   0.832  14.759  0.4959 -0.2531 -1.4310
 4622SOL     OW25498   1.288   2.502   6.797  0.0563  0.4170  0.4942
 4622SOL    HW125499   1.358   2.533   6.739  1.3645 -1.1327  1.2623
 4622SOL    HW225500   1.320   2.524   6.885  0.4053  0.2719  0.4035
 4623SOL     OW25501   3.129   2.166   6.837 -0.2047  0.1950  0.0806
 4623SOL    HW125502   3.043   2.170   6.796  0.7833  0.7725 -1.9245
 4623SOL    HW225503   3.119   2.082   6.883 -1.3701  0.0330 -0.4626
 4624SOL     OW25504   1.159   2.949  10.070  0.1672  0.2569 -0.4805
 4624SOL    HW125505   1.209   3.001  10.006  0.0069  0.4236 -0.4711
 4624SOL    HW225506   1.115   3.015  10.125 -0.5335  0.1052 -0.8628
 4625SOL     OW25507   4.171   3.174   2.233  0.3447  0.0873  0.0704
 4625SOL    HW125508   4.122   3.117   2.173 -0.3092  0.5266  0.1818
 4625SOL    HW225509   4.093   3.185   2.287 -0.3083 -0.3354 -0.7794
 4626SOL     OW25510   1.648   3.436   2.428 -0.0430  0.2455  0.0138
 4626SOL    HW125511   1.604   3.498   2.486 -1.5643 -0.8354  0.0356
 4626SOL    HW225512   1.568   3.398   2.391 -0.4259  0.5833  0.4925
 4627SOL     OW25513   2.954   4.539   4.426 -0.1944 -0.1751  0.4229
 4627SOL    HW125514   2.874   4.536   4.478 -0.4994  1.7052  0.0601
 4627SOL    HW225515   3.009   4.483   4.481 -1.3307 -0.9701  0.7601
 4628SOL     OW25516   1.464   0.172  14.538 -0.0349  0.0663 -0.4806
 4628SOL    HW125517   1.435   0.106  14.475 -0.4677  0.3258 -0.5490
 4628SOL    HW225518   1.384   0.222  14.554  0.2506  0.9733 -1.8543
 4629SOL     OW25519   2.185   1.308   5.261 -0.8005 -0.8720  0.2798
 4629SOL    HW125520   2.129   1.313   5.184 -0.3874 -0.4636  0.0101
 4629SOL    HW225521   2.239   1.232   5.240  2.1378  1.5951 -1.0779
 4630SOL     OW25522   4.527   4.356   7.167  0.1822  0.1390 -1.0430
 4630SOL    HW125523   4.570   4.282   7.124  0.7908  0.6005 -1.2456
 4630SOL    HW225524   4.568   4.355   7.253 -0.6246 -0.9213 -0.6750
 4631SOL     OW25525   2.675   1.239  12.777 -0.4546  0.1198 -0.1622
 4631SOL    HW125526   2.594   1.188  12.766 -1.3489  1.0089  2.3451
 4631SOL    HW225527   2.659   1.287  12.858 -2.4220  2.4879 -1.9543
 4632SOL     OW25528   3.811   4.480  17.158  0.2097  0.4632  0.4476
 4632SOL    HW125529   3.725   4.497  17.196  1.0264  0.9997  2.0143
 4632SOL    HW225530   3.859   4.554  17.195  1.1088 -0.2846  0.7894
 4633SOL     OW25531   1.824   3.187   9.041 -0.0662 -0.9783 -0.3627
 4633SOL    HW125532   1.880   3.113   9.015  0.2172 -0.7911 -0.2812
 4633SOL    HW225533   1.746   3.162   8.991 -0.6263 -0.2824  0.1789
 4634SOL     OW25534   0.606   0.067  10.561 -0.0167 -0.8754  0.3218
 4634SOL    HW125535   0.587   0.148  10.515  1.7855  0.3430  1.7098
 4634SOL    HW225536   0.596   0.093  10.653  2.7869 -2.2800  1.0321
 4635SOL     OW25537   3.896   4.062   8.428 -0.3703 -0.7781 -0.5400
 4635SOL    HW125538   3.982   4.038   8.393  0.1913  0.1334  0.2219
 4635SOL    HW225539   3.917   4.034   8.517 -1.6720  0.4803  0.1701
 4636SOL     OW25540   0.411   3.985   8.509  0.1552  0.3120  0.1818
 4636SOL    HW125541   0.329   3.981   8.459  1.7282 -0.0649 -2.3653
 4636SOL    HW225542   0.376   3.988   8.597  0.3153  2.4900  0.1722
 4637SOL     OW25543   1.158   0.488   7.381 -0.3430  0.4914 -0.4156
 4637SOL    HW125544   1.103   0.544   7.435  0.0600 -0.7267  1.2622
 4637SOL    HW225545   1.177   0.422   7.448  0.3559  0.6985 -0.4079
 4638SOL     OW25546   0.831   3.412   3.409  0.0477 -0.4749 -0.5431
 4638SOL    HW125547   0.797   3.322   3.404  1.7042 -1.0750 -1.0157
 4638SOL    HW225548   0.860   3.412   3.318 -0.7869 -1.1365 -0.8157
 4639SOL     OW25549   0.156   4.143   9.101 -0.0931 -0.4923  0.1153
 4639SOL    HW125550   0.139   4.192   9.020 -1.8956  0.2778  0.9499
 4639SOL    HW225551   0.077   4.090   9.091 -0.8798  0.7336 -0.1811
 4640SOL     OW25552   3.336   1.782   7.984 -0.4464 -0.4166  0.0380
 4640SOL    HW125553   3.305   1.866   8.020  0.9152 -0.0875  0.4165
 4640SOL    HW225554   3.406   1.772   8.048  1.4012  2.0288 -1.6013
 4641SOL     OW25555   2.610   1.620   4.173  0.1379  0.3911  0.2743
 4641SOL    HW125556   2.629   1.634   4.266  1.6584 -2.2842  0.3799
 4641SOL    HW225557   2.701   1.612   4.143  0.4920  1.5714  1.0355
 4642SOL     OW25558   4.197   1.774   9.713  0.1622  0.8022 -0.4107
 4642SOL    HW125559   4.245   1.719   9.651 -0.8768  1.3677 -1.7146
 4642SOL    HW225560   4.272   1.818   9.753 -0.6564  0.4107  1.5780
 4643SOL     OW25561   4.583   0.114   8.001  0.1403  0.2314  0.2114
 4643SOL    HW125562   4.500   0.076   8.029  0.7337 -3.2116 -2.7082
 4643SOL    HW225563   4.539   0.172   7.938 -0.5824 -0.4806  0.0640
 4644SOL     OW25564   1.832   1.122   4.741  0.0781  0.4737  0.1500
 4644SOL    HW125565   1.923   1.094   4.755  0.0070  1.5565  2.7419
 4644SOL    HW225566   1.801   1.063   4.672  0.0771 -0.5881  1.0734
 4645SOL     OW25567   3.804   0.823   5.364 -0.5504  0.2626  0.2321
 4645SOL    HW125568   3.752   0.744   5.351  0.6498 -0.2181 -1.6081
 4645SOL    HW225569   3.745   0.898   5.358 -2.4782 -1.3020 -0.5687
 4646SOL     OW25570   1.477   1.774  15.967  0.5520  0.0746  0.4380
 4646SOL    HW125571   1.541   1.844  15.976 -0.0447  0.7786 -0.7654
 4646SOL    HW225572   1.464   1.790  15.873 -0.3861  1.9607  0.8835
 4647SOL     OW25573   2.713   4.110   3.071 -0.2903 -0.1687  0.3310
 4647SOL    HW125574   2.702   4.186   3.014 -2.6644 -0.7186  0.0351
 4647SOL    HW225575   2.802   4.082   3.052 -0.8491 -1.5663 -0.2825
 4648SOL     OW25576   1.881   0.593   1.310  0.5952  0.2329  0.3588
 4648SOL    HW125577   1.919   0.536   1.378  0.0104  0.3416  0.7667
 4648SOL    HW225578   1.803   0.619   1.358 -1.0746  0.6312 -2.6016
 4649SOL     OW25579   1.394   3.928  12.109 -0.5607  0.0393  0.0409
 4649SOL    HW125580   1.313   3.898  12.066  0.4275 -0.6311 -1.3552
 4649SOL    HW225581   1.368   3.976  12.187 -2.0438 -0.0942 -0.3548
 4650SOL     OW25582   3.592   1.439   6.679  0.4810  0.1756  0.0176
 4650SOL    HW125583   3.628   1.395   6.756 -1.9160 -0.6447  0.6685
 4650SOL    HW225584   3.514   1.388   6.658  0.1664  1.0875 -1.0354
 4651SOL     OW25585   3.840   1.559   2.500  0.6823 -0.3270  0.9824
 4651SOL    HW125586   3.909   1.580   2.437  0.0319 -0.1938  0.3179
 4651SOL    HW225587   3.893   1.534   2.576 -1.5548 -1.5640  2.1309
 4652SOL     OW25588   1.148   4.356   2.057  0.6020 -0.2451 -0.3237
 4652SOL    HW125589   1.144   4.301   1.979 -0.0576 -1.5216  0.6111
 4652SOL    HW225590   1.232   4.324   2.090 -0.3928 -1.1129  1.3664
 4653SOL     OW25591   0.973   1.054  13.467 -0.3484 -0.0712 -0.0113
 4653SOL    HW125592   1.008   0.970  13.438  3.2051  1.5337 -0.3862
 4653SOL    HW225593   0.984   1.111  13.391 -1.3319 -0.7385 -0.6561
 4654SOL     OW25594   1.512   3.535   3.805 -0.1778 -0.0379  0.5594
 4654SOL    HW125595   1.582   3.477   3.837 -1.3821 -1.3388  0.8123
 4654SOL    HW225596   1.456   3.476   3.755 -0.0686 -0.1308  0.5445
 4655SOL     OW25597   1.653   1.361  15.181 -0.3052  0.5373  0.2105
 4655SOL    HW125598   1.707   1.350  15.259 -1.6722  0.2350  1.1203
 4655SOL    HW225599   1.678   1.278  15.141 -1.8973  0.1527  0.0296
 4656SOL     OW25600   4.340   3.159   5.746 -0.3756  0.6584  0.6149
 4656SOL    HW125601   4.330   3.225   5.678  1.3526 -0.5305 -0.8028
 4656SOL    HW225602   4.377   3.213   5.817  1.3342  0.2389  0.0444
 4657SOL     OW25603   2.872   0.939  13.594 -0.2440 -0.0948  0.2024
 4657SOL    HW125604   2.943   0.875  13.586  0.5338  0.4402  2.9192
 4657SOL    HW225605   2.921   1.020  13.605 -0.0682 -0.0657 -0.8019
 4658SOL     OW25606   0.956   0.968   6.064 -0.4844 -0.0423 -0.7939
 4658SOL    HW125607   0.904   0.969   6.144 -1.8682 -1.4903 -1.6888
 4658SOL    HW225608   0.899   0.955   5.989 -0.3737 -0.4524 -0.8088
 4659SOL     OW25609   2.196   2.818   6.702 -0.3342 -0.4866  0.0613
 4659SOL    HW125610   2.106   2.849   6.702 -0.2777 -0.3420  0.9217
 4659SOL    HW225611   2.252   2.881   6.657  0.4684 -1.8670 -0.8873
 4660SOL     OW25612   1.106   3.588   5.000  0.6127  0.2093  0.3952
 4660SOL    HW125613   1.104   3.642   4.921 -0.4743  2.3924  1.8985
 4660SOL    HW225614   1.144   3.648   5.065  0.8275  0.2505  0.2334
 4661SOL     OW25615   2.838   1.112  16.423 -0.1132 -0.4754 -0.6519
 4661SOL    HW125616   2.824   1.145  16.512  2.2990 -0.3251 -0.3469
 4661SOL    HW225617   2.762   1.056  16.406 -0.3441 -0.7777  1.3580
 4662SOL     OW25618   1.041   0.790   5.858  0.4755  0.7420  0.6087
 4662SOL    HW125619   1.087   0.750   5.783  0.5741  0.4807  0.8086
 4662SOL    HW225620   1.000   0.707   5.880  0.0537  0.3296 -1.6869
 4663SOL     OW25621   0.953   1.656   1.851  0.3489  0.1851 -0.4889
 4663SOL    HW125622   0.876   1.692   1.807  0.4503  0.0943 -0.7415
 4663SOL    HW225623   0.950   1.570   1.809  1.0054  0.9653 -2.1526
 4664SOL     OW25624   0.507   0.583  16.034  0.0588  0.0200  0.6321
 4664SOL    HW125625   0.557   0.534  16.099 -0.4236  0.2079  1.1459
 4664SOL    HW225626   0.421   0.585  16.075 -0.4390 -1.4349 -0.3426
 4665SOL     OW25627   0.346   4.196  14.221  0.0805  0.9068  0.4488
 4665SOL    HW125628   0.437   4.219  14.202  1.0140 -3.5591 -0.7666
 4665SOL    HW225629   0.310   4.284  14.231  0.0366  0.5628  3.3234
 4666SOL     OW25630   2.557   2.725   4.945 -0.1152  0.2931  0.0167
 4666SOL    HW125631   2.609   2.747   4.868  0.2283 -1.8696 -0.3765
 4666SOL    HW225632   2.575   2.631   4.945  0.6798  0.4456  0.3675
 4667SOL     OW25633   0.050   2.394   0.479  0.0407  0.8111 -0.2302
 4667SOL    HW125634   0.033   2.402   0.573  2.2318  0.8154  0.1773
 4667SOL    HW225635   0.144   2.412   0.467 -0.1639  3.5481  2.2335
 4668SOL     OW25636   3.936   2.248   3.840 -0.4838  0.0663 -0.4619
 4668SOL    HW125637   4.012   2.194   3.860 -0.7563  0.0220  0.4453
 4668SOL    HW225638   3.984   2.309   3.784  1.1309 -2.5270 -1.9005
 4669SOL     OW25639   1.911   4.196   6.883  0.3051  0.3957 -0.1613
 4669SOL    HW125640   1.845   4.245   6.933  0.1054  0.8097 -0.8325
 4669SOL    HW225641   1.958   4.159   6.958 -0.6267 -1.8810 -0.7075
 4670SOL     OW25642   0.076   4.493   8.003 -0.1011  0.3355 -0.1707
 4670SOL    HW125643   0.126   4.439   7.941  1.9697  2.4412 -0.3123
 4670SOL    HW225644   0.101   4.583   7.985  0.4767  0.5352  1.6465
 4671SOL     OW25645   3.547   1.614   4.910  0.4672  0.2854 -0.0487
 4671SOL    HW125646   3.632   1.658   4.912  0.9773 -0.8435  2.9913
 4671SOL    HW225647   3.568   1.551   4.841  0.9189  0.3080  0.0680
 4672SOL     OW25648   4.497   2.209  16.585  1.1475  0.6069  0.4113
 4672SOL    HW125649   4.555   2.281  16.609  0.9266  1.5029 -1.7698
 4672SOL    HW225650   4.485   2.235  16.494  0.7979 -1.4032 -0.1102
 4673SOL     OW25651   4.511   3.397   5.395 -0.1519  0.4058  0.1609
 4673SOL    HW125652   4.475   3.482   5.367 -0.9576 -0.7979 -2.4806
 4673SOL    HW225653   4.602   3.425   5.404 -0.3675  0.7808  1.1962
 4674SOL     OW25654   0.335   3.324   6.489 -0.3687  0.0609 -0.4359
 4674SOL    HW125655   0.319   3.231   6.474  1.6265  0.2321 -3.6787
 4674SOL    HW225656   0.300   3.344   6.403 -2.0540 -0.6933  0.0827
 4675SOL     OW25657   2.447   1.182   5.698 -0.2281 -0.3949  0.4377
 4675SOL    HW125658   2.528   1.137   5.673 -1.1377 -1.0126 -1.4082
 4675SOL    HW225659   2.477   1.270   5.721  2.1877 -1.0326 -0.2772
 4676SOL     OW25660   3.259   2.390   5.366 -0.0175  0.2287  0.0748
 4676SOL    HW125661   3.268   2.472   5.318 -0.3894  0.9568  1.2644
 4676SOL    HW225662   3.279   2.330   5.293  1.8331  1.3894 -0.3780
 4677SOL     OW25663   1.302   3.815   4.560  0.2475  0.1033  0.0175
 4677SOL    HW125664   1.378   3.869   4.540 -0.6738  0.9114 -1.3320
 4677SOL    HW225665   1.331   3.724   4.547  1.4729  0.4382  0.4300
 4678SOL     OW25666   2.880   2.130   2.515  0.1008 -0.4240 -0.4470
 4678SOL    HW125667   2.920   2.056   2.560 -0.6548  0.1268  1.1119
 4678SOL    HW225668   2.917   2.206   2.560  4.4137 -2.0671 -1.1546
 4679SOL     OW25669   0.182   2.168   6.706 -0.8381  0.7216 -0.2665
 4679SOL    HW125670   0.100   2.202   6.740 -0.8059 -0.0305  0.5537
 4679SOL    HW225671   0.164   2.080   6.674  3.0689  0.2426 -1.2138
 4680SOL     OW25672   3.022   4.653   0.241  0.3575  0.2277  0.5808
 4680SOL    HW125673   3.005   4.570   0.285  0.2415  1.3038  2.5969
 4680SOL    HW225674   3.104   4.680   0.283  1.5051 -0.4345 -1.2619
 4681SOL     OW25675   2.970   2.817   2.829  0.2637 -0.5650  0.2603
 4681SOL    HW125676   2.939   2.765   2.904 -1.6098 -1.1925 -0.9606
 4681SOL    HW225677   2.894   2.821   2.771  0.3923 -0.8016  0.0748
 4682SOL     OW25678   3.980   3.746  11.407 -1.1656  0.5121 -0.4718
 4682SOL    HW125679   4.025   3.800  11.342 -0.5107  0.4801 -0.0497
 4682SOL    HW225680   4.041   3.701  11.466 -1.2130  1.3054  0.1869
 4683SOL     OW25681   2.677   0.704   5.586 -0.0380  0.0126  0.5404
 4683SOL    HW125682   2.659   0.625   5.637  0.8284  0.0742  0.9302
 4683SOL    HW225683   2.694   0.761   5.661  1.1276  0.8266 -0.3370
 4684SOL     OW25684   0.220   1.058   3.224 -0.5188 -0.5314 -0.6575
 4684SOL    HW125685   0.251   1.070   3.134 -0.6022  0.6150 -0.5395
 4684SOL    HW225686   0.301   1.033   3.267 -0.7136 -1.1388 -0.6554
 4685SOL     OW25687   2.876   0.347  11.403  0.0166 -0.3084  0.4226
 4685SOL    HW125688   2.936   0.410  11.363 -0.3333 -0.9765 -1.1563
 4685SOL    HW225689   2.927   0.309  11.474  0.9728  2.6119  1.3060
 4686SOL     OW25690   1.721   2.099   2.462  0.2299 -0.2734 -0.2233
 4686SOL    HW125691   1.789   2.085   2.395 -0.0932  0.2300 -0.6624
 4686SOL    HW225692   1.720   2.016   2.509 -2.0612 -0.8696 -1.2934
 4687SOL     OW25693   4.564   4.456   4.876 -0.0549  0.1518  0.4688
 4687SOL    HW125694   4.599   4.473   4.963  0.9141 -0.8221  0.2748
 4687SOL    HW225695   4.630   4.493   4.817 -0.3746 -0.3168 -0.1844
 4688SOL     OW25696   3.691   2.201  13.228 -0.5327  0.2056 -0.0806
 4688SOL    HW125697   3.666   2.109  13.220 -1.0948  0.3984 -0.5495
 4688SOL    HW225698   3.678   2.224  13.136  0.0283  1.3984  0.1365
 4689SOL     OW25699   0.476   3.609   3.248  0.3200 -0.2588  0.3447
 4689SOL    HW125700   0.437   3.689   3.283  0.1335 -0.5059  0.6982
 4689SOL    HW225701   0.419   3.540   3.282 -1.6914 -0.4986 -3.5694
 4690SOL     OW25702   4.270   4.223   0.118  0.2392  0.2209  0.3227
 4690SOL    HW125703   4.188   4.187   0.151 -0.8081  1.8716 -0.4659
 4690SOL    HW225704   4.242   4.219   0.026  2.7372 -0.2143 -0.4280
 4691SOL     OW25705   1.808   0.122   0.524  0.9280  0.9281  0.1186
 4691SOL    HW125706   1.855   0.150   0.603  0.6225  1.3421  0.1582
 4691SOL    HW225707   1.769   0.207   0.503  2.2620  1.7075  0.7843
 4692SOL     OW25708   0.001   1.707   5.840  0.2674  0.0127 -0.3683
 4692SOL    HW125709   4.710   1.773   5.902 -0.6357 -0.0412 -0.7787
 4692SOL    HW225710   4.740   1.748   5.753 -1.5888 -1.0435 -0.8301
 4693SOL     OW25711   3.777   0.791   8.660  0.2658 -0.1979 -0.5257
 4693SOL    HW125712   3.690   0.790   8.700  0.7673  0.1489  0.5741
 4693SOL    HW225713   3.817   0.857   8.717 -1.0557 -0.4250  0.6818
 4694SOL     OW25714   2.394   3.489   7.301 -0.0241 -0.2074 -0.5586
 4694SOL    HW125715   2.488   3.479   7.317 -0.2018  1.5069  1.5741
 4694SOL    HW225716   2.362   3.442   7.378 -1.6799  1.0000 -0.5044
 4695SOL     OW25717   4.062   3.853   7.428  0.5065  0.1880 -0.0706
 4695SOL    HW125718   4.129   3.914   7.396  0.4644 -0.2187 -0.9196
 4695SOL    HW225719   4.100   3.829   7.513 -1.8633 -1.1642  0.5913
 4696SOL     OW25720   2.940   1.876   8.710 -0.1450 -0.2218  0.7334
 4696SOL    HW125721   2.846   1.856   8.714 -0.4884  0.8985 -1.7658
 4696SOL    HW225722   2.942   1.932   8.787 -0.0043  0.4169  0.2673
 4697SOL     OW25723   0.466   2.287   3.101  0.7664  0.1134  0.2732
 4697SOL    HW125724   0.500   2.365   3.059  2.8921 -0.3351  1.1798
 4697SOL    HW225725   0.371   2.285   3.085  1.0037 -0.3196 -1.0317
 4698SOL     OW25726   1.836   1.666   3.998 -0.2432  0.1630 -0.1497
 4698SOL    HW125727   1.820   1.600   4.065 -1.7487 -1.0683 -1.7376
 4698SOL    HW225728   1.772   1.733   4.020 -2.7987 -2.4024  0.1400
 4699SOL     OW25729   1.062   1.422   3.182  0.0777 -0.2549  0.2635
 4699SOL    HW125730   1.144   1.467   3.164 -0.6965  1.2711  0.5860
 4699SOL    HW225731   1.029   1.480   3.251 -0.3810  0.1430 -0.2902
 4700SOL     OW25732   3.879   2.480   6.368 -0.1780  0.5765 -0.3982
 4700SOL    HW125733   3.932   2.416   6.416 -0.2858 -0.4487 -1.6252
 4700SOL    HW225734   3.868   2.556   6.425 -0.1413  1.0718 -1.0480
 4701SOL     OW25735   2.550   3.980   2.383  0.0636 -0.5112 -0.0056
 4701SOL    HW125736   2.559   3.889   2.413  1.9857  0.2266  1.6291
 4701SOL    HW225737   2.641   4.002   2.399 -0.3510  1.1941 -0.0023
 4702SOL     OW25738   4.316   2.838   7.478  0.0375  0.4451 -0.0303
 4702SOL    HW125739   4.351   2.852   7.390  0.2766 -0.1234 -0.0228
 4702SOL    HW225740   4.237   2.789   7.453  1.2323 -0.1755 -2.5747
 4703SOL     OW25741   2.888   1.237   2.772  0.0461  0.2006  0.5781
 4703SOL    HW125742   2.832   1.298   2.725 -1.3020 -1.1269  0.4489
 4703SOL    HW225743   2.954   1.228   2.704  1.3074 -1.5329  2.0398
 4704SOL     OW25744   3.584   2.288   9.034 -0.4091 -0.3599  0.5205
 4704SOL    HW125745   3.645   2.327   9.097 -0.7987  1.9842 -0.5575
 4704SOL    HW225746   3.510   2.342   9.060  0.1269  0.6902 -0.1530
 4705SOL     OW25747   3.492   3.181   8.757  0.5514  0.1489  0.4535
 4705SOL    HW125748   3.543   3.213   8.832  1.1384  1.7194 -0.6068
 4705SOL    HW225749   3.501   3.267   8.717 -0.4066 -0.0341 -0.1471
 4706SOL     OW25750   4.372   2.521   1.930  0.0628  0.0431 -0.3953
 4706SOL    HW125751   4.455   2.567   1.936 -0.8481  1.6078  0.3271
 4706SOL    HW225752   4.381   2.428   1.948 -0.9305  0.5574  2.7027
 4707SOL     OW25753   4.340   3.969  11.279 -0.2540 -0.2712  0.0189
 4707SOL    HW125754   4.291   4.016  11.347 -0.2503 -1.4326  0.8261
 4707SOL    HW225755   4.380   4.037  11.224  2.5836 -1.1316  1.0116
 4708SOL     OW25756   3.334   2.072   2.247 -0.1120 -0.4779  0.4920
 4708SOL    HW125757   3.401   2.073   2.179  0.3069  0.5541  0.9183
 4708SOL    HW225758   3.335   2.165   2.270 -1.0161 -0.1470 -0.7797
 4709SOL     OW25759   3.192   0.456   5.897  0.4103  0.3510 -0.1295
 4709SOL    HW125760   3.128   0.501   5.842 -2.2591 -0.8684  1.9788
 4709SOL    HW225761   3.172   0.363   5.906 -0.3584  0.5506  0.2034
 4710SOL     OW25762   4.243   0.962   3.841 -0.1326 -0.3951 -0.0121
 4710SOL    HW125763   4.205   0.920   3.918  1.4691 -0.3853  0.8066
 4710SOL    HW225764   4.316   1.010   3.881  1.2659 -0.5710 -2.3562
 4711SOL     OW25765   2.529   4.318   4.486 -0.4611  0.1127  0.2793
 4711SOL    HW125766   2.493   4.354   4.567 -2.1415  2.2102 -1.3976
 4711SOL    HW225767   2.620   4.298   4.511 -0.9392 -1.8358  0.4797
 4712SOL     OW25768   3.089   3.880   0.844 -0.4197 -0.0096  0.0387
 4712SOL    HW125769   3.132   3.957   0.807 -0.4030 -0.4220 -0.8193
 4712SOL    HW225770   3.160   3.826   0.879 -0.0993 -0.4993 -1.3729
 4713SOL     OW25771   4.223   3.529   1.934 -0.1145  0.2100 -0.2748
 4713SOL    HW125772   4.171   3.601   1.900 -2.5484 -0.8499  1.1704
 4713SOL    HW225773   4.152   3.491   1.987 -0.8475  1.6026 -0.2573
 4714SOL     OW25774   4.059   0.720   5.880  0.1673  0.0099  0.3319
 4714SOL    HW125775   4.141   0.726   5.831 -1.6370 -1.6487 -2.8290
 4714SOL    HW225776   4.068   0.801   5.931  0.6049 -2.1965  3.7345
 4715SOL     OW25777   2.542   1.659  11.048  0.3061 -0.0503  0.0948
 4715SOL    HW125778   2.598   1.609  11.108 -0.4929  1.8488  2.4308
 4715SOL    HW225779   2.585   1.745  11.040  1.3571 -0.7985 -2.2297
 4716SOL     OW25780   0.032   2.118   7.647 -0.0806  0.3768  0.6055
 4716SOL    HW125781   0.001   2.170   7.721  0.1574  1.5040 -0.0790
 4716SOL    HW225782   4.695   2.069   7.619  1.2033 -1.1921 -0.1563
 4717SOL     OW25783   3.359   0.645   8.613  0.0836 -0.1021  0.2783
 4717SOL    HW125784   3.421   0.613   8.548 -0.4013  1.0655 -0.7540
 4717SOL    HW225785   3.428   0.664   8.677 -0.4679  1.5691  0.3704
 4718SOL     OW25786   1.093   2.322   4.961  0.0638  0.0092 -0.0527
 4718SOL    HW125787   1.140   2.391   4.916  1.4683 -1.2435 -0.5078
 4718SOL    HW225788   1.147   2.307   5.039  0.7567 -1.4674 -0.8267
 4719SOL     OW25789   1.931   3.854   7.488  0.3969  0.3819  0.4065
 4719SOL    HW125790   2.008   3.886   7.441  1.2902  0.5293  1.9908
 4719SOL    HW225791   1.891   3.934   7.523 -0.3353 -0.6134  1.8525
 4720SOL     OW25792   2.102   2.851   1.667  0.3640 -0.1425  0.5422
 4720SOL    HW125793   2.126   2.825   1.756 -0.9209  1.3723  1.3295
 4720SOL    HW225794   2.186   2.825   1.629 -0.2122 -0.8589 -0.2458
 4721SOL     OW25795   1.225   1.435   8.297  0.0244 -0.4823 -0.2374
 4721SOL    HW125796   1.152   1.381   8.266  0.7237 -0.2885 -2.2067
 4721SOL    HW225797   1.276   1.385   8.361  0.7163  1.7572  0.9307
 4722SOL     OW25798   4.737   3.999   7.436  0.6769 -0.0525  0.2834
 4722SOL    HW125799   4.651   4.031   7.462  0.2489  0.5520 -1.8975
 4722SOL    HW225800   0.041   4.011   7.520 -0.7535  0.9344  0.9132
 4723SOL     OW25801   0.298   2.854   6.960  0.5132 -0.4214  0.6126
 4723SOL    HW125802   0.226   2.903   6.922  0.8731  0.8341  1.5632
 4723SOL    HW225803   0.373   2.889   6.912  0.1380 -0.9553 -0.3675
 4724SOL     OW25804   4.002   0.515   2.880 -0.1630 -0.1567  0.7092
 4724SOL    HW125805   3.937   0.534   2.949 -1.0377 -2.9197  0.6672
 4724SOL    HW225806   4.077   0.550   2.928 -0.1113  0.2952  0.2940
 4725SOL     OW25807   1.535   1.780   0.191 -0.2305 -0.0248 -0.4941
 4725SOL    HW125808   1.592   1.834   0.247 -0.2627  1.1268 -1.5843
 4725SOL    HW225809   1.590   1.744   0.122 -2.2126 -1.3078 -1.4084
 4726SOL     OW25810   4.116   2.195   8.646 -0.1463  0.8293  0.1431
 4726SOL    HW125811   4.093   2.104   8.628  0.5259  0.9465 -1.2652
 4726SOL    HW225812   4.158   2.197   8.732 -0.2745 -2.2183  0.2620
 4727SOL     OW25813   0.200   2.700  10.718  0.2050 -0.7775 -0.1918
 4727SOL    HW125814   0.241   2.654  10.644  0.5586 -0.8665  0.0598
 4727SOL    HW225815   0.136   2.745  10.662  1.3424  0.3108 -0.6332
 4728SOL     OW25816   4.487   1.779   4.576  0.2694 -0.0360 -0.4860
 4728SOL    HW125817   4.475   1.685   4.567  2.1191 -0.3650  0.6679
 4728SOL    HW225818   4.393   1.797   4.581  0.5744  1.8012 -1.1729
 4729SOL     OW25819   1.451   4.578   7.077 -0.3717 -0.0739  0.4803
 4729SOL    HW125820   1.536   4.616   7.101 -0.8379 -0.0673  2.1626
 4729SOL    HW225821   1.396   4.654   7.094 -1.0062  0.0487 -2.1953
 4730SOL     OW25822   0.006   4.619   8.243  0.3375 -0.0266  0.0056
 4730SOL    HW125823   0.037   4.581   8.161 -3.4293 -0.0638 -1.4281
 4730SOL    HW225824   0.079   4.657   8.292 -0.0075  1.9684 -1.0245
 4731SOL     OW25825   1.335   1.361   5.493 -0.1560 -0.1925  0.2207
 4731SOL    HW125826   1.421   1.348   5.534 -0.1364 -1.9878 -0.4199
 4731SOL    HW225827   1.290   1.318   5.565 -0.3316  0.4596  0.5022
 4732SOL     OW25828   3.417   4.523   7.673  0.1568  0.4816  0.4346
 4732SOL    HW125829   3.340   4.470   7.654  0.5871 -0.3760  1.1227
 4732SOL    HW225830   3.490   4.465   7.692  0.4977  0.8244  0.1742
 4733SOL     OW25831   0.156   4.093   7.948  0.2759 -0.3325  0.5105
 4733SOL    HW125832   0.165   4.184   7.922 -0.6538 -0.4059 -0.0548
 4733SOL    HW225833   0.240   4.080   7.992  0.5057  0.0915  0.1955
 4734SOL     OW25834   0.522   2.523  15.562  0.4088  0.6177  0.0372
 4734SOL    HW125835   0.499   2.451  15.621  0.6565  0.6171  0.1338
 4734SOL    HW225836   0.608   2.491  15.533  1.5794  3.5952  0.2267
 4735SOL     OW25837   2.041   1.236  16.890 -0.3009  0.0577 -0.6381
 4735SOL    HW125838   2.035   1.270  16.801 -1.6417 -2.2412 -1.4141
 4735SOL    HW225839   2.080   1.149  16.891 -2.7197 -1.0209 -1.0823
 4736SOL     OW25840   4.726   3.873   7.048 -0.4555 -0.4681  0.4362
 4736SOL    HW125841   4.650   3.815   7.045 -0.1474 -0.8589  0.1797
 4736SOL    HW225842   0.025   3.860   6.961 -0.3615  2.3366  0.0690
 4737SOL     OW25843   1.784   1.961   7.336  0.8823 -0.1126 -0.0873
 4737SOL    HW125844   1.726   1.907   7.390  1.5556 -0.8218 -0.0747
 4737SOL    HW225845   1.855   1.988   7.394  0.9137  0.4102 -0.3754
 4738SOL     OW25846   2.202   1.703   8.808 -0.3352  0.2469  0.1728
 4738SOL    HW125847   2.186   1.625   8.861  0.5419  0.5144  0.8266
 4738SOL    HW225848   2.273   1.743   8.859 -1.3514 -0.1774  1.9073
 4739SOL     OW25849   1.419   2.947   0.575 -0.3138 -0.3401  0.5541
 4739SOL    HW125850   1.494   2.980   0.625  0.1219 -1.4794  0.6371
 4739SOL    HW225851   1.407   2.861   0.614  0.8431 -1.3217 -1.2904
 4740SOL     OW25852   3.476   0.868   4.050  0.0094  0.4810 -0.7911
 4740SOL    HW125853   3.479   0.939   3.986  0.2811  1.0870 -0.0972
 4740SOL    HW225854   3.454   0.919   4.128  1.4794  0.0992 -0.1290
 4741SOL     OW25855   3.952   4.650   5.569 -0.4082 -0.3215  0.1707
 4741SOL    HW125856   3.916   4.689   5.648 -2.3432 -0.1377 -0.8214
 4741SOL    HW225857   3.877   4.675   5.515  0.0170  1.3054  0.3346
 4742SOL     OW25858   1.552   1.099   4.753  0.2400 -0.1000  0.1231
 4742SOL    HW125859   1.559   1.114   4.658  0.9673  0.9876  0.3421
 4742SOL    HW225860   1.640   1.110   4.790  0.3412  2.6368 -0.8846
 4743SOL     OW25861   2.489   3.448   3.799  0.2893 -0.0723  0.4221
 4743SOL    HW125862   2.536   3.421   3.721  0.4763  1.6915 -0.0817
 4743SOL    HW225863   2.406   3.475   3.760  1.4284  0.7443 -1.4107
 4744SOL     OW25864   1.027   3.639   4.422  0.2610 -0.2965 -0.1662
 4744SOL    HW125865   1.063   3.556   4.391 -0.6949 -0.4026 -0.9770
 4744SOL    HW225866   1.075   3.699   4.366  0.6877  0.2451  0.7854
 4745SOL     OW25867   4.401   0.637   0.577  0.2765  0.5659 -0.2106
 4745SOL    HW125868   4.388   0.658   0.484  0.3379  0.5980 -0.2120
 4745SOL    HW225869   4.321   0.673   0.615 -0.5864  0.7200 -2.1243
 4746SOL     OW25870   1.203   2.928   3.778 -0.2910 -0.2029  0.1929
 4746SOL    HW125871   1.201   3.001   3.840 -1.5271  0.1749 -0.3098
 4746SOL    HW225872   1.120   2.884   3.795 -0.8301  0.2643 -1.2221
 4747SOL     OW25873   2.019   4.540   3.947  0.3874  0.2452 -0.5405
 4747SOL    HW125874   2.083   4.593   3.900  1.1656 -2.3259 -2.3449
 4747SOL    HW225875   1.969   4.620   3.963  0.9647  1.2258 -3.8362
 4748SOL     OW25876   3.366   2.863   7.617  0.1395 -0.3722 -0.8529
 4748SOL    HW125877   3.435   2.799   7.605  2.1886  1.8469 -0.9557
 4748SOL    HW225878   3.400   2.897   7.700 -1.2309 -0.2802 -0.3226
 4749SOL     OW25879   4.511   1.349   0.474  0.3884  0.1203 -0.1885
 4749SOL    HW125880   4.600   1.373   0.502  0.6692 -0.5985 -0.4784
 4749SOL    HW225881   4.505   1.370   0.381 -2.0675 -0.0795 -0.0724
 4750SOL     OW25882   4.005   1.501   5.609 -0.1202  0.1928 -0.1186
 4750SOL    HW125883   3.934   1.510   5.546 -0.6623  0.2947  0.5065
 4750SOL    HW225884   4.029   1.409   5.597  0.1828  0.2723 -0.1129
 4751SOL     OW25885   2.087   4.631  15.271  0.1055 -0.7945  0.1114
 4751SOL    HW125886   2.008   4.650  15.222 -0.5453  1.1556  1.8907
 4751SOL    HW225887   2.137   4.712  15.280 -2.0485  0.7656 -2.1377
 4752SOL     OW25888   2.179   1.807   1.092  0.0401 -0.3461 -0.0606
 4752SOL    HW125889   2.251   1.746   1.112  0.3187  0.3295  0.9876
 4752SOL    HW225890   2.139   1.807   1.179 -1.4416  1.1033 -0.7645
 4753SOL     OW25891   1.136   4.001   8.208  0.1466  0.4642 -0.1310
 4753SOL    HW125892   1.225   4.012   8.176  1.1659 -1.4861  2.0854
 4753SOL    HW225893   1.148   3.952   8.289  1.9002  2.1878  0.6359
 4754SOL     OW25894   3.860   4.166   5.149  0.7847  0.0344  0.1201
 4754SOL    HW125895   3.931   4.213   5.193  1.4456 -0.1394 -0.7621
 4754SOL    HW225896   3.869   4.071   5.160 -1.3923  0.1181  2.6059
 4755SOL     OW25897   3.288   2.165  17.211  0.1319 -0.1871  0.0600
 4755SOL    HW125898   3.200   2.201  17.213 -0.2128 -1.0509  0.5129
 4755SOL    HW225899   3.277   2.098  17.279  2.5218 -1.1507 -0.5091
 4756SOL     OW25900   4.528   1.925   6.333  0.0302  0.3891 -0.1816
 4756SOL    HW125901   4.556   1.900   6.421  1.2308  0.7280 -0.4662
 4756SOL    HW225902   4.507   2.018   6.344 -1.2245 -0.0202  0.9461
 4757SOL     OW25903   1.788   0.984  10.105  0.3788 -0.4851 -0.0109
 4757SOL    HW125904   1.792   1.045  10.031  1.9165 -2.3172 -1.4152
 4757SOL    HW225905   1.719   1.021  10.160  0.1905  1.7431 -1.7363
 4758SOL     OW25906   1.295   3.731   7.587 -0.0988 -0.0987 -0.2619
 4758SOL    HW125907   1.215   3.751   7.636 -0.9007  1.5952 -2.2540
 4758SOL    HW225908   1.335   3.659   7.635 -0.8166 -1.2922 -1.4351
 4759SOL     OW25909   2.243   4.072   6.221  0.3225 -0.5376  0.2680
 4759SOL    HW125910   2.338   4.083   6.209  0.1623 -1.5132 -1.9382
 4759SOL    HW225911   2.221   4.165   6.218  0.6409 -0.5429 -2.7084
 4760SOL     OW25912   4.712   0.147   4.737  0.1283  0.1259 -0.1948
 4760SOL    HW125913   0.039   0.168   4.672  0.4396  1.0749  0.4294
 4760SOL    HW225914   4.716   0.051   4.733 -1.6436 -0.0302  1.9533
 4761SOL     OW25915   0.521   4.543   9.625  0.0106 -0.3051 -0.0343
 4761SOL    HW125916   0.533   4.625   9.673 -0.2450 -0.6044  0.5388
 4761SOL    HW225917   0.461   4.580   9.561 -0.4831 -1.6186 -0.3217
 4762SOL     OW25918   0.732   1.712   6.681 -0.7587  0.1695 -0.0566
 4762SOL    HW125919   0.715   1.751   6.596 -1.7265 -1.4100 -0.5845
 4762SOL    HW225920   0.657   1.652   6.690 -0.8269  0.0054 -1.6445
 4763SOL     OW25921   4.347   4.000   3.020 -0.3613 -0.1772 -0.2034
 4763SOL    HW125922   4.433   4.041   3.023 -0.4621 -0.0554  0.9192
 4763SOL    HW225923   4.282   4.070   3.018  0.9613  1.0115 -1.2105
 4764SOL     OW25924   0.506   1.462   8.084 -0.2554 -0.3726 -0.0208
 4764SOL    HW125925   0.466   1.412   8.014 -0.8106 -1.1147  0.8293
 4764SOL    HW225926   0.432   1.484   8.140 -1.0949  1.4915 -1.8726
 4765SOL     OW25927   1.080   4.092  13.844 -0.2037 -0.1503 -0.1401
 4765SOL    HW125928   1.086   4.033  13.769 -0.6160 -0.7126  0.2656
 4765SOL    HW225929   1.090   4.177  13.800 -0.3279 -0.7531 -1.3144
 4766SOL     OW25930   1.806   0.200  16.631  0.1658 -0.2949  0.5934
 4766SOL    HW125931   1.835   0.117  16.668  0.3574 -0.0061  1.0843
 4766SOL    HW225932   1.864   0.204  16.555 -0.6485  0.3457 -0.0043
 4767SOL     OW25933   2.348   3.437   1.028  0.8841 -0.2846 -0.5025
 4767SOL    HW125934   2.431   3.479   1.052 -0.9688  1.7031  2.4334
 4767SOL    HW225935   2.367   3.387   0.949 -0.7635 -2.7039  0.6295
 4768SOL     OW25936   1.805   0.940   7.518 -0.9651 -0.1944  0.0896
 4768SOL    HW125937   1.845   0.927   7.604  0.1526 -0.3234 -0.4501
 4768SOL    HW225938   1.738   1.003   7.546  1.8025  1.8354  2.2043
 4769SOL     OW25939   1.504   1.634  16.615 -0.1407  0.2638 -0.4711
 4769SOL    HW125940   1.531   1.543  16.626  2.0150  1.0507  0.8311
 4769SOL    HW225941   1.445   1.647  16.689  0.3261  1.1783 -0.2646
 4770SOL     OW25942   1.248   2.332   5.187 -0.1071 -0.1213  0.6426
 4770SOL    HW125943   1.305   2.409   5.181 -2.0495  1.3726  1.1178
 4770SOL    HW225944   1.299   2.288   5.255 -0.3119 -0.5053  0.5431
 4771SOL     OW25945   2.582   1.407   3.381 -0.3651 -0.0424  0.2037
 4771SOL    HW125946   2.664   1.415   3.430 -0.8829 -0.0041  1.0592
 4771SOL    HW225947   2.608   1.353   3.305 -0.5690  0.1898 -0.0311
 4772SOL     OW25948   3.069   2.743   9.798 -0.3828 -0.7018  0.1156
 4772SOL    HW125949   3.097   2.816   9.853 -2.2946  0.7652 -0.8506
 4772SOL    HW225950   3.137   2.740   9.730  0.7487  1.3408  1.1237
 4773SOL     OW25951   0.642   2.487   6.106  0.5232  0.1312 -0.0732
 4773SOL    HW125952   0.559   2.463   6.064  0.1366 -1.2602  1.4604
 4773SOL    HW225953   0.683   2.407   6.138 -0.1520 -1.0462 -2.1872
 4774SOL     OW25954   4.010   0.416   7.681 -0.3399 -0.2541  0.7671
 4774SOL    HW125955   4.101   0.399   7.658 -0.5747  1.2633 -1.2399
 4774SOL    HW225956   3.975   0.328   7.665  0.3128 -0.4219  0.2463
 4775SOL     OW25957   0.696   2.658   5.893  0.0370 -0.4148  0.5144
 4775SOL    HW125958   0.646   2.622   5.967  1.2309  1.8840  2.4540
 4775SOL    HW225959   0.722   2.745   5.924 -2.8302  1.0735 -1.2847
 4776SOL     OW25960   0.631   3.160   9.446  0.1601 -0.0669 -0.6301
 4776SOL    HW125961   0.634   3.203   9.360  0.6946  1.2223  0.0267
 4776SOL    HW225962   0.544   3.179   9.481  1.6905  0.4246  2.9332
 4777SOL     OW25963   2.512   0.048  14.012 -0.0760  0.3677 -0.5483
 4777SOL    HW125964   2.440   0.025  13.953 -1.4284  2.8295  0.1541
 4777SOL    HW225965   2.581   4.735  13.974 -0.2415  0.5016 -1.0455
 4778SOL     OW25966   1.830   0.054  13.774  0.2168 -0.3731  0.2499
 4778SOL    HW125967   1.785   0.098  13.702  0.0120  0.8494  1.1436
 4778SOL    HW225968   1.874   0.123  13.824 -0.8515  3.6141 -4.3116
 4779SOL     OW25969   3.204   3.363  14.836 -0.2881 -0.8821 -0.2011
 4779SOL    HW125970   3.134   3.303  14.810 -0.4142 -1.3689  1.2814
 4779SOL    HW225971   3.199   3.428  14.766  0.1749  1.5492  2.0065
 4780SOL     OW25972   1.600   3.161   3.909 -0.1194  0.1032  0.1249
 4780SOL    HW125973   1.586   3.067   3.920 -0.7526 -0.1543 -2.8663
 4780SOL    HW225974   1.526   3.201   3.956 -0.6253  0.0070 -0.5805
 4781SOL     OW25975   4.619   2.941   7.362 -0.5173  0.3108  0.0545
 4781SOL    HW125976   4.635   2.964   7.454  1.1851 -0.2991 -0.0913
 4781SOL    HW225977   4.611   3.025   7.318 -1.3525  0.6723  0.8935
 4782SOL     OW25978   3.848   2.586   2.872  0.4341  0.3580 -0.1370
 4782SOL    HW125979   3.935   2.557   2.846  0.0164 -0.4147 -0.6684
 4782SOL    HW225980   3.856   2.608   2.965 -0.4297 -1.7763  0.4325
 4783SOL     OW25981   2.196   4.170   4.933  0.8427 -0.0718 -0.0337
 4783SOL    HW125982   2.150   4.245   4.893 -1.2829 -2.2992 -1.8038
 4783SOL    HW225983   2.177   4.174   5.027  0.1206 -0.7888 -0.1481
 4784SOL     OW25984   1.302   0.057  16.573 -0.0423  0.3906  0.4283
 4784SOL    HW125985   1.330   4.713  16.538  0.1303  1.0235 -0.9833
 4784SOL    HW225986   1.363   0.120  16.533  1.9896 -0.6725  1.8458
 4785SOL     OW25987   1.643   2.566   3.348  0.0486 -0.5551  0.1199
 4785SOL    HW125988   1.657   2.561   3.253 -3.2473  0.5374 -0.4451
 4785SOL    HW225989   1.575   2.499   3.355 -1.6295  1.4296  2.6707
 4786SOL     OW25990   0.294   0.716  10.921 -0.0128  0.1689 -0.4225
 4786SOL    HW125991   0.263   0.752  11.004 -1.8638 -2.2421 -0.0838
 4786SOL    HW225992   0.362   0.779  10.895  1.2130 -1.8108 -1.9839
 4787SOL     OW25993   4.590   3.981   8.802  0.0633  0.6340 -0.0461
 4787SOL    HW125994   4.615   3.989   8.894 -0.2872 -1.2980  0.2372
 4787SOL    HW225995   4.668   3.936   8.769 -0.1551 -0.7181  1.2237
 4788SOL     OW25996   0.929   3.100   9.892 -0.0388 -0.0375  0.6479
 4788SOL    HW125997   1.020   3.073   9.880 -0.0855 -0.1984  0.6592
 4788SOL    HW225998   0.893   3.027   9.943  0.1134  0.7976  1.9460
 4789SOL     OW25999   2.435   1.330   5.967 -0.0595  0.0471  0.0181
 4789SOL    HW126000   2.363   1.276   5.999 -0.6048 -0.3068 -1.8230
 4789SOL    HW226001   2.383   1.409   5.950  1.6809  1.3820  0.9633
 4790SOL     OW26002   3.488   1.522   3.287 -0.2077  0.3451 -0.5533
 4790SOL    HW126003   3.484   1.600   3.232  1.7858 -0.0647 -1.2619
 4790SOL    HW226004   3.567   1.483   3.248  0.3017  0.2363  0.5914
 4791SOL     OW26005   1.540   1.651   7.931 -0.6527 -0.5867  0.4890
 4791SOL    HW126006   1.522   1.645   8.025  0.9864  3.1689  1.0064
 4791SOL    HW226007   1.452   1.661   7.895  0.2454 -3.2005 -2.4173
 4792SOL     OW26008   3.681   4.035  14.132 -0.4638  0.0854  0.2021
 4792SOL    HW126009   3.693   4.123  14.098 -0.8458  0.6286  1.4797
 4792SOL    HW226010   3.668   3.986  14.050  0.5477  1.0123 -0.5086
 4793SOL     OW26011   0.630   3.558   5.642 -0.1901 -0.1408  0.3427
 4793SOL    HW126012   0.720   3.526   5.646 -0.1081 -0.3579 -2.6855
 4793SOL    HW226013   0.597   3.521   5.560  1.9742  0.2280 -0.6917
 4794SOL     OW26014   2.953   0.715   3.166  1.3251 -0.0200  0.2881
 4794SOL    HW126015   2.975   0.634   3.119 -3.5117  0.7196 -3.2664
 4794SOL    HW226016   2.918   0.671   3.244  0.0448  2.5264  1.1166
 4795SOL     OW26017   4.067   0.797   2.320 -0.1818  0.3576  0.0579
 4795SOL    HW126018   4.161   0.801   2.336 -0.3125 -0.5800  1.0314
 4795SOL    HW226019   4.037   0.715   2.358 -2.4940  0.8552 -0.6916
 4796SOL     OW26020   2.364   1.681   5.177 -0.3846  0.1253 -0.0286
 4796SOL    HW126021   2.325   1.759   5.138 -0.3662  0.2592  0.2203
 4796SOL    HW226022   2.328   1.691   5.265 -0.0988 -0.3069  0.1383
 4797SOL     OW26023   0.288   4.417   3.959  0.2967 -0.5596  0.1119
 4797SOL    HW126024   0.219   4.384   4.016  0.5990 -4.2482 -1.6329
 4797SOL    HW226025   0.367   4.397   4.009 -0.2036  0.3071  1.2596
 4798SOL     OW26026   4.567   3.046   3.351  0.0343 -0.1983 -0.1905
 4798SOL    HW126027   4.541   3.111   3.417  0.1970 -1.0124  0.6775
 4798SOL    HW226028   4.628   2.989   3.398 -0.3376 -0.1487  0.3506
 4799SOL     OW26029   2.750   1.628   4.419 -0.1696 -0.0548 -0.2788
 4799SOL    HW126030   2.791   1.589   4.495  2.1002 -0.2059 -1.5926
 4799SOL    HW226031   2.788   1.715   4.425  0.2345 -0.2814  0.3518
 4800SOL     OW26032   1.981   3.788   1.215 -0.3997  0.2848 -0.4932
 4800SOL    HW126033   1.910   3.732   1.185  1.4193 -0.7806 -2.7802
 4800SOL    HW226034   2.027   3.823   1.139  1.8240  0.4678  0.9271
 4801SOL     OW26035   1.465   3.855  12.414  0.8152 -0.3196  0.0280
 4801SOL    HW126036   1.542   3.884  12.365  0.9272  2.0918  1.6257
 4801SOL    HW226037   1.469   3.762  12.393  0.5014  0.5396 -3.7912
 4802SOL     OW26038   3.637   2.053   2.740  0.0970  0.0489  0.1268
 4802SOL    HW126039   3.632   2.098   2.824 -2.3427  0.6679 -0.3486
 4802SOL    HW226040   3.641   1.961   2.768 -1.5619  0.0811  0.4861
 4803SOL     OW26041   2.297   1.971   4.058  0.2299  0.0741  0.2952
 4803SOL    HW126042   2.370   2.030   4.080 -0.4049  1.5939 -1.6851
 4803SOL    HW226043   2.354   1.909   4.012 -0.3680 -2.0137  2.3477
 4804SOL     OW26044   0.444   4.284   8.780  0.3799  0.2943 -0.2255
 4804SOL    HW126045   0.515   4.221   8.771 -0.7778 -1.1953  1.1590
 4804SOL    HW226046   0.413   4.300   8.690  2.2633  3.1940 -0.3587
 4805SOL     OW26047   4.370   4.517   2.903 -0.1324 -0.2528 -0.8627
 4805SOL    HW126048   4.465   4.503   2.908  0.4485  4.7176  1.8647
 4805SOL    HW226049   4.348   4.534   2.995  1.7896 -1.1610 -0.2340
 4806SOL     OW26050   3.191   1.328  15.568  0.3573  0.1990  0.3495
 4806SOL    HW126051   3.229   1.414  15.589  1.4971 -0.2352  0.0493
 4806SOL    HW226052   3.245   1.258  15.604  0.0650 -0.6353 -0.8526
 4807SOL     OW26053   1.978   2.434   2.438  0.0890 -0.3038 -0.2350
 4807SOL    HW126054   1.888   2.406   2.455  0.2483 -0.4107  0.4430
 4807SOL    HW226055   1.983   2.443   2.343 -0.2928 -1.6472 -0.3890
 4808SOL     OW26056   2.457   2.751  17.051 -0.3194  0.2551 -0.3328
 4808SOL    HW126057   2.509   2.815  17.099  1.3242 -0.8771 -0.6028
 4808SOL    HW226058   2.385   2.725  17.108  1.3657 -2.3011  0.6331
 4809SOL     OW26059   2.061   1.118   3.674 -0.2493  0.1577 -0.2245
 4809SOL    HW126060   2.143   1.133   3.627 -0.2647  0.4936 -0.1422
 4809SOL    HW226061   1.995   1.178   3.641 -0.5419 -0.2614 -0.4034
 4810SOL     OW26062   2.597   3.609   1.034  0.2308 -0.1018  0.2140
 4810SOL    HW126063   2.642   3.544   0.979 -1.9239 -1.1741 -0.2771
 4810SOL    HW226064   2.661   3.639   1.099  2.0587 -2.9527 -0.2561
 4811SOL     OW26065   0.495   0.082   0.287  0.4122 -0.1992  0.3616
 4811SOL    HW126066   0.413   0.046   0.322  0.5537 -1.2707 -0.3948
 4811SOL    HW226067   0.519   0.137   0.361 -0.3398  1.5898 -0.7159
 4812SOL     OW26068   1.425   4.353  16.524 -0.2108  0.1391  0.0483
 4812SOL    HW126069   1.355   4.413  16.499  1.0398  2.3550  1.8993
 4812SOL    HW226070   1.496   4.405  16.485  0.3580 -0.7239 -0.0638
 4813SOL     OW26071   1.911   4.725   5.739 -0.5801 -0.0978  0.3984
 4813SOL    HW126072   1.926   4.696   5.829 -1.4740 -1.4949  0.0977
 4813SOL    HW226073   1.970   0.059   5.750 -0.7884  0.0093  0.8210
 4814SOL     OW26074   4.496   1.968   5.914  0.2148 -0.8309  0.1264
 4814SOL    HW126075   4.434   2.031   5.950  1.6094  0.7589 -0.2373
 4814SOL    HW226076   4.446   1.889   5.934 -1.8397  0.5879  0.5832
 4815SOL     OW26077   3.287   3.187  13.273 -0.1041  0.6907  0.2326
 4815SOL    HW126078   3.365   3.241  13.265 -0.1588  1.0542  1.9989
 4815SOL    HW226079   3.323   3.102  13.246  1.5049  0.4669  3.0652
 4816SOL     OW26080   0.023   0.449   3.204  0.4591  0.4060  0.4302
 4816SOL    HW126081   4.717   0.524   3.168 -0.5820 -1.3286 -1.8325
 4816SOL    HW226082   0.111   0.474   3.177  0.2200  1.3372  0.5261
 4817SOL     OW26083   4.490   1.249   7.265 -0.0540 -0.1413  0.3271
 4817SOL    HW126084   4.457   1.286   7.347 -2.2608  0.2663 -0.7673
 4817SOL    HW226085   4.538   1.321   7.224 -2.0447  0.4804 -0.8873
 4818SOL     OW26086   2.795   3.020   5.504 -0.1101  0.2183 -0.1758
 4818SOL    HW126087   2.819   2.964   5.430 -2.7192 -1.1072 -0.0364
 4818SOL    HW226088   2.870   3.006   5.562 -0.0045  1.0189 -0.1269
 4819SOL     OW26089   2.809   3.986   7.458 -0.0793 -0.0733  0.1912
 4819SOL    HW126090   2.809   4.076   7.490  3.3380  0.5600 -1.5471
 4819SOL    HW226091   2.861   3.991   7.377 -1.4516 -1.4049 -0.7748
 4820SOL     OW26092   1.439   0.978   2.140 -0.2275  0.2686 -0.2434
 4820SOL    HW126093   1.517   0.940   2.100 -0.6935 -2.3714  1.3410
 4820SOL    HW226094   1.422   1.051   2.080  2.3616  0.8575 -0.2642
 4821SOL     OW26095   1.011   1.748   2.727  0.0982  0.2176 -0.0913
 4821SOL    HW126096   0.999   1.763   2.633  3.5970 -0.9938 -0.7245
 4821SOL    HW226097   1.046   1.659   2.736  1.9222  0.8510 -0.8737
 4822SOL     OW26098   3.210   0.170   0.757 -0.1406  0.2311 -0.4440
 4822SOL    HW126099   3.284   0.226   0.734 -0.1284 -0.1361 -1.3098
 4822SOL    HW226100   3.246   0.115   0.826 -2.2211  1.2143  1.4398
 4823SOL     OW26101   3.853   3.354   6.579  0.0132  0.0351  0.2355
 4823SOL    HW126102   3.826   3.265   6.604 -0.8963  0.2577  0.0711
 4823SOL    HW226103   3.791   3.382   6.512 -1.3320  0.5389  1.6786
 4824SOL     OW26104   1.746   0.267   2.125  0.1446 -0.0151 -0.0185
 4824SOL    HW126105   1.802   0.214   2.068  0.4944  1.0095 -0.6296
 4824SOL    HW226106   1.782   0.355   2.113 -0.0416  0.1241  0.4482
 4825SOL     OW26107   0.323   1.471  15.096 -0.0597 -0.1197 -0.1374
 4825SOL    HW126108   0.248   1.420  15.126 -1.9232  2.2937 -0.6694
 4825SOL    HW226109   0.394   1.408  15.109  0.3649  0.4659  0.3692
 4826SOL     OW26110   4.502   1.827  15.276 -0.4550  0.3374  0.2166
 4826SOL    HW126111   4.415   1.815  15.238  0.9017 -3.6042 -1.6370
 4826SOL    HW226112   4.548   1.824  15.192 -0.6059 -0.4916  0.1646
 4827SOL     OW26113   1.174   2.360   5.760  0.4861  0.1152  0.7345
 4827SOL    HW126114   1.221   2.349   5.843  2.1317 -4.0511 -0.7240
 4827SOL    HW226115   1.090   2.382   5.800  0.4189  0.1175  0.5920
 4828SOL     OW26116   1.247   2.541   0.899  0.0593 -0.8622 -0.8564
 4828SOL    HW126117   1.295   2.578   0.824  0.5118 -0.7796 -0.5279
 4828SOL    HW226118   1.309   2.532   0.971 -0.8619 -1.8613 -0.1999
 4829SOL     OW26119   2.150   4.501   1.020 -0.6725  0.1744  0.0921
 4829SOL    HW126120   2.206   4.439   1.065 -0.3037 -0.4636 -1.2343
 4829SOL    HW226121   2.101   4.452   0.954 -2.1211  2.1459 -0.3296
 4830SOL     OW26122   4.485   4.055   3.530  0.4500  0.0161  0.0477
 4830SOL    HW126123   4.421   4.051   3.459  0.9008 -1.5255 -0.2679
 4830SOL    HW226124   4.433   4.064   3.610  0.4474  2.2847 -0.2065
 4831SOL     OW26125   3.873   2.905   9.206 -0.2759 -0.2761 -0.0757
 4831SOL    HW126126   3.832   2.827   9.169  1.2275 -0.2533 -1.8192
 4831SOL    HW226127   3.920   2.939   9.130 -1.4882  1.6400  0.0453
 4832SOL     OW26128   0.700   0.935  17.678  0.0553  0.4762 -0.0978
 4832SOL    HW126129   0.617   0.977  17.697 -1.2800 -1.7522 -1.0372
 4832SOL    HW226130   0.749   0.982  17.746 -0.5756 -0.5944  1.1007
 4833SOL     OW26131   1.359   1.719   8.627 -0.1483 -0.8628  0.6649
 4833SOL    HW126132   1.318   1.643   8.669  0.6193 -1.0014  1.1589
 4833SOL    HW226133   1.418   1.746   8.697  0.3634  1.9265 -0.8333
 4834SOL     OW26134   4.316   0.317   6.434 -0.4395  0.5247 -0.2470
 4834SOL    HW126135   4.234   0.366   6.441 -1.5341 -1.3785  0.2034
 4834SOL    HW226136   4.306   0.295   6.342  0.2427 -0.7602 -0.0136
 4835SOL     OW26137   3.994   1.455   6.137  0.6071 -0.1031  0.2749
 4835SOL    HW126138   4.012   1.527   6.198  1.9222 -1.0964  1.0529
 4835SOL    HW226139   3.971   1.514   6.065 -0.6024 -0.0288  0.7114
 4836SOL     OW26140   4.118   3.936   4.214  0.0892  0.1751 -0.3561
 4836SOL    HW126141   4.191   3.962   4.157  0.2938  2.4327  0.9682
 4836SOL    HW226142   4.055   3.887   4.162  0.5244  1.2922 -1.9595
 4837SOL     OW26143   0.723   0.812   4.280 -0.0923 -0.1258  0.3329
 4837SOL    HW126144   0.682   0.766   4.207  0.3983  1.0965 -0.6978
 4837SOL    HW226145   0.765   0.749   4.339 -1.1585 -0.5597  0.6355
 4838SOL     OW26146   2.774   4.098   7.875  0.1755 -0.1140  0.3309
 4838SOL    HW126147   2.765   4.005   7.896 -4.0169  0.5660  1.6949
 4838SOL    HW226148   2.714   4.117   7.803  0.9504  0.0603 -0.2665
 4839SOL     OW26149   4.246   0.973   0.610 -0.5989  0.6220  0.2113
 4839SOL    HW126150   4.263   0.902   0.672 -1.0615  1.0201  0.8026
 4839SOL    HW226151   4.163   0.939   0.575 -0.4761 -0.3520  0.8603
 4840SOL     OW26152   1.443   2.111   2.886 -0.0741  0.1517  0.4084
 4840SOL    HW126153   1.457   2.023   2.850  0.1631  0.3482  0.0138
 4840SOL    HW226154   1.523   2.109   2.939 -0.3373 -0.7865  0.7680
 4841SOL     OW26155   0.593   4.313  14.241 -0.8639  0.2961  0.1075
 4841SOL    HW126156   0.677   4.359  14.235 -0.7201  0.1532  1.0725
 4841SOL    HW226157   0.585   4.303  14.336 -0.3952  0.5095  0.1707
 4842SOL     OW26158   0.070   0.383   7.045 -0.1855 -0.3031  0.5500
 4842SOL    HW126159   0.050   0.366   7.137 -0.5076 -0.4080  0.4619
 4842SOL    HW226160   4.717   0.395   7.024  0.0400  1.3271  0.4970
 4843SOL     OW26161   0.726   4.220   7.484  0.0994  0.5869  0.5674
 4843SOL    HW126162   0.727   4.159   7.411  0.6286  0.6936  0.4894
 4843SOL    HW226163   0.635   4.226   7.516 -1.5375 -2.2578 -3.6267
 4844SOL     OW26164   1.571   2.659   7.947  0.1476 -0.2308  0.4106
 4844SOL    HW126165   1.513   2.735   7.940 -0.2964 -0.4516  1.6758
 4844SOL    HW226166   1.562   2.632   8.038 -1.3062  0.2052  0.3856
 4845SOL     OW26167   0.791   0.179   8.606 -0.9720  0.0415 -0.7301
 4845SOL    HW126168   0.872   0.225   8.586 -0.7553  0.2066  0.5283
 4845SOL    HW226169   0.785   0.185   8.702  1.8030 -0.9660 -0.4924
 4846SOL     OW26170   1.167   1.380  14.353  0.7663  0.0531  0.6623
 4846SOL    HW126171   1.172   1.466  14.396  1.1599 -0.5788  1.8703
 4846SOL    HW226172   1.110   1.391  14.277  2.2251  1.4452 -0.2515
 4847SOL     OW26173   0.880   3.038   2.907  0.3320  0.3098 -0.4883
 4847SOL    HW126174   0.805   3.091   2.936 -1.8002 -2.0212 -1.6998
 4847SOL    HW226175   0.837   2.968   2.859 -0.3006  0.6866 -0.4782
 4848SOL     OW26176   4.275   4.498   1.200 -0.0318  0.1456 -0.1632
 4848SOL    HW126177   4.276   4.588   1.166  3.1743  0.1387 -0.1205
 4848SOL    HW226178   4.292   4.525   1.290  1.9044 -2.0056  0.1119
 4849SOL     OW26179   1.890   0.535   1.027  0.7596 -0.3135  0.3647
 4849SOL    HW126180   1.840   0.559   1.104  1.3381  0.8624  0.3821
 4849SOL    HW226181   1.899   0.442   1.046  0.7381 -0.3546  0.1720
 4850SOL     OW26182   1.449   2.342   3.257 -0.4775  0.2985 -0.2477
 4850SOL    HW126183   1.497   2.264   3.231  2.3387  1.6600  0.8529
 4850SOL    HW226184   1.433   2.373   3.168 -4.1813 -0.8295  0.0591
 4851SOL     OW26185   3.332   3.663   2.228 -0.6373 -0.2076  0.6214
 4851SOL    HW126186   3.315   3.596   2.161 -0.4335  0.4374 -0.0819
 4851SOL    HW226187   3.259   3.724   2.223 -0.5069 -0.0722  0.3396
 4852SOL     OW26188   1.091   4.283   8.226 -0.5593  0.8377 -0.4831
 4852SOL    HW126189   1.002   4.319   8.224 -0.5683  0.8541  0.0882
 4852SOL    HW226190   1.064   4.193   8.209 -0.0171  0.6570 -0.3696
 4853SOL     OW26191   1.522   0.363   5.123 -0.3225 -0.1152  0.1179
 4853SOL    HW126192   1.438   0.361   5.169 -0.4007  0.4526  0.0022
 4853SOL    HW226193   1.535   0.456   5.104 -1.9611 -0.4916 -2.7204
 4854SOL     OW26194   1.330   3.630   9.213 -0.0421 -0.2247  0.2740
 4854SOL    HW126195   1.274   3.598   9.283 -1.7540  0.1321 -0.9257
 4854SOL    HW226196   1.351   3.718   9.243 -0.1325 -0.1637  0.1585
 4855SOL     OW26197   0.551   1.799   5.465  0.0325 -0.6722 -0.2850
 4855SOL    HW126198   0.539   1.732   5.532  1.0143 -0.7902 -0.2395
 4855SOL    HW226199   0.630   1.840   5.498 -0.0410 -0.8180  0.0676
 4856SOL     OW26200   2.695   1.487  11.171  0.1500 -0.2175  0.8980
 4856SOL    HW126201   2.783   1.461  11.144  0.1229  1.9679 -1.3665
 4856SOL    HW226202   2.682   1.451  11.258  1.8843  1.9799  2.0639
 4857SOL     OW26203   2.022   2.234   4.762 -0.0078 -0.1271 -0.1878
 4857SOL    HW126204   1.947   2.254   4.817  0.2006  1.8772 -0.6257
 4857SOL    HW226205   2.036   2.140   4.778 -1.2274 -0.6545 -2.2034
 4858SOL     OW26206   0.970   0.912   3.995  0.0055  0.2590 -0.8334
 4858SOL    HW126207   1.020   0.918   4.076  0.1352 -0.0432 -0.8916
 4858SOL    HW226208   0.988   1.002   3.971 -0.6551  0.9832  1.4101
 4859SOL     OW26209   3.804   4.037  17.258 -0.1460  0.1704  0.2850
 4859SOL    HW126210   3.768   3.957  17.220 -0.4103  1.0281 -1.2580
 4859SOL    HW226211   3.762   4.107  17.210 -1.7549 -0.4755  0.7648
 4860SOL     OW26212   1.470   0.652   5.057  0.0311 -0.0736 -0.7028
 4860SOL    HW126213   1.535   0.718   5.033 -1.1805  0.5939 -2.1192
 4860SOL    HW226214   1.429   0.689   5.135  0.8814 -1.0527  0.2068
 4861SOL     OW26215   4.067   1.958   9.562  0.2686  0.2897 -0.0331
 4861SOL    HW126216   4.085   1.878   9.611  0.9943  1.5497  1.7192
 4861SOL    HW226217   4.083   2.032   9.620  0.9878 -1.9060  2.5652
 4862SOL     OW26218   1.158   1.942   8.619  0.0641 -0.2687 -0.3145
 4862SOL    HW126219   1.191   1.861   8.658 -1.5937 -0.6316  0.3044
 4862SOL    HW226220   1.195   1.998   8.688 -0.2569  1.1111 -1.2473
 4863SOL     OW26221   2.538   2.477   9.198 -0.6856  0.1362  0.0017
 4863SOL    HW126222   2.542   2.457   9.291 -0.2387  1.9960  0.3870
 4863SOL    HW226223   2.457   2.432   9.175 -0.6291 -0.4345  0.9159
 4864SOL     OW26224   1.864   1.294   3.501 -0.1556  0.3371 -0.9255
 4864SOL    HW126225   1.804   1.231   3.462 -0.0944 -0.9091  0.9715
 4864SOL    HW226226   1.810   1.372   3.484 -1.3586 -0.1074  0.8455
 4865SOL     OW26227   1.790   1.102  14.651  0.7699 -0.6281  0.3843
 4865SOL    HW126228   1.833   1.114  14.567  0.4603 -1.3381  0.1264
 4865SOL    HW226229   1.753   1.014  14.643 -0.5577 -0.1301  1.0839
 4866SOL     OW26230   3.488   3.404   4.234  0.0736  0.0998  0.0416
 4866SOL    HW126231   3.541   3.478   4.206 -0.1912 -1.0351 -3.4697
 4866SOL    HW226232   3.405   3.448   4.254 -1.6565 -3.9850  2.0162
 4867SOL     OW26233   1.027   2.204  16.463  0.3159  0.2571  0.4899
 4867SOL    HW126234   0.971   2.154  16.523  0.1398  0.5162  0.5399
 4867SOL    HW226235   0.965   2.232  16.396  0.8239  2.9229  1.1368
 4868SOL     OW26236   2.105   2.657   8.240 -0.3416 -0.4363 -0.1022
 4868SOL    HW126237   2.027   2.602   8.235 -0.9162  0.2022  1.6563
 4868SOL    HW226238   2.095   2.709   8.320  1.0801 -0.6131  0.1777
 4869SOL     OW26239   1.178   2.654   1.918  0.0448  0.3984 -0.0129
 4869SOL    HW126240   1.176   2.597   1.995  0.3653  0.0582 -0.2539
 4869SOL    HW226241   1.176   2.741   1.958 -1.0556 -0.0670  0.9476
 4870SOL     OW26242   1.265   2.905   4.376 -0.2911 -0.1190  0.2039
 4870SOL    HW126243   1.265   2.877   4.284  2.3357 -1.4401  0.5786
 4870SOL    HW226244   1.186   2.958   4.385 -1.2211 -2.0709  3.7692
 4871SOL     OW26245   3.995   0.031   8.508 -0.5313  0.0770  0.7376
 4871SOL    HW126246   4.050   4.694   8.524 -0.8645 -0.5112 -0.9528
 4871SOL    HW226247   3.912   4.730   8.482 -0.1537 -1.2773  1.6638
 4872SOL     OW26248   1.686   2.013   3.322 -0.1760  0.1520  0.7993
 4872SOL    HW126249   1.760   2.054   3.367  0.4434  0.9761 -0.9824
 4872SOL    HW226250   1.672   1.960   3.400  2.7493 -1.3984  0.2629
 4873SOL     OW26251   1.084   3.027   9.228  0.2040 -0.3475  0.3009
 4873SOL    HW126252   1.049   3.055   9.312  0.3208  1.1082 -0.1418
 4873SOL    HW226253   1.019   2.960   9.210  0.1798  0.5488 -2.9463
 4874SOL     OW26254   2.351   2.761   6.956 -0.1397  0.2087  0.6306
 4874SOL    HW126255   2.309   2.676   6.966  0.5293 -0.2074 -0.0548
 4874SOL    HW226256   2.285   2.807   6.905 -1.2308 -2.4059 -0.3086
 4875SOL     OW26257   1.149   4.496   7.767 -0.2836  0.3238 -0.1056
 4875SOL    HW126258   1.183   4.580   7.735  0.6431  0.8496  2.2864
 4875SOL    HW226259   1.223   4.462   7.817  0.1750 -1.3041 -1.8846
 4876SOL     OW26260   0.278   0.457   3.116  0.3810 -0.1765 -0.1959
 4876SOL    HW126261   0.309   0.475   3.027  0.7833  0.1452  0.0073
 4876SOL    HW226262   0.348   0.411   3.161 -0.8186 -1.1209  0.6852
 4877SOL     OW26263   1.533   3.442  11.250  0.1061 -0.4425  0.3435
 4877SOL    HW126264   1.580   3.523  11.230 -2.4740  0.3223 -2.5968
 4877SOL    HW226265   1.598   3.380  11.215 -0.0063  0.1753 -0.9389
 4878SOL     OW26266   3.675   0.901   2.716 -0.0171 -0.1995  0.0309
 4878SOL    HW126267   3.631   0.829   2.762 -0.5541  0.0276 -0.1338
 4878SOL    HW226268   3.761   0.861   2.705  0.8339  0.7871  2.9829
 4879SOL     OW26269   0.055   4.197   2.775  0.7541  0.0678 -0.0069
 4879SOL    HW126270   0.100   4.233   2.699  1.2312 -4.1403 -1.6839
 4879SOL    HW226271   0.128   4.152   2.818  0.5663  2.2412  2.6119
 4880SOL     OW26272   0.044   1.105   0.549  0.0959 -0.4145  0.2045
 4880SOL    HW126273   0.130   1.064   0.558  0.3795 -0.1619 -1.4133
 4880SOL    HW226274   0.013   1.073   0.465 -0.6507 -0.6024  0.5457
 4881SOL     OW26275   2.461   2.924  15.762  0.2568 -0.4741 -0.2004
 4881SOL    HW126276   2.492   2.835  15.744 -1.8908 -1.1405 -0.5901
 4881SOL    HW226277   2.459   2.968  15.677 -1.7302 -0.6327 -0.2519
 4882SOL     OW26278   0.716   4.370  11.918 -0.0681 -0.5169  0.7599
 4882SOL    HW126279   0.750   4.406  12.000  0.6126  1.8404 -0.5478
 4882SOL    HW226280   0.770   4.291  11.916 -0.7728 -1.0188  1.3961
 4883SOL     OW26281   0.297   4.111   3.562 -0.1770  0.7960 -0.4485
 4883SOL    HW126282   0.391   4.132   3.562  0.2294 -1.0056 -0.1017
 4883SOL    HW226283   0.280   4.128   3.470  2.4637 -1.0545 -1.2796
 4884SOL     OW26284   1.098   3.157   1.550  0.3714 -0.0127  0.2418
 4884SOL    HW126285   1.158   3.086   1.527  1.0193  0.7152 -0.3146
 4884SOL    HW226286   1.022   3.115   1.591 -1.2444  1.4329 -1.2617
 4885SOL     OW26287   0.905   1.692  17.658  0.0824 -0.4051 -0.3508
 4885SOL    HW126288   0.824   1.662  17.698 -0.8674  2.9674  0.2660
 4885SOL    HW226289   0.932   1.621  17.599  2.2386 -0.2356  0.4081
 4886SOL     OW26290   4.176   1.839   3.182 -0.1701  0.4574  0.0798
 4886SOL    HW126291   4.138   1.759   3.144  1.0281 -0.4517  0.7699
 4886SOL    HW226292   4.181   1.829   3.277  0.7425  0.9192  0.0766
 4887SOL     OW26293   4.057   2.934   4.054 -0.4651  0.1561 -0.0912
 4887SOL    HW126294   3.976   2.936   4.003 -0.9859  1.2487  0.8031
 4887SOL    HW226295   4.026   2.948   4.143 -2.7050  0.5424 -0.9172
 4888SOL     OW26296   3.711   4.067   9.124 -0.1633 -0.0831 -0.1316
 4888SOL    HW126297   3.662   4.036   9.047 -0.8240  1.1515 -0.2108
 4888SOL    HW226298   3.797   4.025   9.129 -0.8454 -1.6274 -1.3013
 4889SOL     OW26299   1.024   3.802   6.414 -0.1371  0.8412  0.0961
 4889SOL    HW126300   1.041   3.708   6.419  1.6593  1.0743 -1.4467
 4889SOL    HW226301   1.079   3.828   6.340  1.1701 -1.5557  0.2300
 4890SOL     OW26302   2.653   0.050  17.042  0.2113  0.1342  0.0450
 4890SOL    HW126303   2.594   0.091  16.978 -0.4447 -0.8820  0.0035
 4890SOL    HW226304   2.697   4.721  16.994 -1.1336 -1.4643  1.1283
 4891SOL     OW26305   3.163   4.077  13.980 -0.4321  0.3572  0.7127
 4891SOL    HW126306   3.156   4.090  14.075 -1.4203  0.8109  0.5773
 4891SOL    HW226307   3.157   3.981  13.980 -0.5003  0.3661 -1.3359
 4892SOL     OW26308   2.076   0.197   8.590 -0.0226  0.1937 -0.2053
 4892SOL    HW126309   2.006   0.170   8.650 -1.7363 -0.0850 -2.3525
 4892SOL    HW226310   2.116   0.259   8.651  0.8654 -0.6865  0.1010
 4893SOL     OW26311   4.338   3.517  14.451  0.0897 -0.3138 -0.0367
 4893SOL    HW126312   4.243   3.533  14.448  0.3574  1.1430 -0.5889
 4893SOL    HW226313   4.373   3.577  14.516  0.5196  1.1456 -1.5991
 4894SOL     OW26314   0.253   1.843   8.694 -0.5446  0.3319 -0.2477
 4894SOL    HW126315   0.181   1.883   8.743  0.9444  2.6627  0.0265
 4894SOL    HW226316   0.329   1.878   8.739  0.3310 -1.9000  0.0305
 4895SOL     OW26317   2.553   2.831   3.832  0.4665  0.5532 -1.0193
 4895SOL    HW126318   2.535   2.817   3.739  1.5097 -0.4242 -1.0792
 4895SOL    HW226319   2.480   2.885   3.861  1.2025  1.5722 -1.0532
 4896SOL     OW26320   4.284   1.814  13.611 -0.7817  0.0363  0.4628
 4896SOL    HW126321   4.202   1.765  13.614 -0.1550 -1.0611 -0.8436
 4896SOL    HW226322   4.271   1.866  13.531  1.0351  1.5951  1.1668
 4897SOL     OW26323   2.992   2.167   7.591  0.9195  0.1966 -0.6610
 4897SOL    HW126324   2.957   2.199   7.508 -1.3216 -0.2177  0.1464
 4897SOL    HW226325   3.061   2.232   7.610 -0.1074  0.8789  0.7478
 4898SOL     OW26326   0.391   3.821   2.612 -0.0624 -0.8351 -0.2896
 4898SOL    HW126327   0.297   3.817   2.595 -0.1198 -0.1611 -0.1200
 4898SOL    HW226328   0.402   3.800   2.705  2.2997  0.7861 -0.1972
 4899SOL     OW26329   4.588   0.124   8.520  0.2067 -0.1942 -0.9858
 4899SOL    HW126330   4.630   0.153   8.440  1.2085 -0.2154 -0.4657
 4899SOL    HW226331   4.566   0.035   8.494 -0.2814  0.0100 -1.2793
 4900SOL     OW26332   0.742   2.280   5.493  0.3031  0.0942 -0.9202
 4900SOL    HW126333   0.704   2.217   5.433 -0.2101  0.0058 -0.5003
 4900SOL    HW226334   0.749   2.357   5.436  4.0057  0.9783  0.6929
 4901SOL     OW26335   3.599   3.347   1.925  0.0983 -0.2080 -0.7014
 4901SOL    HW126336   3.657   3.303   1.864 -0.0262 -0.4517 -0.6475
 4901SOL    HW226337   3.514   3.310   1.900 -0.1048 -0.2665  0.0732
 4902SOL     OW26338   0.893   4.504   1.568  0.1824 -0.2437 -0.2205
 4902SOL    HW126339   0.834   4.507   1.492 -1.1524 -0.8755  0.7856
 4902SOL    HW226340   0.870   4.582   1.619  0.0449 -0.0161 -0.6255
 4903SOL     OW26341   2.310   4.147   8.913 -0.2932  0.1674  0.1652
 4903SOL    HW126342   2.347   4.236   8.907 -1.3943  0.7509  2.1774
 4903SOL    HW226343   2.259   4.164   8.991 -0.6413 -0.1022 -0.0036
 4904SOL     OW26344   3.403   2.730   2.035 -0.0454  0.5030 -0.4337
 4904SOL    HW126345   3.448   2.704   2.115 -1.8411 -0.0042  0.4290
 4904SOL    HW226346   3.368   2.816   2.057  0.6170  0.3580  1.1784
 4905SOL     OW26347   3.217   1.509   2.667  0.7200 -0.1951 -0.7170
 4905SOL    HW126348   3.231   1.536   2.758  0.9179  0.3053 -0.8992
 4905SOL    HW226349   3.305   1.484   2.639  0.8830 -0.1208 -0.2715
 4906SOL     OW26350   1.286   0.866   7.626 -0.4379 -0.1638 -0.1702
 4906SOL    HW126351   1.330   0.949   7.647  0.5952 -1.1293  1.5000
 4906SOL    HW226352   1.222   0.881   7.557 -0.4911 -3.9397 -0.9326
 4907SOL     OW26353   2.386   3.644   9.800  0.1181  0.5360  0.1556
 4907SOL    HW126354   2.330   3.720   9.793 -2.5593 -1.3411  1.3114
 4907SOL    HW226355   2.327   3.586   9.849  0.9741 -0.3860  0.1042
 4908SOL     OW26356   3.537   3.306  16.042 -0.3711 -0.8288 -0.3387
 4908SOL    HW126357   3.613   3.294  15.985  0.8268 -0.5743  1.2298
 4908SOL    HW226358   3.492   3.222  16.037  0.0790 -1.1319  0.8354
 4909SOL     OW26359   3.590   3.432  15.457 -0.1816 -0.0481 -0.2472
 4909SOL    HW126360   3.543   3.382  15.524 -1.7430  3.1024  1.0328
 4909SOL    HW226361   3.534   3.422  15.380 -1.3664  0.6906  0.5255
 4910SOL     OW26362   3.793   3.386   3.921 -0.1060 -0.4312 -0.1982
 4910SOL    HW126363   3.830   3.437   3.994  0.2074 -0.9931  0.0325
 4910SOL    HW226364   3.706   3.424   3.907 -0.4774 -0.7965  1.0935
 4911SOL     OW26365   3.288   3.788  14.275  0.0553  0.0458  0.2394
 4911SOL    HW126366   3.351   3.758  14.210  0.7001 -0.6344  1.1745
 4911SOL    HW226367   3.226   3.845  14.229 -0.4016  0.3374  1.2177
 4912SOL     OW26368   1.736   3.511  13.659  0.1106 -0.4533  0.3566
 4912SOL    HW126369   1.725   3.603  13.639 -1.0301 -0.6106  0.2699
 4912SOL    HW226370   1.831   3.502  13.671  0.3615 -0.5924 -1.7550
 4913SOL     OW26371   3.156   4.512   2.503  0.2234  0.2372  0.0500
 4913SOL    HW126372   3.072   4.498   2.460  2.4054 -0.1114 -4.0792
 4913SOL    HW226373   3.197   4.427   2.485 -2.7468 -1.1489 -0.1378
 4914SOL     OW26374   4.649   2.096  14.672  0.1418 -0.1988  0.0700
 4914SOL    HW126375   4.700   2.177  14.662  0.3089 -0.2643  0.4092
 4914SOL    HW226376   4.686   2.063  14.753  3.1559  0.0551 -1.2240
 4915SOL     OW26377   4.367   0.566   1.645  0.2018  0.2765 -0.1859
 4915SOL    HW126378   4.425   0.506   1.598  1.1625  0.7997  0.3496
 4915SOL    HW226379   4.344   0.507   1.717  1.3715  0.4673  0.3462
 4916SOL     OW26380   2.669   2.441   3.662 -0.1823  0.5054 -0.1958
 4916SOL    HW126381   2.603   2.377   3.687  0.3002  1.4009  3.2944
 4916SOL    HW226382   2.730   2.396   3.603 -0.0812 -0.6986  0.8333
 4917SOL     OW26383   0.863   1.948  11.084 -0.2158  0.3643  0.7005
 4917SOL    HW126384   0.905   2.018  11.034  0.5560 -2.1521 -2.1241
 4917SOL    HW226385   0.815   1.894  11.022  0.2662 -0.7977  1.3488
 4918SOL     OW26386   0.478   2.602   8.445 -0.2558 -0.2784 -0.0485
 4918SOL    HW126387   0.502   2.513   8.470  0.6204  0.7497  2.6945
 4918SOL    HW226388   0.456   2.634   8.532  0.1270  0.9212 -0.4045
 4919SOL     OW26389   2.157   3.080   8.408  0.2874  0.5510 -0.1071
 4919SOL    HW126390   2.126   3.159   8.453 -0.2347  1.1213 -1.4844
 4919SOL    HW226391   2.251   3.095   8.410  0.4640 -0.7068  0.9853
 4920SOL     OW26392   4.216   4.351  14.533 -0.2288 -0.4051  0.5942
 4920SOL    HW126393   4.149   4.417  14.515  1.5576  1.6038  1.3952
 4920SOL    HW226394   4.252   4.330  14.447 -0.2958 -1.1671  0.7472
 4921SOL     OW26395   1.143   3.004   2.883 -0.4745  0.3674 -0.0564
 4921SOL    HW126396   1.120   3.093   2.909 -1.3166 -0.1666  1.0550
 4921SOL    HW226397   1.055   2.974   2.864 -0.3925  0.6016 -0.7746
 4922SOL     OW26398   0.974   0.918   2.009  0.2747  0.5121  0.1135
 4922SOL    HW126399   0.992   0.946   2.099  1.2249  0.9581 -0.2221
 4922SOL    HW226400   1.044   0.968   1.966  0.8718 -1.3971 -1.1006
 4923SOL     OW26401   3.284   1.997   0.095 -0.0225 -0.0764 -0.1857
 4923SOL    HW126402   3.337   2.009   0.174 -0.6252 -2.3223  0.5578
 4923SOL    HW226403   3.199   2.024   0.129  0.7545 -1.2226  2.7254
 4924SOL     OW26404   4.276   1.841   1.552 -0.0009  0.2690 -0.5104
 4924SOL    HW126405   4.211   1.770   1.548  2.5838 -2.2126  1.3598
 4924SOL    HW226406   4.341   1.791   1.602  0.0812  0.4254 -0.4638
 4925SOL     OW26407   3.672   2.310   6.327  0.6627  0.0777  0.3144
 4925SOL    HW126408   3.610   2.314   6.400 -1.2392  1.0498 -1.3667
 4925SOL    HW226409   3.725   2.387   6.346 -0.8770  1.0266  0.7128
 4926SOL     OW26410   2.263   1.248   1.928 -0.4709  0.5117  0.1333
 4926SOL    HW126411   2.330   1.313   1.911 -0.2308 -0.6244 -3.2134
 4926SOL    HW226412   2.254   1.272   2.020 -0.6516  0.6221  0.0882
 4927SOL     OW26413   4.417   2.942  17.660  0.0944 -0.3225 -0.1271
 4927SOL    HW126414   4.471   2.994  17.601 -0.7972 -0.6076 -1.2060
 4927SOL    HW226415   4.486   2.912  17.719 -0.8812 -2.2034  0.0791
 4928SOL     OW26416   4.317   2.419   4.547  0.4302 -0.0147  0.0776
 4928SOL    HW126417   4.280   2.507   4.543 -0.4520 -0.4809 -2.3157
 4928SOL    HW226418   4.236   2.369   4.545  0.3819  0.0818 -0.4938
 4929SOL     OW26419   1.847   1.202  11.460  1.0693  0.5232  0.7644
 4929SOL    HW126420   1.867   1.144  11.387  0.2519  0.9278  0.2144
 4929SOL    HW226421   1.767   1.243  11.428 -0.4183 -2.3653  0.8158
 4930SOL     OW26422   2.690   3.492   6.787  0.4016  0.5135 -0.1733
 4930SOL    HW126423   2.644   3.433   6.846 -0.1881  1.4358  0.2856
 4930SOL    HW226424   2.725   3.431   6.722 -0.1160  0.6485 -0.5775
 4931SOL     OW26425   1.339   0.803   9.076  0.2395 -0.7135  0.2750
 4931SOL    HW126426   1.308   0.726   9.030  0.3729 -0.2937 -0.5201
 4931SOL    HW226427   1.391   0.847   9.009 -1.0559  0.9145  0.3449
 4932SOL     OW26428   2.177   3.023   2.815  0.1462  0.0062  0.5166
 4932SOL    HW126429   2.176   2.961   2.888  1.9511  0.0666  0.5866
 4932SOL    HW226430   2.087   3.030   2.784  0.3818 -0.1824 -0.2095
 4933SOL     OW26431   1.471   2.582   1.137 -0.4137 -0.6544  0.7910
 4933SOL    HW126432   1.563   2.558   1.124 -0.7228 -1.9651  1.0119
 4933SOL    HW226433   1.466   2.613   1.228  0.0070 -2.6441  1.4920
 4934SOL     OW26434   4.319   4.519  12.356 -0.5455  0.5384  0.0493
 4934SOL    HW126435   4.390   4.519  12.292  0.9381 -0.7954  1.6798
 4934SOL    HW226436   4.308   4.614  12.363  0.5314  0.6064  0.8453
 4935SOL     OW26437   2.859   4.719   6.566  0.0804 -0.5324 -0.2002
 4935SOL    HW126438   2.812   0.014   6.490  1.8781 -0.2008 -1.1721
 4935SOL    HW226439   2.862   0.034   6.644  0.1290  0.5963 -0.9912
 4936SOL     OW26440   3.382   4.354   0.969 -0.1877 -0.7121  0.0761
 4936SOL    HW126441   3.388   4.259   0.972  0.1452 -0.6262  2.2604
 4936SOL    HW226442   3.310   4.367   1.032  0.5812 -0.1917  0.8585
 4937SOL     OW26443   1.257   4.533  16.747  0.3625 -0.1259  0.3151
 4937SOL    HW126444   1.230   4.522  16.656  2.8515 -0.6773 -0.3487
 4937SOL    HW226445   1.241   4.627  16.747  2.5519  0.2423 -0.2948
 4938SOL     OW26446   1.175   0.735  14.976  0.3779 -0.9373  0.7202
 4938SOL    HW126447   1.151   0.670  15.043 -0.9871  1.4305  2.5275
 4938SOL    HW226448   1.222   0.680  14.913 -0.6420 -1.0736  0.0881
 4939SOL     OW26449   4.548   2.741   6.583  0.3463 -0.4196  0.6897
 4939SOL    HW126450   4.458   2.708   6.585  0.0102  0.5700  1.8851
 4939SOL    HW226451   4.532   2.835   6.580 -2.3547 -0.9409 -1.3053
 4940SOL     OW26452   1.630   0.991   3.177  0.1125  0.8767  0.3094
 4940SOL    HW126453   1.550   0.953   3.141 -0.6646  1.0223  1.8768
 4940SOL    HW226454   1.646   0.923   3.242 -0.8714 -2.0111 -2.4491
 4941SOL     OW26455   1.131   4.084   6.311 -0.1210  0.3866 -0.4836
 4941SOL    HW126456   1.108   4.173   6.339 -0.5335  0.0460  0.2297
 4941SOL    HW226457   1.204   4.066   6.370 -0.0123 -0.3769 -0.8498
 4942SOL     OW26458   2.802   0.407   7.001 -0.4024 -0.3103 -0.5191
 4942SOL    HW126459   2.854   0.428   7.079 -0.0689  2.1017 -1.3680
 4942SOL    HW226460   2.783   0.315   7.017 -0.4020 -0.1286  0.4915
 4943SOL     OW26461   2.204   3.455   3.233  0.4310 -0.3017 -0.4739
 4943SOL    HW126462   2.215   3.516   3.306 -1.4662 -1.2033  0.5392
 4943SOL    HW226463   2.112   3.466   3.209 -0.6540 -0.7407  3.5276
 4944SOL     OW26464   0.050   3.310   3.299 -0.4609  0.2546 -0.3705
 4944SOL    HW126465   4.720   3.301   3.363  0.2346 -1.5506  0.1324
 4944SOL    HW226466   0.087   3.387   3.342  1.4353 -0.2931 -1.0208
 4945SOL     OW26467   0.832   3.652   2.829  0.3378  0.1007  0.1669
 4945SOL    HW126468   0.751   3.606   2.807  0.9579  0.0439 -2.0513
 4945SOL    HW226469   0.887   3.653   2.750  2.2507  0.0012  1.4990
 4946SOL     OW26470   0.466   1.559  13.677  0.0373  0.4218 -1.0379
 4946SOL    HW126471   0.556   1.565  13.645  0.9644  1.1363  1.7049
 4946SOL    HW226472   0.415   1.608  13.612  1.9340  2.6392 -0.8962
 4947SOL     OW26473   2.661   4.688   9.599 -0.0562  0.1773  0.1106
 4947SOL    HW126474   2.734   4.705   9.539  0.5955 -0.0983  0.8211
 4947SOL    HW226475   2.581   4.701   9.548 -0.2849 -0.6329  0.2703
 4948SOL     OW26476   4.619   4.528   7.458 -0.0647 -0.9262 -0.5306
 4948SOL    HW126477   4.541   4.488   7.498 -0.6352  0.0728 -0.6456
 4948SOL    HW226478   4.667   4.558   7.535 -1.2962 -0.9944  0.2646
 4949SOL     OW26479   0.124   0.284  10.102 -0.3849  0.2215 -0.0227
 4949SOL    HW126480   0.095   0.367  10.064  1.6959  0.7875 -0.3738
 4949SOL    HW226481   0.127   0.234  10.020  1.6711 -1.2684  0.9721
 4950SOL     OW26482   0.406   4.522   0.852 -0.0810 -0.0277  0.1963
 4950SOL    HW126483   0.478   4.461   0.868 -1.1272 -1.3709 -0.2118
 4950SOL    HW226484   0.424   4.546   0.761 -1.3715  0.7421  0.1506
 4951SOL     OW26485   1.123   3.240   8.688 -0.1675 -0.1180 -0.0375
 4951SOL    HW126486   1.043   3.292   8.691 -0.1667 -0.0132 -1.8403
 4951SOL    HW226487   1.140   3.221   8.780  3.4947 -1.1531 -0.9102
 4952SOL     OW26488   2.499   1.715   0.193  0.0883 -0.0198  0.2981
 4952SOL    HW126489   2.522   1.623   0.176 -0.6364 -0.1433 -0.0287
 4952SOL    HW226490   2.537   1.732   0.279  0.6107 -0.4075  0.1464
 4953SOL     OW26491   1.559   2.608   4.423 -0.1872 -1.1040  0.3761
 4953SOL    HW126492   1.593   2.630   4.336 -2.4977 -1.2737 -0.5804
 4953SOL    HW226493   1.618   2.658   4.478  2.5301 -1.9129 -1.8428
 4954SOL     OW26494   0.242   2.683   7.463 -0.2291 -0.7468 -0.6257
 4954SOL    HW126495   0.292   2.716   7.389  0.7566 -1.7421 -0.4100
 4954SOL    HW226496   0.227   2.765   7.510  0.4381 -1.5413  0.9814
 4955SOL     OW26497   1.483   0.725   8.366  0.1986 -0.7222 -0.2636
 4955SOL    HW126498   1.458   0.635   8.347  2.3654 -1.7248  1.7353
 4955SOL    HW226499   1.426   0.775   8.307 -0.0780 -0.1611  0.4641
 4956SOL     OW26500   1.527   4.689   8.719 -0.0309  0.2670 -0.5457
 4956SOL    HW126501   1.445   4.679   8.669 -0.9030 -0.4116  1.0398
 4956SOL    HW226502   1.557   4.599   8.727 -2.0457 -0.2871  0.8309
 4957SOL     OW26503   2.114   3.230   6.053 -0.5799  0.5759  0.0195
 4957SOL    HW126504   2.089   3.322   6.039 -0.0992  0.9430  1.6784
 4957SOL    HW226505   2.033   3.188   6.081 -0.7361  0.6468 -0.3179
 4958SOL     OW26506   2.447   4.306   7.830  0.5767  0.1346  0.3488
 4958SOL    HW126507   2.480   4.221   7.801  1.0815 -0.2362  1.9747
 4958SOL    HW226508   2.362   4.286   7.869 -0.0218  1.7702 -0.1162
 4959SOL     OW26509   4.362   3.264   4.316  0.1508  0.4871  0.2701
 4959SOL    HW126510   4.403   3.181   4.340  0.1901 -0.0684 -1.7614
 4959SOL    HW226511   4.333   3.255   4.226  1.1393 -1.0880  0.0979
 4960SOL     OW26512   4.564   3.820  11.208 -0.2613 -0.2200  0.1892
 4960SOL    HW126513   4.626   3.892  11.219 -1.9308  1.0373  1.4310
 4960SOL    HW226514   4.491   3.869  11.247  0.0930  0.8665 -0.5425
 4961SOL     OW26515   3.246   0.942   2.467 -0.0160 -0.2142 -0.3160
 4961SOL    HW126516   3.323   0.938   2.411  0.9548  0.3332  0.9879
 4961SOL    HW226517   3.185   0.995   2.416 -1.3420 -0.6914  0.7625
 4962SOL     OW26518   4.161   4.669  15.964  0.4067  0.2043 -0.3960
 4962SOL    HW126519   4.181   0.007  15.913  1.1488 -0.0628 -0.5157
 4962SOL    HW226520   4.183   4.593  15.910 -0.0219 -0.5222  0.4495
 4963SOL     OW26521   1.699   1.648   8.251 -0.1522 -0.1705  0.4385
 4963SOL    HW126522   1.606   1.624   8.250 -0.9794  2.9857  3.5793
 4963SOL    HW226523   1.700   1.740   8.226 -1.3178 -0.9230 -2.3743
 4964SOL     OW26524   4.143   1.081   1.211 -0.1045  0.1029  0.1224
 4964SOL    HW126525   4.056   1.063   1.246  0.0619 -1.7723 -0.4639
 4964SOL    HW226526   4.201   1.016   1.251  1.1365  2.1390  1.6868
 4965SOL     OW26527   2.564   3.907   2.946 -0.1275  0.0938  0.0395
 4965SOL    HW126528   2.604   3.876   2.865 -0.1195  0.9113 -0.2659
 4965SOL    HW226529   2.616   3.979   2.980 -0.0094 -0.7713  1.7490
 4966SOL     OW26530   4.654   3.321   4.908  0.1083  0.3655  0.2002
 4966SOL    HW126531   4.584   3.274   4.952 -1.7976 -0.8024 -4.0632
 4966SOL    HW226532   4.716   3.349   4.975  0.6283 -0.0719 -0.0993
 4967SOL     OW26533   1.657   3.615   4.766 -0.0065 -0.4827 -0.1668
 4967SOL    HW126534   1.733   3.568   4.801  0.8852  0.9083 -0.2275
 4967SOL    HW226535   1.603   3.632   4.843 -0.5888  1.0656 -0.9137
 4968SOL     OW26536   4.037   1.440   1.607 -0.0803  0.4852  0.0550
 4968SOL    HW126537   3.957   1.392   1.585  0.1626  1.0028 -2.0051
 4968SOL    HW226538   4.020   1.515   1.549 -0.6338 -0.0821 -0.5189
 4969SOL     OW26539   2.369   2.080   8.220 -0.0851  0.4105 -0.3826
 4969SOL    HW126540   2.308   2.098   8.292  0.5255 -0.0132  0.2482
 4969SOL    HW226541   2.317   2.120   8.151  0.3568  1.9843  0.1904
 4970SOL     OW26542   3.774   0.084   4.916 -0.3761 -0.0244 -0.1483
 4970SOL    HW126543   3.687   0.121   4.930 -0.4693 -0.4330  0.3753
 4970SOL    HW226544   3.819   0.161   4.883  0.4887 -0.8351 -0.8796
 4971SOL     OW26545   2.197   3.552   2.605 -0.0238  0.2363 -0.3882
 4971SOL    HW126546   2.150   3.544   2.688  0.5073 -2.6051 -0.3558
 4971SOL    HW226547   2.169   3.639   2.578 -0.9326  0.2917  0.7191
 4972SOL     OW26548   0.585   4.106  15.051  0.3708  0.3493 -0.7533
 4972SOL    HW126549   0.674   4.133  15.072  1.0272 -1.8127 -0.7691
 4972SOL    HW226550   0.589   4.019  15.012 -0.8184  0.6642 -1.5763
 4973SOL     OW26551   0.749   3.486   3.886  0.9538  0.1732 -0.5635
 4973SOL    HW126552   0.745   3.407   3.833  0.7854 -0.3059  0.1638
 4973SOL    HW226553   0.778   3.543   3.814  0.9662 -0.0567 -0.7401
 4974SOL     OW26554   0.613   4.257  17.100 -0.1685  0.1711 -0.1663
 4974SOL    HW126555   0.585   4.199  17.171 -0.1422  3.1014  2.2269
 4974SOL    HW226556   0.625   4.189  17.033 -0.3144 -0.3261  0.3055
 4975SOL     OW26557   2.525   4.499   0.789  0.4559 -0.0653 -0.2233
 4975SOL    HW126558   2.531   4.496   0.885  1.2454  1.9530 -0.2194
 4975SOL    HW226559   2.585   4.571   0.770 -0.1411  0.3134 -0.6643
 4976SOL     OW26560   4.332   0.509   9.015  0.3434 -0.1147 -0.9355
 4976SOL    HW126561   4.405   0.528   8.956 -1.2611  3.1554 -1.8582
 4976SOL    HW226562   4.296   0.431   8.971  0.4564 -1.6079  1.6656
 4977SOL     OW26563   4.183   2.496   5.061 -0.3236 -0.0817 -0.9121
 4977SOL    HW126564   4.133   2.444   5.124 -1.0515  1.2086 -0.4113
 4977SOL    HW226565   4.273   2.494   5.095  0.2713 -1.8880 -2.5815
 4978SOL     OW26566   1.869   2.663   9.346 -0.1994 -0.2395  0.1631
 4978SOL    HW126567   1.793   2.703   9.389  0.6054  1.4332  0.0171
 4978SOL    HW226568   1.823   2.604   9.287 -2.0015 -0.1192  1.4562
 4979SOL     OW26569   4.375   4.433   4.174  0.4977 -0.0665  0.2677
 4979SOL    HW126570   4.280   4.443   4.186  0.4505  1.1309 -1.0385
 4979SOL    HW226571   4.410   4.519   4.152 -1.4783 -0.1337 -3.3089
 4980SOL     OW26572   2.223   4.345  14.736 -0.3488 -0.3215 -0.0120
 4980SOL    HW126573   2.301   4.370  14.785  0.5140 -0.6513 -1.2478
 4980SOL    HW226574   2.165   4.408  14.779  2.9984  1.4726  1.8150
 4981SOL     OW26575   1.418   1.515   0.236 -0.1554 -0.3449 -0.0040
 4981SOL    HW126576   1.338   1.464   0.249 -2.3245  2.7341 -1.3604
 4981SOL    HW226577   1.383   1.599   0.208  1.5197  0.3238 -0.0689
 4982SOL     OW26578   2.433   1.809  11.498 -0.1274  0.2655 -0.0171
 4982SOL    HW126579   2.422   1.779  11.408 -3.4916 -1.0816  0.8250
 4982SOL    HW226580   2.484   1.888  11.484  0.5796 -0.0389  0.8121
 4983SOL     OW26581   2.974   2.097   7.847  0.4995  0.2780  0.3951
 4983SOL    HW126582   2.924   2.144   7.780 -1.0609 -1.8683  0.0956
 4983SOL    HW226583   3.015   2.031   7.792  2.3157  0.1033  1.9566
 4984SOL     OW26584   3.887   0.198   9.017  0.2089 -0.1062 -0.2419
 4984SOL    HW126585   3.819   0.183   8.951 -0.9368  0.5860  0.7628
 4984SOL    HW226586   3.874   0.292   9.032  1.3051 -0.0471  0.3172
 4985SOL     OW26587   0.766   2.412  15.455 -0.2826 -0.0530 -0.2892
 4985SOL    HW126588   0.778   2.321  15.429 -2.4244 -0.1738 -0.8569
 4985SOL    HW226589   0.811   2.409  15.540 -1.8451 -1.7090  0.4641
 4986SOL     OW26590   0.850   4.364  11.036 -0.4469  0.0694  0.4154
 4986SOL    HW126591   0.917   4.392  11.098  1.1667 -2.7775 -0.0547
 4986SOL    HW226592   0.892   4.375  10.952  1.3788 -0.8321  1.2182
 4987SOL     OW26593   0.852   1.065   6.673 -0.1534 -0.6771  0.2954
 4987SOL    HW126594   0.821   1.108   6.593 -1.3090  0.8571  1.5682
 4987SOL    HW226595   0.929   1.019   6.641  0.2839 -1.0370  1.8744
 4988SOL     OW26596   0.688   2.724   3.469  0.0779 -0.1639  0.4542
 4988SOL    HW126597   0.764   2.783   3.473  0.3239 -0.4706  0.2843
 4988SOL    HW226598   0.623   2.793   3.480 -0.1941 -0.1364 -1.3435
 4989SOL     OW26599   1.263   1.401   7.793 -0.4537 -0.3835 -0.6185
 4989SOL    HW126600   1.306   1.461   7.732 -3.4443  0.1777 -2.2088
 4989SOL    HW226601   1.176   1.442   7.793 -0.4297 -0.2913 -2.7007
 4990SOL     OW26602   1.067   2.946  11.978 -0.1829  0.6730 -0.3326
 4990SOL    HW126603   1.158   2.917  11.986  0.2311  2.1449  0.3897
 4990SOL    HW226604   1.026   2.860  11.994 -1.3291  1.3319  0.3109
 4991SOL     OW26605   2.563   4.077  13.398  0.7415 -0.5201 -0.2462
 4991SOL    HW126606   2.638   4.103  13.451  0.3571 -0.8022  0.4399
 4991SOL    HW226607   2.497   4.109  13.460  3.4952 -0.3146  2.5717
 4992SOL     OW26608   2.745   2.231  13.449 -0.0859 -0.1519  0.3033
 4992SOL    HW126609   2.737   2.199  13.359  2.9361  1.9898 -0.6950
 4992SOL    HW226610   2.661   2.209  13.491 -0.3031  0.7150  0.3141
 4993SOL     OW26611   2.927   3.943   4.091  0.2321  0.1961  0.2206
 4993SOL    HW126612   2.885   3.872   4.140 -2.0888  0.7210 -1.0223
 4993SOL    HW226613   3.013   3.902   4.077  0.1631  0.2465 -0.3457
 4994SOL     OW26614   2.558   2.777  12.159 -0.1204  0.5282 -0.7543
 4994SOL    HW126615   2.506   2.699  12.178  0.2615 -0.0370 -2.0352
 4994SOL    HW226616   2.569   2.821  12.243  0.4792 -3.7100  1.3322
 4995SOL     OW26617   1.089   1.268  16.789 -0.0544 -0.4393  0.3849
 4995SOL    HW126618   1.176   1.290  16.823  0.7785 -2.3146 -0.5036
 4995SOL    HW226619   1.105   1.247  16.697 -0.8584 -0.6670  0.2913
 4996SOL     OW26620   0.901   2.766  12.557  0.2256  0.1373 -0.3742
 4996SOL    HW126621   0.849   2.845  12.544  0.6446  0.2897 -1.1303
 4996SOL    HW226622   0.947   2.791  12.638 -2.4793  2.2353  0.4891
 4997SOL     OW26623   4.076   4.031   8.846 -0.3322  0.2547 -0.3192
 4997SOL    HW126624   4.122   4.079   8.915 -0.1594 -1.5833  0.8286
 4997SOL    HW226625   4.090   3.941   8.874 -1.4982 -0.3761 -1.7371
 4998SOL     OW26626   2.798   0.519   2.351  0.2031 -0.2758  0.4875
 4998SOL    HW126627   2.709   0.484   2.359  1.7545 -4.0451  0.9153
 4998SOL    HW226628   2.857   0.446   2.369  0.6668  0.4184  1.7324
 4999SOL     OW26629   2.532   3.078   9.084  0.0617  0.3569  0.4792
 4999SOL    HW126630   2.447   3.093   9.041 -1.1953  1.8835  3.4533
 4999SOL    HW226631   2.589   3.145   9.047  1.5902 -1.2106  0.0047
 5000SOL     OW26632   3.016   1.918   2.621  0.3451  0.3537  0.0988
 5000SOL    HW126633   3.100   1.957   2.595  0.9642 -0.9357  0.1575
 5000SOL    HW226634   3.012   1.836   2.571 -1.6904  0.0371  0.8052
 5001SOL     OW26635   0.911   4.548   6.602  0.3956 -0.3147  0.0910
 5001SOL    HW126636   1.004   4.535   6.623  0.3663  0.5888  0.7766
 5001SOL    HW226637   0.882   4.551   6.693 -0.1502 -1.7633 -0.0264
 5002SOL     OW26638   4.024   1.874  13.200  0.2739 -0.3614 -0.3456
 5002SOL    HW126639   4.087   1.889  13.129  1.3355 -0.5685  0.5632
 5002SOL    HW226640   4.079   1.837  13.269 -2.6275  1.0374  2.6972
 5003SOL     OW26641   2.726   1.450   5.849 -0.3930 -0.5173  0.4524
 5003SOL    HW126642   2.785   1.488   5.915 -0.3604  1.3932 -0.6585
 5003SOL    HW226643   2.690   1.537   5.831 -1.4930 -0.9579  0.5136
 5004SOL     OW26644   0.420   3.652   0.727  0.1481 -0.4214  0.1632
 5004SOL    HW126645   0.404   3.561   0.750 -0.3327 -0.6734 -1.1625
 5004SOL    HW226646   0.358   3.696   0.786 -0.6805 -1.2240 -0.1083
 5005SOL     OW26647   0.954   2.549  16.381  0.5601  0.0451 -0.5229
 5005SOL    HW126648   0.931   2.509  16.465  1.5607 -2.9012 -1.6502
 5005SOL    HW226649   0.876   2.598  16.354 -1.2049 -1.7515  1.2772
 5006SOL     OW26650   1.962   3.810   8.228  0.3016  0.2983  0.6394
 5006SOL    HW126651   1.926   3.880   8.174 -0.9820 -0.4737  0.4882
 5006SOL    HW226652   2.024   3.861   8.279  1.7625 -0.4677 -0.3775
 5007SOL     OW26653   1.179   0.853  13.740 -0.0735  0.3082 -0.4607
 5007SOL    HW126654   1.106   0.915  13.731  0.0665  0.5655  0.1788
 5007SOL    HW226655   1.162   0.777  13.684  0.5002  0.6466 -1.0882
 5008SOL     OW26656   1.557   0.450   9.004 -0.6555  0.3746 -0.0186
 5008SOL    HW126657   1.515   0.401   9.075  1.5631 -1.4399  0.0267
 5008SOL    HW226658   1.476   0.469   8.956 -0.2999 -1.6977 -1.4282
 5009SOL     OW26659   1.617   2.960   3.598 -0.4200 -0.1023  0.1773
 5009SOL    HW126660   1.588   3.052   3.600 -1.0820 -0.3227  0.8067
 5009SOL    HW226661   1.707   2.957   3.633 -0.6303  1.1465  0.8351
 5010SOL     OW26662   0.041   2.867  11.324  0.2097 -0.0302  0.2507
 5010SOL    HW126663   0.113   2.902  11.272 -0.9037  1.4101 -0.3216
 5010SOL    HW226664   0.013   2.801  11.260 -1.0878  2.4535 -1.7727
 5011SOL     OW26665   1.949   0.624   6.524  0.5118  0.2064 -0.5219
 5011SOL    HW126666   1.932   0.535   6.556  1.7198  0.1505 -0.0564
 5011SOL    HW226667   2.038   0.636   6.556 -0.1612  0.7816  1.1825
 5012SOL     OW26668   2.774   1.197   8.487  0.0791 -0.2533 -0.3294
 5012SOL    HW126669   2.836   1.270   8.478  1.4789 -1.4016 -0.0220
 5012SOL    HW226670   2.691   1.245   8.490  0.4706  0.2213  2.7987
 5013SOL     OW26671   3.241   4.392   4.952 -0.0174  0.2069  0.2066
 5013SOL    HW126672   3.304   4.326   4.924 -0.2034  0.1481 -0.0758
 5013SOL    HW226673   3.280   4.429   5.031  0.8074  1.2548 -0.6977
 5014SOL     OW26674   0.588   4.725   5.371  0.1793  0.1117  0.3537
 5014SOL    HW126675   0.636   0.023   5.444  0.2269 -0.1330  0.4506
 5014SOL    HW226676   0.577   4.635   5.403 -1.0556 -0.1620 -0.8456
 5015SOL     OW26677   1.690   1.063   6.017  0.1280 -0.5011  0.5570
 5015SOL    HW126678   1.718   0.993   5.959  1.4411  1.2075 -0.8789
 5015SOL    HW226679   1.595   1.050   6.019  0.0749  0.0188  1.8411
 5016SOL     OW26680   1.044   4.733   3.788  0.1934 -0.6615 -0.4384
 5016SOL    HW126681   0.997   0.072   3.812  1.5898  0.1269 -0.3683
 5016SOL    HW226682   1.122   0.031   3.749 -0.6422  0.9071 -0.5814
 5017SOL     OW26683   3.545   1.994  14.368 -0.6191  0.3305 -0.4684
 5017SOL    HW126684   3.597   2.072  14.390 -0.6112  0.2313 -0.1377
 5017SOL    HW226685   3.608   1.927  14.392 -1.1337 -0.0415 -0.1797
 5018SOL     OW26686   2.636   0.641   1.601  0.4162  0.7567 -0.3697
 5018SOL    HW126687   2.680   0.702   1.660  0.2860 -1.1439  1.6980
 5018SOL    HW226688   2.567   0.633   1.666 -0.3427 -1.2499 -1.4098
 5019SOL     OW26689   0.559   1.542   6.880  0.6428 -0.0430 -0.3486
 5019SOL    HW126690   0.578   1.525   6.788 -0.1210  2.5613 -0.9929
 5019SOL    HW226691   0.558   1.456   6.922 -0.1587 -0.8473 -2.0252
 5020SOL     OW26692   4.253   3.046   2.457 -0.2067  0.2812  0.3727
 5020SOL    HW126693   4.229   3.101   2.383 -1.0775  1.2199  1.3506
 5020SOL    HW226694   4.341   3.072   2.486  0.2792 -1.9603  0.9242
 5021SOL     OW26695   0.841   2.140   6.993 -0.3043 -0.1250  0.4899
 5021SOL    HW126696   0.932   2.161   7.011  0.0171 -0.8165 -0.2861
 5021SOL    HW226697   0.866   2.058   6.949  3.1930 -0.2309  2.6352
 5022SOL     OW26698   4.431   4.445  13.350  0.3064 -0.2921  0.4191
 5022SOL    HW126699   4.421   4.531  13.389 -0.5026 -2.1087  4.2448
 5022SOL    HW226700   4.514   4.456  13.303 -0.4729  1.3721 -0.5599
 5023SOL     OW26701   0.117   3.092   5.320  0.4236 -0.5831 -0.5855
 5023SOL    HW126702   0.134   3.113   5.412 -0.9052 -0.7578 -0.2879
 5023SOL    HW226703   0.176   3.018   5.313  0.7346 -0.6142  2.3167
 5024SOL     OW26704   4.396   3.685   5.736 -0.0788  0.0603 -0.4584
 5024SOL    HW126705   4.302   3.681   5.718 -0.3047  0.4006  0.6458
 5024SOL    HW226706   4.427   3.719   5.652 -1.6882  2.2178 -0.1645
 5025SOL     OW26707   1.037   3.950   6.641  0.2955  0.3449 -0.4645
 5025SOL    HW126708   1.096   4.008   6.592 -0.2989  2.1218  0.9106
 5025SOL    HW226709   1.001   3.902   6.566 -2.2188 -0.3823  1.2190
 5026SOL     OW26710   1.661   1.521   0.358 -0.7263 -0.5183 -0.6313
 5026SOL    HW126711   1.635   1.485   0.443  0.1787  1.2438  0.3857
 5026SOL    HW226712   1.577   1.539   0.316  0.3513  2.0539 -1.6667
 5027SOL     OW26713   2.838   4.211   6.953 -0.2553  0.2506  0.1554
 5027SOL    HW126714   2.797   4.124   6.945  0.0164 -0.0921  2.4235
 5027SOL    HW226715   2.771   4.265   6.911  0.3641 -0.5069 -1.8119
 5028SOL     OW26716   4.151   2.662   2.263  0.5253  0.5555 -0.3944
 5028SOL    HW126717   4.242   2.653   2.235  0.3532 -0.3150 -0.6697
 5028SOL    HW226718   4.148   2.612   2.344  0.9540  0.7869 -0.2346
 5029SOL     OW26719   2.109   3.005   3.836  0.5007 -0.4110 -0.0389
 5029SOL    HW126720   2.140   2.925   3.879  0.1186 -0.2386  0.5545
 5029SOL    HW226721   2.185   3.048   3.794 -0.5525  2.0978  0.6122
 5030SOL     OW26722   2.223   0.881  15.184 -0.4513  0.1663 -0.2600
 5030SOL    HW126723   2.156   0.895  15.118  0.9697  0.2228 -1.6927
 5030SOL    HW226724   2.300   0.865  15.130  1.0525  0.1819  1.8615
 5031SOL     OW26725   3.533   4.234  12.735 -0.0547 -0.0412 -0.5676
 5031SOL    HW126726   3.503   4.195  12.816  3.0500 -0.2913  0.4676
 5031SOL    HW226727   3.627   4.241  12.754 -0.6658 -1.9784  2.9821
 5032SOL     OW26728   4.155   1.284   4.077  0.3565  0.1222  0.0517
 5032SOL    HW126729   4.141   1.210   4.136 -2.4897  1.2897  0.8716
 5032SOL    HW226730   4.133   1.244   3.993 -0.7985  0.3756  0.2265
 5033SOL     OW26731   4.477   4.624   8.497  0.0856  0.1324 -0.0149
 5033SOL    HW126732   4.563   4.600   8.461 -0.8307  1.0293 -2.8333
 5033SOL    HW226733   4.466   4.562   8.569  0.9725 -0.0110  0.0005
 5034SOL     OW26734   1.805   1.692   7.579  0.3446 -0.3112 -0.8433
 5034SOL    HW126735   1.730   1.644   7.543 -0.9016  1.5822 -0.8153
 5034SOL    HW226736   1.761   1.774   7.604 -0.8949 -1.9318  2.1882
 5035SOL     OW26737   0.591   4.003   9.406  0.5899  0.1973  0.3678
 5035SOL    HW126738   0.508   4.006   9.359  0.9460  1.1202 -0.1965
 5035SOL    HW226739   0.568   4.029   9.496  1.4250 -0.9801  0.9138
 5036SOL     OW26740   3.543   2.260   8.139 -0.9259 -0.0004 -0.2480
 5036SOL    HW126741   3.452   2.282   8.161 -0.6759  0.6580  0.1210
 5036SOL    HW226742   3.563   2.201   8.212 -0.7897  0.0420 -0.2514
 5037SOL     OW26743   4.701   0.558   3.629  0.1456 -0.3386  0.0792
 5037SOL    HW126744   4.641   0.543   3.703 -1.3168  1.9505 -0.6393
 5037SOL    HW226745   0.035   0.600   3.671  0.1358  0.6980 -0.9618
 5038SOL     OW26746   3.199   4.106   9.936  0.2261 -0.2291  0.1131
 5038SOL    HW126747   3.136   4.064   9.878  0.7199 -0.3196 -0.3554
 5038SOL    HW226748   3.202   4.049  10.012 -3.2745 -1.9426 -1.0276
 5039SOL     OW26749   3.962   4.479  16.049  0.3492 -0.8800  0.3885
 5039SOL    HW126750   4.038   4.532  16.027 -0.3643  0.5216  1.3052
 5039SOL    HW226751   3.897   4.525  15.997 -1.3535 -2.5274  1.0654
 5040SOL     OW26752   0.070   2.731   6.648 -0.1739  0.0322 -0.2617
 5040SOL    HW126753   4.736   2.733   6.588 -0.9918 -2.1062  0.6956
 5040SOL    HW226754   0.020   2.719   6.728 -1.5914  1.7893 -0.8935
 5041SOL     OW26755   2.027   4.618   1.417  0.1540  0.1718  0.3245
 5041SOL    HW126756   2.105   4.566   1.433 -0.2743 -1.2480 -2.1376
 5041SOL    HW226757   1.961   4.554   1.390 -0.8479  0.4713  2.0837
 5042SOL     OW26758   0.338   0.807   5.147 -0.5300  0.6189 -0.0834
 5042SOL    HW126759   0.276   0.734   5.152  1.9732 -1.4334  0.7063
 5042SOL    HW226760   0.285   0.874   5.191  2.1067  1.9727  0.9894
 5043SOL     OW26761   2.760   1.597   1.476 -0.2390  0.2315  0.0790
 5043SOL    HW126762   2.797   1.598   1.565 -0.4673 -0.8339  0.1853
 5043SOL    HW226763   2.697   1.668   1.488  1.5375  1.6224  1.2349
 5044SOL     OW26764   1.157   0.339   4.675  0.5977  0.1924  0.0760
 5044SOL    HW126765   1.195   0.399   4.739 -1.0056  1.1482  0.1290
 5044SOL    HW226766   1.082   0.304   4.723  0.4265  0.8133  0.2568
 5045SOL     OW26767   3.932   4.160   2.994  0.3554 -0.4091 -0.8477
 5045SOL    HW126768   4.018   4.201   2.991  0.7556 -1.0283  2.2705
 5045SOL    HW226769   3.961   4.069   2.987  1.8693  0.0713 -0.9267
 5046SOL     OW26770   2.070   4.517  14.942  0.1724 -0.2669 -0.2171
 5046SOL    HW126771   2.152   4.564  14.957 -0.5581  1.7332 -2.4198
 5046SOL    HW226772   2.004   4.580  14.969 -0.3338 -0.3185 -1.3270
 5047SOL     OW26773   4.580   1.731   1.377 -0.1082  0.2326 -0.4831
 5047SOL    HW126774   4.676   1.727   1.379 -0.0942  0.8457 -0.2068
 5047SOL    HW226775   4.552   1.643   1.405 -0.3810 -0.1902 -2.0911
 5048SOL     OW26776   1.231   1.223   4.893 -0.3926 -0.0841 -0.5438
 5048SOL    HW126777   1.272   1.172   4.962  1.7162  0.7028 -1.2212
 5048SOL    HW226778   1.149   1.239   4.940 -0.8363  0.5337 -1.5199
 5049SOL     OW26779   3.076   1.623  13.530 -0.0270 -1.1838  0.0623
 5049SOL    HW126780   3.124   1.702  13.502 -0.9238 -0.6664 -0.0129
 5049SOL    HW226781   2.991   1.665  13.541  0.2520 -0.9642  1.3210
 5050SOL     OW26782   3.905   3.507  11.924 -0.2994 -0.1395 -0.5465
 5050SOL    HW126783   3.817   3.485  11.956  0.0040  2.2146  1.9303
 5050SOL    HW226784   3.961   3.498  12.002 -0.7389  2.0765  0.0448
 5051SOL     OW26785   2.680   2.744   8.267 -0.3197 -0.0893 -0.2446
 5051SOL    HW126786   2.736   2.669   8.290  0.0375  0.1663 -0.2841
 5051SOL    HW226787   2.721   2.753   8.181 -1.7675 -0.5854 -0.9854
 5052SOL     OW26788   1.874   3.218  12.918 -0.8129 -0.2990 -0.1137
 5052SOL    HW126789   1.845   3.143  12.970 -0.5448 -1.8595 -2.1963
 5052SOL    HW226790   1.816   3.208  12.843 -0.7279 -0.3934 -0.1678
 5053SOL     OW26791   1.059   2.522   7.076  0.4952  0.0528 -0.1659
 5053SOL    HW126792   1.048   2.521   7.171  2.3680 -0.4800  0.0257
 5053SOL    HW226793   1.150   2.548   7.071  0.1032  1.2246 -1.2365
 5054SOL     OW26794   0.651   1.734   9.547 -0.6137  0.0782 -0.3471
 5054SOL    HW126795   0.586   1.750   9.615  1.7885 -0.0690  1.9650
 5054SOL    HW226796   0.707   1.811   9.560  0.1328 -0.3433 -1.0917
 5055SOL     OW26797   2.797   1.471   2.674 -0.5718 -0.4226 -0.1146
 5055SOL    HW126798   2.821   1.563   2.675  0.6865 -0.7382 -1.0195
 5055SOL    HW226799   2.710   1.481   2.714 -0.3122  0.4823  0.1962
 5056SOL     OW26800   0.291   0.339   6.639  0.6551 -0.8089 -0.0427
 5056SOL    HW126801   0.256   0.256   6.606  0.4353 -1.3388  1.5069
 5056SOL    HW226802   0.299   0.325   6.734 -0.7102  0.4242  0.2555
 5057SOL     OW26803   4.121   0.674   9.055  0.0676  0.7359  0.1773
 5057SOL    HW126804   4.203   0.635   9.024 -0.3710  2.2553 -2.8525
 5057SOL    HW226805   4.141   0.765   9.075 -1.0733  1.2514 -1.0939
 5058SOL     OW26806   1.577   1.049   7.624  0.1667  0.0209  0.2312
 5058SOL    HW126807   1.586   0.983   7.693 -1.4884 -1.7602 -1.2594
 5058SOL    HW226808   1.488   1.083   7.634 -0.5122 -1.3338 -1.2976
 5059SOL     OW26809   1.459   2.339   6.356 -0.3610  0.1950  0.2211
 5059SOL    HW126810   1.503   2.254   6.347  0.1586  0.5897 -1.0029
 5059SOL    HW226811   1.527   2.395   6.394  0.6246 -0.5396 -0.4484
 5060SOL     OW26812   3.119   3.934   1.672  0.1003 -0.0544  0.6560
 5060SOL    HW126813   3.048   3.941   1.735 -0.5133 -1.3838  0.1095
 5060SOL    HW226814   3.143   3.843   1.655 -1.2844 -0.0828 -1.2146
 5061SOL     OW26815   4.382   2.949   1.535 -0.0960  0.1233 -0.6761
 5061SOL    HW126816   4.299   2.912   1.505  0.0464  0.9480 -2.0833
 5061SOL    HW226817   4.372   3.041   1.509  1.8805  0.4117 -0.4254
 5062SOL     OW26818   2.811   1.793   6.489  0.5351 -0.1100  0.2324
 5062SOL    HW126819   2.741   1.727   6.489  0.2607  0.1800  0.2857
 5062SOL    HW226820   2.833   1.811   6.397 -1.1401  2.4774  0.3490
 5063SOL     OW26821   3.890   1.487   7.385  0.2904  0.7751 -0.2280
 5063SOL    HW126822   3.880   1.537   7.304  0.1310  0.8841 -0.1423
 5063SOL    HW226823   3.799   1.474   7.413  0.2352 -0.7098 -1.0844
 5064SOL     OW26824   3.522   2.839  17.559  0.8136  0.0591 -0.2183
 5064SOL    HW126825   3.519   2.746  17.538 -1.5982 -0.4783  2.4012
 5064SOL    HW226826   3.529   2.841  17.655  1.8004  3.0641 -0.3491
 5065SOL     OW26827   1.182   4.013   0.440 -0.2073 -0.2234  0.9334
 5065SOL    HW126828   1.136   4.033   0.359  0.3228  0.5167  0.8138
 5065SOL    HW226829   1.196   3.918   0.433  1.7245 -0.0040  1.7663
 5066SOL     OW26830   2.628   0.001   1.487 -0.3373 -0.5497 -0.0610
 5066SOL    HW126831   2.720   4.719   1.497  0.0627  0.7903 -0.6867
 5066SOL    HW226832   2.631   0.071   1.421  0.0222  0.4117  0.9830
 5067SOL     OW26833   0.344   2.116   0.038  0.4893 -0.2055  0.6743
 5067SOL    HW126834   0.345   2.186  17.733 -0.6663 -0.5203  0.3189
 5067SOL    HW226835   0.439   2.117   0.049  0.8178 -1.7417 -2.2265
 5068SOL     OW26836   2.254   4.278   4.310  0.4831 -0.0954  0.7761
 5068SOL    HW126837   2.206   4.346   4.262 -0.4366  0.0409  1.8859
 5068SOL    HW226838   2.345   4.305   4.317  0.0798  1.1869  0.9308
 5069SOL     OW26839   0.972   2.868   5.708  0.3548 -0.0110  0.4109
 5069SOL    HW126840   0.915   2.915   5.769 -0.0503 -0.5704  0.4578
 5069SOL    HW226841   0.915   2.805   5.664  0.6319  1.6939 -2.4444
 5070SOL     OW26842   1.141   2.692   3.027  0.0126 -0.1093 -0.3857
 5070SOL    HW126843   1.213   2.718   2.970  0.1454  0.9366  0.2535
 5070SOL    HW226844   1.123   2.774   3.073  0.6677 -0.0794 -0.1912
 5071SOL     OW26845   2.428   4.544   4.137  0.1384 -0.0683 -0.1683
 5071SOL    HW126846   2.487   4.472   4.159  1.1572  0.4000 -1.3712
 5071SOL    HW226847   2.466   4.582   4.058  1.0982  0.4060  0.5240
 5072SOL     OW26848   0.973   1.290  15.563  0.2524  0.3820 -0.0272
 5072SOL    HW126849   0.880   1.307  15.553  0.1183 -0.8811 -0.8177
 5072SOL    HW226850   0.991   1.250  15.478 -1.7350  0.4418 -0.4711
 5073SOL     OW26851   2.504   1.484   4.789 -0.2066  0.0813  0.3536
 5073SOL    HW126852   2.564   1.550   4.754  1.2031 -0.5831  1.5367
 5073SOL    HW226853   2.425   1.537   4.802 -0.0483 -0.6599  4.5949
 5074SOL     OW26854   4.672   2.091   9.711 -0.1075  0.0013 -0.4621
 5074SOL    HW126855   4.735   2.108   9.781 -1.2673  3.9501 -0.3767
 5074SOL    HW226856   4.689   2.004   9.674  1.3611  0.0427  0.1481
 5075SOL     OW26857   3.540   3.284   9.592 -0.3625 -0.9498 -0.5363
 5075SOL    HW126858   3.578   3.371   9.577  1.9683 -2.3110 -2.3840
 5075SOL    HW226859   3.569   3.238   9.514  0.7525  0.7963 -1.1462
 5076SOL     OW26860   1.715   1.360  10.363  0.4013  1.1376 -0.5878
 5076SOL    HW126861   1.650   1.424  10.332  1.5954  1.3800 -2.5841
 5076SOL    HW226862   1.734   1.395  10.450  1.7453  2.8535 -1.5642
 5077SOL     OW26863   3.867   3.074   6.896  0.0242  0.3685  0.5170
 5077SOL    HW126864   3.797   3.117   6.848  1.1589  1.4227 -0.1876
 5077SOL    HW226865   3.887   3.121   6.977  2.2215  3.1899 -1.6811
 5078SOL     OW26866   2.262   2.425   1.344 -0.5403 -0.6417  0.1688
 5078SOL    HW126867   2.327   2.481   1.301 -0.7999 -0.7717 -0.3881
 5078SOL    HW226868   2.282   2.436   1.437  4.0011 -0.9339 -0.7492
 5079SOL     OW26869   2.582   0.184   0.656 -0.0095  0.6243 -0.0102
 5079SOL    HW126870   2.493   0.188   0.620  0.3525 -0.3550 -1.0281
 5079SOL    HW226871   2.631   0.140   0.587  0.0452 -0.3380  0.6451
 5080SOL     OW26872   1.413   0.093  11.825  0.1070 -0.0884  0.2560
 5080SOL    HW126873   1.429   0.174  11.873 -1.3647  0.3271  0.0404
 5080SOL    HW226874   1.320   0.088  11.804  0.2634 -1.0024 -0.2122
 5081SOL     OW26875   2.027   2.911   5.280  0.9260 -0.7435  0.2169
 5081SOL    HW126876   2.076   2.832   5.256  0.2892 -0.2631 -2.6760
 5081SOL    HW226877   2.059   2.969   5.211 -3.3392  0.7226 -0.5249
 5082SOL     OW26878   3.758   2.329  16.117 -1.0246 -0.1045 -0.3546
 5082SOL    HW126879   3.735   2.395  16.051  1.4430  0.0419 -1.0671
 5082SOL    HW226880   3.730   2.376  16.196  0.8856  1.5342 -0.6485
 5083SOL     OW26881   3.565   3.872   4.080  0.2870  0.0315  0.7651
 5083SOL    HW126882   3.533   3.877   3.990 -0.7878  0.0126  1.1431
 5083SOL    HW226883   3.597   3.961   4.090  1.7610 -0.6526  2.0516
 5084SOL     OW26884   0.014   2.711   3.551 -0.6365  0.3182  0.2193
 5084SOL    HW126885   0.093   2.689   3.602 -1.0121 -2.4710 -0.4034
 5084SOL    HW226886   0.001   2.799   3.586 -0.9161 -0.1108  1.1868
 5085SOL     OW26887   2.077   0.220   3.740  0.4583  0.0194  0.3378
 5085SOL    HW126888   2.118   0.275   3.673 -0.4560  0.2583 -0.0305
 5085SOL    HW226889   1.996   0.270   3.734  0.7274  0.3214 -0.7784
 5086SOL     OW26890   1.671   0.699   3.243 -0.7463  0.0726 -0.3888
 5086SOL    HW126891   1.764   0.695   3.220 -0.8476 -2.1858 -0.3733
 5086SOL    HW226892   1.674   0.663   3.331 -1.0012 -0.4204 -0.5826
 5087SOL     OW26893   3.765   0.221   9.483 -0.1886 -0.8229  0.2230
 5087SOL    HW126894   3.849   0.253   9.447 -0.0603  2.3401  3.3069
 5087SOL    HW226895   3.741   0.157   9.416 -3.0832  0.6224 -0.0813
 5088SOL     OW26896   1.325   3.353   3.692  0.4674 -0.8142  0.6568
 5088SOL    HW126897   1.250   3.384   3.742  1.5901  5.0658 -1.2003
 5088SOL    HW226898   1.280   3.298   3.628  1.2738  1.1434 -1.6013
 5089SOL     OW26899   2.395   1.664   3.729  0.6022 -0.2126  0.1859
 5089SOL    HW126900   2.352   1.659   3.815 -2.2457 -0.0556 -1.2362
 5089SOL    HW226901   2.457   1.591   3.737  0.4495 -0.3415  0.1967
 5090SOL     OW26902   2.830   3.713   0.710  0.1944 -0.2402  0.5587
 5090SOL    HW126903   2.793   3.764   0.638  2.1303  0.2378 -0.0859
 5090SOL    HW226904   2.885   3.776   0.755 -1.0864  1.6677 -0.5287
 5091SOL     OW26905   0.667   2.235  11.602 -0.4792 -0.1958  0.3610
 5091SOL    HW126906   0.758   2.252  11.577 -1.2817  2.0258 -1.0439
 5091SOL    HW226907   0.639   2.321  11.632  0.3821 -0.7515  2.7433
 5092SOL     OW26908   4.034   3.506   5.506 -0.5041  0.4735 -0.4242
 5092SOL    HW126909   4.102   3.500   5.439  0.4034 -2.2855  0.7672
 5092SOL    HW226910   3.973   3.451   5.457 -1.5060  1.1352  0.0902
 5093SOL     OW26911   4.357   3.536   8.190 -0.1413 -0.3434 -0.4263
 5093SOL    HW126912   4.328   3.518   8.101  0.6854  0.8740 -0.9504
 5093SOL    HW226913   4.321   3.456   8.228  2.8077 -0.4321  2.1881
 5094SOL     OW26914   0.420   3.702   6.407  0.5185 -0.2052 -0.7708
 5094SOL    HW126915   0.430   3.694   6.312 -1.1370  0.0964 -0.9787
 5094SOL    HW226916   0.511   3.704   6.435 -0.3821  3.5170  1.8850
 5095SOL     OW26917   2.847   0.967   5.234  0.0115  0.5646 -0.5148
 5095SOL    HW126918   2.923   0.963   5.293 -0.2080 -0.1722 -0.2810
 5095SOL    HW226919   2.897   0.962   5.153 -0.6065  3.3482 -1.0701
 5096SOL     OW26920   0.189   4.544   2.929  0.3233 -0.3666  0.5663
 5096SOL    HW126921   0.226   4.624   2.893  1.5382 -0.5153  1.4981
 5096SOL    HW226922   0.120   4.528   2.864 -0.1684  1.1759  0.7057
 5097SOL     OW26923   2.772   0.299  17.508  0.0539 -0.0819  0.1112
 5097SOL    HW126924   2.751   0.368  17.445  0.3292 -1.3199 -1.3381
 5097SOL    HW226925   2.744   0.221  17.460 -0.2514 -0.0465  0.2299
 5098SOL     OW26926   4.691   1.196   1.312 -0.3837 -0.3351  0.2264
 5098SOL    HW126927   4.596   1.199   1.308 -0.2188  2.4736 -1.8405
 5098SOL    HW226928   4.712   1.282   1.347  0.4046 -1.6254  2.8826
 5099SOL     OW26929   3.119   2.927   2.263 -0.7274  0.4287  0.6305
 5099SOL    HW126930   3.179   2.940   2.337 -1.2127 -0.8539  1.2554
 5099SOL    HW226931   3.042   2.965   2.304 -0.7307  0.5133  0.5458
 5100SOL     OW26932   0.630   3.977   4.259 -0.0979  0.3101 -0.3327
 5100SOL    HW126933   0.587   3.893   4.241 -2.2739  1.5273 -0.7599
 5100SOL    HW226934   0.595   4.025   4.184  1.6151 -1.1072 -2.0623
 5101SOL     OW26935   3.327   3.048   6.534  0.4610 -0.5224  0.3361
 5101SOL    HW126936   3.279   2.990   6.476  1.6409  1.2384 -2.3833
 5101SOL    HW226937   3.381   2.977   6.568  1.2019 -1.2099 -2.3113
 5102SOL     OW26938   0.306   3.041   9.787 -0.3546  0.6470 -0.2793
 5102SOL    HW126939   0.213   3.063   9.793 -0.3370  0.6415  0.0280
 5102SOL    HW226940   0.318   3.002   9.874  1.3578  1.7016 -0.0236
 5103SOL     OW26941   1.075   3.594   8.768  0.2639 -0.2111  0.2300
 5103SOL    HW126942   1.026   3.531   8.716  0.2736 -0.1503  0.1461
 5103SOL    HW226943   1.159   3.548   8.773  0.8122  0.8717  1.3311
 5104SOL     OW26944   4.400   1.697   1.799 -0.2308  0.2318  0.0892
 5104SOL    HW126945   4.494   1.688   1.812 -0.4151 -2.0658 -0.2299
 5104SOL    HW226946   4.387   1.770   1.860  0.7574  1.0230 -0.6350
 5105SOL     OW26947   3.755   3.017   2.537  0.1896  0.3886  0.1129
 5105SOL    HW126948   3.731   2.948   2.600  1.9579  0.3292  0.7299
 5105SOL    HW226949   3.679   3.025   2.479  0.7035  0.9198 -0.4749
 5106SOL     OW26950   3.752   4.182  10.706  0.6627 -0.0429  0.3808
 5106SOL    HW126951   3.813   4.124  10.752 -1.8556 -4.3547 -1.7571
 5106SOL    HW226952   3.718   4.121  10.640  1.6627 -1.8498  1.5275
 5107SOL     OW26953   4.642   1.710   1.917 -0.0768  0.3158 -0.3391
 5107SOL    HW126954   4.641   1.698   2.012  1.3178 -0.4598 -0.4216
 5107SOL    HW226955   4.713   1.652   1.890 -1.0031 -1.2959  0.6846
 5108SOL     OW26956   0.707   0.391   9.339 -0.6211 -0.5497  0.0866
 5108SOL    HW126957   0.741   0.480   9.348  0.8714 -1.1634  0.4694
 5108SOL    HW226958   0.741   0.365   9.425  0.2654 -3.1503 -1.0449
 5109SOL     OW26959   4.350   1.980   7.221 -0.2463  0.5064  0.1517
 5109SOL    HW126960   4.256   1.986   7.237 -0.0195  1.3185  1.1789
 5109SOL    HW226961   4.377   1.970   7.312  0.3959  0.5299 -0.0354
 5110SOL     OW26962   0.564   0.646   5.636 -0.6198 -0.6385  1.2720
 5110SOL    HW126963   0.551   0.739   5.620  0.1229 -0.4286  1.8737
 5110SOL    HW226964   0.660   0.646   5.631 -0.7175  0.6494 -0.5521
 5111SOL     OW26965   0.094   1.190   5.476 -0.1755  0.1083 -0.4158
 5111SOL    HW126966   0.081   1.196   5.381  0.9966  1.1157 -0.5177
 5111SOL    HW226967   0.087   1.278   5.512 -2.0895 -0.0659 -0.3837
 5112SOL     OW26968   2.722   2.213  11.928  0.0781 -0.5906  0.3886
 5112SOL    HW126969   2.649   2.200  11.989 -0.4443 -0.4959 -0.2166
 5112SOL    HW226970   2.793   2.245  11.984  0.9892 -1.6621 -0.1496
 5113SOL     OW26971   3.827   3.953   6.608 -0.1206  0.0675 -0.4748
 5113SOL    HW126972   3.769   4.030   6.602 -0.1392  0.0109 -1.0000
 5113SOL    HW226973   3.791   3.913   6.687  0.6084  0.3047 -0.0280
 5114SOL     OW26974   4.346   2.985   3.231  0.1336  0.0381  0.1600
 5114SOL    HW126975   4.342   2.915   3.296 -1.2467 -0.2937 -0.2989
 5114SOL    HW226976   4.414   3.041   3.268 -0.3525  0.7951 -0.0946
 5115SOL     OW26977   0.586   0.834   5.088  0.4941 -0.3580  0.4908
 5115SOL    HW126978   0.628   0.868   5.167  0.5270 -3.8256  1.9404
 5115SOL    HW226979   0.494   0.831   5.113  0.7446 -4.3728  0.8450
 5116SOL     OW26980   2.379   4.591  14.491 -0.3761  0.2267 -0.6917
 5116SOL    HW126981   2.382   4.580  14.395  0.7415 -3.3254 -0.2456
 5116SOL    HW226982   2.286   4.612  14.496 -1.1121 -3.4889  1.3903
 5117SOL     OW26983   2.648   2.711  16.609 -0.0176 -0.8609  0.0871
 5117SOL    HW126984   2.672   2.715  16.701  1.3473 -0.1781 -0.2958
 5117SOL    HW226985   2.561   2.751  16.605  0.2340 -0.3709 -0.5452
 5118SOL     OW26986   2.135   3.945   7.321  0.3766  0.2860  0.6445
 5118SOL    HW126987   2.175   3.860   7.305 -2.1047 -0.6697 -0.5803
 5118SOL    HW226988   2.210   3.999   7.342  1.0068 -0.8306  1.2699
 5119SOL     OW26989   0.309   2.437  16.577  0.6007  0.2153  0.0786
 5119SOL    HW126990   0.244   2.399  16.635  1.4087 -1.0316  0.1764
 5119SOL    HW226991   0.300   2.524  16.614 -0.0293  0.3444 -0.3672
 5120SOL     OW26992   3.546   4.201  11.920  0.2234  0.8734  0.1024
 5120SOL    HW126993   3.538   4.143  11.844  1.3068  0.3751  0.3614
 5120SOL    HW226994   3.641   4.217  11.923  0.7457 -2.1581 -0.2118
 5121SOL     OW26995   1.652   3.327   5.558  0.1746 -0.4166 -0.0406
 5121SOL    HW126996   1.615   3.240   5.541 -1.5688  0.2607  0.2326
 5121SOL    HW226997   1.573   3.366   5.597 -0.6125 -1.0499 -1.0023
 5122SOL     OW26998   2.165   0.529   8.020 -0.9238  0.1576  0.2712
 5122SOL    HW126999   2.124   0.482   7.948  0.0342 -0.7273  0.3063
 5122SOL    HW227000   2.247   0.562   7.985  0.2800 -1.7604  1.3381
 5123SOL     OW27001   2.566   1.972   7.080  0.2295  0.1112 -0.0626
 5123SOL    HW127002   2.569   1.955   7.175  0.2959  0.0204 -0.0812
 5123SOL    HW227003   2.491   1.919   7.054  0.2835  0.1012 -0.1950
 5124SOL     OW27004   1.614   3.952   7.897 -0.1500 -0.0789  0.3875
 5124SOL    HW127005   1.607   4.038   7.939  2.7518  0.1616  0.3605
 5124SOL    HW227006   1.543   3.947   7.833  1.9249  2.4031 -2.0846
 5125SOL     OW27007   2.948   1.312   3.042  0.1834 -0.1098 -0.0655
 5125SOL    HW127008   2.895   1.386   3.071  1.1976  1.3181 -1.7948
 5125SOL    HW227009   2.912   1.297   2.954  0.6416  0.3754 -0.3401
 5126SOL     OW27010   0.684   1.237  10.954 -0.1657 -0.6559 -0.7794
 5126SOL    HW127011   0.708   1.166  10.896 -0.3931  0.3160 -2.0579
 5126SOL    HW227012   0.709   1.192  11.035 -0.9545  1.0646  0.4241
 5127SOL     OW27013   3.510   2.232   4.087  0.6079  0.1989 -0.0929
 5127SOL    HW127014   3.454   2.272   4.020 -0.1735 -2.9419 -1.3252
 5127SOL    HW227015   3.600   2.245   4.059  0.4317  1.1852 -0.1752
 5128SOL     OW27016   2.968   3.245   2.509  0.6498  0.5327 -0.3621
 5128SOL    HW127017   3.063   3.245   2.513  0.5801 -1.9501  1.0879
 5128SOL    HW227018   2.943   3.333   2.537 -0.4867 -0.1201  0.6987
 5129SOL     OW27019   1.055   1.615   3.397  0.5807  0.7019 -0.3463
 5129SOL    HW127020   1.125   1.617   3.332 -1.6898  1.2856 -2.7468
 5129SOL    HW227021   1.043   1.706   3.426  1.2724  0.1624  1.5812
 5130SOL     OW27022   1.667   3.097  10.940 -0.2120  0.2713  0.3111
 5130SOL    HW127023   1.665   3.141  10.855 -2.4927 -1.1030 -0.3633
 5130SOL    HW227024   1.704   3.160  11.001 -0.8404  1.0699 -0.1375
 5131SOL     OW27025   0.829   3.438   7.968 -0.1492  0.4273 -0.5049
 5131SOL    HW127026   0.825   3.342   7.968  1.2130  0.3545  1.7565
 5131SOL    HW227027   0.913   3.461   8.009 -0.5707  1.7863 -0.4193
 5132SOL     OW27028   0.304   0.885   7.940  0.2134  0.2470 -0.2956
 5132SOL    HW127029   0.258   0.849   8.016  1.1944 -0.9141 -0.2638
 5132SOL    HW227030   0.387   0.839   7.951 -0.3155 -1.2295 -2.3758
 5133SOL     OW27031   3.329   3.223   7.745  0.4087  0.1751 -0.4632
 5133SOL    HW127032   3.386   3.269   7.806  0.1549 -0.0866 -0.0248
 5133SOL    HW227033   3.395   3.171   7.700  0.5617 -1.0353  1.1589
 5134SOL     OW27034   1.601   0.369   3.074 -0.3232 -0.4379  0.3963
 5134SOL    HW127035   1.584   0.283   3.113 -4.5567  0.2358 -0.0742
 5134SOL    HW227036   1.661   0.414   3.133 -2.2390  1.4943  0.8625
 5135SOL     OW27037   4.476   1.905   3.897 -0.2936 -0.4177 -0.5574
 5135SOL    HW127038   4.454   1.863   3.980  0.8059  2.4634  1.1940
 5135SOL    HW227039   4.390   1.922   3.858  0.0480  0.8711 -0.7434
 5136SOL     OW27040   4.048   4.543  14.444 -0.0956  0.0122  0.4380
 5136SOL    HW127041   4.034   4.622  14.496 -0.3247  0.7808 -0.8109
 5136SOL    HW227042   4.044   4.568  14.352  1.3476  0.9027  0.6154
 5137SOL     OW27043   2.937   3.369   8.911 -0.4394 -0.3736  0.0244
 5137SOL    HW127044   2.998   3.376   8.837  0.2828  1.2162  0.7641
 5137SOL    HW227045   2.874   3.433   8.880 -0.9889 -0.2679  1.3933
 5138SOL     OW27046   4.164   0.147   5.569 -0.0320  0.1368  0.2704
 5138SOL    HW127047   4.101   0.127   5.638 -1.0791 -0.2364 -0.7945
 5138SOL    HW227048   4.182   0.238   5.592 -0.6108  0.4019 -0.2987
 5139SOL     OW27049   1.697   3.225   5.090 -0.6303  0.6881  0.2941
 5139SOL    HW127050   1.612   3.250   5.054  0.4166  0.9049 -2.0912
 5139SOL    HW227051   1.712   3.301   5.146  1.3639  1.1440 -0.8394
 5140SOL     OW27052   3.431   4.090   7.609  0.4453 -0.7199  0.1264
 5140SOL    HW127053   3.396   4.004   7.584  0.7245 -1.1850  1.3745
 5140SOL    HW227054   3.462   4.070   7.697  0.8906 -2.8869 -0.5099
 5141SOL     OW27055   1.097   0.362   5.552 -0.5038  0.0152  1.0538
 5141SOL    HW127056   1.002   0.355   5.540 -0.3413  0.4746 -0.5929
 5141SOL    HW227057   1.111   0.294   5.617  1.5093 -0.1266  0.4776
 5142SOL     OW27058   2.636   1.693   5.677  0.4333  0.2334 -0.5302
 5142SOL    HW127059   2.581   1.620   5.707  0.5572 -0.7233 -2.6725
 5142SOL    HW227060   2.588   1.768   5.713 -0.4637 -0.7161  0.2579
 5143SOL     OW27061   2.908   3.580  13.392  0.7657 -0.1227 -0.0550
 5143SOL    HW127062   2.964   3.520  13.440  1.8804  0.9087 -0.0677
 5143SOL    HW227063   2.822   3.573  13.433  0.0363  0.4230 -1.4624
 5144SOL     OW27064   2.889   4.511   0.877 -0.0119 -0.3140 -0.1510
 5144SOL    HW127065   2.978   4.533   0.906 -0.3499  2.4319 -1.2133
 5144SOL    HW227066   2.853   4.473   0.957 -0.1439 -1.3392 -0.7042
 5145SOL     OW27067   2.919   0.378   4.726  0.0590 -0.0487  0.4221
 5145SOL    HW127068   2.922   0.364   4.632 -1.3868 -3.1299  0.8193
 5145SOL    HW227069   2.936   0.288   4.754  0.8775  0.1361  0.5223
 5146SOL     OW27070   0.677   1.187   3.070  0.0030  0.2873 -0.1521
 5146SOL    HW127071   0.749   1.227   3.119  0.0754 -0.5023  0.3847
 5146SOL    HW227072   0.603   1.245   3.087  0.1616 -0.1922  2.1078
 5147SOL     OW27073   2.488   3.812   0.855  0.5081 -0.1301 -0.0089
 5147SOL    HW127074   2.545   3.741   0.884  1.2702  1.1265  1.5376
 5147SOL    HW227075   2.501   3.872   0.928  1.4730  0.2464 -0.4841
 5148SOL     OW27076   2.177   2.554  10.130 -0.3794  0.1780 -0.3759
 5148SOL    HW127077   2.243   2.576  10.196  0.9389 -1.3846 -1.1761
 5148SOL    HW227078   2.100   2.537  10.183 -0.5071 -0.2664 -0.7080
 5149SOL     OW27079   3.355   3.390   3.204 -0.3953 -0.3163  0.4945
 5149SOL    HW127080   3.346   3.422   3.294 -0.1608 -2.0613  1.1444
 5149SOL    HW227081   3.267   3.415   3.176 -1.6911 -1.1806  3.7372
 5150SOL     OW27082   2.380   4.019   5.552 -0.0167  0.3666  0.5882
 5150SOL    HW127083   2.438   4.091   5.525  0.6615 -0.7201 -0.9173
 5150SOL    HW227084   2.312   4.022   5.485  0.9793 -0.4552 -0.4688
 5151SOL     OW27085   1.422   3.663  15.971 -0.0483 -0.1213  0.3136
 5151SOL    HW127086   1.428   3.572  15.942 -1.6659 -1.1376  3.1922
 5151SOL    HW227087   1.460   3.655  16.058 -0.5440 -2.1798  0.3407
 5152SOL     OW27088   3.844   1.963   4.823  0.9141 -0.2266  0.2681
 5152SOL    HW127089   3.865   1.977   4.731 -1.9788 -2.5366 -0.7313
 5152SOL    HW227090   3.931   1.954   4.861  0.5664 -1.5761  0.7261
 5153SOL     OW27091   1.758   3.218  13.597 -0.1387  0.2557 -0.2431
 5153SOL    HW127092   1.773   3.313  13.596 -1.1558  0.4158 -0.5502
 5153SOL    HW227093   1.799   3.213  13.510  0.9982  0.1135  0.3039
 5154SOL     OW27094   3.175   2.667   7.199  0.3530  0.0532  0.3684
 5154SOL    HW127095   3.151   2.575   7.196 -1.0758  0.5092 -1.7548
 5154SOL    HW227096   3.150   2.683   7.290 -1.3342  0.0823 -0.1131
 5155SOL     OW27097   4.246   3.058   3.554  0.3477  0.6937 -0.5491
 5155SOL    HW127098   4.206   3.119   3.492 -0.9415 -0.0396 -0.4458
 5155SOL    HW227099   4.240   2.972   3.512 -2.6054 -0.1820  1.6101
 5156SOL     OW27100   0.054   4.733   7.571 -0.4185  0.9958  0.0116
 5156SOL    HW127101   4.718   0.049   7.572 -0.0156  1.5422  0.0793
 5156SOL    HW227102   0.132   0.043   7.550  1.1584 -1.0691  0.8496
 5157SOL     OW27103   0.318   2.809  12.093  0.6440  0.0707 -0.0470
 5157SOL    HW127104   0.225   2.824  12.078 -0.2106 -2.8616  2.1415
 5157SOL    HW227105   0.364   2.879  12.048 -1.3957  2.1949  1.2051
 5158SOL     OW27106   3.094   4.024  14.250 -0.1679  0.3045  0.4699
 5158SOL    HW127107   3.005   3.990  14.257 -0.2140 -0.0608 -1.7457
 5158SOL    HW227108   3.093   4.101  14.307  1.3777  0.4873  0.2687
 5159SOL     OW27109   4.206   4.248   5.237 -0.5156 -0.5911  0.1950
 5159SOL    HW127110   4.237   4.217   5.152 -2.3470 -0.4142 -0.5318
 5159SOL    HW227111   4.138   4.314   5.220 -0.6335 -0.7715 -0.0371
 5160SOL     OW27112   1.870   0.026   6.012  0.3657  0.2633 -0.3137
 5160SOL    HW127113   1.839   4.698   6.071 -0.5588  1.8877  1.0961
 5160SOL    HW227114   1.839   0.103   6.061 -2.9203 -0.5983 -1.0390
 5161SOL     OW27115   0.297   4.021  17.143  0.4384 -0.1809 -0.5793
 5161SOL    HW127116   0.259   4.102  17.108  1.3407  0.3036 -0.4296
 5161SOL    HW227117   0.367   4.055  17.199 -0.6413  0.6544  0.2694
 5162SOL     OW27118   2.925   1.912   7.263 -0.0359  0.4347 -0.2851
 5162SOL    HW127119   2.838   1.933   7.297  0.5723  1.5807  0.5474
 5162SOL    HW227120   2.970   1.995   7.250  3.2354 -0.9815  1.9951
 5163SOL     OW27121   0.690   3.687   4.682 -0.1830 -0.2363 -0.0853
 5163SOL    HW127122   0.699   3.782   4.677 -0.3351 -0.1898  0.5006
 5163SOL    HW227123   0.596   3.675   4.666 -0.5555  3.5883 -0.5835
 5164SOL     OW27124   0.775   1.789   3.612 -0.0917  0.3389  0.0908
 5164SOL    HW127125   0.737   1.851   3.674  1.6621 -0.5189  2.0431
 5164SOL    HW227126   0.755   1.703   3.649  0.5700  1.2083  2.4859
 5165SOL     OW27127   2.003   3.810   3.896 -0.1021  0.1369 -0.8907
 5165SOL    HW127128   1.995   3.893   3.943  1.5865 -1.3018  1.9596
 5165SOL    HW227129   1.921   3.773   3.929  1.6998 -1.7145  1.5455
 5166SOL     OW27130   3.487   3.170   3.472 -0.0617  0.1748  0.0934
 5166SOL    HW127131   3.538   3.153   3.393 -0.6745  0.9072 -0.4624
 5166SOL    HW227132   3.464   3.084   3.506  0.2371 -0.0415 -0.2503
 5167SOL     OW27133   3.941   0.421   3.213  0.3420  0.5790  0.8076
 5167SOL    HW127134   3.949   0.407   3.308 -0.1728  0.1281  0.7860
 5167SOL    HW227135   3.846   0.428   3.209  0.2474 -1.6962 -1.0286
 5168SOL     OW27136   1.922   2.910   9.113  0.0598 -0.0803  0.2245
 5168SOL    HW127137   1.924   2.985   9.173  3.0823  0.9565 -1.1722
 5168SOL    HW227138   1.987   2.854   9.154 -0.0050  0.8286  1.5813
 5169SOL     OW27139   1.273   1.443   6.002 -0.6779 -0.1068  0.2069
 5169SOL    HW127140   1.245   1.501   6.072  1.1836 -0.0286  0.8800
 5169SOL    HW227141   1.346   1.491   5.962 -2.1427  1.5403 -0.4882
 5170SOL     OW27142   1.918   0.644   2.889 -0.1515  0.0178  0.6641
 5170SOL    HW127143   1.930   0.557   2.850 -0.2197  0.7500 -0.9654
 5170SOL    HW227144   1.990   0.694   2.852 -0.4374 -0.8792 -1.0870
 5171SOL     OW27145   3.026   0.908   5.873 -0.7105 -0.1792 -0.0375
 5171SOL    HW127146   3.101   0.850   5.884 -2.1773 -2.1083 -0.1339
 5171SOL    HW227147   3.001   0.916   5.965 -0.0469 -0.1319  0.1400
 5172SOL     OW27148   0.105   0.729   0.828  0.1672  0.1401  0.1477
 5172SOL    HW127149   0.179   0.695   0.777  0.6375 -0.3316  1.1329
 5172SOL    HW227150   0.033   0.679   0.789  0.1288 -0.7470  1.3443
 5173SOL     OW27151   2.719   2.372   8.193 -0.0327  0.4548  0.2898
 5173SOL    HW127152   2.779   2.436   8.230  1.6469 -1.8815  1.6078
 5173SOL    HW227153   2.660   2.353   8.266 -2.8830  3.2726 -1.3249
 5174SOL     OW27154   2.469   4.375   7.535 -1.0889  0.0461 -0.0236
 5174SOL    HW127155   2.476   4.355   7.628 -0.0153  4.9545  0.9236
 5174SOL    HW227156   2.500   4.465   7.535  1.2460 -0.7732  2.9967
 5175SOL     OW27157   3.865   3.101  10.259 -0.0267 -0.0746  0.2381
 5175SOL    HW127158   3.934   3.151  10.303 -1.4650  1.2142  1.0528
 5175SOL    HW227159   3.904   3.014  10.263 -2.6649 -1.2459  0.3975
 5176SOL     OW27160   2.595   0.187   4.603  0.7072 -0.8923 -0.3209
 5176SOL    HW127161   2.626   0.137   4.527  2.6267  0.4432 -0.4022
 5176SOL    HW227162   2.537   0.251   4.562  1.6498 -0.3104 -0.7595
 5177SOL     OW27163   2.533   2.362   1.597 -0.0451  0.2205  0.3233
 5177SOL    HW127164   2.449   2.318   1.613 -1.4006  2.8632  0.3966
 5177SOL    HW227165   2.537   2.419   1.674  1.5748 -0.1902  0.5513
 5178SOL     OW27166   1.922   4.598  14.391 -0.4652  0.2282  0.3059
 5178SOL    HW127167   1.852   4.558  14.339  1.2447 -2.6455  0.1849
 5178SOL    HW227168   1.952   4.649  14.317  0.8484 -2.1203 -0.7804
 5179SOL     OW27169   2.794   1.563   3.119  0.4317  0.1612 -0.3248
 5179SOL    HW127170   2.879   1.584   3.159  0.4648 -1.7607  0.5987
 5179SOL    HW227171   2.750   1.648   3.107  1.0423  0.6159  0.6431
 5180SOL     OW27172   4.398   2.294   8.545 -0.0720 -0.1802  0.3260
 5180SOL    HW127173   4.452   2.285   8.624  0.6113 -0.8217 -0.2149
 5180SOL    HW227174   4.324   2.241   8.574 -1.3793  1.4251 -0.0488
 5181SOL     OW27175   3.218   1.388  16.883 -0.1548 -0.7697 -0.2110
 5181SOL    HW127176   3.166   1.469  16.876  3.0990  1.3403  0.3030
 5181SOL    HW227177   3.161   1.311  16.882 -1.6698  0.3152  0.8631
 5182SOL     OW27178   2.163   4.184   8.297 -0.3141 -0.7745  0.2942
 5182SOL    HW127179   2.161   4.203   8.203  0.6707  1.1150  0.6423
 5182SOL    HW227180   2.158   4.272   8.334 -2.4635 -0.1601 -1.4929
 5183SOL     OW27181   1.945   4.029   2.287  0.6018  0.2823  0.1675
 5183SOL    HW127182   2.010   4.090   2.254  0.3347  0.5721  0.1738
 5183SOL    HW227183   1.882   4.023   2.215  0.6436  0.9020  0.0839
 5184SOL     OW27184   4.372   3.119   9.644 -0.5470  0.4344 -0.0606
 5184SOL    HW127185   4.388   3.205   9.683 -1.8141  0.6952 -0.0997
 5184SOL    HW227186   4.302   3.148   9.585 -1.5335  0.9762  1.3765
 5185SOL     OW27187   2.769   2.014   7.579  0.0351  0.0328 -0.0364
 5185SOL    HW127188   2.854   2.056   7.568  0.2929 -0.0047  1.8348
 5185SOL    HW227189   2.736   2.047   7.662  0.6134 -1.1178  0.6595
 5186SOL     OW27190   4.692   2.028  12.777 -0.6568  0.4557  0.2417
 5186SOL    HW127191   4.692   1.934  12.795  3.6114  0.6141  0.8819
 5186SOL    HW227192   4.603   2.053  12.751 -0.3325  1.3560  0.0069
 5187SOL     OW27193   3.396   4.075   8.063  0.3609  0.1657  0.1377
 5187SOL    HW127194   3.403   4.150   8.122 -0.5150  1.5609 -1.4974
 5187SOL    HW227195   3.448   4.100   7.986  1.3394 -0.8029  0.4940
 5188SOL     OW27196   3.780   4.320   4.573 -0.3034 -0.2572 -0.6050
 5188SOL    HW127197   3.705   4.368   4.609  0.9361  2.0892 -1.2360
 5188SOL    HW227198   3.841   4.329   4.646 -0.9275  0.5902 -0.1895
 5189SOL     OW27199   1.718   1.173   7.945 -0.2085  0.0732 -0.2981
 5189SOL    HW127200   1.658   1.240   7.913 -2.8086 -2.0587  0.1043
 5189SOL    HW227201   1.690   1.158   8.036 -0.2530  2.7407  0.1336
 5190SOL     OW27202   2.373   1.551  16.534 -0.5682  0.0864  0.3468
 5190SOL    HW127203   2.407   1.638  16.552 -0.4005  0.6603 -2.7933
 5190SOL    HW227204   2.287   1.576  16.499 -1.0696 -0.8054  0.9194
 5191SOL     OW27205   0.462   3.851   2.158 -0.2963  0.0900  0.0013
 5191SOL    HW127206   0.373   3.884   2.175  0.7852  3.0473 -0.0759
 5191SOL    HW227207   0.509   3.922   2.201  0.0908 -0.5134  0.5650
 5192SOL     OW27208   2.777   3.950   5.137 -0.9098  0.3132 -0.0137
 5192SOL    HW127209   2.845   3.903   5.089 -0.2481  0.9716  0.2795
 5192SOL    HW227210   2.782   3.915   5.226  1.3661 -0.3939 -0.4182
 5193SOL     OW27211   1.859   0.348   6.554  0.5027 -0.3312  0.1560
 5193SOL    HW127212   1.899   0.265   6.533  1.4312  0.0799  0.3041
 5193SOL    HW227213   1.769   0.343   6.520 -0.0394  0.4943  1.4313
 5194SOL     OW27214   3.167   1.402  16.297  0.5112 -0.0941  0.5946
 5194SOL    HW127215   3.119   1.466  16.351 -0.7289  0.0681 -0.6948
 5194SOL    HW227216   3.130   1.418  16.210 -1.3666 -2.6043  0.9418
 5195SOL     OW27217   1.671   2.248   8.970 -0.2470 -0.3225  0.3176
 5195SOL    HW127218   1.603   2.316   8.967  0.6808  0.6447  1.5640
 5195SOL    HW227219   1.755   2.294   8.974 -1.6736  2.4018 -0.8385
 5196SOL     OW27220   0.143   1.941   5.683 -0.1524 -0.0749  0.3314
 5196SOL    HW127221   0.219   1.893   5.715 -0.7349 -0.5113  1.0651
 5196SOL    HW227222   0.131   1.895   5.599 -0.8727  0.6799  0.0190
 5197SOL     OW27223   2.415   2.494   3.858  0.3369  0.4600  0.3956
 5197SOL    HW127224   2.437   2.510   3.950 -1.0067  1.8422  0.4894
 5197SOL    HW227225   2.437   2.405   3.833  1.0015  1.0022 -0.9170
 5198SOL     OW27226   0.233   2.980   8.247  0.1971  0.2330 -0.0280
 5198SOL    HW127227   0.318   2.993   8.288  0.4280 -0.7117 -0.1999
 5198SOL    HW227228   0.218   2.888   8.269  1.6010 -0.1637 -0.7109
 5199SOL     OW27229   3.997   1.372  10.578  0.0828  0.3505  0.0452
 5199SOL    HW127230   3.966   1.299  10.632  1.5396  0.5981  1.2158
 5199SOL    HW227231   4.077   1.341  10.537  0.0667  1.1102 -0.5637
 5200SOL     OW27232   1.117   2.826  11.232  0.6161 -0.0224  0.2086
 5200SOL    HW127233   1.089   2.759  11.170 -2.2517  1.6008 -0.2609
 5200SOL    HW227234   1.186   2.870  11.184 -0.1895  0.2674 -0.6899
 5201SOL     OW27235   1.206   0.396  14.244 -0.0558 -0.2136 -0.0689
 5201SOL    HW127236   1.165   0.478  14.216 -1.2798 -0.5446  0.7672
 5201SOL    HW227237   1.133   0.348  14.282  0.1504 -1.2389 -0.9659
 5202SOL     OW27238   1.809   3.383   4.400 -0.0720  0.4113  0.2056
 5202SOL    HW127239   1.720   3.374   4.432 -0.3299  0.8666 -0.3957
 5202SOL    HW227240   1.857   3.372   4.483 -2.0962 -0.3634  1.2563
 5203SOL     OW27241   1.708   0.904   9.118  0.0003 -0.2382 -0.5360
 5203SOL    HW127242   1.632   0.952   9.151 -0.5173 -0.7209 -1.0307
 5203SOL    HW227243   1.713   0.940   9.030 -1.2060  1.6303  0.1461
 5204SOL     OW27244   3.806   2.847  12.905 -0.5364  0.5606  0.1352
 5204SOL    HW127245   3.832   2.938  12.923  0.5966 -0.3012  2.7726
 5204SOL    HW227246   3.835   2.838  12.814  2.3291  1.1945  0.9794
 5205SOL     OW27247   3.498   0.039   4.829  0.9309 -0.2136 -0.0215
 5205SOL    HW127248   3.446   0.006   4.902  2.0019 -0.2533  0.7109
 5205SOL    HW227249   3.493   4.709   4.765 -1.6897 -0.8710  0.8828
 5206SOL     OW27250   4.506   0.119   5.076  0.3410  0.3062 -0.6848
 5206SOL    HW127251   4.589   0.163   5.060  0.6117  0.3174  0.7563
 5206SOL    HW227252   4.442   0.176   5.034 -0.9683  1.0451  2.3022
 5207SOL     OW27253   2.434   3.234  10.318  0.0604 -0.4740 -0.3210
 5207SOL    HW127254   2.423   3.329  10.330 -1.8182 -0.7580  0.1530
 5207SOL    HW227255   2.342   3.208  10.323  0.5095 -1.8797  0.5509
 5208SOL     OW27256   1.443   1.326  16.318 -0.4421  0.1840  0.2467
 5208SOL    HW127257   1.526   1.343  16.273 -0.3756 -0.0958  0.2627
 5208SOL    HW227258   1.399   1.256  16.270  0.8753  0.9671 -2.0719
 5209SOL     OW27259   0.491   3.994   7.507  0.0349 -0.7276  0.5962
 5209SOL    HW127260   0.440   3.923   7.468 -3.2682  0.3808  2.9403
 5209SOL    HW227261   0.560   4.011   7.443  1.1551 -0.5814  1.8668
 5210SOL     OW27262   2.733   2.308  12.977 -0.7521  0.1334  0.3607
 5210SOL    HW127263   2.700   2.373  12.914  1.0185  0.7052  0.0206
 5210SOL    HW227264   2.806   2.272  12.926 -1.9904 -1.6654 -0.1507
 5211SOL     OW27265   0.825   4.573  15.586  0.1650  0.8570  0.5310
 5211SOL    HW127266   0.887   4.565  15.658 -0.1041  1.1739  0.7949
 5211SOL    HW227267   0.756   4.530  15.635  1.6538 -2.8669 -0.6140
 5212SOL     OW27268   2.288   0.585   8.797 -0.5261 -0.4908  0.3834
 5212SOL    HW127269   2.270   0.663   8.850  1.8279  1.2293 -1.3111
 5212SOL    HW227270   2.360   0.615   8.741 -0.4924 -1.7256 -0.2266
 5213SOL     OW27271   3.127   3.927   7.984 -0.0883 -0.1333 -0.4301
 5213SOL    HW127272   3.220   3.931   7.960 -0.7215  0.6466 -2.7620
 5213SOL    HW227273   3.089   3.954   7.900  1.5806  0.9591 -0.8370
 5214SOL     OW27274   3.516   2.283   1.787  0.0888 -0.5619 -0.8817
 5214SOL    HW127275   3.424   2.283   1.763 -0.2306 -0.4317  0.3271
 5214SOL    HW227276   3.535   2.370   1.821  0.6140 -0.4169 -1.5570
 5215SOL     OW27277   4.560   3.478   7.002  0.4650 -0.2373  0.9002
 5215SOL    HW127278   4.613   3.528   6.940  0.7997  0.5220  1.7923
 5215SOL    HW227279   4.504   3.549   7.035 -2.7690 -1.8152 -1.1974
 5216SOL     OW27280   4.389   2.450   9.680 -0.3421  0.4836  0.4580
 5216SOL    HW127281   4.334   2.528   9.670 -4.4630 -2.4329  0.4219
 5216SOL    HW227282   4.471   2.490   9.709  0.6620  0.6017 -2.6088
 5217SOL     OW27283   0.360   3.138   9.546 -0.2072  0.0122  0.0993
 5217SOL    HW127284   0.336   3.100   9.631  1.0972  0.9834  0.9099
 5217SOL    HW227285   0.312   3.220   9.541 -0.9550 -0.2441  2.7626
 5218SOL     OW27286   2.320   2.014   7.426  0.1021 -0.2606 -0.2801
 5218SOL    HW127287   2.289   2.096   7.387  1.5759  0.9959  1.1716
 5218SOL    HW227288   2.314   1.946   7.359  2.0196 -0.4625 -0.2305
 5219SOL     OW27289   0.231   3.925   5.484 -0.5924  0.7095 -0.7529
 5219SOL    HW127290   0.163   3.895   5.424  1.2919 -0.0479 -2.5308
 5219SOL    HW227291   0.204   4.017   5.482 -3.3698 -0.0849  0.1720
 5220SOL     OW27292   4.020   1.660   1.466  0.1967 -0.0628  0.4390
 5220SOL    HW127293   3.949   1.716   1.496  0.2655  0.8108 -1.0251
 5220SOL    HW227294   4.023   1.672   1.371  0.2297 -1.6910  0.2318
 5221SOL     OW27295   1.222   1.055  12.539  0.4060 -0.4388  0.6368
 5221SOL    HW127296   1.135   1.035  12.574  1.4653 -1.5597  2.6359
 5221SOL    HW227297   1.206   1.046  12.445 -3.1598 -0.1795  1.2262
 5222SOL     OW27298   3.129   3.959   9.053  0.0888 -0.7948 -0.4185
 5222SOL    HW127299   3.188   3.935   8.981 -0.3441  1.0004 -1.3664
 5222SOL    HW227300   3.191   3.925   9.119 -2.1609 -0.2062  1.9868
 5223SOL     OW27301   3.719   2.387   3.955  0.0127 -0.0150 -0.1907
 5223SOL    HW127302   3.784   2.416   4.019 -2.0271  0.8658  1.4870
 5223SOL    HW227303   3.774   2.354   3.884 -0.0567  1.4408 -0.9390
 5224SOL     OW27304   3.008   2.141   2.865 -0.3238  0.0260 -0.6230
 5224SOL    HW127305   3.070   2.120   2.795  0.5918  0.4262  0.0780
 5224SOL    HW227306   2.992   2.233   2.843 -2.3327  0.1500  1.3617
 5225SOL     OW27307   3.721   1.028  16.654  0.4953  0.1731 -0.4427
 5225SOL    HW127308   3.763   1.112  16.675 -0.2295  0.2911  0.5444
 5225SOL    HW227309   3.793   0.982  16.611  2.0622  0.1737  2.1547
 5226SOL     OW27310   1.983   3.334   2.540 -0.3619  0.1929 -0.6531
 5226SOL    HW127311   1.920   3.274   2.581 -1.1965  2.0119  0.7104
 5226SOL    HW227312   2.052   3.343   2.606 -0.8082 -1.4813  0.0513
 5227SOL     OW27313   0.981   0.667   6.173 -0.3319 -0.7669 -0.3160
 5227SOL    HW127314   1.038   0.735   6.137  1.8062 -1.1449  2.3574
 5227SOL    HW227315   1.053   0.621   6.217 -0.0425  0.2283  0.2517
 5228SOL     OW27316   2.259   1.154  16.583  0.3663 -0.2249 -0.4071
 5228SOL    HW127317   2.172   1.191  16.597  1.2350  0.4077  3.1924
 5228SOL    HW227318   2.305   1.196  16.656 -0.5208  2.2872 -1.2863
 5229SOL     OW27319   0.891   1.957   8.409  0.2693  0.0614  0.0718
 5229SOL    HW127320   0.922   1.957   8.499  1.9790 -1.9717 -0.5138
 5229SOL    HW227321   0.848   1.871   8.403 -0.5390  0.4931 -0.4051
 5230SOL     OW27322   1.204   2.291   4.198  0.1212 -0.0597  0.0878
 5230SOL    HW127323   1.156   2.322   4.274  1.1741  1.5695  0.0834
 5230SOL    HW227324   1.175   2.349   4.127 -1.2135 -0.0697  0.6291
 5231SOL     OW27325   0.223   4.620   3.799  0.3602 -0.5129 -0.2053
 5231SOL    HW127326   0.232   4.536   3.845  1.4808 -2.1202 -3.3181
 5231SOL    HW227327   0.291   4.660   3.853 -0.0980 -0.1865  0.1296
 5232SOL     OW27328   2.094   2.372   3.565 -0.3727 -0.3306 -0.2406
 5232SOL    HW127329   2.125   2.284   3.589  0.0412  0.0472  0.6467
 5232SOL    HW227330   2.028   2.353   3.499 -3.1141  1.4335  1.9607
 5233SOL     OW27331   4.398   1.416   4.072  0.3846 -0.3408  0.0401
 5233SOL    HW127332   4.401   1.461   4.156  1.3830  0.8500 -0.6361
 5233SOL    HW227333   4.330   1.353   4.099 -1.0213  1.4130  0.6092
 5234SOL     OW27334   0.891   0.990   4.621  0.6264 -0.3689 -0.0254
 5234SOL    HW127335   0.865   1.049   4.691  0.2192 -0.1563 -0.3557
 5234SOL    HW227336   0.981   1.020   4.608  0.3145  0.5347 -0.0949
 5235SOL     OW27337   1.270   1.792   0.212 -0.2504 -0.3107 -0.8359
 5235SOL    HW127338   1.365   1.796   0.211 -0.2660 -0.0568 -1.5414
 5235SOL    HW227339   1.256   1.786   0.117  0.9678 -1.4320 -0.9418
 5236SOL     OW27340   1.803   2.669  16.346  0.5376 -0.2573 -0.1738
 5236SOL    HW127341   1.894   2.653  16.320  1.1757  2.0328  0.7033
 5236SOL    HW227342   1.793   2.750  16.297 -2.1119 -1.6681 -1.9568
 5237SOL     OW27343   2.663   0.337  14.068  0.2656 -0.0951 -0.3737
 5237SOL    HW127344   2.693   0.394  14.138 -1.2891 -0.0265  0.2533
 5237SOL    HW227345   2.591   0.286  14.105 -1.0540 -0.2930 -3.1389
 5238SOL     OW27346   2.252   3.304   3.905  0.0627  0.1851 -0.1494
 5238SOL    HW127347   2.321   3.333   3.965 -0.6038 -1.3387  1.3462
 5238SOL    HW227348   2.196   3.382   3.897  1.1377  0.7581 -2.0996
 5239SOL     OW27349   4.201   0.417   7.117  0.1581  0.3745 -0.7177
 5239SOL    HW127350   4.215   0.384   7.206  0.4773 -0.5153 -1.0954
 5239SOL    HW227351   4.218   0.341   7.062  3.6709  0.6486 -0.0363
 5240SOL     OW27352   3.548   1.336   2.717 -0.1238  0.7524  0.1316
 5240SOL    HW127353   3.579   1.269   2.657  0.7884  0.8555  0.4957
 5240SOL    HW227354   3.475   1.290   2.758  0.9435 -1.1415 -0.1419
 5241SOL     OW27355   0.529   0.805   8.866 -0.3150  0.3254 -0.1407
 5241SOL    HW127356   0.590   0.815   8.939 -0.1201  0.8252 -0.3755
 5241SOL    HW227357   0.568   0.865   8.803 -1.1962 -0.1188 -1.1116
 5242SOL     OW27358   3.718   0.063   6.251  0.1811 -0.0678  0.5465
 5242SOL    HW127359   3.753   0.026   6.170  0.9162  0.8492  0.4483
 5242SOL    HW227360   3.726   0.158   6.242 -0.4548  0.0452  1.2472
 5243SOL     OW27361   2.012   0.766  12.664 -0.1357  0.1066  0.1040
 5243SOL    HW127362   2.007   0.670  12.662 -2.6354  0.2169  0.2636
 5243SOL    HW227363   2.006   0.786  12.570  2.1496  0.8910  0.1372
 5244SOL     OW27364   2.825   0.467  16.443 -0.7042  0.3719 -0.0246
 5244SOL    HW127365   2.830   0.528  16.517  0.6099 -0.1678  0.3410
 5244SOL    HW227366   2.732   0.474  16.423 -1.0778 -2.5617  0.6827
 5245SOL     OW27367   1.381   4.116   8.459 -0.1369  0.5931  0.6071
 5245SOL    HW127368   1.435   4.154   8.529  0.2226  0.8095  0.2050
 5245SOL    HW227369   1.317   4.187   8.449 -1.7049 -0.7948  0.9217
 5246SOL     OW27370   0.760   2.933   9.358  0.4771 -0.2942 -0.0678
 5246SOL    HW127371   0.790   3.021   9.379 -1.5596  0.8969 -2.1446
 5246SOL    HW227372   0.725   2.895   9.439  0.3816 -0.1340 -0.0324
 5247SOL     OW27373   1.575   1.789   5.765 -0.4837  0.4032 -0.0455
 5247SOL    HW127374   1.670   1.791   5.774 -0.5835 -0.2037  1.1946
 5247SOL    HW227375   1.553   1.792   5.672 -3.6193 -0.7098  0.6597
 5248SOL     OW27376   3.220   0.026   2.622 -0.4839  0.1621  0.0343
 5248SOL    HW127377   3.128   0.016   2.644 -0.0574 -2.5453  0.6536
 5248SOL    HW227378   3.239   4.675   2.599  3.5864  1.1276 -0.5639
 5249SOL     OW27379   3.431   1.163   3.972  0.1922  0.0288 -0.3091
 5249SOL    HW127380   3.427   1.248   3.929  0.3511  0.9393  1.4440
 5249SOL    HW227381   3.376   1.109   3.916 -0.3378 -0.1683  0.3914
 5250SOL     OW27382   3.623   3.738  10.178 -0.5709  0.5657  0.4313
 5250SOL    HW127383   3.609   3.811  10.118  2.4989  1.4192  0.7443
 5250SOL    HW227384   3.545   3.686  10.157 -0.1745  1.3528 -2.9546
 5251SOL     OW27385   4.343   3.920   4.042  0.2132  0.1372 -0.7191
 5251SOL    HW127386   4.370   3.891   3.955  1.1283 -1.6179  0.1303
 5251SOL    HW227387   4.346   3.833   4.082 -2.4056  0.8292  0.9168
 5252SOL     OW27388   3.218   0.083  12.381 -0.2061 -0.1457 -0.0332
 5252SOL    HW127389   3.203   4.732  12.402 -0.9775  0.2964  1.3444
 5252SOL    HW227390   3.198   0.083  12.287 -0.0661  1.5898 -0.0733
 5253SOL     OW27391   4.605   0.300  16.027 -0.0549  0.7685  0.9164
 5253SOL    HW127392   4.565   0.246  16.095 -2.5307  1.6376  0.1801
 5253SOL    HW227393   4.528   0.338  15.984 -0.8398 -0.2004  1.4719
 5254SOL     OW27394   2.899   3.656   6.643  0.1168 -0.0211  0.4137
 5254SOL    HW127395   2.853   3.617   6.717 -0.7826 -1.5363 -0.9261
 5254SOL    HW227396   2.898   3.587   6.576  1.0620  2.1181 -1.8264
 5255SOL     OW27397   3.765   2.243   6.041 -0.1052  0.3586 -0.3362
 5255SOL    HW127398   3.694   2.227   6.104 -0.1007  1.8552  0.0432
 5255SOL    HW227399   3.745   2.328   6.002  0.1237 -0.2477 -1.7966
 5256SOL     OW27400   1.529   3.085   6.925  0.1322  0.3427 -0.2735
 5256SOL    HW127401   1.485   3.167   6.905 -0.1255  0.6709  1.6071
 5256SOL    HW227402   1.555   3.091   7.017 -0.7748 -2.0730  0.1560
 5257SOL     OW27403   4.415   3.785   5.495  0.2080  0.1299 -0.9038
 5257SOL    HW127404   4.322   3.800   5.477 -0.2989 -1.4246  0.4272
 5257SOL    HW227405   4.454   3.868   5.468  2.8298 -0.6368  0.5409
 5258SOL     OW27406   1.652   4.367   9.822  0.0100  0.2785  0.1966
 5258SOL    HW127407   1.716   4.416   9.873 -1.8857  1.8736  1.0653
 5258SOL    HW227408   1.617   4.441   9.772 -2.3426 -1.0683 -0.1521
 5259SOL     OW27409   1.141   4.108   0.700 -0.2819 -0.0729  0.1637
 5259SOL    HW127410   1.183   4.100   0.614  1.2099  2.1777  0.6740
 5259SOL    HW227411   1.155   4.201   0.718 -1.2645  0.4351 -1.5842
 5260SOL     OW27412   4.459   3.273  10.242 -0.2446 -0.2228 -0.4804
 5260SOL    HW127413   4.503   3.263  10.158 -1.0848 -2.6254 -0.6579
 5260SOL    HW227414   4.386   3.333  10.230 -0.4442 -0.4621 -0.4801
 5261SOL     OW27415   2.969   0.516  12.042 -0.3145 -0.4485  0.4223
 5261SOL    HW127416   2.982   0.605  12.010 -0.3111 -0.5892  0.0261
 5261SOL    HW227417   2.876   0.525  12.061 -0.3933 -0.1054 -0.0992
 5262SOL     OW27418   2.595   0.375   1.567 -0.3931  0.1054  0.6034
 5262SOL    HW127419   2.626   0.327   1.490 -2.4718 -1.9507  1.0632
 5262SOL    HW227420   2.633   0.462   1.551  1.0497 -0.6077  0.1288
 5263SOL     OW27421   2.392   1.849  10.348  0.7027 -0.3105 -0.6967
 5263SOL    HW127422   2.446   1.802  10.285  1.0804 -0.5961 -0.1645
 5263SOL    HW227423   2.423   1.797  10.423 -0.4799 -1.2465 -0.8641
 5264SOL     OW27424   0.894   3.212  12.537 -0.4068 -0.4176  0.0541
 5264SOL    HW127425   0.830   3.221  12.466 -1.1447  2.1362  1.0677
 5264SOL    HW227426   0.875   3.279  12.602  1.0779  0.8996 -0.8828
 5265SOL     OW27427   1.414   3.428   4.246  0.1444  0.4826 -0.1422
 5265SOL    HW127428   1.321   3.439   4.263 -0.2316 -1.0548 -1.2057
 5265SOL    HW227429   1.458   3.478   4.315 -2.2621  3.4261 -0.7459
 5266SOL     OW27430   1.767   4.429  13.934  0.1040 -0.3871  0.5827
 5266SOL    HW127431   1.703   4.399  13.998  0.1414  0.2472  0.9236
 5266SOL    HW227432   1.718   4.463  13.859 -0.5129  1.0558  1.6339
 5267SOL     OW27433   0.318   2.646   8.047 -0.0145 -0.2165  0.5909
 5267SOL    HW127434   0.259   2.582   8.007  0.6799 -1.1235  1.0136
 5267SOL    HW227435   0.349   2.586   8.115 -0.0635 -0.8163  0.0818
 5268SOL     OW27436   2.195   0.197   7.681 -0.4903  0.0737  0.6155
 5268SOL    HW127437   2.264   0.188   7.747 -2.3885 -0.4529  2.5100
 5268SOL    HW227438   2.241   0.223   7.601  1.9836  0.0767  2.0490
 5269SOL     OW27439   2.701   4.596   7.838  0.1266 -0.0562 -0.5438
 5269SOL    HW127440   2.795   4.581   7.849 -0.3307 -1.7119  1.0527
 5269SOL    HW227441   2.666   4.538   7.905 -0.8876  0.7578 -0.3688
 5270SOL     OW27442   1.580   4.698   7.521 -0.1121 -0.1405  0.0245
 5270SOL    HW127443   1.548   4.619   7.566  1.3770 -1.3139 -0.9826
 5270SOL    HW227444   1.613   4.653   7.443  3.2920  0.9093  0.8731
 5271SOL     OW27445   2.121   0.895   1.461  0.0622  0.3398 -0.6017
 5271SOL    HW127446   2.080   0.859   1.383 -1.4070 -1.1968  0.8686
 5271SOL    HW227447   2.100   0.835   1.532 -0.0155 -0.1274 -1.0202
 5272SOL     OW27448   0.912   1.212   5.392 -0.5905  0.1651 -0.6237
 5272SOL    HW127449   1.001   1.179   5.376  0.0743  3.0544 -2.8855
 5272SOL    HW227450   0.907   1.279   5.324 -1.3320  0.8230  0.0740
 5273SOL     OW27451   3.025   1.938   6.950 -0.2900 -0.8549 -0.4740
 5273SOL    HW127452   2.978   1.884   6.886 -0.6123 -1.7090  0.4843
 5273SOL    HW227453   2.958   1.946   7.018  1.8174 -1.9907  1.7159
 5274SOL     OW27454   4.598   3.387   1.978  0.1492  0.3055  0.1939
 5274SOL    HW127455   4.559   3.469   2.007 -0.3582  0.1632 -0.1017
 5274SOL    HW227456   4.544   3.324   2.026 -1.1202  0.9325 -0.4137
 5275SOL     OW27457   4.463   0.578   5.887 -0.5844 -0.7396 -0.0498
 5275SOL    HW127458   4.504   0.631   5.955 -2.2865  0.2824  0.1753
 5275SOL    HW227459   4.404   0.633   5.837  1.7005  0.2285 -1.6607
 5276SOL     OW27460   3.446   1.730   2.391 -0.0229  1.0407 -1.0441
 5276SOL    HW127461   3.451   1.793   2.462  0.3198 -0.7326  0.4968
 5276SOL    HW227462   3.480   1.658   2.444 -1.7573  0.4686 -0.7167
 5277SOL     OW27463   3.706   0.556   3.789  0.6741 -0.4570  0.5028
 5277SOL    HW127464   3.718   0.513   3.874  0.4462  0.3100  0.9251
 5277SOL    HW227465   3.784   0.611   3.779 -0.8350  1.7225  0.8743
 5278SOL     OW27466   1.702   1.148   1.064 -0.4097  0.4726  0.0606
 5278SOL    HW127467   1.649   1.122   0.989 -0.3298 -0.3140  0.2755
 5278SOL    HW227468   1.688   1.242   1.059  1.4198  0.8314  1.4975
 5279SOL     OW27469   0.267   1.367   6.872  0.1009 -0.0708 -0.2413
 5279SOL    HW127470   0.273   1.456   6.836  2.5113 -0.1946 -0.1445
 5279SOL    HW227471   0.208   1.375   6.948 -1.3390 -0.5717 -1.3066
 5280SOL     OW27472   4.005   1.255  14.779 -0.0376 -0.4360  0.5550
 5280SOL    HW127473   3.948   1.224  14.709  0.7455 -0.8275  0.0881
 5280SOL    HW227474   4.091   1.277  14.744 -0.0520 -1.1095  0.0910
 5281SOL     OW27475   1.449   1.136   7.976  0.2133 -0.2332  0.1323
 5281SOL    HW127476   1.479   1.223   7.948 -0.7970  0.2393  0.4979
 5281SOL    HW227477   1.353   1.138   7.968  0.3169  0.1675 -1.0997
 5282SOL     OW27478   3.188   4.704  17.496  0.0676 -0.0764  0.3892
 5282SOL    HW127479   3.212   0.056  17.488 -0.0837 -0.2180 -1.5909
 5282SOL    HW227480   3.238   4.680  17.575  0.7144 -3.6564 -1.0924
 5283SOL     OW27481   1.846   3.230  13.338 -0.2492 -0.5112 -0.3823
 5283SOL    HW127482   1.779   3.180  13.291  1.9124 -2.2193 -1.6382
 5283SOL    HW227483   1.851   3.304  13.277  0.9923  0.1127  0.4704
 5284SOL     OW27484   3.097   2.155   6.431  0.1141  0.0990 -0.4039
 5284SOL    HW127485   3.099   2.091   6.360  0.0305 -0.0852 -0.2415
 5284SOL    HW227486   3.010   2.136   6.466  0.9399 -1.0814  1.0202
 5285SOL     OW27487   2.728   3.638   3.501  0.3680 -0.5948 -0.6824
 5285SOL    HW127488   2.785   3.691   3.446  1.8261 -0.1461  1.2377
 5285SOL    HW227489   2.678   3.585   3.440 -1.9547  1.9091 -0.9466
 5286SOL     OW27490   0.046   0.214   3.909  0.1981 -0.6416  0.0287
 5286SOL    HW127491   0.122   0.267   3.882  0.9459 -1.9350 -0.3914
 5286SOL    HW227492   0.015   0.174   3.827 -1.5561 -1.2167  0.9746
 5287SOL     OW27493   1.990   2.910   5.814  0.1552 -0.3268 -0.2223
 5287SOL    HW127494   1.983   2.965   5.736 -0.0700  0.8622  0.6370
 5287SOL    HW227495   2.085   2.910   5.826 -0.1356  1.6526  2.0052
 5288SOL     OW27496   0.180   0.156   4.556 -0.3436 -0.3490 -0.3693
 5288SOL    HW127497   0.201   0.238   4.511 -1.1452  0.1149  0.0811
 5288SOL    HW227498   0.173   0.099   4.480  0.6308  1.9810 -2.1860
 5289SOL     OW27499   1.550   2.777   7.036 -0.2439 -0.2100  0.2030
 5289SOL    HW127500   1.526   2.824   7.116  1.8655  0.7058  0.2916
 5289SOL    HW227501   1.546   2.846   6.970  0.1665  0.8958  1.3300
 5290SOL     OW27502   1.802   2.759   2.040  0.1238 -0.2659  0.0915
 5290SOL    HW127503   1.719   2.805   2.028  0.1091 -0.5596 -0.9072
 5290SOL    HW227504   1.859   2.833   2.061  1.0243 -1.3800  1.5441
 5291SOL     OW27505   2.490   2.164   4.127  0.0374 -0.2073 -0.1284
 5291SOL    HW127506   2.480   2.259   4.131  0.2560 -0.2321  1.2460
 5291SOL    HW227507   2.563   2.153   4.066  0.3297  0.7379  0.0392
 5292SOL     OW27508   3.610   1.008   8.128  0.3184 -0.0789 -0.3688
 5292SOL    HW127509   3.515   0.995   8.123  0.2817 -0.6165  1.9973
 5292SOL    HW227510   3.632   0.941   8.063  3.2402 -1.4736  2.0422
 5293SOL     OW27511   2.912   3.070   6.651 -0.0262  0.2548 -0.2346
 5293SOL    HW127512   2.942   3.029   6.731  2.3301  1.8697 -0.2905
 5293SOL    HW227513   2.980   3.137   6.645  0.4894 -0.2411  0.1695
 5294SOL     OW27514   3.666   0.912   3.095  0.6491  0.0381  0.5064
 5294SOL    HW127515   3.571   0.900   3.097  0.8042 -1.1229  0.9764
 5294SOL    HW227516   3.681   0.969   3.019  2.0283 -1.1108 -0.0978
 5295SOL     OW27517   1.032   3.684  14.101 -0.4232  0.0212 -0.8830
 5295SOL    HW127518   1.014   3.776  14.082  2.5737  0.9949  1.0093
 5295SOL    HW227519   0.999   3.638  14.023  0.0773  0.6598 -1.4713
 5296SOL     OW27520   1.067   4.475  16.099 -0.1673  0.1998  0.2370
 5296SOL    HW127521   1.052   4.396  16.047  1.0486  0.1933 -0.1290
 5296SOL    HW227522   0.982   4.518  16.101 -0.4945 -0.4583  0.3464
 5297SOL     OW27523   1.946   1.246   2.601  0.5630 -0.4638  0.0983
 5297SOL    HW127524   1.901   1.255   2.685 -1.7638  0.1251 -1.2144
 5297SOL    HW227525   1.985   1.331   2.579  1.2136 -0.4518  1.2967
 5298SOL     OW27526   4.451   4.210  13.494 -0.5641  0.5321 -0.0950
 5298SOL    HW127527   4.357   4.192  13.492 -0.3937 -0.6574  2.5863
 5298SOL    HW227528   4.456   4.277  13.427  2.6855  1.5731  1.1966
 5299SOL     OW27529   4.339   3.588   0.234 -0.2920  0.3784  0.5398
 5299SOL    HW127530   4.410   3.627   0.285  0.8080 -0.5961 -0.2471
 5299SOL    HW227531   4.383   3.507   0.206  1.4172  1.5822 -0.2410
 5300SOL     OW27532   3.074   2.136  11.421 -0.6336  0.2671 -0.8881
 5300SOL    HW127533   2.986   2.107  11.444 -0.0360 -0.4329  0.5437
 5300SOL    HW227534   3.069   2.226  11.454  0.2555  0.0966 -0.2958
 5301SOL     OW27535   0.257   1.882   0.716 -0.6298 -0.3841  0.2289
 5301SOL    HW127536   0.224   1.954   0.662 -1.5295 -0.6406  0.4342
 5301SOL    HW227537   0.260   1.931   0.798 -0.2213  1.4356 -0.8843
 5302SOL     OW27538   0.491   1.575   2.609 -0.2470  0.1622  0.3979
 5302SOL    HW127539   0.545   1.630   2.553  0.6760 -0.8334  0.2993
 5302SOL    HW227540   0.446   1.511   2.554  3.1019 -1.9773  0.1131
 5303SOL     OW27541   1.959   3.821   5.722  0.6653  0.0634  0.0902
 5303SOL    HW127542   2.052   3.799   5.725  0.4181 -0.8258  1.2717
 5303SOL    HW227543   1.926   3.792   5.637 -0.1821 -1.1654  0.8430
 5304SOL     OW27544   1.474   4.580   5.655 -0.4442  0.4195 -0.2755
 5304SOL    HW127545   1.467   4.517   5.583  2.0938 -0.0273 -0.1100
 5304SOL    HW227546   1.545   4.630   5.615  0.8387  1.3723  3.2598
 5305SOL     OW27547   3.743   0.644   2.496 -0.5976 -0.2718  0.7031
 5305SOL    HW127548   3.659   0.660   2.539  0.2432 -0.4214  2.4095
 5305SOL    HW227549   3.802   0.667   2.567  0.3141 -0.2628 -0.0604
 5306SOL     OW27550   3.580   0.363   7.470  0.4407  0.3410  0.1453
 5306SOL    HW127551   3.494   0.319   7.470  0.6040  0.0185  0.6068
 5306SOL    HW227552   3.638   0.295   7.436 -1.0812 -1.5223  1.2365
 5307SOL     OW27553   2.404   0.418   5.064  0.0644  0.2896 -0.3136
 5307SOL    HW127554   2.395   0.499   5.115  0.7659  1.4362 -1.9905
 5307SOL    HW227555   2.370   0.452   4.981  2.5949 -0.9621 -1.8434
 5308SOL     OW27556   2.354   3.503   4.564  0.1475 -0.1364 -0.3907
 5308SOL    HW127557   2.316   3.579   4.520  0.5030  0.4084  0.2410
 5308SOL    HW227558   2.400   3.460   4.492  0.0703 -0.9097  0.0164
 5309SOL     OW27559   1.128   0.925   4.412  0.1325 -0.0490  0.2140
 5309SOL    HW127560   1.124   1.004   4.466 -0.8726  0.7043 -0.9298
 5309SOL    HW227561   1.154   0.864   4.481 -2.2209 -0.5767  0.6395
 5310SOL     OW27562   2.856   3.673   5.765 -0.0986 -0.1679  0.2052
 5310SOL    HW127563   2.837   3.602   5.827  1.6231  2.2163  3.4443
 5310SOL    HW227564   2.912   3.713   5.831  0.1073  1.1419 -0.7604
 5311SOL     OW27565   0.030   1.788   2.309 -0.3711 -0.5282 -0.3350
 5311SOL    HW127566   4.676   1.784   2.297 -0.5527  2.5575 -0.0051
 5311SOL    HW227567   0.039   1.769   2.403 -0.2351 -0.0317 -0.2430
 5312SOL     OW27568   4.383   4.255   6.655 -0.2807 -0.1019  0.1446
 5312SOL    HW127569   4.474   4.253   6.625 -0.0349  3.1461  0.6088
 5312SOL    HW227570   4.349   4.183   6.602  1.7124  0.8653 -2.4629
 5313SOL     OW27571   0.514   1.622   4.943  0.1997 -0.0706  0.0551
 5313SOL    HW127572   0.484   1.531   4.941 -2.6645  0.8035  3.0326
 5313SOL    HW227573   0.438   1.676   4.918  1.4145  0.6500 -2.0714
 5314SOL     OW27574   1.230   2.536  11.554 -0.7181 -0.0125 -0.2903
 5314SOL    HW127575   1.325   2.524  11.541 -1.2421  0.0817 -4.2936
 5314SOL    HW227576   1.221   2.501  11.642  1.4331 -2.0422 -0.8559
 5315SOL     OW27577   3.878   1.848  16.261 -0.0982 -0.1363  0.3168
 5315SOL    HW127578   3.895   1.897  16.341  1.7720  0.5872 -0.5264
 5315SOL    HW227579   3.814   1.785  16.294  0.0307 -0.7523 -0.5909
 5316SOL     OW27580   2.401   2.978  10.447 -0.0048 -0.9519 -0.6899
 5316SOL    HW127581   2.310   3.009  10.443  0.6094  0.8370 -0.8153
 5316SOL    HW227582   2.436   3.044  10.387 -0.7468 -0.6830 -0.8293
 5317SOL     OW27583   4.641   4.635  16.222 -0.4159  0.0316 -0.5550
 5317SOL    HW127584   4.609   4.717  16.260 -0.1763 -1.3651  2.6602
 5317SOL    HW227585   4.714   4.670  16.173 -0.5294 -1.0592 -1.5062
 5318SOL     OW27586   2.969   2.429   4.612 -1.1478 -0.3662 -0.2932
 5318SOL    HW127587   2.974   2.516   4.653 -2.1278 -0.7720  0.6802
 5318SOL    HW227588   3.052   2.420   4.564 -0.1601 -1.6148  1.6368
 5319SOL     OW27589   2.018   1.561   1.022  0.2116  0.0886  0.1058
 5319SOL    HW127590   1.951   1.588   0.959 -0.0335 -1.2667 -0.2146
 5319SOL    HW227591   2.094   1.607   0.987  0.2376 -0.5176 -0.6405
 5320SOL     OW27592   1.459   1.304   6.968 -0.3924  0.1912 -0.0751
 5320SOL    HW127593   1.368   1.277   6.974  0.3207 -2.0687  0.5318
 5320SOL    HW227594   1.462   1.298   6.873 -0.5821 -2.9672  0.1073
 5321SOL     OW27595   4.506   1.266   9.051  0.5944  0.1957 -0.1620
 5321SOL    HW127596   4.450   1.305   8.984 -0.9695 -1.1840  0.3480
 5321SOL    HW227597   4.483   1.336   9.113  3.9464  1.7170 -0.6602
 5322SOL     OW27598   4.475   4.650   2.299 -0.1915  0.4816 -0.5341
 5322SOL    HW127599   4.414   4.586   2.335  0.1300  1.0509  1.0302
 5322SOL    HW227600   4.418   4.720   2.268 -1.9125 -0.5013  0.4196
 5323SOL     OW27601   0.292   2.781   6.124 -0.2891 -0.1135 -0.2443
 5323SOL    HW127602   0.378   2.777   6.166 -0.0581 -0.9437 -0.8055
 5323SOL    HW227603   0.229   2.766   6.195 -0.6149  2.4088 -0.0169
 5324SOL     OW27604   0.266   1.444   6.102 -0.2954 -0.5182 -0.1529
 5324SOL    HW127605   0.183   1.418   6.061 -0.5259  0.1267 -0.0973
 5324SOL    HW227606   0.256   1.539   6.100  1.3958 -0.3449 -0.5026
 5325SOL     OW27607   3.492   1.908   5.019 -0.3829  0.0239 -0.2308
 5325SOL    HW127608   3.558   1.879   5.081 -1.8655 -2.7363  0.0565
 5325SOL    HW227609   3.471   1.825   4.976  0.7571 -0.9168  1.0548
 5326SOL     OW27610   0.143   3.846   3.942 -0.3977 -0.2881 -0.1052
 5326SOL    HW127611   0.150   3.935   3.906 -1.4824 -0.4447 -0.6666
 5326SOL    HW227612   0.231   3.810   3.930  0.5139  2.1854 -0.9501
 5327SOL     OW27613   3.530   0.640   6.272  0.6172  0.5075  0.0141
 5327SOL    HW127614   3.533   0.552   6.309  1.3983  0.1353 -0.9344
 5327SOL    HW227615   3.520   0.699   6.347  2.1887 -0.9827  1.3917
 5328SOL     OW27616   1.868   3.999   4.888  0.1310  0.0741 -0.9296
 5328SOL    HW127617   1.861   3.908   4.915  2.0685  0.0865 -0.3837
 5328SOL    HW227618   1.782   4.008   4.849 -1.3087  0.3376  2.2870
 5329SOL     OW27619   0.674   0.409   1.493  0.7947 -0.1545 -0.1121
 5329SOL    HW127620   0.746   0.457   1.453  0.7803 -0.1263 -0.1047
 5329SOL    HW227621   0.636   0.385   1.408  1.9855  1.6331 -1.1440
 5330SOL     OW27622   4.352   3.974   6.233  0.1347 -0.1582  0.3078
 5330SOL    HW127623   4.333   3.974   6.327 -0.3792 -1.8962  0.2081
 5330SOL    HW227624   4.317   4.062   6.220  0.6300 -0.1563 -1.0600
 5331SOL     OW27625   0.243   1.374  13.952  1.1452  0.5283  0.7932
 5331SOL    HW127626   0.175   1.427  13.909 -0.0844  0.0385  2.1481
 5331SOL    HW227627   0.200   1.288  13.953  0.7819  0.7367  2.0079
 5332SOL     OW27628   3.660   4.068   9.408  0.3598  0.0974 -0.1721
 5332SOL    HW127629   3.651   3.975   9.387 -1.0802  0.2827 -0.3664
 5332SOL    HW227630   3.655   4.100   9.318  0.0562  0.8570  0.1159
 5333SOL     OW27631   3.383   1.304  16.411 -0.0430  0.4940  0.0430
 5333SOL    HW127632   3.302   1.340  16.376  0.3580  1.3659  0.0235
 5333SOL    HW227633   3.454   1.356  16.373 -1.6287  1.1087 -2.0779
 5334SOL     OW27634   3.083   2.544  12.277 -0.0836  0.1330  0.1908
 5334SOL    HW127635   3.162   2.558  12.225  0.9744  0.2875  1.8523
 5334SOL    HW227636   3.101   2.524  12.369 -2.1330 -0.0456  0.5619
 5335SOL     OW27637   0.894   0.193   6.643  0.6036  0.4458  0.0271
 5335SOL    HW127638   0.821   0.184   6.704  1.9973 -1.9728  1.3416
 5335SOL    HW227639   0.958   0.190   6.714 -1.7416 -1.5414  2.0968
 5336SOL     OW27640   2.200   1.807  16.754  0.5847 -0.0930 -0.2573
 5336SOL    HW127641   2.123   1.852  16.718  0.7796  0.8096  0.4814
 5336SOL    HW227642   2.226   1.846  16.837  0.5642 -1.0508  0.1989
 5337SOL     OW27643   3.975   3.652   2.039 -0.2052  0.3219  0.1605
 5337SOL    HW127644   3.998   3.568   2.080  1.0423  1.2789  1.3870
 5337SOL    HW227645   3.891   3.627   1.999  0.2281  0.5183 -0.8793
 5338SOL     OW27646   1.874   1.863   3.775 -0.5693  0.4326 -0.1258
 5338SOL    HW127647   1.839   1.801   3.839  1.4684 -0.2886  0.2791
 5338SOL    HW227648   1.963   1.832   3.791 -0.4309  0.5690 -0.6306
 5339SOL     OW27649   1.655   2.605   1.507  0.6626 -0.4635 -0.3403
 5339SOL    HW127650   1.668   2.524   1.557  0.8439 -0.3048 -0.1308
 5339SOL    HW227651   1.740   2.630   1.472  0.3599 -1.3686 -1.7486
 5340SOL     OW27652   0.076   1.363  16.639 -0.5990  0.1121 -0.4140
 5340SOL    HW127653   0.080   1.317  16.723 -1.1809  2.6432  0.9823
 5340SOL    HW227654   0.167   1.387  16.625 -0.6917  0.9670  0.5044
 5341SOL     OW27655   4.472   3.355   7.482 -0.1535  0.5210 -0.4542
 5341SOL    HW127656   4.473   3.265   7.512  2.1768  1.1115  1.2883
 5341SOL    HW227657   4.559   3.377   7.447 -0.6523  3.8595  0.3369
 5342SOL     OW27658   1.263   2.077  16.328  0.2790 -0.1604 -0.0619
 5342SOL    HW127659   1.286   1.996  16.283 -0.4173 -0.9582  1.0061
 5342SOL    HW227660   1.186   2.052  16.379 -1.8221  2.5122 -1.9298
 5343SOL     OW27661   4.715   4.440  10.239  0.3823 -0.3006  0.1427
 5343SOL    HW127662   4.660   4.486  10.303  0.4841  0.4429 -0.2984
 5343SOL    HW227663   0.023   4.385  10.301 -1.7856 -0.9549  1.2636
 5344SOL     OW27664   2.988   3.181   5.082 -0.2987  0.0262 -0.0926
 5344SOL    HW127665   2.946   3.255   5.126 -2.0445  0.6251 -2.7534
 5344SOL    HW227666   2.919   3.124   5.047 -0.0491 -1.7816  2.3528
 5345SOL     OW27667   2.689   3.463   7.326 -0.2844  0.4104 -0.0692
 5345SOL    HW127668   2.732   3.387   7.365  0.7391  0.2723 -1.4331
 5345SOL    HW227669   2.751   3.480   7.254  0.3630 -0.5003  0.2622
 5346SOL     OW27670   4.132   1.740  11.441 -0.6895 -0.4080 -0.2387
 5346SOL    HW127671   4.065   1.702  11.383 -1.3836 -1.2269  1.1001
 5346SOL    HW227672   4.083   1.808  11.486  0.9405  0.6898 -0.1259
 5347SOL     OW27673   1.870   2.412  16.263  0.2733 -0.6319 -0.8073
 5347SOL    HW127674   1.928   2.473  16.308  1.6533 -1.2441 -1.7797
 5347SOL    HW227675   1.787   2.460  16.267 -0.4008 -1.9804  1.7382
 5348SOL     OW27676   3.217   0.917   6.868  0.4853 -0.1046 -0.3270
 5348SOL    HW127677   3.180   0.897   6.954 -0.5339  2.8024 -0.0857
 5348SOL    HW227678   3.136   0.953   6.830 -0.9417 -2.8835  0.1116
 5349SOL     OW27679   2.499   0.294  12.356  0.8550 -0.2619  0.2495
 5349SOL    HW127680   2.451   0.259  12.281 -0.3343  1.9596 -0.0427
 5349SOL    HW227681   2.424   0.331  12.404  1.2125  0.6984  0.0822
 5350SOL     OW27682   0.346   0.123  16.880 -0.4112 -0.0476 -0.2024
 5350SOL    HW127683   0.368   0.043  16.928  1.4242  0.4960 -0.1332
 5350SOL    HW227684   0.270   0.156  16.927 -1.0532 -1.0399 -0.5321
 5351SOL     OW27685   0.346   3.071   9.079  0.4726 -0.2219 -0.0586
 5351SOL    HW127686   0.396   3.131   9.024  1.0368 -1.6034 -1.0535
 5351SOL    HW227687   0.279   3.052   9.013  0.2224  0.8546 -0.1147
 5352SOL     OW27688   4.354   0.381  16.925 -0.1547 -0.1355  0.4647
 5352SOL    HW127689   4.299   0.458  16.934 -1.8930 -1.5743  2.3622
 5352SOL    HW227690   4.302   0.325  16.867  1.1329  0.2479 -1.0360
 5353SOL     OW27691   2.225   3.773   5.649 -0.2291 -0.1763  0.5485
 5353SOL    HW127692   2.201   3.716   5.576  1.4998 -0.0036 -0.1561
 5353SOL    HW227693   2.265   3.840   5.594 -1.8129 -0.3373 -0.7980
 5354SOL     OW27694   0.016   0.649   8.939 -0.3916 -0.2226 -0.0501
 5354SOL    HW127695   0.054   0.605   9.015 -0.5987  2.0663  1.3646
 5354SOL    HW227696   0.098   0.678   8.900  0.0885 -1.6062 -0.0765
 5355SOL     OW27697   3.914   2.528   4.368 -0.0103  0.0699  0.1988
 5355SOL    HW127698   3.911   2.555   4.276 -3.1388 -1.5509 -0.1676
 5355SOL    HW227699   3.849   2.589   4.403 -1.8443 -1.6948 -0.1778
 5356SOL     OW27700   1.793   2.855   4.841  0.1660 -0.1215 -0.5091
 5356SOL    HW127701   1.741   2.834   4.763  1.3226 -0.4598 -1.1968
 5356SOL    HW227702   1.738   2.809   4.904  1.1520 -0.4751  0.0821
 5357SOL     OW27703   3.645   1.320   5.034  0.5065 -0.2203 -0.1990
 5357SOL    HW127704   3.737   1.344   5.025  0.8090 -1.3557 -0.1090
 5357SOL    HW227705   3.641   1.258   5.107 -0.1971  0.9957  0.7999
 5358SOL     OW27706   4.074   2.326   4.474 -0.1968 -0.6918 -0.0416
 5358SOL    HW127707   4.017   2.395   4.441  1.0556  0.0046 -0.7243
 5358SOL    HW227708   4.115   2.295   4.393 -1.3019  1.5755 -1.4639
 5359SOL     OW27709   0.177   2.197  12.688 -0.6796  0.6270 -0.3264
 5359SOL    HW127710   0.116   2.196  12.614  0.1307  1.6174 -1.0012
 5359SOL    HW227711   0.157   2.111  12.725  3.7138 -1.3198 -2.5599
 5360SOL     OW27712   3.247   0.133   4.335 -0.4672  0.6148  0.0556
 5360SOL    HW127713   3.302   0.154   4.411  1.1729  0.8368 -1.2028
 5360SOL    HW227714   3.263   0.204   4.273 -1.0546 -0.2330 -1.0427
 5361SOL     OW27715   1.917   1.672   4.367  0.3960  0.3126 -0.1224
 5361SOL    HW127716   2.012   1.670   4.375  0.4740 -2.0315 -1.5504
 5361SOL    HW227717   1.899   1.674   4.460  0.3272  0.8046 -0.1467
 5362SOL     OW27718   4.580   2.540   4.516 -0.0141  0.1417 -0.3218
 5362SOL    HW127719   4.649   2.474   4.522  0.9599  0.9982 -2.1177
 5362SOL    HW227720   4.506   2.488   4.487 -0.0568  1.2546 -2.1921
 5363SOL     OW27721   1.602   1.988   6.801 -0.3682 -0.1362 -0.3982
 5363SOL    HW127722   1.664   2.057   6.778  0.5735 -1.6659 -2.4803
 5363SOL    HW227723   1.536   2.010   6.735  0.2380 -1.2939 -1.3882
 5364SOL     OW27724   4.280   2.819  16.837 -0.1837 -0.1236  0.0120
 5364SOL    HW127725   4.283   2.863  16.922 -0.9897 -1.0149  0.5012
 5364SOL    HW227726   4.215   2.754  16.864 -0.1237 -0.4720 -0.6787
 5365SOL     OW27727   1.060   3.507   8.115 -0.1834  0.4167  0.4318
 5365SOL    HW127728   1.049   3.593   8.074 -1.0608  1.0247  1.9517
 5365SOL    HW227729   1.121   3.526   8.187 -0.6947  1.1971  0.6695
 5366SOL     OW27730   0.020   3.196   8.370  0.0442 -0.4520  0.1048
 5366SOL    HW127731   0.049   3.166   8.284  0.5289  0.2351  0.0269
 5366SOL    HW227732   4.720   3.281   8.356 -0.8635 -0.6595  1.4079
 5367SOL     OW27733   0.581   0.970  12.894 -0.1891  0.3985  0.1065
 5367SOL    HW127734   0.505   1.022  12.868  0.9492  0.8607 -2.3565
 5367SOL    HW227735   0.547   0.884  12.921  3.5573 -0.4840  2.0728
 5368SOL     OW27736   2.399   0.350  11.047 -0.1665 -0.3690  0.1251
 5368SOL    HW127737   2.334   0.420  11.032 -0.5821 -1.2843 -2.4603
 5368SOL    HW227738   2.459   0.390  11.109 -2.0627  0.1009  1.6754
 5369SOL     OW27739   4.620   2.162   3.216 -0.3772  0.0076  0.1812
 5369SOL    HW127740   4.651   2.198   3.133  0.3256 -1.3956 -0.1601
 5369SOL    HW227741   4.579   2.085   3.178 -1.6732 -0.2287  2.0101
 5370SOL     OW27742   3.015   2.614   2.098 -0.5214 -0.1385 -0.0862
 5370SOL    HW127743   2.954   2.685   2.084 -0.1215  0.4027  0.8756
 5370SOL    HW227744   3.026   2.577   2.011  1.7702 -1.8135  0.8998
 5371SOL     OW27745   4.592   1.631  16.384  0.8291  0.3986 -0.7180
 5371SOL    HW127746   4.595   1.717  16.343  0.6755  0.8007  0.1019
 5371SOL    HW227747   4.613   1.579  16.306  1.6566  1.6723 -1.3311
 5372SOL     OW27748   0.365   1.937   8.177 -0.4214  0.7592  0.1456
 5372SOL    HW127749   0.451   1.927   8.135 -0.3349  0.0406  0.4817
 5372SOL    HW227750   0.335   1.846   8.171 -2.1430  1.4802 -1.9803
 5373SOL     OW27751   3.685   0.549   3.282 -0.0805  0.3700  0.1064
 5373SOL    HW127752   3.705   0.642   3.289 -0.9635  0.3661  2.6868
 5373SOL    HW227753   3.638   0.531   3.364  1.5039  1.9970  1.3608
 5374SOL     OW27754   1.235   0.899   1.392 -0.1718 -0.7965 -0.4923
 5374SOL    HW127755   1.279   0.982   1.375  0.3770 -1.0021 -0.0724
 5374SOL    HW227756   1.191   0.926   1.473 -1.7300  0.3509 -1.7231
 5375SOL     OW27757   0.351   0.800   6.454  0.3174 -0.1395 -0.4004
 5375SOL    HW127758   0.376   0.820   6.364 -0.7773 -2.3036 -1.1909
 5375SOL    HW227759   0.425   0.741   6.471 -0.4092 -1.8940 -3.2432
 5376SOL     OW27760   3.666   4.141   5.981 -0.0891  0.2632  0.3338
 5376SOL    HW127761   3.632   4.069   6.034 -0.2613 -0.3077 -0.5456
 5376SOL    HW227762   3.588   4.179   5.939 -0.7674  0.3698  1.6958
 5377SOL     OW27763   1.949   1.802   8.312  0.3549  0.3277  0.4364
 5377SOL    HW127764   1.966   1.711   8.337  1.2075 -0.0009 -1.3122
 5377SOL    HW227765   1.863   1.814   8.353  0.0622  0.9451 -0.3548
 5378SOL     OW27766   2.898   4.224   5.531  0.0269  0.4692  0.6359
 5378SOL    HW127767   2.872   4.256   5.445  0.3674  1.2286  0.8150
 5378SOL    HW227768   2.958   4.157   5.499 -3.3317 -2.1081 -0.1887
 5379SOL     OW27769   0.015   4.241  16.192  0.0903 -0.0454  0.2141
 5379SOL    HW127770   4.673   4.274  16.228  0.8051  1.8113  0.1811
 5379SOL    HW227771   4.720   4.173  16.135 -0.3105  0.8792 -0.6514
 5380SOL     OW27772   2.748   2.486   3.928 -0.2994  0.3821  0.4261
 5380SOL    HW127773   2.705   2.465   3.844 -0.0577  2.1667 -0.1310
 5380SOL    HW227774   2.769   2.398   3.961 -1.0284 -0.4215 -1.2231
 5381SOL     OW27775   3.137   0.374   7.896 -0.4638 -0.3766 -0.0401
 5381SOL    HW127776   3.109   0.288   7.865  0.1321 -1.2549  1.8182
 5381SOL    HW227777   3.197   0.336   7.961  1.3598  0.0982 -1.4301
 5382SOL     OW27778   3.869   2.193   4.578 -0.3276  0.0259  0.4583
 5382SOL    HW127779   3.949   2.219   4.532 -0.5764 -1.4430 -0.7966
 5382SOL    HW227780   3.818   2.155   4.507  1.2630 -0.0811 -0.6273
 5383SOL     OW27781   0.857   2.006   5.026  0.3755 -0.5655  0.3645
 5383SOL    HW127782   0.769   1.978   5.050 -0.4847  1.3402 -0.5441
 5383SOL    HW227783   0.835   2.071   4.959  0.1861 -1.1513 -0.1461
 5384SOL     OW27784   2.070   1.980   5.313 -0.2562 -0.4147  0.1709
 5384SOL    HW127785   2.098   1.971   5.222  2.6683  0.6812  0.9745
 5384SOL    HW227786   2.084   2.075   5.314  2.3014 -0.7742 -1.3372
 5385SOL     OW27787   1.035   2.986   8.020  0.4722 -0.3480 -0.6777
 5385SOL    HW127788   0.994   2.912   8.063 -0.9967  0.2739 -1.0066
 5385SOL    HW227789   1.123   2.979   8.057 -0.0658  1.7352  1.0043
 5386SOL     OW27790   1.679   4.270  16.155 -0.3540  0.5488  0.0973
 5386SOL    HW127791   1.589   4.258  16.187 -0.7892  1.6571 -0.7296
 5386SOL    HW227792   1.684   4.201  16.089 -3.1160 -0.1890  0.6435
 5387SOL     OW27793   4.348   1.749   6.257 -0.1856 -0.1764 -0.1956
 5387SOL    HW127794   4.408   1.818   6.286 -1.3001  0.4607  0.5893
 5387SOL    HW227795   4.409   1.688   6.216 -0.2915 -0.2663 -0.2205
 5388SOL     OW27796   0.929   1.657   8.381  0.1527 -0.0173 -0.3653
 5388SOL    HW127797   1.004   1.610   8.346 -0.0349 -0.0464 -0.7272
 5388SOL    HW227798   0.863   1.639   8.314  0.1494  0.0891 -0.3901
 5389SOL     OW27799   4.091   1.999   1.678  0.0162 -0.4273  0.7704
 5389SOL    HW127800   4.169   1.954   1.645 -1.5471 -2.3602 -0.2486
 5389SOL    HW227801   4.139   2.064   1.730  0.7038  0.2899 -0.7841
 5390SOL     OW27802   2.001   3.846   1.486 -0.6692  0.5612  0.0704
 5390SOL    HW127803   2.006   3.810   1.397  1.3075 -0.1015  0.4460
 5390SOL    HW227804   2.074   3.908   1.478  0.0497 -0.3727 -0.5571
 5391SOL     OW27805   0.589   3.502   8.917 -0.4469 -0.7176  0.1254
 5391SOL    HW127806   0.665   3.535   8.964  0.7062 -0.9115 -1.5929
 5391SOL    HW227807   0.581   3.555   8.837  0.9653 -1.8426 -0.7673
 5392SOL     OW27808   4.480   4.570   6.094  0.3885 -0.2225  0.6135
 5392SOL    HW127809   4.487   4.655   6.136  1.2609  0.5652 -1.1332
 5392SOL    HW227810   4.435   4.605   6.017  0.9815 -0.3833  0.1962
 5393SOL     OW27811   3.764   2.870   0.784  0.9879 -0.0523  0.1093
 5393SOL    HW127812   3.669   2.879   0.776  0.8406 -1.3037  0.4716
 5393SOL    HW227813   3.786   2.869   0.691 -2.6906  0.5450 -0.7610
 5394SOL     OW27814   0.423   0.025   3.944  0.2179 -0.1663  0.2149
 5394SOL    HW127815   0.483   0.100   3.944  1.4881 -1.1492 -2.4476
 5394SOL    HW227816   0.484   4.693   3.959 -0.4843 -0.3242  2.2183
 5395SOL     OW27817   3.487   3.442   8.659 -0.0453  0.4312  0.1684
 5395SOL    HW127818   3.549   3.504   8.697  0.6837 -1.8771  2.7369
 5395SOL    HW227819   3.429   3.502   8.611 -1.0162  0.3616  1.2512
 5396SOL     OW27820   2.925   3.204  14.237 -0.0233  0.1395 -0.0383
 5396SOL    HW127821   2.916   3.280  14.293  2.2048 -0.4123  1.0472
 5396SOL    HW227822   2.870   3.216  14.159 -0.3780  0.2044  0.2224
 5397SOL     OW27823   0.860   1.796   1.367 -0.0859  0.1746 -0.3095
 5397SOL    HW127824   0.777   1.828   1.332  0.1076  1.1892  0.1509
 5397SOL    HW227825   0.899   1.882   1.381 -0.8124  0.6958 -1.4744
 5398SOL     OW27826   0.923   3.426  11.982 -0.1599 -0.0733 -0.2874
 5398SOL    HW127827   0.950   3.335  11.994 -0.0446 -0.0315 -0.2381
 5398SOL    HW227828   1.000   3.475  11.954  0.5193 -0.1459  1.4752
 5399SOL     OW27829   3.184   0.561  10.747  0.1925  0.7881 -0.1180
 5399SOL    HW127830   3.238   0.483  10.763 -2.3620 -0.5824  1.6385
 5399SOL    HW227831   3.215   0.600  10.665 -3.3291  0.6671 -1.5038
 5400SOL     OW27832   3.718   1.671  13.048 -0.4708  0.5018 -0.3532
 5400SOL    HW127833   3.694   1.590  13.093  2.8208 -0.7720 -0.8487
 5400SOL    HW227834   3.814   1.669  13.055 -0.4063 -0.8644 -1.7644
 5401SOL     OW27835   1.662   1.602  16.388  0.3367 -0.4933 -0.4629
 5401SOL    HW127836   1.606   1.623  16.463 -1.7349 -2.2152 -1.5252
 5401SOL    HW227837   1.686   1.512  16.410 -0.1062 -0.5195 -0.0786
 5402SOL     OW27838   2.592   3.090  16.190 -0.3420 -0.2946  1.3206
 5402SOL    HW127839   2.579   3.174  16.235 -0.0989  1.3681 -1.6718
 5402SOL    HW227840   2.617   3.039  16.267  1.3591 -0.4519  0.6635
 5403SOL     OW27841   1.023   0.920   3.288  1.0596 -0.1430  0.5513
 5403SOL    HW127842   1.084   0.867   3.235 -2.5441 -0.8160 -2.9938
 5403SOL    HW227843   0.932   0.900   3.268  0.5597  0.2136  2.5056
 5404SOL     OW27844   3.672   2.726   1.690  0.3606 -0.1017 -0.1616
 5404SOL    HW127845   3.634   2.675   1.619  2.1758  0.3745 -1.4659
 5404SOL    HW227846   3.702   2.806   1.649  1.5246 -0.2661  0.3490
 5405SOL     OW27847   0.919   1.154   7.699  0.2968  0.2057 -0.0692
 5405SOL    HW127848   0.912   1.171   7.793 -0.8755 -1.8504  0.2205
 5405SOL    HW227849   0.828   1.123   7.692  0.5622 -0.4468 -0.5940
 5406SOL     OW27850   1.883   2.853   2.939 -0.6671 -0.1243 -0.2003
 5406SOL    HW127851   1.906   2.914   3.010 -0.2579 -0.0254 -0.4157
 5406SOL    HW227852   1.974   2.837   2.914  0.0695  2.3541  0.9451
 5407SOL     OW27853   2.349   0.539  16.962  0.3901  0.7007 -0.5817
 5407SOL    HW127854   2.283   0.474  16.987 -0.1165  2.2635  2.1431
 5407SOL    HW227855   2.306   0.623  16.976 -0.9797 -0.1040 -0.0100
 5408SOL     OW27856   1.581   0.356  14.996 -0.2728  0.4855  0.0107
 5408SOL    HW127857   1.587   0.312  14.911  1.8124 -1.8148  1.3505
 5408SOL    HW227858   1.650   0.312  15.045  0.8683  0.6228 -1.4822
 5409SOL     OW27859   3.829   2.482  15.738  0.1149  0.2379 -0.2378
 5409SOL    HW127860   3.793   2.557  15.691  1.7463 -0.0187 -1.8661
 5409SOL    HW227861   3.764   2.484  15.808 -0.3157  1.5467 -0.6740
 5410SOL     OW27862   1.431   1.224   5.868  0.0955 -0.2600 -0.0835
 5410SOL    HW127863   1.388   1.139   5.871 -1.3229  0.5164  2.3265
 5410SOL    HW227864   1.359   1.272   5.908  0.2966 -0.3375  0.3780
 5411SOL     OW27865   0.106   2.080   0.559  0.2555 -0.5963 -0.3513
 5411SOL    HW127866   0.098   2.171   0.529 -0.2284 -0.5975 -0.2357
 5411SOL    HW227867   0.055   2.035   0.491 -0.2432  0.6569 -0.8066
 5412SOL     OW27868   2.592   4.075  11.116  0.2388  0.1735  0.0867
 5412SOL    HW127869   2.624   4.079  11.025 -0.8796 -1.8974 -0.3866
 5412SOL    HW227870   2.637   4.157  11.138 -0.7647  0.7904 -0.1545
 5413SOL     OW27871   1.165   2.772   3.472  0.1394 -0.1108  0.0913
 5413SOL    HW127872   1.125   2.685   3.469 -0.9043  0.4465 -2.5575
 5413SOL    HW227873   1.221   2.751   3.547 -2.4561 -0.9049  1.8132
 5414SOL     OW27874   3.387   1.971   5.382 -0.6075  0.6365 -0.7176
 5414SOL    HW127875   3.374   1.881   5.411  4.0639 -0.0087 -0.5711
 5414SOL    HW227876   3.479   1.963   5.356 -0.2386 -1.8954  1.3840
 5415SOL     OW27877   1.179   1.082   1.880 -0.1230 -0.0821  0.4477
 5415SOL    HW127878   1.271   1.110   1.881 -0.3415  0.7537 -2.9434
 5415SOL    HW227879   1.133   1.148   1.931 -1.3313 -1.5189  1.2161
 5416SOL     OW27880   0.133   0.519  12.937  0.3632 -0.1425  0.0053
 5416SOL    HW127881   0.068   0.456  12.906 -1.4455  0.3417  2.7045
 5416SOL    HW227882   0.215   0.490  12.898  0.6006  1.1671 -0.4714
 5417SOL     OW27883   3.331   1.671   6.520 -0.0025 -0.7412 -0.4544
 5417SOL    HW127884   3.311   1.765   6.514 -2.3621 -1.2820 -0.8277
 5417SOL    HW227885   3.427   1.668   6.522  0.0119  0.0283  0.1312
 5418SOL     OW27886   1.017   3.967   9.275 -0.3063 -0.4663  0.2100
 5418SOL    HW127887   0.949   4.032   9.255  0.4965 -0.6954 -3.2277
 5418SOL    HW227888   1.073   3.990   9.201  1.9354 -1.3365  1.6323
 5419SOL     OW27889   1.778   1.944   6.544 -0.1400  0.5019 -0.2689
 5419SOL    HW127890   1.803   2.020   6.492  1.6729  0.1126  0.0274
 5419SOL    HW227891   1.835   1.952   6.621 -1.0048  0.1415  0.4140
 5420SOL     OW27892   3.083   4.382   3.737  0.3409  0.6268  0.2375
 5420SOL    HW127893   3.107   4.468   3.773 -1.2404  1.6840 -1.1902
 5420SOL    HW227894   3.169   4.367   3.697  1.4346 -0.1349  2.9168
 5421SOL     OW27895   4.036   2.698  15.533  0.2487 -0.0783  0.4444
 5421SOL    HW127896   4.084   2.619  15.508  1.2036  1.4179 -2.4370
 5421SOL    HW227897   4.108   2.732  15.586 -0.4665 -0.0835  1.4243
 5422SOL     OW27898   4.518   0.440   1.474  0.1534 -0.3857  0.5212
 5422SOL    HW127899   4.521   0.510   1.410  0.0063 -1.5880 -0.7928
 5422SOL    HW227900   4.603   0.440   1.519  1.0132  0.6225 -1.1246
 5423SOL     OW27901   3.410   4.255   4.453  0.8653 -0.0623 -0.2594
 5423SOL    HW127902   3.469   4.210   4.514 -0.3014 -0.5472  0.5232
 5423SOL    HW227903   3.464   4.333   4.442  2.8501 -1.8106 -2.9165
 5424SOL     OW27904   3.080   3.272   6.681 -0.2758 -0.1834 -0.0859
 5424SOL    HW127905   3.085   3.357   6.725 -3.2972 -0.0558  0.0196
 5424SOL    HW227906   3.113   3.304   6.597  3.9604 -1.7578  0.9802
 5425SOL     OW27907   2.729   3.449   1.886 -0.0590 -0.5099 -0.3952
 5425SOL    HW127908   2.698   3.525   1.837  1.0537 -1.8876 -3.2254
 5425SOL    HW227909   2.669   3.383   1.850 -0.0412 -0.4435 -0.5472
 5426SOL     OW27910   1.297   3.609   3.956 -0.2572 -0.5919 -0.4573
 5426SOL    HW127911   1.218   3.582   3.909 -1.9490 -0.4831  2.3183
 5426SOL    HW227912   1.365   3.589   3.891 -1.0344  0.8164 -1.7142
 5427SOL     OW27913   2.352   0.235   8.536 -0.3289  0.3959 -0.1131
 5427SOL    HW127914   2.296   0.163   8.563 -0.0783  0.3239  0.2183
 5427SOL    HW227915   2.291   0.290   8.487 -0.1707  1.0051  0.3719
 5428SOL     OW27916   1.136   1.880   6.629 -0.2325 -0.4124  0.2599
 5428SOL    HW127917   1.080   1.808   6.657 -2.4948  1.2381 -0.0310
 5428SOL    HW227918   1.158   1.871   6.536 -1.5326  0.0509 -0.0847
 5429SOL     OW27919   3.457   2.198  14.156 -0.0130  0.3481  0.3976
 5429SOL    HW127920   3.513   2.202  14.078 -3.1369  3.9933 -1.6146
 5429SOL    HW227921   3.376   2.216  14.108 -0.9368 -0.3150  1.7122
 5430SOL     OW27922   3.935   2.484   2.197  0.0013 -0.0808 -0.0108
 5430SOL    HW127923   3.930   2.452   2.107 -0.3851 -0.2116  0.0570
 5430SOL    HW227924   4.003   2.551   2.196 -0.5245  0.4523  0.2001
 5431SOL     OW27925   0.121   2.554   6.347  0.1782 -0.9294  0.2526
 5431SOL    HW127926   0.085   2.615   6.411 -0.8726 -1.7404  0.4313
 5431SOL    HW227927   0.139   2.472   6.393  2.3192 -1.2326 -1.1193
 5432SOL     OW27928   3.634   3.717   4.694 -0.0741 -0.3958  0.1326
 5432SOL    HW127929   3.573   3.728   4.621 -0.0659 -1.5289 -0.0450
 5432SOL    HW227930   3.568   3.678   4.751 -2.8049 -0.3947 -3.0021
 5433SOL     OW27931   2.124   4.617   7.183 -0.3804  0.1100 -0.3254
 5433SOL    HW127932   2.110   4.633   7.090 -0.4672  0.6067 -0.2275
 5433SOL    HW227933   2.091   4.700   7.218  0.0598 -0.6564  1.9292
 5434SOL     OW27934   1.381   0.224   2.188  0.0705 -0.1258 -0.7270
 5434SOL    HW127935   1.396   0.318   2.192 -1.3884  0.0581  0.2711
 5434SOL    HW227936   1.414   0.192   2.272  0.6875 -0.6593 -1.1751
 5435SOL     OW27937   3.973   2.230   8.310  0.4694 -0.1240  0.0985
 5435SOL    HW127938   3.910   2.179   8.258 -0.2875  0.7454  0.1628
 5435SOL    HW227939   3.975   2.171   8.386 -1.2617  0.7883  0.8556
 5436SOL     OW27940   0.598   3.803  13.879  1.1563  0.2271  0.3122
 5436SOL    HW127941   0.530   3.735  13.885  0.8569  0.6691  2.0536
 5436SOL    HW227942   0.629   3.790  13.790 -0.5681 -0.0663 -0.2462
 5437SOL     OW27943   2.031   1.500   2.080 -0.0896 -0.3706  0.0168
 5437SOL    HW127944   2.005   1.407   2.080 -3.8903  0.6770  2.3218
 5437SOL    HW227945   2.080   1.512   2.161  0.0918 -3.1063  0.3337
 5438SOL     OW27946   0.153   0.444   5.730  0.1549 -0.2748 -0.4866
 5438SOL    HW127947   0.153   0.519   5.789 -0.5493 -1.1398  0.5948
 5438SOL    HW227948   0.092   0.387   5.776  0.3769  0.1314  0.3051
 5439SOL     OW27949   3.945   4.575   4.418  0.2216  0.3887  0.2836
 5439SOL    HW127950   3.873   4.577   4.355 -0.1647 -2.8583  0.5869
 5439SOL    HW227951   3.905   4.592   4.504 -0.4899 -0.6076  0.1578
 5440SOL     OW27952   0.063   0.295  16.246 -0.2216 -0.2178  0.0752
 5440SOL    HW127953   0.143   0.262  16.285 -0.2748  1.4031  1.5475
 5440SOL    HW227954   4.736   0.241  16.289  0.5918 -0.2140  1.3493
 5441SOL     OW27955   2.835   4.367   5.291 -0.2095  0.0811  0.0472
 5441SOL    HW127956   2.860   4.303   5.225  1.2941 -0.7623  1.4406
 5441SOL    HW227957   2.771   4.418   5.242 -0.4616  0.3112  0.6181
 5442SOL     OW27958   1.080   1.492   2.757 -0.7563  0.0739 -0.1684
 5442SOL    HW127959   1.025   1.467   2.831  0.3838  1.0010  0.9899
 5442SOL    HW227960   1.141   1.419   2.743  2.5977  3.0052 -0.8488
 5443SOL     OW27961   4.468   4.093   4.556 -0.0608 -0.1880 -0.5375
 5443SOL    HW127962   4.559   4.109   4.581 -0.2908  2.4487 -1.3518
 5443SOL    HW227963   4.438   4.181   4.533 -0.5629 -0.4806 -0.9951
 5444SOL     OW27964   2.592   4.509   2.746 -0.4142  0.2499 -0.3045
 5444SOL    HW127965   2.683   4.524   2.720 -0.3681 -2.0975 -1.5350
 5444SOL    HW227966   2.545   4.479   2.668 -0.0780 -2.2452  0.4590
 5445SOL     OW27967   2.741   4.372   3.029  0.1849 -0.6837  0.1495
 5445SOL    HW127968   2.749   4.411   2.942 -0.6271 -0.4257  0.1866
 5445SOL    HW227969   2.826   4.392   3.069 -0.3253 -1.3956  1.6191
 5446SOL     OW27970   3.140   4.351   2.148 -0.9055  0.2565  0.0433
 5446SOL    HW127971   3.086   4.376   2.223 -2.4132 -1.5946 -0.4258
 5446SOL    HW227972   3.122   4.417   2.081 -4.6250 -1.8183 -1.0409
 5447SOL     OW27973   4.146   0.191   4.325  0.1974  0.6772  0.2255
 5447SOL    HW127974   4.154   0.183   4.230 -0.4012 -0.5287  0.2707
 5447SOL    HW227975   4.053   0.168   4.333  0.1658 -0.8720 -4.5683
 5448SOL     OW27976   0.215   2.213  10.386 -0.0988 -0.0942  0.2313
 5448SOL    HW127977   0.202   2.230  10.479 -0.6856 -4.1392  0.8792
 5448SOL    HW227978   0.209   2.304  10.355  0.9278  0.0935  0.5949
 5449SOL     OW27979   1.441   1.605   0.990  0.3810  0.4161  0.2729
 5449SOL    HW127980   1.417   1.613   0.898  0.0126  0.2491  0.3562
 5449SOL    HW227981   1.454   1.697   1.015 -0.0704  0.3904  0.6041
 5450SOL     OW27982   0.223   1.739   8.444 -0.2362 -0.3016  0.4600
 5450SOL    HW127983   0.244   1.772   8.531  0.0948 -0.0146  0.2720
 5450SOL    HW227984   0.134   1.766   8.420 -0.2088 -2.1795 -1.7818
 5451SOL     OW27985   2.513   2.007   5.310  0.1466  0.3268 -0.7269
 5451SOL    HW127986   2.453   2.010   5.384  0.0340  1.4316 -0.8676
 5451SOL    HW227987   2.576   1.943   5.344  0.4623  0.0357 -1.8595
 5452SOL     OW27988   4.537   3.441   3.986 -0.1166  0.0469  0.0594
 5452SOL    HW127989   4.588   3.449   3.906  0.1696 -0.1903  0.2193
 5452SOL    HW227990   4.608   3.427   4.048 -0.3803  2.9551  1.0485
 5453SOL     OW27991   3.786   1.367   1.571 -0.4923  0.5897  0.1857
 5453SOL    HW127992   3.747   1.305   1.509  0.2109 -0.9295  1.2616
 5453SOL    HW227993   3.762   1.329   1.655 -0.1111  0.7962  0.3899
 5454SOL     OW27994   1.116   1.666   5.837  0.5602  0.6520 -0.0158
 5454SOL    HW127995   1.211   1.676   5.839  0.5986  0.1672  0.5404
 5454SOL    HW227996   1.093   1.696   5.749  1.4992  2.2791  0.3084
 5455SOL     OW27997   3.967   0.677   1.541  0.1470 -0.0547 -0.1738
 5455SOL    HW127998   3.982   0.583   1.530  2.9883  0.4043 -0.2161
 5455SOL    HW227999   3.914   0.678   1.621  1.0277 -0.0660  0.4167
 5456SOL     OW28000   3.058   2.863   5.098 -0.2777 -0.2464 -0.4028
 5456SOL    HW128001   3.065   2.902   5.011 -2.4512  1.4637  0.1650
 5456SOL    HW228002   3.139   2.885   5.143 -1.4128  0.5526  1.2820
 5457SOL     OW28003   1.426   1.662   8.216  0.1972  0.2371 -0.0662
 5457SOL    HW128004   1.346   1.673   8.165 -0.9727  0.7875  1.8841
 5457SOL    HW228005   1.414   1.589   8.277  0.1274  0.5127  0.2473
 5458SOL     OW28006   1.482   4.541   9.671  0.3577  0.5274 -0.0506
 5458SOL    HW128007   1.402   4.514   9.717 -0.5065 -0.3968 -2.0715
 5458SOL    HW228008   1.448   4.595   9.599  0.7364 -0.8317 -1.2397
 5459SOL     OW28009   2.610   0.225  13.113  0.1833 -0.2800  0.2339
 5459SOL    HW128010   2.642   0.257  13.029  0.2468 -1.9612 -0.3836
 5459SOL    HW228011   2.515   0.230  13.102  0.2436 -0.4932 -0.3828
 5460SOL     OW28012   3.165   0.973   2.071  0.2911 -0.2675 -0.0739
 5460SOL    HW128013   3.118   0.958   2.153  0.2382  0.5864  0.0497
 5460SOL    HW228014   3.246   1.015   2.099  0.5892 -1.6337  1.1102
 5461SOL     OW28015   1.003   1.044   8.401 -1.1341  0.4589  0.0212
 5461SOL    HW128016   0.985   0.981   8.332 -0.9479 -0.6695  0.9959
 5461SOL    HW228017   1.011   1.125   8.350 -0.5632  0.7039  0.4981
 5462SOL     OW28018   1.659   4.463   0.865  0.0558 -0.0465  0.3143
 5462SOL    HW128019   1.696   4.509   0.940 -0.0544 -1.5491  1.2947
 5462SOL    HW228020   1.597   4.399   0.899  1.7450 -1.0474  1.5271
 5463SOL     OW28021   2.811   1.179   4.118  0.3876  0.2844 -0.3256
 5463SOL    HW128022   2.789   1.248   4.181 -0.3898 -1.9861  1.8574
 5463SOL    HW228023   2.729   1.131   4.121  0.6212 -0.0061  1.5406
 5464SOL     OW28024   2.354   1.858   7.796 -0.1252 -0.3109  0.2664
 5464SOL    HW128025   2.330   1.890   7.710  0.2450  0.6050  0.4957
 5464SOL    HW228026   2.446   1.841   7.776 -0.1606 -0.8259  0.5271
 5465SOL     OW28027   2.963   1.507  14.609  0.2121  0.5059  0.1741
 5465SOL    HW128028   2.910   1.492  14.531  0.4722  0.7822 -0.0539
 5465SOL    HW228029   3.014   1.577  14.569 -0.4371  0.5479 -0.5781
 5466SOL     OW28030   3.327   4.645   2.271 -0.2738  0.3257  0.1828
 5466SOL    HW128031   3.271   4.604   2.337  0.2454  0.8175  0.9220
 5466SOL    HW228032   3.388   4.574   2.252  0.7505  1.2205  0.1128
 5467SOL     OW28033   0.700   1.142   1.177 -0.3037 -0.5345  0.2294
 5467SOL    HW128034   0.653   1.215   1.216  1.4856  1.6210 -1.6555
 5467SOL    HW228035   0.716   1.192   1.097 -1.3901  0.7137  0.7944
 5468SOL     OW28036   4.726   4.713  12.150 -0.1264  0.6047  0.2725
 5468SOL    HW128037   0.078   4.692  12.164  0.1489  1.1008 -0.7689
 5468SOL    HW228038   4.728   0.046  12.088 -0.9280  1.6182  1.4505
 5469SOL     OW28039   0.338   4.539   2.689 -0.2088  0.2876  0.5124
 5469SOL    HW128040   0.381   4.595   2.624  0.3463 -1.1632 -0.3747
 5469SOL    HW228041   0.283   4.490   2.627  1.1828  0.3064 -0.7450
 5470SOL     OW28042   0.570   0.611  16.364  0.1415  0.4193  0.6715
 5470SOL    HW128043   0.560   0.661  16.445  1.2448  2.1707 -0.2946
 5470SOL    HW228044   0.637   0.549  16.396  0.8224  0.1059 -1.3455
 5471SOL     OW28045   4.679   1.031   3.596 -0.0910 -0.3085  0.8867
 5471SOL    HW128046   0.026   0.999   3.618 -0.2595  1.1444  3.7422
 5471SOL    HW228047   4.636   0.972   3.658 -0.1005 -1.5279 -0.2837
 5472SOL     OW28048   4.127   1.054   7.391 -0.5726  0.9991 -0.2514
 5472SOL    HW128049   4.111   1.143   7.361  2.0705  1.8025  0.6946
 5472SOL    HW228050   4.104   1.000   7.315  0.5458  0.7350 -0.3945
 5473SOL     OW28051   3.156   3.108   1.672 -0.2291 -0.3846 -0.1857
 5473SOL    HW128052   3.232   3.144   1.718  0.4459 -1.7250 -0.2345
 5473SOL    HW228053   3.186   3.021   1.643 -0.3138 -0.8448  1.1310
 5474SOL     OW28054   0.807   4.277   4.626  0.1423 -0.4050 -0.5685
 5474SOL    HW128055   0.863   4.327   4.567  0.0453 -0.6795 -0.8885
 5474SOL    HW228056   0.758   4.229   4.560 -0.3721  0.3636 -0.7534
 5475SOL     OW28057   3.016   3.018   3.972  0.1838 -0.1036 -0.0561
 5475SOL    HW128058   2.967   3.098   3.989  0.3653 -0.2676  1.2421
 5475SOL    HW228059   2.944   2.965   3.938 -0.7967  1.5648 -0.5772
 5476SOL     OW28060   0.774   0.272   7.473  0.3024 -0.6707  0.0144
 5476SOL    HW128061   0.729   0.303   7.552  0.0793 -0.0261 -0.3649
 5476SOL    HW228062   0.810   0.188   7.499  0.4392 -0.7734 -0.5021
 5477SOL     OW28063   4.703   0.180   8.291 -0.0858  0.2889  0.0111
 5477SOL    HW128064   4.686   0.123   8.217 -2.6096  0.5542  0.3780
 5477SOL    HW228065   0.047   0.220   8.270  0.6162  0.0741  2.4300
 5478SOL     OW28066   1.660   2.453  17.624  0.3325  0.6685  0.0913
 5478SOL    HW128067   1.668   2.543  17.653  1.6582  0.0311  1.7078
 5478SOL    HW228068   1.569   2.443  17.597  0.4771 -2.2221  0.5831
 5479SOL     OW28069   1.996   1.123  11.657 -0.3925  0.3928 -0.1058
 5479SOL    HW128070   1.950   1.145  11.577  0.6138  1.9827 -0.2497
 5479SOL    HW228071   2.074   1.074  11.630 -0.4162 -0.2768  1.0383
 5480SOL     OW28072   1.713   1.189   6.689  0.3927 -0.0957  0.0604
 5480SOL    HW128073   1.711   1.116   6.751 -1.6325 -0.2556 -0.1958
 5480SOL    HW228074   1.621   1.216   6.688  0.4321  0.0526  0.3116
 5481SOL     OW28075   1.841   0.928  11.753  0.0675  0.1656  0.3439
 5481SOL    HW128076   1.778   0.900  11.687  1.7489 -2.8399  0.0394
 5481SOL    HW228077   1.897   0.986  11.702  0.3860 -0.9542 -0.5817
 5482SOL     OW28078   1.664   2.478   9.551 -0.6005  0.4001 -0.5914
 5482SOL    HW128079   1.646   2.561   9.507  0.0346  1.8508  1.9037
 5482SOL    HW228080   1.749   2.441   9.529 -0.0462  0.6072  1.1938
 5483SOL     OW28081   2.130   3.195   9.935  0.0049  0.0741  0.2600
 5483SOL    HW128082   2.169   3.281   9.949  1.3858 -0.6219  0.6644
 5483SOL    HW228083   2.202   3.149   9.891  1.0485  1.7352  0.2353
 5484SOL     OW28084   0.261   2.127   9.565  0.1185 -0.1904 -0.3224
 5484SOL    HW128085   0.213   2.209   9.558  2.2279  1.4269  4.1018
 5484SOL    HW228086   0.349   2.149   9.534  0.0378  2.0324  1.0293
 5485SOL     OW28087   4.098   3.832  14.227 -0.4529 -0.0098  0.4462
 5485SOL    HW128088   4.080   3.767  14.159  1.4964 -0.6326  0.5454
 5485SOL    HW228089   4.007   3.860  14.240 -0.1045  0.6478  1.4123
 5486SOL     OW28090   0.397   2.560   6.943 -0.0037 -0.0438 -0.2141
 5486SOL    HW128091   0.353   2.530   6.864 -0.8511 -1.4793  0.7937
 5486SOL    HW228092   0.354   2.507   7.011  1.1682  0.6110  1.0397
 5487SOL     OW28093   0.909   2.823   8.211 -0.2862  0.0945 -0.2235
 5487SOL    HW128094   0.989   2.823   8.264 -1.3332  0.2744  1.3506
 5487SOL    HW228095   0.848   2.783   8.272 -1.0487  0.2195 -0.8945
 5488SOL     OW28096   3.358   0.506   0.028  0.3543  0.1975  0.2630
 5488SOL    HW128097   3.435   0.554   0.057  0.0581  0.5744  0.4159
 5488SOL    HW228098   3.317   0.571  17.731  0.4960  1.2859  1.4316
 5489SOL     OW28099   0.131   4.266  10.392 -0.4985  0.2671  0.2800
 5489SOL    HW128100   0.212   4.293  10.348 -0.4720  1.3663  0.9851
 5489SOL    HW228101   0.146   4.172  10.405 -0.1074  0.1437 -1.0910
 5490SOL     OW28102   1.106   3.864  12.173 -0.0320  0.1537  1.0158
 5490SOL    HW128103   1.055   3.784  12.185 -0.1765  0.2647  1.1407
 5490SOL    HW228104   1.164   3.849  12.247 -0.5405  1.6879  1.7255
 5491SOL     OW28105   2.296   0.124   5.060 -0.1684  0.1394 -0.5977
 5491SOL    HW128106   2.289   0.219   5.064  2.0862  0.2771 -0.2995
 5491SOL    HW228107   2.278   0.092   5.149  0.3405 -0.7340 -0.8088
 5492SOL     OW28108   2.998   1.349   7.973  0.5551  0.2406 -0.2773
 5492SOL    HW128109   3.034   1.436   7.959 -0.4250  1.1335  2.6916
 5492SOL    HW228110   3.080   1.300   7.966 -0.1915 -0.9707 -0.5291
 5493SOL     OW28111   4.000   3.501   5.999  0.5619 -0.1079  0.3043
 5493SOL    HW128112   4.087   3.532   6.023  0.4634  0.5996 -0.2835
 5493SOL    HW228113   4.019   3.439   5.929  0.6626  0.2642  0.0068
 5494SOL     OW28114   0.496   2.489   8.868  0.5054  0.1221  0.6840
 5494SOL    HW128115   0.569   2.427   8.865 -1.5933 -2.2635 -1.6106
 5494SOL    HW228116   0.479   2.498   8.961 -0.5903  0.9396  0.4078
 5495SOL     OW28117   3.481   2.160  17.019 -0.2420 -0.3188  0.2454
 5495SOL    HW128118   3.418   2.178  17.088 -1.8383 -0.6252 -1.1206
 5495SOL    HW228119   3.520   2.082  17.058 -1.2274 -0.1325  1.6028
 5496SOL     OW28120   0.523   0.854  10.866 -0.2693  0.1485  0.1277
 5496SOL    HW128121   0.591   0.851  10.799 -1.1580  0.5160 -0.7853
 5496SOL    HW228122   0.573   0.841  10.947 -0.1271  2.1059  0.3539
 5497SOL     OW28123   1.447   3.581  16.967 -0.0955  1.0433 -1.1271
 5497SOL    HW128124   1.446   3.549  16.877  1.0326  1.5017 -1.3038
 5497SOL    HW228125   1.540   3.567  16.988  0.3067  3.5271 -1.2428
 5498SOL     OW28126   2.730   0.965  14.900 -0.5513 -0.0002  0.5697
 5498SOL    HW128127   2.682   0.998  14.976 -0.4955  1.1840  0.0783
 5498SOL    HW228128   2.694   0.876  14.895 -0.6165 -0.0832  2.3811
 5499SOL     OW28129   3.943   4.344  16.315  0.1454 -0.2646  0.3617
 5499SOL    HW128130   3.997   4.364  16.239 -0.5558 -0.1628 -0.1084
 5499SOL    HW228131   3.882   4.413  16.289 -0.1585 -0.7939 -0.3408
 5500SOL     OW28132   3.967   4.010   2.320  0.1033  0.3992  0.5010
 5500SOL    HW128133   3.905   4.064   2.271  2.8644 -0.0764 -3.5772
 5500SOL    HW228134   4.008   3.958   2.250  0.1499  0.7476  0.2708
 5501SOL     OW28135   1.615   0.143   5.828 -0.3626  0.0198 -0.2504
 5501SOL    HW128136   1.701   0.103   5.838 -0.1699  0.3019 -0.7548
 5501SOL    HW228137   1.624   0.219   5.885 -1.0419 -2.6171  3.3547
 5502SOL     OW28138   1.858   2.898   3.693 -0.0265 -0.2377  0.0588
 5502SOL    HW128139   1.898   2.815   3.667  0.2580 -0.1971  0.3780
 5502SOL    HW228140   1.938   2.933   3.730  0.7585 -0.9947 -0.9189
 5503SOL     OW28141   0.082   1.118   6.992  0.4622 -0.2040  0.3415
 5503SOL    HW128142   0.037   1.037   7.018  1.0819 -0.4788  0.5715
 5503SOL    HW228143   0.162   1.086   6.950 -0.9254 -0.9876 -1.7115
 5504SOL     OW28144   1.278   1.634   3.184 -0.0399 -0.0394  0.1708
 5504SOL    HW128145   1.357   1.619   3.133 -0.9095 -1.3569 -0.7816
 5504SOL    HW228146   1.269   1.729   3.180 -0.6259 -0.0956  0.1617
 5505SOL     OW28147   0.711   1.975  17.471 -0.1480  0.2405 -0.1599
 5505SOL    HW128148   0.685   2.067  17.467 -1.8352 -0.2049  0.3202
 5505SOL    HW228149   0.777   1.963  17.403  0.0247  0.4054 -0.0190
 5506SOL     OW28150   0.683   2.557   4.845  0.5893 -0.7773  0.4758
 5506SOL    HW128151   0.589   2.569   4.837  0.5022 -1.0643  1.0787
 5506SOL    HW228152   0.719   2.636   4.804  0.0522 -0.9861 -0.4119
 5507SOL     OW28153   1.442   3.594   7.771  0.2420 -0.0380 -0.1735
 5507SOL    HW128154   1.433   3.500   7.783 -1.2799  0.5532  3.5076
 5507SOL    HW228155   1.521   3.606   7.824  0.4875  1.2538 -0.8184
 5508SOL     OW28156   1.396   3.352   6.615  0.1604  0.2397  0.3976
 5508SOL    HW128157   1.438   3.364   6.700  2.5012  0.4163 -0.7952
 5508SOL    HW228158   1.310   3.391   6.632  0.3206  0.6697  0.2029
 5509SOL     OW28159   3.063   2.522   1.844 -0.0736  0.9409 -0.1875
 5509SOL    HW128160   3.020   2.488   1.765 -2.6459  2.7163  0.4327
 5509SOL    HW228161   3.136   2.565   1.800 -1.1735  0.2043 -2.7577
 5510SOL     OW28162   2.562   1.955   8.088 -0.4057 -0.4110  0.4186
 5510SOL    HW128163   2.538   1.863   8.088 -0.1962 -0.4623  0.8695
 5510SOL    HW228164   2.488   1.994   8.134 -0.1401  1.6133 -0.8528
 5511SOL     OW28165   2.623   1.387  16.086  0.5122 -1.2531  0.3475
 5511SOL    HW128166   2.558   1.376  16.017  0.8953  1.8423 -0.5006
 5511SOL    HW228167   2.565   1.395  16.162 -0.3657  1.9687 -0.6508
 5512SOL     OW28168   3.911   0.701   2.675 -0.4302 -0.4490  0.0759
 5512SOL    HW128169   3.944   0.638   2.739 -1.4949  0.0708  1.1468
 5512SOL    HW228170   3.997   0.729   2.642  1.6234 -3.0889  3.1698
 5513SOL     OW28171   1.204   4.617   7.503  0.0155 -0.3323 -0.0986
 5513SOL    HW128172   1.218   4.711   7.492 -2.0254 -0.1415 -0.9712
 5513SOL    HW228173   1.110   4.610   7.487 -0.1408  1.1064  0.1662
 5514SOL     OW28174   1.943   3.716  10.896 -0.2193 -0.4458 -0.1726
 5514SOL    HW128175   1.976   3.661  10.825 -0.3819  0.4363 -0.9315
 5514SOL    HW228176   2.020   3.712  10.953 -1.5527 -1.2391  1.5411
 5515SOL     OW28177   1.570   1.591   1.493 -0.0042 -0.0571  0.3954
 5515SOL    HW128178   1.618   1.627   1.418 -3.1374  1.0272 -1.0558
 5515SOL    HW228179   1.539   1.513   1.448  1.6043  0.4245 -1.5383
 5516SOL     OW28180   2.973   1.059  14.776 -0.4929 -0.4038  0.0810
 5516SOL    HW128181   3.025   0.985  14.806  0.5876 -0.2032 -1.2895
 5516SOL    HW228182   2.889   1.038  14.817 -1.5034 -0.0310 -1.8111
 5517SOL     OW28183   1.199   1.385   4.525  0.4727  0.3528 -0.0187
 5517SOL    HW128184   1.192   1.363   4.432 -3.2045  0.1775  0.3055
 5517SOL    HW228185   1.288   1.420   4.534  1.2999 -1.9299  0.7240
 5518SOL     OW28186   3.418   0.207   6.407  0.4888 -0.2119 -0.1875
 5518SOL    HW128187   3.461   0.167   6.331  0.1375  1.9294 -1.4960
 5518SOL    HW228188   3.495   0.252   6.443  0.3344 -0.9374  1.0649
 5519SOL     OW28189   0.888   3.392   8.721  0.1121  0.2868  0.2169
 5519SOL    HW128190   0.822   3.348   8.774  1.5287 -2.0884  0.0157
 5519SOL    HW228191   0.840   3.444   8.658 -1.7392 -0.3290  1.1203
 5520SOL     OW28192   3.609   0.584   7.591  0.1503  0.1519 -0.1059
 5520SOL    HW128193   3.691   0.611   7.550  0.9548  1.4165  2.3123
 5520SOL    HW228194   3.599   0.496   7.555 -1.0334  0.3325 -0.2212
 5521SOL     OW28195   2.949   2.803  14.864 -0.3011 -0.4015 -0.0053
 5521SOL    HW128196   2.963   2.813  14.770  0.2023 -2.0642 -0.1065
 5521SOL    HW228197   2.947   2.894  14.894 -0.3763 -0.5268  0.3780
 5522SOL     OW28198   3.757   1.917   5.581  0.0585  0.4742 -0.0498
 5522SOL    HW128199   3.743   1.987   5.644 -2.7090  0.9965 -1.2463
 5522SOL    HW228200   3.853   1.914   5.589  0.0236 -0.2899  0.0316
 5523SOL     OW28201   0.398   4.638  17.035 -0.1504  0.3654  0.2560
 5523SOL    HW128202   0.472   4.596  17.080 -0.1561  3.3720  3.0633
 5523SOL    HW228203   0.346   4.565  17.002  0.5412 -0.4752  1.0407
 5524SOL     OW28204   1.622   3.841   6.200 -0.3423 -0.7008 -0.1133
 5524SOL    HW128205   1.629   3.912   6.136 -0.3565 -1.9582 -1.5086
 5524SOL    HW228206   1.531   3.814   6.189 -0.4179  0.5113 -2.4308
 5525SOL     OW28207   2.132   0.629  16.143 -0.1409  0.3787 -0.4052
 5525SOL    HW128208   2.185   0.581  16.080 -0.9755  0.6528 -1.3081
 5525SOL    HW228209   2.080   0.692  16.094 -0.7080 -0.0902 -0.4116
 5526SOL     OW28210   2.176   3.982   8.049 -0.4498 -0.5656 -0.0023
 5526SOL    HW128211   2.220   3.946   8.126 -0.3324 -2.1118 -0.7886
 5526SOL    HW228212   2.240   3.953   7.984 -0.4955 -0.0685 -0.2661
 5527SOL     OW28213   1.509   0.151   3.206  0.4631 -0.9823  0.0753
 5527SOL    HW128214   1.438   0.088   3.218 -1.0004  0.6138 -0.1106
 5527SOL    HW228215   1.551   0.151   3.292 -0.4713 -1.2845  0.5317
 5528SOL     OW28216   2.344   3.992   2.782  0.6343 -0.5004 -0.2088
 5528SOL    HW128217   2.285   4.053   2.827  0.5991 -0.0487 -0.8692
 5528SOL    HW228218   2.385   3.963   2.863  0.1390  0.9042  0.5415
 5529SOL     OW28219   0.842   2.322  10.459 -0.2824  0.0284  0.7044
 5529SOL    HW128220   0.924   2.370  10.475  0.1569 -0.6734  0.5563
 5529SOL    HW228221   0.781   2.390  10.488  0.5971  0.9021  0.5203
 5530SOL     OW28222   1.767   2.212   6.765  0.3529  1.0088 -0.0380
 5530SOL    HW128223   1.858   2.191   6.785  0.3142 -1.0376 -1.9161
 5530SOL    HW228224   1.754   2.293   6.813 -0.5672  1.7612 -1.5443
 5531SOL     OW28225   0.605   2.271   4.236  0.3636 -0.1616  0.3573
 5531SOL    HW128226   0.539   2.230   4.292 -1.2927  2.4905  0.3829
 5531SOL    HW228227   0.635   2.197   4.183  2.2121 -0.1134  1.3752
 5532SOL     OW28228   2.086   3.435   6.344  0.0910  0.6010 -0.6743
 5532SOL    HW128229   2.062   3.480   6.263 -1.3923  1.1568  0.0833
 5532SOL    HW228230   2.182   3.430   6.338  0.1328  0.1027  0.2974
 5533SOL     OW28231   2.182   4.122   2.536 -0.5242 -0.0098 -0.4214
 5533SOL    HW128232   2.168   4.185   2.465 -2.2909  0.5031  0.3690
 5533SOL    HW228233   2.122   4.155   2.603  0.0758  0.6727 -0.2220
 5534SOL     OW28234   1.885   1.664   2.962  0.6562  0.0476  0.1293
 5534SOL    HW128235   1.892   1.750   3.004 -0.7526  1.3483 -2.3007
 5534SOL    HW228236   1.874   1.594   3.027  0.3521 -0.1818 -0.1717
 5535SOL     OW28237   4.321   4.695   0.812  0.2521 -0.3933 -0.3835
 5535SOL    HW128238   4.307   0.021   0.879  0.9738  0.0996 -0.7070
 5535SOL    HW228239   4.269   4.733   0.741 -0.1925 -2.3082 -1.0737
 5536SOL     OW28240   3.296   2.319   9.633 -0.1680  0.7940 -0.3116
 5536SOL    HW128241   3.230   2.255   9.606  1.3433 -1.2063  0.7565
 5536SOL    HW228242   3.304   2.308   9.728  0.6304  3.8270 -0.0124
 5537SOL     OW28243   2.199   2.547   7.101  0.3435 -0.3643  0.0352
 5537SOL    HW128244   2.156   2.619   7.148  0.7458 -0.6265  0.8137
 5537SOL    HW228245   2.150   2.550   7.019  0.4901 -0.3708 -0.0529
 5538SOL     OW28246   2.259   0.501   1.110 -0.0872  0.4172 -0.1219
 5538SOL    HW128247   2.205   0.433   1.150 -1.1115  0.3506 -1.6016
 5538SOL    HW228248   2.318   0.523   1.182 -0.5925  1.6705 -0.1028
 5539SOL     OW28249   0.395   2.237   6.843  0.2664 -0.4003  0.2142
 5539SOL    HW128250   0.475   2.264   6.798 -0.3716  0.6258 -0.2942
 5539SOL    HW228251   0.333   2.227   6.771 -0.4578 -0.5785  0.8597
 5540SOL     OW28252   4.428   0.822   7.404 -0.1252 -0.2068  0.1469
 5540SOL    HW128253   4.481   0.751   7.439  0.3082 -0.7292 -1.5293
 5540SOL    HW228254   4.346   0.792   7.442 -0.0658  0.9139  1.1562
 5541SOL     OW28255   0.549   0.308   4.631  0.2956 -0.2704  0.1203
 5541SOL    HW128256   0.496   0.387   4.618 -0.3416 -0.5128  1.2934
 5541SOL    HW228257   0.635   0.345   4.611  0.3525 -0.5244 -0.1051
 5542SOL     OW28258   2.525   2.870   3.497  0.0930 -0.1471  0.2462
 5542SOL    HW128259   2.528   2.829   3.410  0.8017  0.3265  0.0511
 5542SOL    HW228260   2.491   2.794   3.544 -3.3360 -0.4416 -2.6556
 5543SOL     OW28261   1.373   3.200   8.550  0.4348  0.2647 -0.6300
 5543SOL    HW128262   1.350   3.144   8.476 -1.8098  1.7414 -1.0728
 5543SOL    HW228263   1.297   3.217   8.606  0.8791 -0.1925  0.1069
 5544SOL     OW28264   2.418   3.880   3.528 -0.5593 -0.2462 -0.3227
 5544SOL    HW128265   2.478   3.870   3.602 -1.0932  1.6784  0.3668
 5544SOL    HW228266   2.332   3.890   3.568 -0.1498  0.4010  0.4079
 5545SOL     OW28267   1.109   4.655   8.224  0.3141  0.5618 -0.1532
 5545SOL    HW128268   1.204   4.646   8.218  0.4086  0.5600  1.3324
 5545SOL    HW228269   1.088   4.643   8.131  0.3346  0.5510 -0.1564
 5546SOL     OW28270   1.854   1.334   1.910  0.2503 -1.1800  0.2660
 5546SOL    HW128271   1.769   1.367   1.882 -0.1303 -2.5236 -0.1620
 5546SOL    HW228272   1.871   1.274   1.837  2.3564  0.3220 -0.5049
 5547SOL     OW28273   0.068   3.356   6.865  0.4433 -0.1060 -0.1407
 5547SOL    HW128274   0.162   3.345   6.849  0.6942  3.4903 -1.2146
 5547SOL    HW228275   0.045   3.447   6.846  1.7000  0.5183  1.3909
 5548SOL     OW28276   4.533   1.537   3.581  0.2270  0.0566  0.0415
 5548SOL    HW128277   4.565   1.449   3.561 -1.1514 -0.3521 -0.3762
 5548SOL    HW228278   4.596   1.596   3.541 -0.4966  1.2267  0.6286
 5549SOL     OW28279   3.136   2.105   9.627 -0.6748  0.1528 -0.4379
 5549SOL    HW128280   3.179   2.026   9.595  0.2634 -0.4982  2.4294
 5549SOL    HW228281   3.045   2.079   9.645 -0.0233 -0.0551  2.5648
 5550SOL     OW28282   3.617   4.222   6.248 -0.0653 -0.0410  0.1571
 5550SOL    HW128283   3.629   4.213   6.153  3.4235 -2.0675  0.7915
 5550SOL    HW228284   3.684   4.287   6.269 -0.7016  0.1265  1.6167
 5551SOL     OW28285   4.147   3.241   3.369 -0.1371  0.3486 -0.1652
 5551SOL    HW128286   4.083   3.287   3.424 -2.1890 -1.3544 -1.1504
 5551SOL    HW228287   4.196   3.319   3.342  2.1887  0.1614  3.4867
 5552SOL     OW28288   4.722   0.282   4.985 -0.1520 -0.3731  0.0645
 5552SOL    HW128289   4.697   0.370   4.955  1.7940  0.3686  0.5872
 5552SOL    HW228290   4.737   0.238   4.902  3.2538  1.9877 -0.5544
 5553SOL     OW28291   2.084   2.381   7.479  0.0647 -0.1704  0.5804
 5553SOL    HW128292   2.108   2.309   7.421 -2.9311  0.6834 -1.7677
 5553SOL    HW228293   2.039   2.449   7.428  0.9954  0.0209  0.0063
 5554SOL     OW28294   4.430   2.853   7.177  0.0054 -0.1958 -0.1234
 5554SOL    HW128295   4.376   2.926   7.148 -0.0841 -0.2762 -0.1621
 5554SOL    HW228296   4.505   2.894   7.220  0.9072 -1.4835 -0.4821
 5555SOL     OW28297   1.915   4.365  14.648 -0.0997  0.3695 -0.1734
 5555SOL    HW128298   1.958   4.284  14.621 -2.5848 -0.6184 -1.1852
 5555SOL    HW228299   1.984   4.432  14.641  0.3463  0.1030  1.7709
 5556SOL     OW28300   1.453   0.332   6.789  0.5195  0.0970  0.5215
 5556SOL    HW128301   1.414   0.362   6.871  0.0238 -2.9243  1.3941
 5556SOL    HW228302   1.528   0.392   6.793  1.7338 -1.5158  1.6147
 5557SOL     OW28303   3.282   2.465   3.062  0.0748  0.9662 -0.1439
 5557SOL    HW128304   3.206   2.411   3.084  1.6307 -1.0786  0.2232
 5557SOL    HW228305   3.304   2.445   2.971  1.7298  1.6630  0.0955
 5558SOL     OW28306   0.735   3.311  10.537  0.6629 -0.1153 -0.4065
 5558SOL    HW128307   0.760   3.253  10.609 -0.0576  0.9449  0.7072
 5558SOL    HW228308   0.800   3.380  10.555  1.5115 -1.2428  0.7950
 5559SOL     OW28309   1.499   3.965   4.235 -0.6023 -0.1013 -0.2382
 5559SOL    HW128310   1.536   4.030   4.176  0.1644 -2.2873 -2.1662
 5559SOL    HW228311   1.499   3.883   4.185 -1.7494  1.0325 -2.0888
 5560SOL     OW28312   3.312   3.322  11.438  0.3857 -0.2737 -0.5478
 5560SOL    HW128313   3.385   3.279  11.482  0.7349  0.5520 -0.3134
 5560SOL    HW228314   3.332   3.416  11.442  0.1361 -0.1090 -3.0454
 5561SOL     OW28315   2.097   1.752  11.210 -0.0140 -0.2852  0.2265
 5561SOL    HW128316   2.008   1.781  11.192  0.5204 -0.2472 -2.3511
 5561SOL    HW228317   2.077   1.677  11.266 -0.4749 -1.4213 -1.4740
 5562SOL     OW28318   1.192   3.123   3.583  0.3621  0.7031  0.0419
 5562SOL    HW128319   1.207   3.049   3.643 -0.6104 -0.0017 -0.5872
 5562SOL    HW228320   1.097   3.110   3.572  0.8158  0.7859 -3.9337
 5563SOL     OW28321   1.261   2.674   4.653  0.2016  0.2004  0.3987
 5563SOL    HW128322   1.334   2.732   4.675 -0.3722  1.5181 -1.1532
 5563SOL    HW228323   1.249   2.699   4.561  1.8208 -5.1393 -1.2841
 5564SOL     OW28324   3.591   0.136   5.486 -0.0898 -0.6827 -0.3379
 5564SOL    HW128325   3.646   0.090   5.422 -0.3437 -0.2040 -0.9054
 5564SOL    HW228326   3.538   0.065   5.522 -2.1403  1.3712  0.6986
 5565SOL     OW28327   2.591   4.312   3.622  0.5670 -0.3134  0.1485
 5565SOL    HW128328   2.542   4.248   3.675 -0.4477 -0.0614 -0.4817
 5565SOL    HW228329   2.684   4.307   3.644  0.3989 -2.0597  0.4622
 5566SOL     OW28330   0.910   1.368   2.923 -0.3420  0.1049 -0.1997
 5566SOL    HW128331   0.934   1.277   2.905 -2.3517 -0.1473 -1.5276
 5566SOL    HW228332   0.918   1.368   3.019  1.6744 -1.3640 -0.3679
 5567SOL     OW28333   1.380   2.755  15.414 -0.5950  0.1826 -0.3039
 5567SOL    HW128334   1.348   2.688  15.354  1.3788 -2.1572  1.2502
 5567SOL    HW228335   1.377   2.711  15.499  3.5038  0.8032  0.1882
 5568SOL     OW28336   1.528   1.744   0.521 -0.1209 -0.1359  0.2168
 5568SOL    HW128337   1.607   1.798   0.518  0.5164 -1.1855 -1.6942
 5568SOL    HW228338   1.494   1.754   0.432  2.4038 -0.3938 -0.7835
 5569SOL     OW28339   1.429   2.745   9.204 -0.0024 -0.0650  0.2077
 5569SOL    HW128340   1.521   2.742   9.177 -0.1762 -2.0667 -0.1106
 5569SOL    HW228341   1.401   2.822   9.155  0.9677 -0.3776 -0.8308
 5570SOL     OW28342   1.007   3.134   3.256 -0.3225 -0.1276 -0.2454
 5570SOL    HW128343   1.039   3.186   3.182  0.5142 -0.9895 -0.4921
 5570SOL    HW228344   1.083   3.085   3.286  0.7767  0.6293 -1.7897
 5571SOL     OW28345   1.772   4.474  13.491 -0.0181  0.0269  0.5815
 5571SOL    HW128346   1.856   4.428  13.488  0.3499  0.7261  0.1356
 5571SOL    HW228347   1.728   4.442  13.413  0.1182  1.5826 -0.1340
 5572SOL     OW28348   1.818   1.681   2.143 -0.2298  0.3774  0.2969
 5572SOL    HW128349   1.875   1.727   2.205 -1.2184  1.1286  0.6433
 5572SOL    HW228350   1.866   1.601   2.120 -2.1149  0.1042 -2.6933
 5573SOL     OW28351   2.093   1.472   5.030 -0.3632 -0.1945  0.0357
 5573SOL    HW128352   2.145   1.528   4.973 -2.0258  1.8953  0.5814
 5573SOL    HW228353   2.019   1.529   5.047 -0.7812 -0.4541 -0.9207
 5574SOL     OW28354   3.301   3.534   9.524  0.3054  0.1579  0.0370
 5574SOL    HW128355   3.304   3.526   9.619  2.2003  2.4253  0.1795
 5574SOL    HW228356   3.319   3.442   9.503 -0.1209  0.4756 -1.6747
 5575SOL     OW28357   3.527   1.972   5.960 -0.4763  0.3258 -0.3341
 5575SOL    HW128358   3.487   1.914   6.024 -2.2392  1.7662 -0.1356
 5575SOL    HW228359   3.518   2.053   6.011 -2.5599  0.1148 -0.3743
 5576SOL     OW28360   4.133   0.393  12.749  0.0150  0.1024  0.0917
 5576SOL    HW128361   4.207   0.332  12.757 -1.0719 -1.2944 -0.3776
 5576SOL    HW228362   4.058   0.335  12.763  0.3752 -0.0572  1.4128
 5577SOL     OW28363   2.434   0.416   9.250  0.0636  0.3780 -0.3753
 5577SOL    HW128364   2.519   0.431   9.209  1.0646 -1.6009  0.9699
 5577SOL    HW228365   2.446   0.445   9.340  1.5245 -1.3826  0.0060
 5578SOL     OW28366   0.024   1.181   9.052 -0.4262  0.1636 -1.0631
 5578SOL    HW128367   4.673   1.203   9.033 -1.3687 -4.1179 -1.4072
 5578SOL    HW228368   0.005   1.106   9.107  0.3552 -0.7398 -2.0374
 5579SOL     OW28369   3.702   3.220  13.044  0.3754  0.2838 -0.2714
 5579SOL    HW128370   3.613   3.234  13.077  1.0849  1.9784  0.9125
 5579SOL    HW228371   3.749   3.282  13.099  2.9655  0.3206 -2.5794
 5580SOL     OW28372   3.486   3.979  10.081  0.2904 -0.0230  0.0821
 5580SOL    HW128373   3.421   3.990  10.152  0.3723  0.1353  0.1335
 5580SOL    HW228374   3.498   4.069  10.051 -1.8059  0.2991  0.2136
 5581SOL     OW28375   2.571   0.660   2.582 -0.0980 -0.0381  0.4031
 5581SOL    HW128376   2.661   0.684   2.559 -0.5460  0.5028 -0.7670
 5581SOL    HW228377   2.554   0.587   2.522  0.9862 -1.1581  1.4586
 5582SOL     OW28378   2.121   0.526   4.042 -0.2408  0.0852 -0.0068
 5582SOL    HW128379   2.048   0.465   4.037  1.4697 -1.8622 -1.3347
 5582SOL    HW228380   2.116   0.577   3.962 -1.7951 -0.4161 -0.2170
 5583SOL     OW28381   4.321   4.680  12.876 -0.4164  0.1502 -0.2842
 5583SOL    HW128382   4.256   4.615  12.849 -0.6016  0.9546 -1.7808
 5583SOL    HW228383   4.360   4.622  12.941 -1.7812  0.6532  0.9672
 5584SOL     OW28384   0.603   1.190   5.676  0.6053  0.5611  0.6109
 5584SOL    HW128385   0.512   1.180   5.701  0.9665 -1.5293  1.0456
 5584SOL    HW228386   0.589   1.252   5.604  0.4191 -0.2448 -0.0480
 5585SOL     OW28387   1.949   0.999   8.003 -0.3092 -0.9999  0.0718
 5585SOL    HW128388   1.990   1.079   8.037 -1.1185 -1.0927  1.2819
 5585SOL    HW228389   1.891   1.045   7.943 -2.4589 -0.2268  2.7445
 5586SOL     OW28390   0.144   0.176   1.603 -0.3038  0.0160  0.0835
 5586SOL    HW128391   0.160   0.262   1.644 -3.7160 -0.3067  2.0430
 5586SOL    HW228392   0.236   0.154   1.589  0.0422  0.6559  1.2583
 5587SOL     OW28393   0.622   4.511  17.190 -0.5424  0.1020  0.1752
 5587SOL    HW128394   0.624   4.494  17.284  1.2652 -2.7226 -0.3581
 5587SOL    HW228395   0.638   4.421  17.161 -0.2431  0.5732 -1.1106
 5588SOL     OW28396   4.153   1.763   2.488  0.1837  0.2782 -0.2182
 5588SOL    HW128397   4.247   1.782   2.483  0.6377 -1.5298  1.5573
 5588SOL    HW228398   4.115   1.841   2.447  0.6871 -0.6389 -2.4103
 5589SOL     OW28399   0.994   4.222   4.355 -0.0555 -0.7657 -0.1724
 5589SOL    HW128400   0.992   4.142   4.303  1.0729 -1.6682  1.1986
 5589SOL    HW228401   1.077   4.199   4.397  0.8047 -0.8427 -1.9074
 5590SOL     OW28402   1.095   0.885   7.859  0.0043  0.7612  0.1832
 5590SOL    HW128403   1.107   0.915   7.769  0.8387  4.1690  1.4303
 5590SOL    HW228404   1.118   0.793   7.846  1.7678  1.4567 -1.6834
 5591SOL     OW28405   1.796   2.781   8.447  0.1419 -0.4903  0.5847
 5591SOL    HW128406   1.816   2.731   8.368  1.4277 -0.3137  0.7984
 5591SOL    HW228407   1.709   2.748   8.470 -0.3461  0.3326 -0.0622
 5592SOL     OW28408   0.881   2.360   6.666  0.5247 -0.2941 -0.1475
 5592SOL    HW128409   0.947   2.304   6.708 -0.6723  0.3256  2.5579
 5592SOL    HW228410   0.868   2.414   6.744  3.4319  0.4578 -0.1563
 5593SOL     OW28411   2.928   2.707   7.366  0.0134  0.1879  0.5374
 5593SOL    HW128412   2.907   2.624   7.408  0.3751 -0.8406 -1.2814
 5593SOL    HW228413   2.845   2.740   7.332  2.1043  2.3750 -2.4892
 5594SOL     OW28414   1.920   1.902   1.657 -0.1549 -0.1430  0.4290
 5594SOL    HW128415   1.825   1.890   1.660 -0.3561  1.4356  0.3097
 5594SOL    HW228416   1.924   1.966   1.728  1.0532  0.1965  0.0484
 5595SOL     OW28417   1.974   2.500   1.505  0.0691 -0.1228  0.2954
 5595SOL    HW128418   1.954   2.588   1.474  1.6128 -0.3825 -1.4433
 5595SOL    HW228419   2.054   2.518   1.553  0.5986 -1.7561  0.0098
 5596SOL     OW28420   0.078   1.161  13.952 -0.1404  0.2829  0.3668
 5596SOL    HW128421   0.109   1.072  13.931  0.5137  0.1223  2.0479
 5596SOL    HW228422   4.732   1.123  13.968 -0.5096  1.7083  1.6764
 5597SOL     OW28423   2.137   1.944   4.316  0.0412  0.2893 -0.3407
 5597SOL    HW128424   2.176   1.869   4.360 -1.9688  0.3876  1.6104
 5597SOL    HW228425   2.203   1.954   4.247  0.3633  0.2904 -0.0288
 5598SOL     OW28426   1.920   0.306   4.016  0.0170 -0.3522 -0.3137
 5598SOL    HW128427   1.968   0.227   3.990  0.4532  0.2111 -1.2159
 5598SOL    HW228428   1.880   0.282   4.100  3.4873  0.1300  1.4603
 5599SOL     OW28429   0.732   3.964   4.694 -0.3707 -0.4008  0.1891
 5599SOL    HW128430   0.665   4.032   4.687  1.0736  1.0139  0.1762
 5599SOL    HW228431   0.755   3.965   4.601 -0.7146 -0.7037  0.0997
 5600SOL     OW28432   2.164   0.150   2.527 -0.4760  0.2560 -0.3861
 5600SOL    HW128433   2.155   0.124   2.436 -0.3944 -1.2140  0.0272
 5600SOL    HW228434   2.091   0.103   2.567 -1.2956 -0.5374 -2.8651
 5601SOL     OW28435   0.826   0.577   1.315  0.1254  0.5691  0.5171
 5601SOL    HW128436   0.825   0.649   1.379  0.6710  1.1579 -0.1362
 5601SOL    HW228437   0.786   0.622   1.241  0.4422 -0.9518 -0.5743
 5602SOL     OW28438   0.151   4.520   3.507  0.5137 -0.3982  0.0206
 5602SOL    HW128439   0.155   4.579   3.583 -0.2581  0.4819 -0.6224
 5602SOL    HW228440   0.244   4.510   3.486  0.3153  2.0549 -2.0052
 5603SOL     OW28441   0.827   3.942   8.263 -0.4436 -0.1151 -0.2013
 5603SOL    HW128442   0.830   3.875   8.331  0.0007 -0.3550 -0.4561
 5603SOL    HW228443   0.913   3.944   8.221 -0.4721  2.0052 -0.1188
 5604SOL     OW28444   2.183   0.361   6.699 -0.4755 -0.3324  0.0156
 5604SOL    HW128445   2.176   0.372   6.605 -0.9399 -0.1845  0.0657
 5604SOL    HW228446   2.153   0.273   6.725 -0.9142 -0.2909 -0.3422
 5605SOL     OW28447   1.799   3.883   2.449 -0.3229  0.1483 -0.2841
 5605SOL    HW128448   1.852   3.813   2.489  1.4481  0.9750 -1.2010
 5605SOL    HW228449   1.868   3.927   2.399  0.0081 -0.4768 -0.3783
 5606SOL     OW28450   3.123   3.686   9.403  0.0885 -0.5638  0.3406
 5606SOL    HW128451   3.040   3.656   9.440  0.8715  0.1913  2.7454
 5606SOL    HW228452   3.167   3.601   9.406  0.1290 -0.6281 -2.7018
 5607SOL     OW28453   4.474   1.527  12.812 -0.6541 -0.1313 -0.2894
 5607SOL    HW128454   4.452   1.459  12.876 -0.4365  0.5671  0.5251
 5607SOL    HW228455   4.471   1.488  12.725  1.5808 -0.1501 -0.3624
 5608SOL     OW28456   4.638   4.492  13.187  0.1725 -0.3106  0.3362
 5608SOL    HW128457   4.609   4.407  13.153  0.7722 -1.8494  3.6448
 5608SOL    HW228458   4.660   4.531  13.103  0.1776  2.2900  1.5574
 5609SOL     OW28459   3.840   2.796   3.894 -0.1056 -0.3219 -0.7418
 5609SOL    HW128460   3.748   2.789   3.867  0.2300  0.0008 -1.9751
 5609SOL    HW228461   3.882   2.807   3.809  0.1986 -0.3901 -0.5990
 5610SOL     OW28462   1.198   3.831   3.175  0.5319 -0.1596  0.0105
 5610SOL    HW128463   1.293   3.840   3.187  0.6441 -0.3355 -0.7913
 5610SOL    HW228464   1.194   3.807   3.083 -1.1231  1.1089 -0.2540
 5611SOL     OW28465   1.662   4.139   6.500  0.3582  0.0710  0.0143
 5611SOL    HW128466   1.734   4.100   6.550 -0.4593 -0.1197  1.0524
 5611SOL    HW228467   1.613   4.059   6.485 -2.2063  2.0660 -2.0961
 5612SOL     OW28468   2.381   0.187   7.894 -0.1662 -0.4112 -0.1919
 5612SOL    HW128469   2.451   0.137   7.853  2.0349  1.9425  0.6897
 5612SOL    HW228470   2.406   0.200   7.985 -1.1559 -0.1439  0.0433
 5613SOL     OW28471   1.016   0.580   2.955  0.5061 -0.4607 -0.0518
 5613SOL    HW128472   1.087   0.594   2.893 -0.7548 -2.9895 -2.0584
 5613SOL    HW228473   0.972   0.511   2.905 -1.1041  1.5660 -1.4500
 5614SOL     OW28474   4.023   1.450   2.684 -0.7488 -0.2236 -0.4656
 5614SOL    HW128475   4.014   1.440   2.779  1.2851 -1.6485 -0.4295
 5614SOL    HW228476   3.978   1.371   2.655  0.0658  0.7071 -4.2627
 5615SOL     OW28477   2.731   0.696   9.344  0.3667  0.0023  0.2481
 5615SOL    HW128478   2.812   0.741   9.323  0.3273 -0.8706 -1.8014
 5615SOL    HW228479   2.698   0.682   9.255  0.0563  1.5711  0.1244
 5616SOL     OW28480   4.458   4.308   5.991  0.1089 -0.2454 -0.0120
 5616SOL    HW128481   4.462   4.392   6.037  0.1082  0.6673 -1.6548
 5616SOL    HW228482   4.548   4.316   5.960  0.0315  0.3443 -0.0895
 5617SOL     OW28483   0.766   1.240   2.225 -0.1487 -0.8968  0.1495
 5617SOL    HW128484   0.770   1.219   2.318  0.5678  0.2470  0.3699
 5617SOL    HW228485   0.757   1.335   2.229 -3.7753 -1.2065 -0.2028
 5618SOL     OW28486   4.159   4.210   4.944  0.4583 -0.3416  0.3791
 5618SOL    HW128487   4.183   4.300   4.965 -1.5255  0.3084 -0.2200
 5618SOL    HW228488   4.154   4.213   4.849 -3.4503 -1.5963  0.5318
 5619SOL     OW28489   3.912   3.499   8.477  0.2212  0.2519 -0.1264
 5619SOL    HW128490   3.885   3.456   8.559  0.3968 -0.7250 -0.5816
 5619SOL    HW228491   3.843   3.469   8.417 -0.2398 -1.2009  1.1177
 5620SOL     OW28492   0.255   2.690  14.289 -0.1236  0.2183  0.1028
 5620SOL    HW128493   0.335   2.738  14.309 -0.2864 -1.0864  4.0177
 5620SOL    HW228494   0.203   2.752  14.238  1.2966 -0.5254 -2.2510
 5621SOL     OW28495   3.391   1.283  12.110  0.2145  0.0140  0.7317
 5621SOL    HW128496   3.392   1.361  12.165 -0.5997  0.6119 -0.1153
 5621SOL    HW228497   3.452   1.230  12.161 -1.0161 -1.6473  0.4693
 5622SOL     OW28498   1.959   4.714   8.783 -0.6743  0.4759  0.2838
 5622SOL    HW128499   1.968   0.050   8.841  2.6387  1.6106 -1.6886
 5622SOL    HW228500   1.888   4.662   8.821 -1.2107  1.0492  0.0666
 5623SOL     OW28501   1.084   3.066   7.363  0.2076  0.2045 -0.0550
 5623SOL    HW128502   1.102   3.049   7.271  1.0551  4.0551 -0.6038
 5623SOL    HW228503   0.994   3.038   7.377  0.1707  0.3838  0.0742
 5624SOL     OW28504   1.565   2.458   0.589  0.1205 -0.4982  0.4518
 5624SOL    HW128505   1.623   2.479   0.662  1.3877 -0.8373 -0.4499
 5624SOL    HW228506   1.535   2.370   0.613 -1.7378 -0.8745 -3.2196
 5625SOL     OW28507   0.937   4.490   9.480 -0.3707  0.3241  0.2089
 5625SOL    HW128508   0.975   4.413   9.438 -0.7792  0.0255  0.3847
 5625SOL    HW228509   0.844   4.468   9.475 -0.6598  1.0783  2.0271
 5626SOL     OW28510   3.624   3.799   1.758 -0.1131  0.3129  0.4664
 5626SOL    HW128511   3.599   3.797   1.666  0.7470 -1.1871  0.2660
 5626SOL    HW228512   3.589   3.886   1.777 -0.3048 -0.1748  2.4058
 5627SOL     OW28513   1.408   0.830   3.146  0.2513  0.4669  0.1835
 5627SOL    HW128514   1.475   0.768   3.115  0.4259  0.7334  0.0218
 5627SOL    HW228515   1.331   0.775   3.163  0.2321  0.0108 -1.3615
 5628SOL     OW28516   1.663   3.111   8.026 -0.8913 -0.4241 -0.2249
 5628SOL    HW128517   1.657   3.207   8.021 -0.5806 -0.2526  3.2011
 5628SOL    HW228518   1.741   3.092   7.974  0.0216  0.3801  0.8551
 5629SOL     OW28519   3.181   3.945   6.994  0.0040 -0.1181  0.0281
 5629SOL    HW128520   3.160   3.858   7.027 -1.5922 -0.3356 -1.5601
 5629SOL    HW228521   3.212   3.942   6.903  1.7040  0.1839  0.5856
 5630SOL     OW28522   0.034   2.181  13.281  0.2923 -0.2271  0.7887
 5630SOL    HW128523   4.702   2.244  13.283  0.8197  0.4013 -0.0259
 5630SOL    HW228524   0.062   2.200  13.191 -0.4805 -0.0351  0.5849
 5631SOL     OW28525   0.170   1.725   4.981  0.3646  0.0544  0.0778
 5631SOL    HW128526   0.198   1.767   5.063 -0.1212 -0.1689  0.3583
 5631SOL    HW228527   0.173   1.795   4.915  0.0917  1.8168  1.9241
 5632SOL     OW28528   4.686   1.535  15.269 -0.4465  0.5124 -0.4457
 5632SOL    HW128529   4.670   1.590  15.346 -0.2659 -1.3815  0.9442
 5632SOL    HW228530   4.669   1.588  15.191  1.1145 -0.0267 -1.1444
 5633SOL     OW28531   1.522   4.667   9.099  0.5888  0.2468 -0.2968
 5633SOL    HW128532   1.509   4.739   9.038 -1.2704  0.9820  0.9944
 5633SOL    HW228533   1.591   4.621   9.050  0.0063 -0.7215 -0.2188
 5634SOL     OW28534   3.935   2.977   5.133 -0.0482  0.2570  0.3144
 5634SOL    HW128535   3.856   3.031   5.137 -0.0691  0.3088 -0.7470
 5634SOL    HW228536   3.998   3.015   5.194  1.2551  0.8083 -1.4006
 5635SOL     OW28537   4.379   1.034   3.097  0.4094 -0.0761 -0.2803
 5635SOL    HW128538   4.404   1.121   3.128 -0.9181 -0.3057  1.4350
 5635SOL    HW228539   4.385   0.982   3.177 -0.4958  2.7944  1.6285
 5636SOL     OW28540   2.432   3.808   6.078  0.0015 -0.1113  0.5867
 5636SOL    HW128541   2.523   3.779   6.083 -0.5605 -1.9662  0.0843
 5636SOL    HW228542   2.437   3.893   6.123  2.6791  0.6512 -1.1624
 5637SOL     OW28543   1.847   0.275   4.291 -0.3838  0.0550  0.2597
 5637SOL    HW128544   1.835   0.309   4.380 -3.0938 -0.1602 -0.0327
 5637SOL    HW228545   1.840   0.181   4.308  2.3165 -0.1933  0.0331
 5638SOL     OW28546   4.025   3.785   6.936  0.1003  0.2864 -0.3421
 5638SOL    HW128547   3.950   3.822   6.981  1.4267  1.1477  1.1834
 5638SOL    HW228548   4.096   3.831   6.980  0.5922 -1.6129  0.8847
 5639SOL     OW28549   0.384   3.365   8.145  0.1489 -0.3299  0.3054
 5639SOL    HW128550   0.424   3.296   8.198  1.5224 -1.1409 -1.7859
 5639SOL    HW228551   0.463   3.414   8.119 -0.8550 -0.0759 -2.2546
 5640SOL     OW28552   3.324   1.353  13.562 -0.1924 -0.2713 -0.0614
 5640SOL    HW128553   3.243   1.364  13.514 -0.5909  1.5295  1.0335
 5640SOL    HW228554   3.340   1.264  13.531  0.7256  0.0459 -0.5181
 5641SOL     OW28555   1.431   2.333   9.606  0.4013  0.0435 -0.0548
 5641SOL    HW128556   1.466   2.261   9.553  1.6703  2.8376 -3.0296
 5641SOL    HW228557   1.508   2.389   9.611  2.3812 -2.7123  0.3662
 5642SOL     OW28558   0.261   1.027   3.623 -0.2960  0.2361 -1.2172
 5642SOL    HW128559   0.246   0.934   3.635 -0.7009  0.6397  1.3361
 5642SOL    HW228560   0.337   1.031   3.565  1.2402  2.2398  0.9437
 5643SOL     OW28561   1.199   4.546  10.958 -0.1789 -0.1271  0.4459
 5643SOL    HW128562   1.280   4.591  10.935  0.6666 -1.1764  1.3867
 5643SOL    HW228563   1.142   4.599  10.903  1.8849  1.2971 -0.3196
 5644SOL     OW28564   0.926   3.743   3.403  0.1887 -0.3859  0.4235
 5644SOL    HW128565   0.893   3.718   3.489 -0.0412  1.5172  0.8936
 5644SOL    HW228566   0.857   3.727   3.339  0.9515  2.0792 -1.0204
 5645SOL     OW28567   3.295   1.143   1.091 -0.0146  0.2353  0.1237
 5645SOL    HW128568   3.330   1.054   1.095 -2.3137 -0.6940 -0.6841
 5645SOL    HW228569   3.201   1.125   1.087  0.4614 -2.3945  0.6286
 5646SOL     OW28570   2.842   1.552   2.040 -0.2013  0.9671  0.0700
 5646SOL    HW128571   2.855   1.626   1.981  0.3846 -0.1052 -1.1747
 5646SOL    HW228572   2.915   1.562   2.101 -0.0595  0.0340  0.0543
 5647SOL     OW28573   1.805   3.036   8.300 -0.1632 -0.2572 -0.4148
 5647SOL    HW128574   1.803   3.008   8.209 -1.2582 -1.3665 -0.0392
 5647SOL    HW228575   1.785   2.952   8.342 -1.3979  0.0947 -0.3002
 5648SOL     OW28576   2.759   4.084   8.705  0.3659 -0.1578 -0.3693
 5648SOL    HW128577   2.739   3.991   8.711 -2.1793  0.5052  1.4011
 5648SOL    HW228578   2.780   4.101   8.797 -0.3174 -1.1395 -0.0307
 5649SOL     OW28579   3.211   3.233   6.919 -0.0323 -0.1089  0.1488
 5649SOL    HW128580   3.161   3.225   6.838  0.2770 -1.1638  0.0665
 5649SOL    HW228581   3.150   3.290   6.966  0.0639  0.7879 -0.8009
 5650SOL     OW28582   3.988   1.598  13.053  0.0692 -0.0973 -0.4646
 5650SOL    HW128583   4.045   1.532  13.015 -2.2819 -0.8663 -2.6274
 5650SOL    HW228584   4.044   1.676  13.050 -2.0484  1.3529 -2.1272
 5651SOL     OW28585   0.022   0.397   8.495  0.0912 -0.6001  0.1489
 5651SOL    HW128586   4.732   0.359   8.577 -1.5266  0.4775  0.0352
 5651SOL    HW228587   0.112   0.364   8.497  1.0097  2.0857  1.6965
 5652SOL     OW28588   1.684   1.505   4.205 -0.3355 -0.0153 -0.1282
 5652SOL    HW128589   1.702   1.576   4.267  0.3601  1.1908 -1.7183
 5652SOL    HW228590   1.743   1.439   4.240  1.2502  2.5728  2.0590
 5653SOL     OW28591   2.415   0.798   2.780  0.1379  0.2011  0.0900
 5653SOL    HW128592   2.444   0.738   2.711  0.4468  0.9708 -0.4455
 5653SOL    HW228593   2.446   0.879   2.740 -0.7763  1.1588  1.3242
 5654SOL     OW28594   2.086   1.698   2.752  0.4612 -0.0229 -0.3945
 5654SOL    HW128595   2.014   1.672   2.809  0.4835 -0.4960 -0.5869
 5654SOL    HW228596   2.100   1.789   2.778  1.7286  0.1642 -1.7436
 5655SOL     OW28597   2.586   0.273   8.679 -0.2092  0.0959 -0.2021
 5655SOL    HW128598   2.643   0.280   8.602  0.8437  0.1227  0.5755
 5655SOL    HW228599   2.502   0.291   8.637 -2.2342 -1.0766  3.3635
 5656SOL     OW28600   1.710   2.315   5.364 -0.7633 -0.3333 -0.5435
 5656SOL    HW128601   1.733   2.293   5.454  1.9792 -0.4148 -1.2448
 5656SOL    HW228602   1.623   2.349   5.384 -0.0254  1.9970 -1.2000
 5657SOL     OW28603   2.795   1.793   3.403 -0.2268  0.4493  0.3201
 5657SOL    HW128604   2.767   1.812   3.313  0.6036  1.9767  0.3792
 5657SOL    HW228605   2.844   1.712   3.394  0.4152  1.1315 -2.4287
 5658SOL     OW28606   2.058   4.457   6.009 -0.1039 -0.1224 -0.2145
 5658SOL    HW128607   2.039   4.365   6.026 -0.2174  0.0596  0.6399
 5658SOL    HW228608   2.081   4.482   6.098  0.8070  0.0658 -0.5087
 5659SOL     OW28609   2.216   0.500  12.390 -0.2108  0.3373 -0.2673
 5659SOL    HW128610   2.298   0.525  12.432  0.2775  0.7360 -1.4668
 5659SOL    HW228611   2.208   0.574  12.331  1.4728 -0.7900 -1.9185
 5660SOL     OW28612   4.632   2.946  11.526 -0.2925 -0.3671  0.0386
 5660SOL    HW128613   4.695   2.942  11.454 -0.5779  0.9256 -0.2693
 5660SOL    HW228614   4.655   3.019  11.583 -1.1404 -0.2421  0.2185
 5661SOL     OW28615   2.519   0.691   4.668  0.2099 -0.5716 -0.6208
 5661SOL    HW128616   2.462   0.768   4.676 -0.9304 -1.2907 -1.8144
 5661SOL    HW228617   2.463   0.617   4.690  0.2248 -0.2365  0.5340
 5662SOL     OW28618   3.029   1.631   7.962  0.5499  0.2657  0.0620
 5662SOL    HW128619   2.952   1.651   8.015  0.1653  1.2894 -0.8657
 5662SOL    HW228620   3.013   1.693   7.890  1.3320 -0.5973 -0.8559
 5663SOL     OW28621   0.876   2.376  13.713  0.3440 -0.3571  0.4870
 5663SOL    HW128622   0.846   2.467  13.709 -0.6305 -0.6068  1.9462
 5663SOL    HW228623   0.830   2.318  13.653  1.3204 -0.8429  0.2144
 5664SOL     OW28624   3.438   1.181  16.645  0.1129  0.2127 -0.0268
 5664SOL    HW128625   3.524   1.149  16.617  0.2732 -0.1183  0.8343
 5664SOL    HW228626   3.397   1.215  16.566 -2.3640  2.1897  2.0830
 5665SOL     OW28627   4.322   2.153  12.917 -0.4919 -0.1538 -0.2430
 5665SOL    HW128628   4.400   2.208  12.925 -1.0594  0.6619 -0.3873
 5665SOL    HW228629   4.367   2.088  12.863  0.0040 -0.0222  0.0021
 5666SOL     OW28630   2.596   1.641   6.546  0.0168  0.3549  0.3747
 5666SOL    HW128631   2.577   1.627   6.453  1.2031 -2.5948  0.5870
 5666SOL    HW228632   2.517   1.607   6.589  0.9711 -1.5007  0.6454
 5667SOL     OW28633   4.639   3.527   7.790 -0.1514  0.2441 -0.3713
 5667SOL    HW128634   4.660   3.434   7.801  0.0738  0.4120  0.6262
 5667SOL    HW228635   4.632   3.557   7.881 -0.3366 -0.9867  0.0260
 5668SOL     OW28636   1.854   1.383  17.034 -0.0600  0.1578 -0.1147
 5668SOL    HW128637   1.911   1.319  16.992  0.1357 -0.4118  0.9952
 5668SOL    HW228638   1.898   1.466  17.017  2.0946 -0.8854  0.3543
 5669SOL     OW28639   2.147   3.320  15.985  0.3018 -0.0847  0.0778
 5669SOL    HW128640   2.221   3.350  16.038 -0.6659  2.6487 -0.1296
 5669SOL    HW228641   2.117   3.241  16.029  0.2174 -0.3396 -0.4354
 5670SOL     OW28642   4.712   0.183   2.991  0.4527  0.4571  0.2003
 5670SOL    HW128643   4.738   0.252   3.052 -1.2186  1.5029 -0.2665
 5670SOL    HW228644   4.722   0.225   2.905  2.7261 -2.0492 -0.7540
 5671SOL     OW28645   0.125   1.569  16.284 -0.2733  0.3893  0.6960
 5671SOL    HW128646   0.053   1.506  16.281  1.9109 -2.0924  0.2450
 5671SOL    HW228647   0.153   1.574  16.193 -0.4488  0.2357  0.6328
 5672SOL     OW28648   1.778   4.106  11.557 -0.0016 -0.9318  0.1160
 5672SOL    HW128649   1.731   4.165  11.498  0.4887  0.9889  1.6630
 5672SOL    HW228650   1.705   4.058  11.597 -0.6373  1.2020  1.5101
 5673SOL     OW28651   2.967   1.093  15.087  0.1275  0.4118  0.3826
 5673SOL    HW128652   3.001   1.182  15.082 -0.5733  0.5936 -1.0613
 5673SOL    HW228653   3.030   1.049  15.031  0.6982  1.5568  0.1271
 5674SOL     OW28654   4.462   4.060   4.824 -1.2632  0.0762 -0.1844
 5674SOL    HW128655   4.438   4.039   4.734  1.0110  2.3219 -1.2991
 5674SOL    HW228656   4.420   4.145   4.834  0.6609  0.8642  1.0381
 5675SOL     OW28657   2.313   4.667   1.447 -0.1353 -0.1518 -0.0651
 5675SOL    HW128658   2.286   4.703   1.362 -0.7903 -1.2977 -0.3319
 5675SOL    HW228659   2.349   4.579   1.435 -1.2035 -0.7631  1.2925
 5676SOL     OW28660   3.584   1.166   5.274  0.1859  0.4858  0.6190
 5676SOL    HW128661   3.520   1.224   5.315  0.1060  0.5566  0.3939
 5676SOL    HW228662   3.622   1.115   5.345  1.1757  0.6086  0.1850
 5677SOL     OW28663   2.372   4.113   7.451 -1.0516 -0.2723 -0.4386
 5677SOL    HW128664   2.411   4.112   7.364 -0.3582 -0.1382 -0.1305
 5677SOL    HW228665   2.360   4.207   7.464 -0.2267  0.0322 -1.8683
 5678SOL     OW28666   2.308   2.688   8.588 -0.6647  0.2622  0.2959
 5678SOL    HW128667   2.339   2.770   8.625 -1.7891  0.3601  1.0425
 5678SOL    HW228668   2.222   2.712   8.553  0.0372 -1.6575 -2.8003
 5679SOL     OW28669   3.015   1.057   1.186  0.8087 -0.4050  0.4263
 5679SOL    HW128670   2.986   1.131   1.239  0.2406  1.0087 -1.8862
 5679SOL    HW228671   2.941   1.026   1.134 -0.3868 -0.2288  2.0467
 5680SOL     OW28672   3.409   3.683   6.383 -0.3986  0.0490 -0.1475
 5680SOL    HW128673   3.429   3.736   6.460 -0.7453 -0.5899  0.3849
 5680SOL    HW228674   3.471   3.710   6.315 -0.4909  0.6987  0.0184
 5681SOL     OW28675   3.430   3.784   9.556 -0.3161 -0.0857 -0.5528
 5681SOL    HW128676   3.354   3.758   9.505  0.4127 -1.8396 -0.7326
 5681SOL    HW228677   3.423   3.734   9.638 -0.8593  1.0652  0.1070
 5682SOL     OW28678   4.447   3.325  14.294 -0.3954 -0.0883  0.2592
 5682SOL    HW128679   4.401   3.392  14.345  0.2376  1.1957 -0.8496
 5682SOL    HW228680   4.423   3.356  14.207  0.1964 -0.9974 -0.2231
 5683SOL     OW28681   3.964   0.771   8.456 -0.1514 -0.2427 -0.2028
 5683SOL    HW128682   3.899   0.787   8.524  0.5674  0.3661  0.3485
 5683SOL    HW228683   3.997   0.860   8.444  1.6226 -0.8130  0.4445
 5684SOL     OW28684   3.497   2.933   7.081 -0.6348 -0.3315 -0.5104
 5684SOL    HW128685   3.506   3.010   7.137  0.6181 -2.0029  1.5899
 5684SOL    HW228686   3.497   2.985   7.001  1.0533  2.1176  1.1199
 5685SOL     OW28687   4.384   0.843   5.431  0.2146 -0.4871  0.0399
 5685SOL    HW128688   4.333   0.769   5.399 -4.5124  1.5419  2.9402
 5685SOL    HW228689   4.461   0.793   5.457  1.3303  1.2485  0.0764
 5686SOL     OW28690   2.654   3.137   1.712  1.0212  0.4540  0.3722
 5686SOL    HW128691   2.603   3.097   1.782  0.7778  1.9859  1.0667
 5686SOL    HW228692   2.743   3.146   1.747  1.6665 -1.4454 -0.7966
 5687SOL     OW28693   4.359   1.672   3.434  0.3350 -0.2784  0.1297
 5687SOL    HW128694   4.359   1.622   3.353  0.5440 -0.5735  0.3107
 5687SOL    HW228695   4.409   1.616   3.494  1.3300  0.9405  0.4662
 5688SOL     OW28696   1.441   1.342  10.243 -0.3051 -0.4044 -0.4975
 5688SOL    HW128697   1.406   1.421  10.202 -0.6111 -0.3856 -0.2065
 5688SOL    HW228698   1.390   1.339  10.324  2.6179  0.4086  1.3300
 5689SOL     OW28699   2.928   4.689  14.270  0.2399 -0.2532  0.1877
 5689SOL    HW128700   2.995   4.623  14.289 -1.3955 -1.5228  1.5891
 5689SOL    HW228701   2.895   4.707  14.358 -1.6819 -1.4625 -0.2881
 5690SOL     OW28702   2.393   4.465   6.684  0.8500  0.0490 -0.6767
 5690SOL    HW128703   2.428   4.394   6.738 -0.8400 -0.2773 -0.0330
 5690SOL    HW228704   2.458   4.533   6.703 -1.8275  2.1016  1.0547
 5691SOL     OW28705   3.672   4.119   4.098 -0.3842  0.3215  0.0416
 5691SOL    HW128706   3.625   4.188   4.052 -0.7106  0.4650  0.5968
 5691SOL    HW228707   3.712   4.177   4.162 -1.1782  0.5720  0.3044
 5692SOL     OW28708   0.727   0.910   7.933  0.3259  0.0539 -0.1566
 5692SOL    HW128709   0.726   0.980   7.998  0.9847 -0.2886  0.2258
 5692SOL    HW228710   0.728   0.970   7.858 -1.6168  0.8285  0.4276
 5693SOL     OW28711   1.904   4.464   1.653  0.3210  0.2282 -0.0274
 5693SOL    HW128712   1.885   4.490   1.563  2.3235 -0.1047 -0.5475
 5693SOL    HW228713   1.885   4.370   1.645  1.4988 -0.0841  0.7510
 5694SOL     OW28714   3.364   3.374  12.028 -0.4407  0.2155  0.1539
 5694SOL    HW128715   3.296   3.340  11.970  0.9157 -1.6778 -0.3368
 5694SOL    HW228716   3.314   3.452  12.049 -0.4787 -0.5277  2.8584
 5695SOL     OW28717   2.121   0.153   2.269  0.4279 -0.7769 -0.5432
 5695SOL    HW128718   2.133   0.209   2.192 -1.2491  1.0443  0.5038
 5695SOL    HW228719   2.106   0.068   2.228  0.4247 -1.8255  1.6567
 5696SOL     OW28720   3.691   4.191   6.654 -0.3902  0.0897 -0.4882
 5696SOL    HW128721   3.710   4.283   6.635  2.3709 -1.0966 -3.5870
 5696SOL    HW228722   3.633   4.184   6.577  1.9648  0.3710 -2.2943
 5697SOL     OW28723   0.329   2.759   9.713  0.0088  0.1005  0.7040
 5697SOL    HW128724   0.416   2.721   9.721  1.1907  2.6443 -0.2095
 5697SOL    HW228725   0.353   2.851   9.714 -1.1233  0.3972  0.4286
 5698SOL     OW28726   3.362   0.931  16.709  0.1399 -0.0485 -0.2095
 5698SOL    HW128727   3.393   1.011  16.666  2.0217 -1.0232 -0.6529
 5698SOL    HW228728   3.392   0.944  16.799  2.3259  1.2610 -1.1267
 5699SOL     OW28729   1.935   1.102  14.402 -0.0426  0.1035  0.2675
 5699SOL    HW128730   1.992   1.161  14.352 -0.9521 -2.5133 -3.8472
 5699SOL    HW228731   1.993   1.027  14.418 -1.1798 -0.3815  2.0765
 5700SOL     OW28732   4.127   3.779   8.945 -0.0813  0.0539  0.2220
 5700SOL    HW128733   4.207   3.774   8.894 -0.5618  1.3779 -0.6467
 5700SOL    HW228734   4.163   3.782   9.034  1.4016 -0.5962 -0.3670
 5701SOL     OW28735   3.274   3.006   2.491 -0.6525  0.3435  0.0465
 5701SOL    HW128736   3.266   2.956   2.572  1.0632 -0.2116 -0.1124
 5701SOL    HW228737   3.282   3.096   2.521 -1.5290  0.3548  0.2351
 5702SOL     OW28738   3.877   1.399   9.742 -0.1628  0.0600 -0.5870
 5702SOL    HW128739   3.931   1.354   9.808  1.0075  0.7252 -1.0910
 5702SOL    HW228740   3.883   1.492   9.767 -1.7615 -0.3197  1.2410
 5703SOL     OW28741   4.026   4.116   0.182  0.0013  0.3048  0.4099
 5703SOL    HW128742   4.017   4.126   0.277  1.9995  0.1651  0.6216
 5703SOL    HW228743   3.954   4.170   0.149 -0.5087 -0.9080 -0.4458
 5704SOL     OW28744   3.619   1.490   1.948 -0.6500 -0.3882 -0.6569
 5704SOL    HW128745   3.699   1.523   1.908 -0.3306  1.4581  1.4912
 5704SOL    HW228746   3.612   1.533   2.033 -0.3557  1.0062 -1.3392
 5705SOL     OW28747   4.342   2.833  15.313 -0.4469 -0.0107  0.2240
 5705SOL    HW128748   4.403   2.786  15.256  1.5186  3.5916 -0.6390
 5705SOL    HW228749   4.375   2.818  15.402 -1.3503  1.7711  0.8421
 5706SOL     OW28750   3.446   3.149   6.762  0.1548  0.2696  0.0163
 5706SOL    HW128751   3.388   3.147   6.686 -0.4022  0.8783  0.4276
 5706SOL    HW228752   3.376   3.169   6.824 -1.6961  0.0362 -2.0305
 5707SOL     OW28753   1.319   2.320   8.186 -0.0103 -0.0489  0.1949
 5707SOL    HW128754   1.294   2.230   8.166 -0.3265 -0.0772  0.7232
 5707SOL    HW228755   1.382   2.306   8.257  1.0648 -2.5621 -1.2495
 5708SOL     OW28756   1.537   1.002  17.222  0.1469 -0.0461  0.0999
 5708SOL    HW128757   1.517   1.067  17.154  0.8964  1.0459  0.9329
 5708SOL    HW228758   1.626   1.024  17.248 -0.1995 -2.6593  3.4622
 5709SOL     OW28759   0.351   3.120   8.023 -0.0701 -0.1166  0.0437
 5709SOL    HW128760   0.284   3.091   8.085  1.7454 -2.4483  0.9290
 5709SOL    HW228761   0.369   3.205   8.062 -0.3860  0.4883 -1.1314
 5710SOL     OW28762   4.440   0.540   9.958  0.3036 -0.5484 -0.0599
 5710SOL    HW128763   4.472   0.487  10.031  0.9963  3.4062  2.4965
 5710SOL    HW228764   4.346   0.531   9.968  0.2589 -0.8013 -0.6827
 5711SOL     OW28765   2.631   2.024  11.450 -0.3893  0.3618 -0.0931
 5711SOL    HW128766   2.683   2.070  11.385 -2.2178  1.1526 -1.0063
 5711SOL    HW228767   2.644   2.080  11.527 -0.1528 -0.6021  0.5733
 5712SOL     OW28768   4.467   3.728   7.046  0.5135  0.3652 -0.0934
 5712SOL    HW128769   4.395   3.735   6.984  1.0193 -0.1263 -0.7337
 5712SOL    HW228770   4.426   3.765   7.124  0.3146  2.3687 -1.1752
 5713SOL     OW28771   1.582   0.808   7.230 -0.0124 -0.3024 -0.5896
 5713SOL    HW128772   1.607   0.717   7.216 -0.5094 -0.6351  0.6655
 5713SOL    HW228773   1.551   0.835   7.144  0.7970  0.8600 -0.5243
 5714SOL     OW28774   4.003   2.023   5.623  0.2823 -0.0151 -0.1342
 5714SOL    HW128775   3.968   2.110   5.644 -0.4225  0.0478 -1.5160
 5714SOL    HW228776   4.084   2.016   5.674  0.0209 -1.1194  0.1281
 5715SOL     OW28777   0.711   1.949  15.811 -0.3758  0.5005 -0.9048
 5715SOL    HW128778   0.751   2.008  15.874  2.4422 -0.2525 -2.0192
 5715SOL    HW228779   0.679   1.879  15.868  0.1672  1.1139  0.1467
 5716SOL     OW28780   2.285   1.038   3.186 -0.2060 -0.2169  0.2189
 5716SOL    HW128781   2.212   1.059   3.127 -0.3405  0.3178  0.5753
 5716SOL    HW228782   2.322   0.968   3.134  0.9325  1.4181 -1.1715
 5717SOL     OW28783   4.098   0.652   3.581 -0.3053  0.1661  0.4552
 5717SOL    HW128784   4.180   0.695   3.558 -0.9222  0.3568 -1.3288
 5717SOL    HW228785   4.037   0.720   3.613  0.1112 -0.1252  1.8641
 5718SOL     OW28786   2.508   3.247  14.221 -0.2438 -0.0734  0.0901
 5718SOL    HW128787   2.574   3.204  14.275  0.0801  0.6010  0.2323
 5718SOL    HW228788   2.425   3.204  14.239  0.1705 -0.5150  0.9700
 5719SOL     OW28789   2.750   0.207   4.200  0.4490  0.0707 -0.4331
 5719SOL    HW128790   2.714   0.152   4.268  0.1416  1.0086  0.1681
 5719SOL    HW228791   2.844   0.194   4.216  0.1468 -1.4484  0.0409
 5720SOL     OW28792   2.127   0.950  14.516 -0.4208 -0.8442  0.1057
 5720SOL    HW128793   2.081   0.883  14.566 -0.6145 -2.1219 -1.7803
 5720SOL    HW228794   2.207   0.901  14.497  0.0290 -0.7606  1.7563
 5721SOL     OW28795   4.728   1.169   2.013  0.2970 -0.3146  0.2877
 5721SOL    HW128796   4.670   1.124   1.951 -1.9097  0.3741  1.8556
 5721SOL    HW228797   0.031   1.240   1.965  1.7461  1.0519  3.6174
 5722SOL     OW28798   4.389   0.058   3.478 -0.3244 -0.2804 -0.4367
 5722SOL    HW128799   4.444   0.018   3.410  1.1470  2.8332 -1.0456
 5722SOL    HW228800   4.309   0.070   3.426 -0.6368 -1.9227 -0.3575
 5723SOL     OW28801   0.648   1.731  11.535 -0.5877 -0.0225 -0.0841
 5723SOL    HW128802   0.650   1.686  11.451  0.3556  0.5053 -0.3394
 5723SOL    HW228803   0.593   1.664  11.576 -1.2233  0.6704  0.2015
 5724SOL     OW28804   0.299   2.201   8.253 -0.0928  0.0316  0.5691
 5724SOL    HW128805   0.281   2.189   8.346  1.8901  0.5359  1.0130
 5724SOL    HW228806   0.305   2.112   8.219 -0.2493  0.4124 -0.4779
 5725SOL     OW28807   1.215   2.555   1.427 -0.2426  0.1747 -0.1712
 5725SOL    HW128808   1.306   2.584   1.436  0.1672 -0.9352 -0.7825
 5725SOL    HW228809   1.175   2.629   1.381  0.7974  1.5298  1.0939
 5726SOL     OW28810   4.387   2.155   6.714  0.4414 -0.0055  0.1368
 5726SOL    HW128811   4.477   2.123   6.722  1.0061  1.9400  1.6002
 5726SOL    HW228812   4.404   2.249   6.708 -0.5983  0.3616  3.2247
 5727SOL     OW28813   0.309   0.179   2.715  0.1853 -0.7901  0.1389
 5727SOL    HW128814   0.327   0.131   2.635  1.3936 -0.2127  0.0641
 5727SOL    HW228815   0.337   0.265   2.684  2.0754 -1.7597 -0.8147
 5728SOL     OW28816   2.214   0.739   6.612 -0.1474  0.2873  0.1328
 5728SOL    HW128817   2.231   0.816   6.666 -0.2918  1.1229 -1.0280
 5728SOL    HW228818   2.243   0.668   6.670 -1.4691 -0.5584 -0.2344
 5729SOL     OW28819   2.167   1.683   7.885 -0.4639  0.2415  0.0620
 5729SOL    HW128820   2.185   1.590   7.871  0.1039  0.2519  0.7058
 5729SOL    HW228821   2.245   1.724   7.846  0.3329  0.3292  1.7667
 5730SOL     OW28822   0.098   2.312  14.661  0.3425  0.8013  0.2384
 5730SOL    HW128823   0.147   2.331  14.740 -0.0771  2.4216  0.1259
 5730SOL    HW228824   0.170   2.276  14.610 -1.0993 -1.6105 -0.1267
 5731SOL     OW28825   1.561   1.334   6.095 -0.2278  0.2703 -0.0102
 5731SOL    HW128826   1.569   1.244   6.065  0.1831  0.6556 -1.0592
 5731SOL    HW228827   1.521   1.385   6.025  0.8500  0.5029 -0.4648
 5732SOL     OW28828   4.212   4.372   8.584  0.0065  0.1330 -0.2221
 5732SOL    HW128829   4.302   4.340   8.585 -0.7888 -2.1814 -0.4588
 5732SOL    HW228830   4.175   4.307   8.523 -1.8317  0.6635  0.3228
 5733SOL     OW28831   4.554   3.670   5.948  0.3328 -0.0121 -0.1033
 5733SOL    HW128832   4.534   3.756   5.984 -1.3340 -0.8061  0.8735
 5733SOL    HW228833   4.476   3.666   5.893  1.4165  3.3600 -1.8597
 5734SOL     OW28834   2.227   3.744   5.931 -0.6372  0.1898  0.4152
 5734SOL    HW128835   2.243   3.789   5.848 -0.1745  4.6343  2.9069
 5734SOL    HW228836   2.303   3.766   5.985  0.7878 -2.9588 -0.2682
 5735SOL     OW28837   1.143   3.614  16.090 -0.6025 -0.2953 -0.2801
 5735SOL    HW128838   1.222   3.661  16.064 -0.5293  0.7622  1.8355
 5735SOL    HW228839   1.153   3.605  16.185 -0.1184  2.4711 -0.0740
 5736SOL     OW28840   0.361   0.696  11.273 -0.0206  0.1507 -0.2321
 5736SOL    HW128841   0.323   0.716  11.358  3.3469  1.2583  1.0223
 5736SOL    HW228842   0.294   0.723  11.211  0.5107  0.2814 -0.7510
 5737SOL     OW28843   4.267   4.588   3.678  0.0783  0.0772  0.9035
 5737SOL    HW128844   4.306   4.511   3.637 -3.1236 -1.3243  0.4835
 5737SOL    HW228845   4.298   4.666   3.631 -0.9598  0.0370  0.1627
 5738SOL     OW28846   0.960   3.180   6.064 -0.2812 -0.0192  0.0763
 5738SOL    HW128847   0.973   3.103   6.009 -1.7258 -0.6616  0.6457
 5738SOL    HW228848   0.897   3.157   6.132 -0.7386 -0.2372 -0.4254
 5739SOL     OW28849   0.238   0.886   9.298 -0.0504  0.2190 -0.3701
 5739SOL    HW128850   0.157   0.920   9.260  1.5741  4.5125  0.0089
 5739SOL    HW228851   0.301   0.926   9.238 -1.3766 -0.3662 -2.1542
 5740SOL     OW28852   0.654   2.288  16.800  0.8210 -0.1853 -1.1803
 5740SOL    HW128853   0.598   2.330  16.865  1.1311  0.5079 -1.3612
 5740SOL    HW228854   0.726   2.252  16.851 -0.3317 -2.2191 -0.9863
 5741SOL     OW28855   2.117   4.128  14.563 -0.2255  0.5203 -0.4584
 5741SOL    HW128856   2.176   4.053  14.567 -2.0071 -0.8500 -0.0981
 5741SOL    HW228857   2.154   4.189  14.627 -0.7807  0.3552  0.0171
 5742SOL     OW28858   0.126   0.493   2.514  0.3439  0.0242  0.5036
 5742SOL    HW128859   0.195   0.488   2.447 -0.5623 -0.4388 -0.3910
 5742SOL    HW228860   0.056   0.535   2.464  0.9608 -0.1799 -0.5423
 5743SOL     OW28861   2.216   2.769   5.111 -0.3626  0.1459 -0.0321
 5743SOL    HW128862   2.308   2.761   5.137 -0.4073 -1.6513 -0.4363
 5743SOL    HW228863   2.230   2.808   5.024  1.9008 -0.6277 -0.0283
 5744SOL     OW28864   4.513   3.405   0.158  0.6230  0.5423  0.5993
 5744SOL    HW128865   4.583   3.350   0.194 -1.1611 -0.9544  1.7688
 5744SOL    HW228866   4.480   3.353   0.085  0.6583 -1.4331  1.9936
 5745SOL     OW28867   3.542   2.842   5.402 -0.0616 -0.1180 -0.5060
 5745SOL    HW128868   3.625   2.889   5.389  0.4026 -0.5723  0.8254
 5745SOL    HW228869   3.573   2.762   5.358 -4.3597 -1.8251 -0.4050
 5746SOL     OW28870   2.688   2.503  11.677 -0.5916  0.1133 -0.1279
 5746SOL    HW128871   2.694   2.598  11.667 -2.4265  0.1548 -0.8090
 5746SOL    HW228872   2.649   2.508  11.764 -1.2220  0.5165 -0.4321
 5747SOL     OW28873   1.051   3.929  15.128 -0.2081  0.3185  0.1191
 5747SOL    HW128874   0.986   3.881  15.078 -0.2403  1.3451 -0.8258
 5747SOL    HW228875   1.094   3.990  15.068  0.3580  1.1849  1.3940
 5748SOL     OW28876   3.520   0.849  16.405  0.1296  0.1034 -0.2303
 5748SOL    HW128877   3.528   0.845  16.310 -0.6891 -0.9037 -0.2596
 5748SOL    HW228878   3.568   0.928  16.432  0.1494  0.4438 -1.2853
 5749SOL     OW28879   0.698   1.164  15.781  0.3109  0.2086 -0.1277
 5749SOL    HW128880   0.664   1.075  15.795  1.5060 -0.2256  0.0374
 5749SOL    HW228881   0.631   1.218  15.822 -2.4316 -2.5396 -0.9618
 5750SOL     OW28882   2.176   3.500  11.263  0.6056  0.1530 -0.3055
 5750SOL    HW128883   2.245   3.499  11.196  0.4062  1.1131 -0.5139
 5750SOL    HW228884   2.099   3.473  11.212  2.4190  0.1095 -3.0301
 5751SOL     OW28885   4.295   1.781  13.281  0.3975  0.3912  0.5345
 5751SOL    HW128886   4.338   1.830  13.352 -1.3213  0.7092  1.3393
 5751SOL    HW228887   4.332   1.826  13.205 -0.4697  0.2846  0.0548
 5752SOL     OW28888   2.471   0.191  11.710 -0.4213  0.3841 -0.1139
 5752SOL    HW128889   2.531   0.244  11.658 -1.2718  0.7461 -0.7159
 5752SOL    HW228890   2.395   0.243  11.736  0.4887  0.6096  2.1102
 5753SOL     OW28891   1.252   1.046   3.060 -1.0002 -0.6850 -0.5353
 5753SOL    HW128892   1.246   1.041   2.965 -1.3349 -0.2979 -0.5315
 5753SOL    HW228893   1.307   0.972   3.089  0.2532 -0.5999 -2.6875
 5754SOL     OW28894   3.680   2.898   1.907  0.7011  0.5315  0.5962
 5754SOL    HW128895   3.717   2.835   1.969 -0.2967  1.0070  1.6654
 5754SOL    HW228896   3.679   2.849   1.825 -0.6978 -1.8435  2.0338
 5755SOL     OW28897   4.716   2.650   3.123  0.1800 -0.2872 -0.0498
 5755SOL    HW128898   0.008   2.720   3.180  0.5007 -1.6314  1.4050
 5755SOL    HW228899   4.632   2.685   3.092  1.7320  2.2871 -1.3079
 5756SOL     OW28900   0.687   4.685  16.333 -0.1513  0.0479  0.5065
 5756SOL    HW128901   0.600   4.706  16.299  0.3196 -1.4075 -1.5965
 5756SOL    HW228902   0.732   4.649  16.256 -1.5968  2.5154 -1.4859
 5757SOL     OW28903   0.272   4.527  13.794 -0.2092 -0.0369  0.0097
 5757SOL    HW128904   0.178   4.528  13.776 -0.7292  1.3260  2.7093
 5757SOL    HW228905   0.302   4.529  13.703  2.4304  2.2731  0.9291
 5758SOL     OW28906   2.025   3.724   3.291  0.1454  0.4163 -0.5136
 5758SOL    HW128907   1.969   3.772   3.351  3.3090  0.9143  2.0495
 5758SOL    HW228908   2.113   3.741   3.323 -0.1262 -0.9044  0.9072
 5759SOL     OW28909   4.401   1.202   1.330  0.6897 -0.1708 -0.7407
 5759SOL    HW128910   4.385   1.160   1.415  0.1310 -0.3071 -0.9127
 5759SOL    HW228911   4.352   1.137   1.280  3.3862 -2.5548 -0.2935
 5760SOL     OW28912   2.882   4.022   9.092  0.2834  0.0369  0.8369
 5760SOL    HW128913   2.975   4.015   9.075  0.3677  0.9247  0.9261
 5760SOL    HW228914   2.863   3.931   9.116  0.1978  0.3053  1.7872
 5761SOL     OW28915   0.956   3.617   4.709  0.6520  0.5622  0.2568
 5761SOL    HW128916   0.897   3.673   4.659  0.1315 -1.7250 -1.6842
 5761SOL    HW228917   1.033   3.632   4.653 -0.2903 -0.4341 -1.3202
 5762SOL     OW28918   4.258   2.072   3.582 -0.3533 -0.0209 -0.0171
 5762SOL    HW128919   4.196   2.011   3.542 -1.2962  0.5756  0.5345
 5762SOL    HW228920   4.336   2.022   3.558  1.2905  1.5810  2.0995
 5763SOL     OW28921   0.787   1.138  12.745 -0.1634 -0.3962  0.0592
 5763SOL    HW128922   0.741   1.122  12.827  1.4755 -0.1742  1.0252
 5763SOL    HW228923   0.749   1.219  12.710 -0.3251  0.7569  2.9258
 5764SOL     OW28924   0.876   2.783   1.496 -0.5510 -0.0207  0.0713
 5764SOL    HW128925   0.958   2.781   1.448 -0.6283 -3.2427  0.0233
 5764SOL    HW228926   0.910   2.784   1.585 -1.9410 -0.8565  0.6235
 5765SOL     OW28927   2.134   3.955   8.437  0.1591 -0.1139 -0.0712
 5765SOL    HW128928   2.164   3.978   8.524 -0.7976 -3.4253  1.1418
 5765SOL    HW228929   2.123   4.041   8.396 -0.4674  1.2346  2.9600
 5766SOL     OW28930   1.116   0.490   6.350 -0.1620  0.2480  0.3515
 5766SOL    HW128931   1.028   0.480   6.386 -0.8584 -0.0777 -1.4500
 5766SOL    HW228932   1.164   0.418   6.392  0.1020 -0.1086 -0.5661
 5767SOL     OW28933   2.064   3.494   2.842 -0.7627  0.2238 -0.0332
 5767SOL    HW128934   2.034   3.579   2.875  0.0310  0.3560  0.3402
 5767SOL    HW228935   2.038   3.425   2.904 -1.8802  1.8022  1.2437
 5768SOL     OW28936   3.781   4.215   2.261 -0.6954  0.3546 -0.0752
 5768SOL    HW128937   3.744   4.290   2.215 -0.1583 -0.2477 -1.4745
 5768SOL    HW228938   3.718   4.142   2.258  1.5312 -1.5403 -0.5615
 5769SOL     OW28939   1.364   4.307   8.171  0.0899  0.3595 -0.2479
 5769SOL    HW128940   1.277   4.305   8.211  0.8002 -2.8578  1.1051
 5769SOL    HW228941   1.375   4.402   8.163 -2.0103  0.4723 -1.8298
 5770SOL     OW28942   2.171   1.340   2.774 -0.0131 -0.3723  0.2499
 5770SOL    HW128943   2.083   1.334   2.812  0.4571 -0.1822  1.3782
 5770SOL    HW228944   2.160   1.413   2.713  0.2434 -0.0802  0.5521
 5771SOL     OW28945   1.537   0.038   5.405 -0.0945  0.0281 -0.1603
 5771SOL    HW128946   1.514   0.130   5.392 -0.3034  0.2461  1.7305
 5771SOL    HW228947   1.611   0.034   5.465 -1.2969 -0.9326  1.2723
 5772SOL     OW28948   3.626   3.691  16.403 -0.1356 -0.4693 -0.3945
 5772SOL    HW128949   3.690   3.627  16.433 -0.0517 -0.4105 -0.4494
 5772SOL    HW228950   3.561   3.682  16.473  0.7001 -1.0203  0.3004
 5773SOL     OW28951   4.568   0.373   1.840  0.8970  0.4397  0.0826
 5773SOL    HW128952   4.500   0.420   1.888  1.1393  1.5077 -0.6358
 5773SOL    HW228953   4.619   0.328   1.908 -0.1597 -1.3120 -0.2577
 5774SOL     OW28954   3.384   2.504   7.950  0.1302 -0.1339  0.4211
 5774SOL    HW128955   3.317   2.458   8.000 -1.0224 -1.7619 -2.6460
 5774SOL    HW228956   3.441   2.529   8.023 -0.3360 -0.2405  0.8253
 5775SOL     OW28957   0.145   1.006   2.668 -0.1840 -0.7034 -0.1140
 5775SOL    HW128958   0.080   0.947   2.704 -0.6707 -1.1716 -1.7917
 5775SOL    HW228959   0.094   1.063   2.611 -1.1723 -2.1521 -0.6627
 5776SOL     OW28960   1.204   2.094   8.828  0.6197  0.1120 -0.1358
 5776SOL    HW128961   1.260   2.161   8.866  1.5773 -0.5321 -0.3995
 5776SOL    HW228962   1.125   2.145   8.842 -0.2954 -0.8847 -1.7179
 5777SOL     OW28963   4.636   1.677   0.150 -0.9789 -0.0624 -0.0323
 5777SOL    HW128964   4.675   1.689   0.236  1.7239 -0.0082 -1.2696
 5777SOL    HW228965   4.706   1.711   0.094 -1.5777 -0.5149 -1.0605
 5778SOL     OW28966   3.566   4.621  17.054 -0.2874  0.0494 -0.1199
 5778SOL    HW128967   3.509   4.667  17.116 -3.5704 -1.6716 -1.8468
 5778SOL    HW228968   3.608   4.700  17.019  0.6651 -0.0334  0.8291
 5779SOL     OW28969   0.082   0.604   7.974 -0.2822  0.0002 -0.2948
 5779SOL    HW128970   0.044   0.546   8.040  0.0871  1.5067  1.2249
 5779SOL    HW228971   0.105   0.669   8.040 -0.3857 -0.8361  0.5689
 5780SOL     OW28972   2.511   2.170  12.080  0.6505  0.1807  0.1980
 5780SOL    HW128973   2.485   2.160  12.172  0.7217 -0.9061  0.1059
 5780SOL    HW228974   2.432   2.140  12.035  0.7743  0.5491 -0.2645
 5781SOL     OW28975   2.798   1.887   7.935  0.1176 -0.2449  0.2432
 5781SOL    HW128976   2.751   1.944   7.997 -0.9971 -0.8420 -0.0697
 5781SOL    HW228977   2.866   1.944   7.898 -1.0415  2.1401  1.7470
 5782SOL     OW28978   1.011   1.222   6.357 -0.6263  0.0369 -0.2031
 5782SOL    HW128979   0.932   1.214   6.303 -2.9900 -1.1804  3.4511
 5782SOL    HW228980   0.987   1.274   6.434 -0.0894 -1.0838  0.7236
 5783SOL     OW28981   1.555   3.941  15.619  0.3727  0.3553  0.0868
 5783SOL    HW128982   1.624   3.996  15.656 -0.6678  1.4249  0.4283
 5783SOL    HW228983   1.536   3.999  15.546 -1.5125 -1.3683 -0.8026
 5784SOL     OW28984   0.977   3.839   8.498  0.7047  0.1946  0.0597
 5784SOL    HW128985   0.959   3.920   8.545 -1.1152 -1.6822  2.6812
 5784SOL    HW228986   1.065   3.855   8.466  0.1839 -0.7582 -1.8270
 5785SOL     OW28987   4.556   1.752   8.047  0.0229 -0.0399  0.3896
 5785SOL    HW128988   4.500   1.775   8.121 -0.6989  1.9462 -0.7600
 5785SOL    HW228989   4.508   1.675   8.014  1.3574 -0.6087 -0.2115
 5786SOL     OW28990   2.947   1.754  16.212 -0.0364  0.3885 -0.1414
 5786SOL    HW128991   2.981   1.677  16.257 -2.1591 -0.5537 -0.1754
 5786SOL    HW228992   2.938   1.726  16.121  1.9206  1.6215 -0.7279
 5787SOL     OW28993   2.932   1.269   5.191  0.5648 -0.2106  0.1099
 5787SOL    HW128994   3.016   1.261   5.235 -1.0024 -0.9413  2.9375
 5787SOL    HW228995   2.937   1.195   5.131 -3.2530 -2.2880  2.3705
 5788SOL     OW28996   2.001   1.174   2.220  0.0795  0.2074  0.8232
 5788SOL    HW128997   2.085   1.169   2.266 -0.3392 -1.8063  1.4099
 5788SOL    HW228998   1.945   1.138   2.289  1.1057  0.1409  1.6368
 5789SOL     OW28999   4.379   2.230   1.902  0.3094  0.0341  0.0875
 5789SOL    HW129000   4.284   2.229   1.893 -0.0748  1.7865  3.8108
 5789SOL    HW229001   4.411   2.141   1.892 -1.3717 -0.7434  1.6494
 5790SOL     OW29002   3.824   0.034   9.270  0.1066 -0.0104 -0.2558
 5790SOL    HW129003   3.852   4.740   9.185 -0.3301  1.8020 -1.1310
 5790SOL    HW229004   3.909   0.050   9.310 -0.4971 -0.8456  1.3542
 5791SOL     OW29005   4.506   0.286  12.481  0.9016 -0.6531 -0.3773
 5791SOL    HW129006   4.581   0.227  12.482  1.2488 -0.1748  2.0114
 5791SOL    HW229007   4.499   0.295  12.576 -3.5573  1.4557 -0.8994
 5792SOL     OW29008   1.156   0.458   4.427  0.7587 -0.3516 -0.0563
 5792SOL    HW129009   1.153   0.413   4.512 -0.1562 -0.8942 -0.3692
 5792SOL    HW229010   1.175   0.544   4.464  2.5325 -0.7685 -0.0210
 5793SOL     OW29011   1.187   4.305   1.026  0.2377 -0.5762  0.2305
 5793SOL    HW129012   1.098   4.299   0.992 -0.3646  0.9223  1.5519
 5793SOL    HW229013   1.166   4.286   1.118 -2.9430  1.5508 -0.0501
 5794SOL     OW29014   1.643   1.933   1.687 -0.3586  0.1343  0.1005
 5794SOL    HW129015   1.654   2.014   1.639  2.1017 -0.0894  0.2721
 5794SOL    HW229016   1.549   1.919   1.676 -0.1903 -2.0157  1.3503
 5795SOL     OW29017   1.143   1.089  10.042 -0.3183  0.2564  0.4035
 5795SOL    HW129018   1.114   1.066   9.954  1.5762 -2.0337  0.3742
 5795SOL    HW229019   1.236   1.068  10.033  0.2631  2.8741  0.3116
 5796SOL     OW29020   1.755   0.424   6.787  0.5247  0.2540 -0.3567
 5796SOL    HW129021   1.817   0.440   6.716  0.9220 -2.0032 -0.4936
 5796SOL    HW229022   1.798   0.353   6.834  0.7185  1.9784  2.0776
 5797SOL     OW29023   4.539   3.174   2.476 -0.0069 -0.4552  0.4769
 5797SOL    HW129024   4.566   3.223   2.398 -0.1300  0.4349  0.9903
 5797SOL    HW229025   4.505   3.251   2.522  1.9504  1.0453 -0.5636
 5798SOL     OW29026   2.846   1.454   1.236  0.1282 -0.5493  0.0472
 5798SOL    HW129027   2.941   1.468   1.237  0.1924 -0.8904 -1.0923
 5798SOL    HW229028   2.820   1.500   1.316  0.7472 -1.5263  0.8252
 5799SOL     OW29029   0.832   4.371   3.039  0.5828 -0.1588  0.2897
 5799SOL    HW129030   0.817   4.391   2.947  1.1020 -1.9095 -0.1649
 5799SOL    HW229031   0.891   4.296   3.035 -2.0132 -2.1073 -0.7491
 5800SOL     OW29032   3.676   0.036   1.734  0.1508 -0.1638  0.3811
 5800SOL    HW129033   3.692   0.055   1.827  1.9139 -1.7771  0.4143
 5800SOL    HW229034   3.636   4.690   1.741 -0.5211  0.0447 -1.0803
 5801SOL     OW29035   3.000   4.418   3.448 -0.1443 -0.0792 -0.5188
 5801SOL    HW129036   3.031   4.440   3.536 -0.9777  2.9867 -0.9961
 5801SOL    HW229037   2.966   4.333   3.475 -3.7248  0.7893 -2.3302
 5802SOL     OW29038   2.602   2.369  14.776  0.6681  0.1353 -0.0999
 5802SOL    HW129039   2.516   2.331  14.791  0.3193  1.0025  0.1060
 5802SOL    HW229040   2.582   2.462  14.769 -0.6784 -0.1651 -0.1450
 5803SOL     OW29041   2.626   4.281  10.882  0.8581 -0.4313 -0.4065
 5803SOL    HW129042   2.713   4.317  10.865  1.4044 -1.3469  0.4712
 5803SOL    HW229043   2.605   4.327  10.964 -3.2613 -2.1768 -0.4821
 5804SOL     OW29044   1.159   1.184   1.295  1.0345  0.3450  0.0496
 5804SOL    HW129045   1.076   1.192   1.342  0.7355  1.6621 -0.7179
 5804SOL    HW229046   1.138   1.184   1.202 -0.1872  0.5965  0.3263
 5805SOL     OW29047   3.627   0.389   5.564  0.6642  0.2613 -0.2139
 5805SOL    HW129048   3.604   0.303   5.528  2.3870 -0.7516  1.1552
 5805SOL    HW229049   3.553   0.400   5.623  0.4300  2.3437 -0.9065
 5806SOL     OW29050   3.812   0.973   4.909 -0.0352 -0.0134 -0.2388
 5806SOL    HW129051   3.836   1.032   4.980  1.7462 -1.0857  0.0485
 5806SOL    HW229052   3.738   0.919   4.938 -0.3631  0.3753 -0.3579
 5807SOL     OW29053   1.019   0.574  11.425 -0.3468 -0.2145 -0.8880
 5807SOL    HW129054   1.110   0.551  11.409  0.3805  1.6180  0.4833
 5807SOL    HW229055   0.968   0.542  11.351 -0.5186 -1.6762 -0.1288
 5808SOL     OW29056   2.729   0.550   8.714  0.2475 -0.0865 -0.0708
 5808SOL    HW129057   2.800   0.523   8.656  2.1409  0.2950  2.0550
 5808SOL    HW229058   2.683   0.468   8.732  1.5945 -1.0692 -1.1258
 5809SOL     OW29059   4.647   3.676   3.377  0.2409 -0.5435 -0.4548
 5809SOL    HW129060   4.731   3.718   3.396 -1.5222  1.2764  3.4147
 5809SOL    HW229061   4.661   3.610   3.445  0.0964 -0.3939 -0.2803
 5810SOL     OW29062   1.266   4.028   2.363  0.1663 -0.8094 -0.0806
 5810SOL    HW129063   1.301   4.073   2.286 -1.5647  1.2055  0.3176
 5810SOL    HW229064   1.262   4.098   2.429  1.6902  1.2317 -2.1482
 5811SOL     OW29065   2.045   3.149   6.461 -0.0023 -0.1823  0.1968
 5811SOL    HW129066   2.047   3.219   6.396 -1.1720 -1.4740 -1.2492
 5811SOL    HW229067   2.131   3.142   6.502  0.0725  0.5891  0.1763
 5812SOL     OW29068   3.240   2.587   5.855  0.3757  0.6679  0.3989
 5812SOL    HW129069   3.207   2.545   5.776 -1.2293 -0.8985  1.8925
 5812SOL    HW229070   3.178   2.554   5.920  0.0034 -1.0502 -0.8431
 5813SOL     OW29071   0.749   4.464   4.812  0.1943  0.0565 -0.1347
 5813SOL    HW129072   0.753   4.406   4.736 -2.0236  0.5313 -0.6311
 5813SOL    HW229073   0.727   4.399   4.879 -1.0215 -0.0265 -0.6070
 5814SOL     OW29074   1.507   2.248   4.702 -0.1063  0.5445 -0.2564
 5814SOL    HW129075   1.517   2.192   4.625  0.1794 -2.4210  1.9396
 5814SOL    HW229076   1.477   2.330   4.662  0.4411  0.4725 -0.8183
 5815SOL     OW29077   1.891   3.531   7.741 -0.2427 -0.1078  0.0527
 5815SOL    HW129078   1.953   3.486   7.682 -2.3830 -0.8707 -1.6169
 5815SOL    HW229079   1.954   3.589   7.784  0.4310 -1.2579  0.6283
 5816SOL     OW29080   0.660   1.007   9.238 -0.0664 -0.2865 -0.2673
 5816SOL    HW129081   0.691   1.074   9.299  1.2961 -2.4826  1.4607
 5816SOL    HW229082   0.712   0.928   9.257 -1.4197 -1.0579  0.2063
 5817SOL     OW29083   0.766   3.948   6.215  0.2824 -0.0663 -0.1020
 5817SOL    HW129084   0.695   3.943   6.151  0.3675 -0.2260 -0.1832
 5817SOL    HW229085   0.828   3.975   6.148 -0.4973  2.9906  0.4291
 5818SOL     OW29086   0.507   3.078  12.901 -0.3846  0.0171 -0.8773
 5818SOL    HW129087   0.526   3.050  12.991  1.7217 -0.1874 -1.3844
 5818SOL    HW229088   0.546   3.165  12.912  1.2988 -0.8854  0.3868
 5819SOL     OW29089   4.092   1.316   0.101 -0.1140 -0.5331 -0.0893
 5819SOL    HW129090   4.086   1.399   0.053 -2.6556 -1.6145 -1.6812
 5819SOL    HW229091   4.140   1.264   0.036 -1.3414 -2.4013  0.4935
 5820SOL     OW29092   3.921   2.071  14.834 -0.0375  0.1768  0.1613
 5820SOL    HW129093   3.841   2.121  14.817  0.0726  0.2856 -0.0378
 5820SOL    HW229094   3.869   1.990  14.839 -1.5159  0.9814 -1.8421
 5821SOL     OW29095   3.159   3.352   4.946  0.5141  0.2656  0.0974
 5821SOL    HW129096   3.135   3.310   4.863  0.6505  0.6500 -0.1391
 5821SOL    HW229097   3.123   3.293   5.011  1.9510 -0.3353  0.3519
 5822SOL     OW29098   3.387   3.037   9.408 -0.1221 -0.4468 -0.6612
 5822SOL    HW129099   3.327   3.004   9.340 -0.2868 -1.3866 -0.0698
 5822SOL    HW229100   3.359   2.997   9.491 -0.9328 -0.6914 -1.0480
 5823SOL     OW29101   4.543   2.976   8.768  0.5513  0.6456  0.6132
 5823SOL    HW129102   4.587   2.894   8.742  0.9920  0.8726  0.6393
 5823SOL    HW229103   4.518   3.020   8.687  0.1868  0.7192  0.7671
 5824SOL     OW29104   4.395   3.131  11.811 -0.1262  0.5904  0.6668
 5824SOL    HW129105   4.335   3.102  11.742  2.5527  0.7149 -1.7293
 5824SOL    HW229106   4.457   3.058  11.810  1.7396  2.1719  1.7686
 5825SOL     OW29107   2.633   2.953   4.324  0.5811  0.2161  0.2143
 5825SOL    HW129108   2.562   2.962   4.387  0.9337  1.7945  0.3687
 5825SOL    HW229109   2.591   2.919   4.244  0.4440 -0.0626  0.4022
 5826SOL     OW29110   0.456   3.872  10.550 -0.0168  0.2423  0.6155
 5826SOL    HW129111   0.524   3.809  10.529 -0.0380  0.1936  0.6917
 5826SOL    HW229112   0.387   3.835  10.495  1.0365 -0.3497 -0.2878
 5827SOL     OW29113   3.586   3.446   6.882 -0.2449 -0.0165  0.0651
 5827SOL    HW129114   3.567   3.367   6.831 -0.4691 -0.0007  0.1253
 5827SOL    HW229115   3.681   3.456   6.876 -0.1941 -1.4356 -1.5695
 5828SOL     OW29116   2.831   1.346   3.804 -0.4396 -0.4405 -0.0279
 5828SOL    HW129117   2.901   1.339   3.869  0.6614  2.2013 -0.9342
 5828SOL    HW229118   2.816   1.255   3.778  2.7634 -0.9015 -0.3026
 5829SOL     OW29119   4.511   1.962  16.609  0.0957 -0.1462 -0.1988
 5829SOL    HW129120   4.601   1.957  16.578  0.2904  0.8370  0.2096
 5829SOL    HW229121   4.489   2.055  16.617 -2.3002 -0.4004 -4.0252
 5830SOL     OW29122   3.886   0.892   8.888 -0.6297 -0.5303 -0.0399
 5830SOL    HW129123   3.922   0.863   8.972  0.4333 -0.8547 -0.6103
 5830SOL    HW229124   3.959   0.947   8.859 -0.7208  0.4852  1.6039
 5831SOL     OW29125   3.828   2.530  11.392 -0.1442  0.1460 -0.0263
 5831SOL    HW129126   3.746   2.568  11.426  0.0350 -0.3559  0.9359
 5831SOL    HW229127   3.788   2.483  11.318 -2.4841 -0.5766  1.6976
 5832SOL     OW29128   0.734   0.126  15.955  0.0580 -0.0952  0.3221
 5832SOL    HW129129   0.674   0.112  15.882 -0.5721  0.8896  0.6633
 5832SOL    HW229130   0.694   0.197  16.005 -1.5176 -1.5498  1.1320
 5833SOL     OW29131   4.633   4.508   4.588 -0.1197  0.3251 -0.2221
 5833SOL    HW129132   4.698   4.440   4.573  0.0889 -0.0088  2.1592
 5833SOL    HW229133   4.685   4.579   4.627 -1.0396  0.3682  0.9300
 5834SOL     OW29134   2.484   4.360   9.369 -0.1447 -0.3739  1.2339
 5834SOL    HW129135   2.464   4.424   9.300  1.7087  0.8478  1.8316
 5834SOL    HW229136   2.575   4.346   9.346 -0.7026 -2.8256  0.5703
 5835SOL     OW29137   4.472   0.210  14.422  0.5183 -0.2383 -0.3822
 5835SOL    HW129138   4.501   0.291  14.381  2.2477 -1.5459 -1.8165
 5835SOL    HW229139   4.537   0.196  14.491 -1.2692  1.4335  1.6247
 5836SOL     OW29140   0.837   3.145  16.569  0.4641 -0.4058  0.0212
 5836SOL    HW129141   0.742   3.135  16.566  0.6104 -1.4838 -1.4063
 5836SOL    HW229142   0.838   3.236  16.596  0.8734 -0.5698  0.5600
 5837SOL     OW29143   4.325   0.213  12.792  0.1168  0.7527 -0.6595
 5837SOL    HW129144   4.420   0.216  12.785  0.3163 -0.9990  1.1641
 5837SOL    HW229145   4.314   0.126  12.832 -2.9239  0.9931 -0.9373
 5838SOL     OW29146   2.824   3.563   7.121 -0.3257  0.0317 -0.3902
 5838SOL    HW129147   2.853   3.650   7.150  2.0949 -1.3925  1.4931
 5838SOL    HW229148   2.763   3.592   7.054  0.5853  2.4360 -0.1653
 5839SOL     OW29149   1.325   3.846   2.581  0.4875 -0.0724  0.7102
 5839SOL    HW129150   1.284   3.862   2.496  1.6839  1.8468  0.4937
 5839SOL    HW229151   1.405   3.898   2.576  0.9978 -0.9092  0.1421
 5840SOL     OW29152   0.792   2.574  17.539 -0.2521  0.3196  0.3114
 5840SOL    HW129153   0.846   2.641  17.580  0.6426  0.0886 -0.5090
 5840SOL    HW229154   0.768   2.615  17.456 -1.6066  0.7569  0.9103
 5841SOL     OW29155   4.487   2.804  12.793 -0.5617  0.0465 -0.4316
 5841SOL    HW129156   4.428   2.736  12.760  0.6907 -1.5066  0.5110
 5841SOL    HW229157   4.574   2.767  12.779 -1.0874 -0.7673 -1.5057
 5842SOL     OW29158   0.425   2.348   6.513 -0.1270 -0.3510  0.4448
 5842SOL    HW129159   0.391   2.380   6.430  0.9288  0.9977  0.5328
 5842SOL    HW229160   0.372   2.401   6.573 -0.4614  1.6857 -1.6627
 5843SOL     OW29161   2.516   1.155   3.917 -0.1875 -0.3694  0.3514
 5843SOL    HW129162   2.538   1.121   3.830  0.4786 -2.8818  1.5207
 5843SOL    HW229163   2.422   1.172   3.917  0.4505  3.3247 -0.9587
 5844SOL     OW29164   4.065   0.540  14.697  0.0425  0.5011  0.0231
 5844SOL    HW129165   3.974   0.511  14.703  0.1500 -0.0359 -0.9034
 5844SOL    HW229166   4.092   0.514  14.609 -2.9533  1.3782 -1.1497
 5845SOL     OW29167   0.931   2.609   6.255 -0.2949  0.1720 -0.1196
 5845SOL    HW129168   0.929   2.570   6.167  1.6992  0.1905 -0.1584
 5845SOL    HW229169   0.899   2.536   6.308  1.5975 -0.1351  0.5679
 5846SOL     OW29170   4.300   2.627   8.201  0.2560  0.2082 -0.3577
 5846SOL    HW129171   4.248   2.548   8.189  0.5230  0.0363 -0.3748
 5846SOL    HW229172   4.387   2.609   8.165  0.1046 -0.5085 -0.3588
 5847SOL     OW29173   0.759   1.418  12.959  0.6855 -0.2311  0.1322
 5847SOL    HW129174   0.823   1.355  12.990 -0.0264 -0.6528  0.7529
 5847SOL    HW229175   0.694   1.414  13.029 -2.8101 -0.7347 -3.0829
 5848SOL     OW29176   3.389   2.387   3.851  0.3153 -0.1401  0.4053
 5848SOL    HW129177   3.356   2.472   3.822 -1.4089 -0.4589  1.4270
 5848SOL    HW229178   3.479   2.385   3.819  1.2406 -1.8804  3.1744
 5849SOL     OW29179   3.843   3.709   8.908 -0.0475 -0.1378  0.1524
 5849SOL    HW129180   3.827   3.710   9.002 -1.4171 -1.8132 -0.0539
 5849SOL    HW229181   3.936   3.718   8.890  0.0498  1.2464  1.2882
 5850SOL     OW29182   3.036   3.549  14.704 -1.0023  0.3305 -0.4388
 5850SOL    HW129183   3.094   3.610  14.658 -3.1252  1.6646 -1.3417
 5850SOL    HW229184   2.986   3.602  14.766 -1.2105 -1.5694  1.0283
 5851SOL     OW29185   0.834   3.495   2.449  0.3253 -0.1613 -0.2491
 5851SOL    HW129186   0.752   3.447   2.434  0.3076 -0.5392  1.1024
 5851SOL    HW229187   0.823   3.528   2.538  0.6049 -0.3785 -0.1370
 5852SOL     OW29188   2.772   0.714  10.107 -0.3318  0.6267 -0.4488
 5852SOL    HW129189   2.720   0.671  10.039  1.5928 -0.8019 -1.0347
 5852SOL    HW229190   2.780   0.646  10.174 -0.2233  0.5326 -0.5563
 5853SOL     OW29191   1.219   0.113   3.541 -0.3766  0.4727  0.5340
 5853SOL    HW129192   1.232   0.184   3.604 -1.5344  2.4691 -1.4810
 5853SOL    HW229193   1.308   0.078   3.538 -1.3803 -1.8414 -2.0674
 5854SOL     OW29194   2.908   3.293   9.157  0.7686 -0.8084  0.1874
 5854SOL    HW129195   2.812   3.296   9.150  0.7571 -1.7563  0.0151
 5854SOL    HW229196   2.923   3.331   9.070  1.0638  0.0601  0.6213
 5855SOL     OW29197   3.365   2.127   8.511 -0.1637  0.5749 -0.7691
 5855SOL    HW129198   3.421   2.072   8.457  0.7121  0.2929  0.4299
 5855SOL    HW229199   3.280   2.084   8.520  0.0379 -0.2385 -2.7763
 5856SOL     OW29200   2.616   1.160   7.779 -0.0927  0.7334 -0.0716
 5856SOL    HW129201   2.566   1.202   7.849  0.8767 -0.3188  1.2540
 5856SOL    HW229202   2.610   1.069   7.807  0.3535  0.6722 -0.1679
 5857SOL     OW29203   0.739   3.194  10.794  0.4424  0.4388 -0.1213
 5857SOL    HW129204   0.708   3.109  10.762  0.2627  1.3651 -2.4026
 5857SOL    HW229205   0.832   3.177  10.809 -0.1081 -0.3598  2.4139
 5858SOL     OW29206   3.362   1.692   5.273 -0.3871 -0.2549  0.7538
 5858SOL    HW129207   3.330   1.612   5.231 -0.5228  0.3430 -0.2529
 5858SOL    HW229208   3.430   1.641   5.318 -0.7694 -0.9206  0.5819
 5859SOL     OW29209   3.758   2.748   4.369  0.3582 -0.2937 -0.0827
 5859SOL    HW129210   3.734   2.814   4.303 -1.5393 -2.4141 -1.5325
 5859SOL    HW229211   3.675   2.736   4.415 -0.2700 -1.3204 -1.4765
 5860SOL     OW29212   1.267   2.515   2.348  0.5728  0.1464 -0.6385
 5860SOL    HW129213   1.190   2.489   2.397  0.5759  0.7525 -0.3166
 5860SOL    HW229214   1.309   2.584   2.399 -0.8090 -1.1002  2.1974
 5861SOL     OW29215   3.367   1.169   2.050  0.1790 -0.5869 -0.0071
 5861SOL    HW129216   3.406   1.223   2.119 -0.8912  0.2697 -0.0636
 5861SOL    HW229217   3.350   1.238   1.986  0.5882 -0.3602  0.1275
 5862SOL     OW29218   0.160   3.077   3.252  0.5222 -0.2501  0.7823
 5862SOL    HW129219   0.245   3.094   3.212  0.1136  0.1089  0.0794
 5862SOL    HW229220   0.124   3.164   3.267  0.4893 -0.0850 -0.3088
 5863SOL     OW29221   3.519   1.014   2.295  0.4511  0.1268 -0.0221
 5863SOL    HW129222   3.574   1.009   2.217  0.6811  2.6673 -0.0414
 5863SOL    HW229223   3.509   0.919   2.297  0.0931  0.2069  1.7632
 5864SOL     OW29224   2.857   0.860   7.593 -0.7603  0.0622  0.3127
 5864SOL    HW129225   2.934   0.803   7.585 -1.6564 -1.0847 -0.1827
 5864SOL    HW229226   2.898   0.942   7.565  1.4029 -2.0010 -2.5750
 5865SOL     OW29227   4.164   0.514   4.993  0.2080 -0.4083 -0.1255
 5865SOL    HW129228   4.156   0.538   4.900  0.7514  0.1030 -0.0371
 5865SOL    HW229229   4.140   0.595   5.037  1.5427  0.4814 -1.0232
 5866SOL     OW29230   2.561   4.323  11.535  0.0876  0.1952  0.9459
 5866SOL    HW129231   2.579   4.343  11.627  0.7995 -0.6770  0.9934
 5866SOL    HW229232   2.607   4.240  11.525  0.9520  0.9448 -1.3497
 5867SOL     OW29233   0.098   1.443   2.536  0.1250  0.2672 -0.5923
 5867SOL    HW129234   0.052   1.412   2.458  0.2622 -0.9713 -0.1956
 5867SOL    HW229235   0.076   1.367   2.590  1.0027 -0.6966 -1.5867
 5868SOL     OW29236   3.860   2.065   3.168 -0.5108 -0.7068 -0.6679
 5868SOL    HW129237   3.871   1.974   3.140 -2.2070 -1.1698  0.1610
 5868SOL    HW229238   3.895   2.059   3.257 -1.8494  0.9782 -0.0207
 5869SOL     OW29239   0.327   2.803   4.735  0.2521  0.1265 -0.1114
 5869SOL    HW129240   0.377   2.788   4.654  0.0331 -1.4166  0.0419
 5869SOL    HW229241   0.373   2.876   4.775  0.4633 -0.4513  0.7008
 5870SOL     OW29242   0.718   1.205   9.462 -0.5621  0.3302  0.4023
 5870SOL    HW129243   0.722   1.299   9.444  0.5407  0.4213  1.1789
 5870SOL    HW229244   0.805   1.190   9.498  0.3938  3.4836 -0.5989
 5871SOL     OW29245   1.133   3.259   9.654  0.1308  0.4297 -0.1251
 5871SOL    HW129246   1.146   3.308   9.735  2.3595 -0.4968  0.0853
 5871SOL    HW229247   1.156   3.326   9.589  0.1975  0.2618 -0.2736
 5872SOL     OW29248   0.480   0.972   1.574 -0.1439 -0.2281 -0.1394
 5872SOL    HW129249   0.442   0.885   1.581 -3.9246  1.6185  2.6374
 5872SOL    HW229250   0.403   1.012   1.534 -1.1162 -1.6489  0.3132
 5873SOL     OW29251   2.642   3.813   8.469 -0.0091 -0.3412 -0.2970
 5873SOL    HW129252   2.728   3.799   8.509 -0.3395 -1.6817 -0.0584
 5873SOL    HW229253   2.669   3.834   8.380  2.5669  1.3003  0.8611
 5874SOL     OW29254   3.140   0.766  14.985  0.4889  0.1529 -1.0443
 5874SOL    HW129255   3.215   0.709  15.002 -0.3838 -0.7057  0.0168
 5874SOL    HW229256   3.176   0.848  15.018  2.8296 -1.3424  0.1270
 5875SOL     OW29257   1.032   4.404  14.247 -0.2944  0.3270  0.4193
 5875SOL    HW129258   1.122   4.401  14.281 -0.4894 -1.6328  0.7549
 5875SOL    HW229259   1.038   4.325  14.193 -1.6236  1.0590 -0.8094
 5876SOL     OW29260   1.058   3.690   7.014 -0.5247  0.2940 -0.3111
 5876SOL    HW129261   1.066   3.636   6.936  1.1085 -0.9961  0.7384
 5876SOL    HW229262   1.044   3.775   6.971  0.7246  0.2920 -0.7213
 5877SOL     OW29263   1.268   2.547   8.410 -0.3749 -0.0234  0.1092
 5877SOL    HW129264   1.292   2.493   8.336  3.3324  1.0381  0.5070
 5877SOL    HW229265   1.231   2.489   8.476 -0.4277 -0.4336 -0.2816
 5878SOL     OW29266   2.860   1.309  16.222 -0.0658  0.1931 -0.1721
 5878SOL    HW129267   2.808   1.235  16.252 -0.3364 -0.3373 -1.9343
 5878SOL    HW229268   2.798   1.343  16.158  0.5128 -1.0117 -1.3894
 5879SOL     OW29269   2.160   2.820   3.305 -0.1764  0.0304 -0.8311
 5879SOL    HW129270   2.190   2.899   3.351  1.3631 -1.4136  0.6251
 5879SOL    HW229271   2.067   2.828   3.328  0.0471 -1.0674  0.4389
 5880SOL     OW29272   1.714   3.027   7.163  0.5125 -0.3525 -0.2451
 5880SOL    HW129273   1.675   3.030   7.250 -3.4040  0.7631 -2.0003
 5880SOL    HW229274   1.805   3.049   7.179  0.7343 -0.5057 -1.2659
 5881SOL     OW29275   0.030   0.467   5.475 -0.0261  0.6894  0.0936
 5881SOL    HW129276   0.106   0.446   5.420 -0.8172 -1.6512 -0.1025
 5881SOL    HW229277   0.068   0.447   5.560  1.4716  0.8087 -0.5450
 5882SOL     OW29278   1.666   2.953   1.468 -0.0226 -0.0653 -0.3509
 5882SOL    HW129279   1.631   2.981   1.383 -0.7354  2.4787  0.8141
 5882SOL    HW229280   1.607   2.999   1.527 -1.0203  0.5303 -1.8183
 5883SOL     OW29281   3.828   3.907   6.110  0.6889 -0.3274 -0.1410
 5883SOL    HW129282   3.751   3.877   6.159 -0.4735 -0.4324 -2.0448
 5883SOL    HW229283   3.852   3.990   6.153  2.5563 -0.2439 -1.3704
 5884SOL     OW29284   2.994   3.539  14.423 -0.2451  0.1631 -0.1934
 5884SOL    HW129285   2.931   3.468  14.408 -0.5684  0.1293  1.3439
 5884SOL    HW229286   3.033   3.519  14.508  0.1624 -1.6316 -0.7992
 5885SOL     OW29287   1.850   1.456   6.730  0.3437 -0.8362  0.2995
 5885SOL    HW129288   1.799   1.375   6.723  1.0570 -1.0439 -2.6947
 5885SOL    HW229289   1.797   1.508   6.790  1.1991 -0.1849  0.4986
 5886SOL     OW29290   1.334   4.682   9.491  0.4114 -0.5396 -0.1480
 5886SOL    HW129291   1.248   4.665   9.530  0.4686 -0.9544 -0.2104
 5886SOL    HW229292   1.310   4.636   9.411 -0.7576  1.2736 -0.8301
 5887SOL     OW29293   1.636   3.588  10.886 -0.1100  0.3600 -0.1690
 5887SOL    HW129294   1.689   3.638  10.949  0.0144  1.3415 -1.0523
 5887SOL    HW229295   1.586   3.658  10.843  0.3126  0.3772 -0.6310
 5888SOL     OW29296   4.501   1.929  13.421  0.7777  0.0135 -0.1006
 5888SOL    HW129297   4.579   1.923  13.365  1.4773  0.8061  0.7901
 5888SOL    HW229298   4.515   2.015  13.461  1.5960 -0.2992  0.2938
 5889SOL     OW29299   1.162   2.867   2.329  0.5270  0.4772  0.0716
 5889SOL    HW129300   1.245   2.822   2.316 -0.0615 -0.6900  0.3395
 5889SOL    HW229301   1.162   2.864   2.425 -2.6347  0.0712  0.0535
 5890SOL     OW29302   1.105   3.817   9.876  0.5180  0.2398  0.8488
 5890SOL    HW129303   1.133   3.908   9.867 -0.6643  0.5711  0.4930
 5890SOL    HW229304   1.172   3.784   9.935 -0.7689  0.4675  2.4271
 5891SOL     OW29305   0.068   3.927   6.109 -0.4660 -0.3889 -0.2526
 5891SOL    HW129306   0.095   3.837   6.091  1.7793  0.4953 -1.2586
 5891SOL    HW229307   4.716   3.918   6.084 -0.3216  0.2287 -1.0029
 5892SOL     OW29308   2.342   3.545   6.230  0.2280 -0.1034  0.7626
 5892SOL    HW129309   2.322   3.625   6.181 -2.0167 -0.9563  0.2600
 5892SOL    HW229310   2.317   3.475   6.169 -0.2279  0.6725  0.0689
 5893SOL     OW29311   4.443   0.972   4.819  0.3826 -0.3454  0.1062
 5893SOL    HW129312   4.406   1.022   4.746 -2.2557  0.6341  2.0986
 5893SOL    HW229313   4.407   1.026   4.889  0.8104 -1.9912  1.6026
 5894SOL     OW29314   2.846   0.155   1.879 -0.0094  0.2542 -0.0773
 5894SOL    HW129315   2.880   0.239   1.848 -0.7681  1.3799  2.1573
 5894SOL    HW229316   2.762   0.160   1.832 -0.6002 -0.1583  0.9418
 5895SOL     OW29317   1.162   0.700   3.186  0.1527  0.2911 -0.1721
 5895SOL    HW129318   1.210   0.626   3.223 -0.3691  0.1905  0.3142
 5895SOL    HW229319   1.101   0.653   3.129 -0.6582  1.6540 -0.4269
 5896SOL     OW29320   0.374   0.334  17.311  0.3095  0.1652  0.6827
 5896SOL    HW129321   0.391   0.249  17.270 -1.2407  1.2689 -2.1888
 5896SOL    HW229322   0.300   0.305  17.364  0.1766 -3.6411 -1.5822
 5897SOL     OW29323   0.342   1.274  13.658 -0.0186 -0.1480 -0.2684
 5897SOL    HW129324   0.359   1.344  13.720 -0.2691 -0.8822  0.6442
 5897SOL    HW229325   0.364   1.204  13.719  1.0293  1.0760  0.7487
 5898SOL     OW29326   1.797   1.100   2.381  0.1473  0.1671  0.3751
 5898SOL    HW129327   1.790   1.107   2.476 -1.1142  0.9903  0.2257
 5898SOL    HW229328   1.707   1.070   2.367  0.3986  0.2054 -1.3924
 5899SOL     OW29329   3.840   1.472   8.926 -0.2552 -0.2768 -0.4410
 5899SOL    HW129330   3.922   1.422   8.918 -1.3085 -2.3043  1.3627
 5899SOL    HW229331   3.844   1.521   9.008  1.1229 -2.2647  0.6754
 5900SOL     OW29332   0.083   1.135   4.470  0.1682  0.1704  0.1045
 5900SOL    HW129333   0.033   1.071   4.521 -1.2476  1.4229  0.2665
 5900SOL    HW229334   0.157   1.153   4.528  0.4784  0.4956 -0.3885
 5901SOL     OW29335   3.932   2.139  12.058 -0.4468 -0.1263  0.2700
 5901SOL    HW129336   3.949   2.174  12.145 -0.4460 -1.9039  0.9797
 5901SOL    HW229337   3.949   2.209  11.994  0.6251  0.4951  1.2392
 5902SOL     OW29338   2.901   1.243   2.382 -0.2155 -0.8756  0.5066
 5902SOL    HW129339   2.972   1.264   2.442  0.3255 -0.1606 -0.3818
 5902SOL    HW229340   2.885   1.330   2.346 -1.7235 -1.0339  0.8017
 5903SOL     OW29341   4.212   1.890   3.807 -0.5114  0.2388  0.0456
 5903SOL    HW129342   4.188   1.826   3.740 -0.5758 -0.3906  0.6722
 5903SOL    HW229343   4.156   1.859   3.877 -0.9694 -0.9448 -0.8437
 5904SOL     OW29344   3.942   1.902   2.319  0.0069  0.0101  0.3208
 5904SOL    HW129345   3.900   1.938   2.397  0.8008  0.7078  0.4295
 5904SOL    HW229346   3.880   1.927   2.251 -0.2245 -0.0412  0.5132
 5905SOL     OW29347   3.264   1.628   2.892  0.1462  0.5632 -0.3187
 5905SOL    HW129348   3.354   1.618   2.925  0.3976  1.1125 -0.8352
 5905SOL    HW229349   3.255   1.724   2.886  1.4876  0.6492 -1.0767
 5906SOL     OW29350   2.020   0.838  15.935 -0.3544  0.6785 -0.0977
 5906SOL    HW129351   1.999   0.811  15.846  0.3551  2.8876 -0.9389
 5906SOL    HW229352   2.015   0.933  15.923 -0.8862  0.8099  1.1263
 5907SOL     OW29353   3.418   3.398   4.982  0.1676  0.3038  0.1065
 5907SOL    HW129354   3.325   3.399   4.959 -0.0846 -1.5233  1.0833
 5907SOL    HW229355   3.460   3.363   4.903  1.4401 -0.8360  1.2960
 5908SOL     OW29356   2.191   1.231   5.674  0.2232 -0.2265  0.2331
 5908SOL    HW129357   2.285   1.211   5.669  0.3382  0.3808 -0.0094
 5908SOL    HW229358   2.183   1.286   5.596 -2.3925 -1.3718 -0.3111
 5909SOL     OW29359   3.731   2.463  11.146  0.0911 -0.0068 -0.5007
 5909SOL    HW129360   3.700   2.509  11.068  0.9841  0.2427 -0.7191
 5909SOL    HW229361   3.730   2.374  11.110 -1.9768  0.4110 -1.4481
 5910SOL     OW29362   1.416   4.142   5.813  0.1469  0.1504  0.6695
 5910SOL    HW129363   1.438   4.223   5.859  1.3588 -0.6421  1.5007
 5910SOL    HW229364   1.328   4.130   5.847 -0.2382  2.4992  0.5138
 5911SOL     OW29365   2.158   0.205   1.811  0.7613 -0.3890 -0.2002
 5911SOL    HW129366   2.199   0.135   1.761  0.8305 -1.3098  1.1584
 5911SOL    HW229367   2.063   0.195   1.808  0.8002 -0.9555  0.3870
 5912SOL     OW29368   3.098   0.978   7.906  0.0987  0.1584 -0.0714
 5912SOL    HW129369   3.063   0.901   7.862  1.1155 -0.3150 -0.0402
 5912SOL    HW229370   3.026   0.987   7.970 -1.3980 -2.4939 -1.3711
 5913SOL     OW29371   1.906   0.529   4.703 -0.2160  0.3599  0.0914
 5913SOL    HW129372   1.923   0.459   4.766 -3.1231 -0.5178 -0.1092
 5913SOL    HW229373   1.849   0.591   4.751  0.7866  1.5632 -0.2753
 5914SOL     OW29374   0.833   1.577   6.983  0.8316 -0.0486  0.4418
 5914SOL    HW129375   0.743   1.609   6.989  0.2463 -1.6862  0.2761
 5914SOL    HW229376   0.823   1.497   6.932 -1.3372  0.8891 -0.6248
 5915SOL     OW29377   3.953   0.035   8.203 -0.1842 -0.8056 -0.2078
 5915SOL    HW129378   3.979   4.727   8.281 -1.1225 -0.1526  0.5135
 5915SOL    HW229379   3.955   0.129   8.220  1.1720 -1.3210  2.4292
 5916SOL     OW29380   1.277   2.464  17.275 -0.0225  0.4946 -0.0547
 5916SOL    HW129381   1.226   2.542  17.254 -0.2621  0.7242  1.3697
 5916SOL    HW229382   1.238   2.434  17.357  1.7751  0.5714  0.8196
 5917SOL     OW29383   2.386   1.759  13.156  0.3838  0.1819 -0.8556
 5917SOL    HW129384   2.348   1.693  13.214 -1.2643  1.1439 -0.8589
 5917SOL    HW229385   2.319   1.760  13.088 -0.6763  1.1644  0.2007
 5918SOL     OW29386   1.480   2.352   9.257  0.1646 -0.2265  0.3254
 5918SOL    HW129387   1.520   2.295   9.322  1.2354 -0.1438 -0.2630
 5918SOL    HW229388   1.418   2.406   9.307  0.6045  1.1371 -0.5976
 5919SOL     OW29389   0.509   2.884  13.612  0.1726  0.4959 -0.2329
 5919SOL    HW129390   0.551   2.966  13.586 -1.7257  1.0932 -1.4165
 5919SOL    HW229391   0.525   2.877  13.706 -1.9806  0.2584  0.1236
 5920SOL     OW29392   1.770   1.330  17.275  0.5191  0.1904 -0.1976
 5920SOL    HW129393   1.810   1.356  17.192 -1.0832  1.1539 -0.6769
 5920SOL    HW229394   1.823   1.394  17.322 -0.3607 -1.2451  2.7355
 5921SOL     OW29395   1.300   0.363  13.913 -0.2548 -0.1733 -0.1761
 5921SOL    HW129396   1.218   0.412  13.910 -0.4507 -0.7918 -3.6951
 5921SOL    HW229397   1.308   0.374  14.008 -2.6147  2.5948 -0.2865
 5922SOL     OW29398   1.149   1.601   8.770 -0.7590  0.7411 -0.3879
 5922SOL    HW129399   1.099   1.553   8.837 -2.0272  0.4055 -1.5727
 5922SOL    HW229400   1.101   1.563   8.697 -1.7487  0.6000  0.3260
 5923SOL     OW29401   1.865   3.134   4.885  0.3862  0.0217 -0.0477
 5923SOL    HW129402   1.864   3.040   4.871  0.9632  0.4484 -2.8216
 5923SOL    HW229403   1.784   3.152   4.933  0.4215  1.1224 -0.4005
 5924SOL     OW29404   3.820   2.907   5.922  0.4641 -0.4417  0.0505
 5924SOL    HW129405   3.822   2.880   5.830  1.2636 -1.0146  0.2346
 5924SOL    HW229406   3.842   3.000   5.911 -0.1246 -0.1412  1.4464
 5925SOL     OW29407   0.388   4.101   7.132  0.3716  0.4556 -0.2206
 5925SOL    HW129408   0.324   4.038   7.165  1.3286 -0.2219  0.3379
 5925SOL    HW229409   0.323   4.167   7.110 -1.1874 -1.3117 -0.8864
 5926SOL     OW29410   3.004   3.058   7.408 -0.3787  0.3012  0.1121
 5926SOL    HW129411   2.998   3.033   7.316  2.5308  0.6642 -0.1502
 5926SOL    HW229412   3.094   3.046   7.436 -0.9466 -2.5801  0.7425
 5927SOL     OW29413   3.082   1.810   1.543 -0.1374  0.0736 -0.1139
 5927SOL    HW129414   3.085   1.820   1.448 -1.2941 -1.4988 -0.3234
 5927SOL    HW229415   3.007   1.869   1.558  0.2516  0.8431 -1.1572
 5928SOL     OW29416   2.679   0.280  14.771  0.0871 -0.2806  0.1695
 5928SOL    HW129417   2.687   0.190  14.802  0.4258  0.2283  1.5708
 5928SOL    HW229418   2.593   0.269  14.729  0.0861  0.5394 -0.0436
 5929SOL     OW29419   1.056   1.240   8.220 -0.0663  0.1339  0.2553
 5929SOL    HW129420   1.110   1.178   8.169  0.8728 -0.9823  2.6047
 5929SOL    HW229421   0.994   1.269   8.153  1.1837  1.1319 -0.4831
 5930SOL     OW29422   0.840   1.902   5.820 -0.2317  0.3303 -0.1812
 5930SOL    HW129423   0.813   1.909   5.728  1.2391  1.3140 -0.5389
 5930SOL    HW229424   0.834   1.807   5.833 -0.2829  0.5899  1.6071
 5931SOL     OW29425   2.524   1.472   1.614 -0.2608 -0.2365 -0.5371
 5931SOL    HW129426   2.589   1.416   1.656 -1.6580 -0.0346  1.9250
 5931SOL    HW229427   2.588   1.528   1.571 -0.0166 -0.4774 -0.4850
 5932SOL     OW29428   1.689   1.284   8.427  0.5808 -0.6583  0.4076
 5932SOL    HW129429   1.778   1.311   8.403  1.1072  0.3173  3.4714
 5932SOL    HW229430   1.670   1.228   8.351  0.3439  1.2813 -0.9714
 5933SOL     OW29431   4.475   3.007   1.967  0.4353 -0.0433  0.1986
 5933SOL    HW129432   4.443   2.950   2.038 -3.9875  0.1126 -1.6824
 5933SOL    HW229433   4.458   3.094   2.003 -3.7891 -0.5639 -0.5765
 5934SOL     OW29434   2.342   0.195   0.506 -0.7721 -0.2012  0.4749
 5934SOL    HW129435   2.352   0.144   0.425  0.7337 -2.6808  2.2094
 5934SOL    HW229436   2.292   0.273   0.484 -1.7515 -2.3074 -4.8319
 5935SOL     OW29437   1.503   1.538   5.895 -0.3812 -0.3888  0.3304
 5935SOL    HW129438   1.578   1.507   5.845 -0.2820  0.6965 -0.2018
 5935SOL    HW229439   1.536   1.613   5.945  0.6151 -1.4590  1.2840
 5936SOL     OW29440   0.836   3.814  15.500  0.6696 -0.2040 -0.0127
 5936SOL    HW129441   0.828   3.781  15.589 -1.3534 -0.3190 -0.2416
 5936SOL    HW229442   0.883   3.896  15.518 -0.9611  1.0599 -1.4905
 5937SOL     OW29443   4.608   0.589   0.759 -0.2130 -0.1568 -0.6550
 5937SOL    HW129444   4.641   0.507   0.723  2.8133  0.3947  0.8482
 5937SOL    HW229445   4.530   0.601   0.705 -0.3232  3.8362  0.4180
 5938SOL     OW29446   1.101   2.389  16.204  0.0150 -0.0532 -0.2281
 5938SOL    HW129447   1.041   2.423  16.270  0.0425  1.0325 -0.7545
 5938SOL    HW229448   1.052   2.310  16.179 -0.5509 -0.4896  2.3281
 5939SOL     OW29449   0.750   0.485   3.740  0.0314 -0.0231  0.8921
 5939SOL    HW129450   0.784   0.571   3.766  2.1443 -0.9779  1.2739
 5939SOL    HW229451   0.813   0.466   3.671 -1.8656 -1.6634 -0.3551
 5940SOL     OW29452   4.469   2.994   6.588  0.6548 -0.1917  0.1249
 5940SOL    HW129453   4.529   3.056   6.630  0.5198  1.4734 -2.0862
 5940SOL    HW229454   4.421   3.058   6.536 -0.6490 -0.3613  1.1233
 5941SOL     OW29455   4.564   0.503   2.866 -0.0385 -1.0021 -0.1445
 5941SOL    HW129456   4.582   0.558   2.941  3.3952 -1.1486 -0.8286
 5941SOL    HW229457   4.643   0.450   2.852  0.6024 -0.0893  0.0291
 5942SOL     OW29458   1.637   1.327   7.161  0.0954 -0.0349  1.0587
 5942SOL    HW129459   1.588   1.318   7.079 -1.7521 -0.0780  2.1670
 5942SOL    HW229460   1.570   1.353   7.224 -1.4614  3.0284 -1.8820
 5943SOL     OW29461   4.082   1.348   3.223 -0.4056  0.2558  0.8766
 5943SOL    HW129462   4.122   1.281   3.168 -1.5672  1.5703 -1.5673
 5943SOL    HW229463   4.090   1.322   3.315  1.3833  1.5152  1.0773
 5944SOL     OW29464   3.174   2.649   2.309  0.2585 -0.1413  0.3721
 5944SOL    HW129465   3.196   2.741   2.293  1.7530 -0.6430 -0.4513
 5944SOL    HW229466   3.125   2.636   2.228  0.2852  0.8475  0.1916
 5945SOL     OW29467   2.341   3.425  17.554  0.3174 -0.7284 -0.0864
 5945SOL    HW129468   2.277   3.367  17.513 -1.0527  0.9129 -0.2820
 5945SOL    HW229469   2.347   3.494  17.487  0.2874 -0.1837  0.4640
 5946SOL     OW29470   1.532   0.418   4.639 -0.4434  0.4650  0.3423
 5946SOL    HW129471   1.533   0.513   4.624 -0.0610  0.1001 -1.8404
 5946SOL    HW229472   1.488   0.414   4.724 -0.9792  3.6224  0.2075
 5947SOL     OW29473   4.203   3.909   0.227 -0.5143  0.4739 -0.8072
 5947SOL    HW129474   4.124   3.963   0.217 -2.3934 -1.6832  2.5764
 5947SOL    HW229475   4.177   3.819   0.207  0.0619 -0.3334  2.1509
 5948SOL     OW29476   3.281   1.885   7.717 -0.3576 -0.3200 -0.3859
 5948SOL    HW129477   3.186   1.884   7.731 -0.4172  1.1478 -0.7501
 5948SOL    HW229478   3.321   1.850   7.797 -0.3474 -1.1325 -0.7468
 5949SOL     OW29479   1.086   0.749   9.884 -0.3000  0.0222 -0.0087
 5949SOL    HW129480   1.063   0.693   9.810  0.8473  0.6427 -0.8405
 5949SOL    HW229481   1.002   0.749   9.931 -1.5513 -1.3766 -2.2566
 5950SOL     OW29482   0.308   0.321   6.940 -0.3434 -0.2362  0.4848
 5950SOL    HW129483   0.234   0.353   6.991  1.2133  1.2156  1.8590
 5950SOL    HW229484   0.352   0.261   7.001  1.0106  0.1226 -0.1200
 5951SOL     OW29485   3.247   0.995   3.816  0.6660 -0.2020  0.1591
 5951SOL    HW129486   3.214   1.041   3.739  1.5317  0.1182 -0.0093
 5951SOL    HW229487   3.187   0.920   3.818  0.1716  0.1503 -0.9814
 5952SOL     OW29488   3.802   0.223  13.896 -0.1725  0.2595 -0.1373
 5952SOL    HW129489   3.847   0.294  13.850 -0.6933  1.0723  0.5972
 5952SOL    HW229490   3.720   0.271  13.906 -1.7470 -2.9959  2.6278
 5953SOL     OW29491   3.595   1.423   6.200  0.3524  0.0818  0.0342
 5953SOL    HW129492   3.529   1.365   6.237 -0.1257 -0.5709 -1.8182
 5953SOL    HW229493   3.662   1.356   6.189  0.4645  0.4262 -1.3969
 5954SOL     OW29494   3.025   3.201   0.659  0.1584 -0.2561  0.1973
 5954SOL    HW129495   3.049   3.253   0.582  1.4409 -1.5720 -0.2954
 5954SOL    HW229496   3.065   3.118   0.634  0.3297  0.9197 -3.4232
 5955SOL     OW29497   0.589   0.035   6.375 -0.2941 -0.4057 -0.4143
 5955SOL    HW129498   0.597   4.727   6.458 -0.2993 -0.4111 -0.4169
 5955SOL    HW229499   0.677   0.019   6.342 -0.3180  1.2770 -1.2865
 5956SOL     OW29500   1.297   1.882  16.134  0.1754  0.3803  0.4101
 5956SOL    HW129501   1.340   1.841  16.209  0.5722 -1.5384 -0.8540
 5956SOL    HW229502   1.361   1.853  16.069 -0.6542 -0.5762  0.0141
 5957SOL     OW29503   2.706   4.711  15.192 -0.0384 -0.0031  0.0807
 5957SOL    HW129504   2.650   4.699  15.269 -1.1454  3.0809 -0.2863
 5957SOL    HW229505   2.777   0.013  15.240  0.4776  0.9253 -1.5353
 5958SOL     OW29506   1.286   0.772  10.061 -0.0387  0.2548 -0.1738
 5958SOL    HW129507   1.316   0.859  10.038  0.1822  0.3422  0.4322
 5958SOL    HW229508   1.225   0.763   9.988  0.2356 -1.3105 -0.2085
 5959SOL     OW29509   4.439   3.385   2.628  0.0268 -0.3412 -0.1220
 5959SOL    HW129510   4.411   3.473   2.604  0.9947 -0.0367 -0.1241
 5959SOL    HW229511   4.386   3.371   2.707 -0.1683 -0.4649 -0.2739
 5960SOL     OW29512   3.241   3.977   6.566 -0.0295  0.3168  0.1491
 5960SOL    HW129513   3.323   4.023   6.584 -0.3731  1.6267 -1.7026
 5960SOL    HW229514   3.180   4.050   6.556  1.4763  1.4626 -0.6804
 5961SOL     OW29515   4.231   3.488   8.606  0.0354 -0.3628  0.1060
 5961SOL    HW129516   4.306   3.443   8.567 -1.1486 -1.1515 -1.3028
 5961SOL    HW229517   4.177   3.412   8.632 -0.6141  1.0996  2.9967
 5962SOL     OW29518   3.338   2.994  11.758 -0.5278  0.4119 -0.6314
 5962SOL    HW129519   3.353   2.920  11.700  1.2459  0.1803  0.1372
 5962SOL    HW229520   3.327   2.953  11.844  1.1616 -0.8122 -1.0107
 5963SOL     OW29521   3.616   1.645   2.196 -0.0882 -0.1840  0.3843
 5963SOL    HW129522   3.643   1.561   2.234  1.1183 -0.1510 -0.3972
 5963SOL    HW229523   3.538   1.671   2.246 -1.8704  0.0448 -2.5033
 5964SOL     OW29524   2.335   0.548   2.875 -0.5669 -0.4034 -0.1047
 5964SOL    HW129525   2.385   0.629   2.871 -3.0204  1.0062 -1.7575
 5964SOL    HW229526   2.358   0.508   2.791  1.9386 -0.0488  0.4009
 5965SOL     OW29527   3.876   0.835   3.605  0.1094  0.4494 -0.0259
 5965SOL    HW129528   3.860   0.852   3.512  0.3869  1.3569  0.0916
 5965SOL    HW229529   3.834   0.916   3.633  2.6647  0.6533  3.1463
 5966SOL     OW29530   2.178   3.584   5.455 -0.4858  0.8261  0.0395
 5966SOL    HW129531   2.093   3.549   5.482  0.4321 -0.1088  1.7423
 5966SOL    HW229532   2.186   3.539   5.371 -0.7151 -1.7384  1.3680
 5967SOL     OW29533   0.983   2.061   1.353 -0.2959 -0.7807 -0.4647
 5967SOL    HW129534   1.071   2.098   1.358 -0.0072 -1.5142 -0.1220
 5967SOL    HW229535   0.932   2.137   1.325  0.4085 -0.3409 -0.5345
 5968SOL     OW29536   2.599   1.799  11.721 -0.4522  0.2649 -0.0857
 5968SOL    HW129537   2.567   1.784  11.632  0.0309 -3.6876  0.3826
 5968SOL    HW229538   2.652   1.878  11.716 -2.9242  2.1333  2.7531
 5969SOL     OW29539   3.547   2.422   9.588  0.2683 -0.0435  0.0492
 5969SOL    HW129540   3.463   2.377   9.596  0.0212  0.2040 -1.1031
 5969SOL    HW229541   3.513   2.505   9.554 -0.5978  0.1312  1.3463
 5970SOL     OW29542   1.130   0.567   5.390  0.2819 -0.2955 -0.0943
 5970SOL    HW129543   1.106   0.495   5.447 -0.8041 -0.0965 -0.3028
 5970SOL    HW229544   1.062   0.579   5.324  0.5858  0.4791 -0.2732
 5971SOL     OW29545   3.134   1.382   7.202  0.3109 -0.4940 -0.3985
 5971SOL    HW129546   3.224   1.409   7.217  0.1448 -0.4202  0.4324
 5971SOL    HW229547   3.144   1.336   7.118 -1.2662 -1.6786  0.0548
 5972SOL     OW29548   1.936   3.290   4.652  0.1805  0.5067 -0.1057
 5972SOL    HW129549   1.965   3.204   4.621 -2.4506 -0.6647  0.6955
 5972SOL    HW229550   1.911   3.257   4.738 -2.8057  0.3113 -1.0522
 5973SOL     OW29551   1.903   1.974  12.431  0.2038  0.5357 -0.9141
 5973SOL    HW129552   1.963   1.905  12.459  0.2857 -0.2719 -3.0719
 5973SOL    HW229553   1.912   2.036  12.503  0.2983  0.3447 -0.7608
 5974SOL     OW29554   0.823   3.537   9.662  0.1441  0.1845 -0.5627
 5974SOL    HW129555   0.810   3.443   9.647  2.1993 -0.2023  0.0364
 5974SOL    HW229556   0.878   3.527   9.740 -1.2593  0.1116  0.4260
 5975SOL     OW29557   0.569   2.439  16.543 -0.1804 -0.0890 -0.2194
 5975SOL    HW129558   0.474   2.447  16.538  0.0200  2.1567 -0.8148
 5975SOL    HW229559   0.597   2.514  16.596 -1.2412  1.1687 -1.4358
 5976SOL     OW29560   2.942   3.656   2.812 -0.1586 -0.6688 -0.2009
 5976SOL    HW129561   3.008   3.696   2.867 -0.5285  0.3651 -0.5137
 5976SOL    HW229562   2.862   3.682   2.858 -0.3158 -3.6549  1.2074
 5977SOL     OW29563   2.072   1.763  12.536 -0.4373 -0.1929 -0.4121
 5977SOL    HW129564   2.121   1.684  12.510  0.5118  1.0221 -2.2774
 5977SOL    HW229565   2.019   1.727  12.607  0.1951 -1.1500 -0.4206
 5978SOL     OW29566   4.280   4.702   5.083  0.3527  0.1415 -0.0784
 5978SOL    HW129567   4.250   4.730   5.169  0.0923  1.1366 -0.4952
 5978SOL    HW229568   4.372   4.729   5.080  0.2823  0.2822 -0.9705
 5979SOL     OW29569   3.942   0.209   7.479  0.4617  0.1763 -0.1981
 5979SOL    HW129570   3.978   0.224   7.392 -2.1578  1.8762 -0.9849
 5979SOL    HW229571   3.925   0.115   7.484  1.3169  0.2267  3.4105
 5980SOL     OW29572   0.391   1.450  11.950 -0.5671  0.0454  0.1438
 5980SOL    HW129573   0.330   1.519  11.976 -1.1269 -0.1070 -0.7962
 5980SOL    HW229574   0.431   1.422  12.033  3.3188 -2.0043 -2.4246
 5981SOL     OW29575   3.665   2.381   2.765  0.4747 -0.2122 -0.1061
 5981SOL    HW129576   3.701   2.297   2.736 -0.7003 -0.6427 -0.2935
 5981SOL    HW229577   3.741   2.438   2.775 -0.4214  0.2555  3.7850
 5982SOL     OW29578   4.348   3.969   3.299  0.1605  0.1739  0.2041
 5982SOL    HW129579   4.344   3.956   3.204  0.2738 -2.5782  0.5759
 5982SOL    HW229580   4.364   3.880   3.329  0.4526 -1.4241 -4.6369
 5983SOL     OW29581   2.841   0.128   7.586  0.2518  1.2590  0.1270
 5983SOL    HW129582   2.797   0.109   7.503  0.0692  0.1627  0.4670
 5983SOL    HW229583   2.927   0.087   7.572 -0.2048 -1.7492  6.0000
 5984SOL     OW29584   0.874   0.696   7.769 -0.5362  0.7113 -0.0568
 5984SOL    HW129585   0.827   0.735   7.842  0.5173  4.5133 -1.4297
 5984SOL    HW229586   0.865   0.602   7.788  1.2883  0.4886 -0.2334
 5985SOL     OW29587   0.233   4.175   3.292  0.1454  0.0619  0.3224
 5985SOL    HW129588   0.172   4.249   3.289 -1.3511 -1.1616  0.4500
 5985SOL    HW229589   0.296   4.203   3.226  1.1119 -1.1736  0.7324
 5986SOL     OW29590   0.228   3.877   6.559 -0.1119 -0.0427 -0.5644
 5986SOL    HW129591   0.250   3.785   6.572 -1.5545 -0.1538  1.1466
 5986SOL    HW229592   0.279   3.912   6.486 -0.6199  0.6869 -0.5811
 5987SOL     OW29593   4.697   1.421  10.833  0.0348  0.0411 -0.4811
 5987SOL    HW129594   0.046   1.388  10.825  0.9217  2.7503 -1.5568
 5987SOL    HW229595   4.661   1.368  10.905 -0.5110  1.2527  0.1318
 5988SOL     OW29596   4.710   2.206   8.762  0.0780  0.4349 -0.0176
 5988SOL    HW129597   4.716   2.265   8.688  0.0508  2.0687  1.2846
 5988SOL    HW229598   4.675   2.265   8.829 -0.7842 -0.9223  0.7375
 5989SOL     OW29599   0.101   2.434   2.606 -0.6207  0.3315 -0.0711
 5989SOL    HW129600   0.125   2.456   2.515  0.4826 -2.0601 -0.3756
 5989SOL    HW229601   0.133   2.516   2.643 -1.4290  0.9944 -0.8429
 5990SOL     OW29602   1.516   4.247   4.085 -0.0878  0.0845  0.1060
 5990SOL    HW129603   1.487   4.338   4.088 -1.6190 -0.4350  1.2433
 5990SOL    HW229604   1.588   4.252   4.022 -0.9573  1.2518 -0.8038
 5991SOL     OW29605   1.961   0.736   4.156  0.4853  0.2477  0.2055
 5991SOL    HW129606   2.020   0.678   4.109 -0.7490 -1.5313  0.8446
 5991SOL    HW229607   1.882   0.682   4.166  0.4651  0.4716  1.3505
 5992SOL     OW29608   2.691   1.968   2.799  0.0675 -0.4587 -0.7673
 5992SOL    HW129609   2.641   1.946   2.877  0.6719  0.5253 -0.1117
 5992SOL    HW229610   2.685   2.063   2.805 -0.2919 -0.5252 -0.1443
 5993SOL     OW29611   2.245   4.620   3.854 -0.1243  0.0585 -0.2050
 5993SOL    HW129612   2.333   4.584   3.862 -0.1968 -0.3236 -1.1142
 5993SOL    HW229613   2.242   4.630   3.758 -1.7021  0.3640 -0.1265
 5994SOL     OW29614   3.408   2.919   1.792  0.2661  0.2184  0.0398
 5994SOL    HW129615   3.415   3.008   1.756  2.1460  1.0250  2.3599
 5994SOL    HW229616   3.478   2.921   1.858 -1.1680 -0.1784  1.5636
 5995SOL     OW29617   4.583   0.835   0.335  0.2595 -0.1342  0.9848
 5995SOL    HW129618   4.568   0.904   0.400  0.5507 -0.3542  1.2855
 5995SOL    HW229619   4.567   0.890   0.258  1.2479 -0.9332  0.2224
 5996SOL     OW29620   3.213   3.023  15.029  0.2783 -0.0793  0.0929
 5996SOL    HW129621   3.134   3.057  14.987  0.5775 -1.4828 -1.5928
 5996SOL    HW229622   3.241   2.952  14.972 -3.7181 -2.2148  0.7676
 5997SOL     OW29623   1.465   3.949   9.696 -0.1191 -0.4572 -0.1473
 5997SOL    HW129624   1.494   3.915   9.780  0.3799 -3.2524 -1.4700
 5997SOL    HW229625   1.462   4.039   9.728 -0.4262 -0.6378  0.3206
 5998SOL     OW29626   1.991   4.273  15.058  0.4684 -0.5909  0.1005
 5998SOL    HW129627   2.001   4.354  15.008  2.1830 -0.3005  0.9217
 5998SOL    HW229628   2.078   4.259  15.095  0.7829 -1.9476 -1.1751
 5999SOL     OW29629   0.547   2.535   3.029 -0.1488  0.5251 -0.6187
 5999SOL    HW129630   0.463   2.574   3.003 -0.3628 -0.9033 -2.1153
 5999SOL    HW229631   0.596   2.545   2.948  0.0635 -0.6483 -0.6317
 6000SOL     OW29632   2.567   1.088   3.654 -0.4471  0.3281 -0.7576
 6000SOL    HW129633   2.551   1.027   3.582  1.5949 -0.0027 -0.9400
 6000SOL    HW229634   2.659   1.067   3.669 -1.1524 -1.5153  0.9383
 6001SOL     OW29635   3.408   2.968  10.076 -0.6061  1.1493  0.2934
 6001SOL    HW129636   3.484   2.970  10.018 -1.6139 -0.5668 -1.0796
 6001SOL    HW229637   3.454   2.982  10.159  0.1973  0.9868 -0.1301
 6002SOL     OW29638   1.525   1.631   3.777  0.4064  0.0567 -0.2795
 6002SOL    HW129639   1.475   1.560   3.736  0.4987  0.6857 -1.4760
 6002SOL    HW229640   1.467   1.707   3.766 -1.8802 -1.5871  0.2620
 6003SOL     OW29641   4.735   3.594   9.000 -0.1248 -0.2507  0.3230
 6003SOL    HW129642   0.005   3.548   9.083 -0.7504 -0.8026  0.0983
 6003SOL    HW229643   4.640   3.594   9.007 -0.0789 -1.3111  0.9213
 6004SOL     OW29644   3.805   3.673  13.834  0.4017 -0.0601 -0.2777
 6004SOL    HW129645   3.716   3.692  13.864  0.5465  0.7921 -0.4060
 6004SOL    HW229646   3.795   3.706  13.745  3.8597  1.5239 -0.0561
 6005SOL     OW29647   4.612   3.146   7.198  0.0295  0.4001 -0.1600
 6005SOL    HW129648   4.592   3.208   7.128  0.1597  2.1405  1.3649
 6005SOL    HW229649   4.706   3.159   7.198 -0.0478  0.9330  0.2346
 6006SOL     OW29650   2.913   0.546   8.494 -0.0972  0.0925 -0.2611
 6006SOL    HW129651   2.983   0.539   8.559 -0.2660  1.4484  0.0676
 6006SOL    HW229652   2.953   0.492   8.426 -2.1343 -0.6448 -0.8933
 6007SOL     OW29653   3.455   3.473   4.576 -0.5155  0.5026  0.2084
 6007SOL    HW129654   3.401   3.524   4.515  0.2181  1.4627  0.3603
 6007SOL    HW229655   3.412   3.388   4.576 -1.2383  0.8730  0.2411
 6008SOL     OW29656   2.954   0.305   2.396  0.2873 -0.6963 -0.5336
 6008SOL    HW129657   2.993   0.288   2.311 -0.9136 -1.9991 -0.8177
 6008SOL    HW229658   2.927   0.217   2.420  0.9858 -0.8306 -0.2358
 6009SOL     OW29659   0.078   0.513   2.049  0.2226 -0.2343 -0.4694
 6009SOL    HW129660   0.051   0.423   2.031 -3.0045  0.4847  0.7597
 6009SOL    HW229661   0.017   0.545   2.115 -0.0295 -2.2289  0.2583
 6010SOL     OW29662   1.718   2.997   7.460 -0.6908 -0.3781  0.5016
 6010SOL    HW129663   1.703   2.991   7.555 -0.8116 -0.2260  0.4925
 6010SOL    HW229664   1.731   2.907   7.431  0.7652 -0.1888  0.5804
 6011SOL     OW29665   1.388   2.572   5.204  0.2856  0.0296 -0.2006
 6011SOL    HW129666   1.453   2.636   5.234 -0.8197  1.0677  0.0015
 6011SOL    HW229667   1.335   2.627   5.146  1.6710  1.8274  0.2558
 6012SOL     OW29668   4.273   1.223  11.125  0.4575 -0.0819 -0.3286
 6012SOL    HW129669   4.239   1.172  11.199 -0.8197  0.4805 -0.5293
 6012SOL    HW229670   4.228   1.307  11.127 -1.9145 -1.3666  0.4886
 6013SOL     OW29671   3.573   3.751   7.910  0.1699 -0.4951 -0.1356
 6013SOL    HW129672   3.485   3.780   7.886 -0.6466 -1.6669  1.4234
 6013SOL    HW229673   3.628   3.807   7.855 -0.4497  0.4389  0.1982
 6014SOL     OW29674   0.348   2.136   9.052 -0.1749  0.2173  0.9285
 6014SOL    HW129675   0.404   2.145   8.975  1.0382  0.3832  1.8284
 6014SOL    HW229676   0.380   2.059   9.100  3.1665  2.1745  1.8576
 6015SOL     OW29677   1.401   2.239   1.985 -0.2777 -0.1050  0.3375
 6015SOL    HW129678   1.471   2.206   2.042 -0.3260  0.7781  0.8940
 6015SOL    HW229679   1.446   2.235   1.900 -0.7797 -0.9509  0.1162
 6016SOL     OW29680   2.112   3.391   4.949 -0.2140 -0.9695 -0.0166
 6016SOL    HW129681   2.177   3.459   4.934 -2.4375  0.5784 -2.8861
 6016SOL    HW229682   2.173   3.317   4.955  1.6648  0.5635 -0.3082
 6017SOL     OW29683   1.438   2.551   3.749  0.2134  0.1621  0.9501
 6017SOL    HW129684   1.448   2.643   3.728  2.5956 -1.2487 -3.9326
 6017SOL    HW229685   1.409   2.519   3.664 -0.8051  1.0062  0.9837
 6018SOL     OW29686   0.317   2.701  16.647  0.3004 -0.0022  0.0132
 6018SOL    HW129687   0.242   2.732  16.699 -0.4070 -0.0085 -1.0189
 6018SOL    HW229688   0.372   2.778  16.636 -1.2945  1.2785  0.8363
 6019SOL     OW29689   0.141   3.054   4.404 -0.3720  0.2095  0.0843
 6019SOL    HW129690   0.088   2.991   4.453  1.3261 -0.5953  0.8770
 6019SOL    HW229691   0.216   2.998   4.385 -0.2362  0.0582  1.0758
 6020SOL     OW29692   0.826   0.768   1.517 -0.2406  0.0875 -0.1358
 6020SOL    HW129693   0.865   0.855   1.529  1.1769 -0.5707  0.0543
 6020SOL    HW229694   0.865   0.717   1.589  2.5113  2.0105 -0.2516
 6021SOL     OW29695   3.402   3.838   4.552  0.7510  0.6356 -0.5179
 6021SOL    HW129696   3.408   3.859   4.459  1.2332 -0.2808 -0.6933
 6021SOL    HW229697   3.341   3.765   4.544  0.9598  0.4435 -0.3946
 6022SOL     OW29698   4.492   1.285   2.752 -0.7517  0.0086  0.0096
 6022SOL    HW129699   4.453   1.203   2.783  0.2352  0.1528  1.6595
 6022SOL    HW229700   4.577   1.283   2.796 -1.3052 -0.1872  1.0666
 6023SOL     OW29701   0.350   3.865   7.744  0.0037  0.1978 -0.0315
 6023SOL    HW129702   0.278   3.802   7.735  0.3224 -0.1086 -0.4326
 6023SOL    HW229703   0.428   3.810   7.747  1.0730  1.7158 -0.2519
 6024SOL     OW29704   1.140   1.863   1.501  0.3058  0.2764  0.1752
 6024SOL    HW129705   1.067   1.923   1.518  1.2404  1.4904 -0.0642
 6024SOL    HW229706   1.097   1.783   1.530  0.7719 -0.6504 -1.6969
 6025SOL     OW29707   2.520   3.903   1.596 -0.3675 -0.2735 -0.1837
 6025SOL    HW129708   2.587   3.901   1.528  0.2634 -0.8131  0.4558
 6025SOL    HW229709   2.516   3.993   1.629 -0.7535 -0.1547 -0.5531
 6026SOL     OW29710   0.893   0.422   2.089 -0.0445 -0.1557 -0.5953
 6026SOL    HW129711   0.903   0.500   2.034  2.3134  0.7983  1.2235
 6026SOL    HW229712   0.888   0.352   2.023 -0.9415 -1.5101  0.8922
 6027SOL     OW29713   2.595   4.530   1.692 -0.3776  0.3201  0.5306
 6027SOL    HW129714   2.672   4.529   1.749  0.2510  0.0950 -0.3172
 6027SOL    HW229715   2.636   4.577   1.620 -0.9810  1.5092  0.9605
 6028SOL     OW29716   0.026   2.260   2.807  0.1438 -0.5976  0.1435
 6028SOL    HW129717   0.020   2.195   2.737  0.1695  1.8262 -2.0793
 6028SOL    HW229718   0.062   2.328   2.751 -0.6115 -0.2946  0.0259
 6029SOL     OW29719   0.375   1.073  13.834 -0.0071 -0.5422 -0.1388
 6029SOL    HW129720   0.297   1.020  13.847 -1.2215  0.2817 -3.9723
 6029SOL    HW229721   0.399   1.079  13.926 -0.0276 -0.8390 -0.1153
 6030SOL     OW29722   3.510   0.893   3.446  0.5102 -0.0823 -0.1194
 6030SOL    HW129723   3.494   0.843   3.366 -0.0377 -0.4963  0.2506
 6030SOL    HW229724   3.533   0.825   3.509 -2.1461 -1.7925 -0.9900
 6031SOL     OW29725   0.707   1.835  12.967  0.3229  0.2280  0.5361
 6031SOL    HW129726   0.618   1.869  12.963  0.5792  0.3973 -3.8561
 6031SOL    HW229727   0.745   1.917  12.934  1.3383 -0.1028  0.8826
 6032SOL     OW29728   4.060   1.558  14.604 -0.8777 -0.0353 -0.3839
 6032SOL    HW129729   4.139   1.552  14.657  1.1998 -1.5139 -3.6572
 6032SOL    HW229730   4.079   1.487  14.543  0.2794 -1.5105  1.6797
 6033SOL     OW29731   1.753   0.516   5.859  0.1148 -0.3721  0.4721
 6033SOL    HW129732   1.831   0.461   5.856 -0.0198 -0.5646  0.4814
 6033SOL    HW229733   1.696   0.468   5.918  1.2145 -2.0747  0.1588
 6034SOL     OW29734   0.267   0.664   6.722 -0.2362  0.2220 -0.3062
 6034SOL    HW129735   0.312   0.656   6.638  0.6077 -0.5634  0.2219
 6034SOL    HW229736   0.185   0.620   6.702 -0.0998  0.3165 -1.0624
 6035SOL     OW29737   0.188   2.223   7.439  0.2034 -0.5231 -0.2749
 6035SOL    HW129738   0.198   2.313   7.471  1.3131 -0.0792 -1.8424
 6035SOL    HW229739   0.123   2.195   7.503  0.3243  0.3055  0.2126
 6036SOL     OW29740   3.125   1.377   6.081  0.6996  0.0170  0.5569
 6036SOL    HW129741   3.127   1.335   5.995 -1.2090  0.1413  0.4614
 6036SOL    HW229742   3.217   1.400   6.097  0.7685  1.2476 -1.6086
 6037SOL     OW29743   0.562   0.835   1.872 -0.0381 -0.3448  0.6787
 6037SOL    HW129744   0.546   0.785   1.951  0.1810 -0.4663  0.6454
 6037SOL    HW229745   0.487   0.818   1.814 -1.6112 -0.7719  2.8654
 6038SOL     OW29746   1.704   2.255  14.932  0.4714  0.6296  0.3740
 6038SOL    HW129747   1.773   2.269  14.867  0.6407 -2.9901 -0.1892
 6038SOL    HW229748   1.682   2.342  14.967 -3.4822  0.6781 -2.3230
 6039SOL     OW29749   3.949   3.743   6.420 -0.1764 -0.3985  0.5539
 6039SOL    HW129750   3.916   3.808   6.482 -0.7846 -0.3423  0.1769
 6039SOL    HW229751   3.930   3.786   6.336 -0.3055  3.3319  2.4918
 6040SOL     OW29752   1.789   0.449   5.287 -0.5296 -0.0825  0.3708
 6040SOL    HW129753   1.727   0.519   5.307 -1.5064 -1.0768  0.8163
 6040SOL    HW229754   1.851   0.492   5.229 -1.8041  0.6129 -0.4811
 6041SOL     OW29755   0.898   1.394   8.027  0.0551  0.5455  0.6824
 6041SOL    HW129756   0.908   1.449   7.949 -1.1525 -0.8805 -0.4921
 6041SOL    HW229757   0.842   1.449   8.082 -0.8793  1.8375 -1.5169
 6042SOL     OW29758   2.853   4.467   4.075 -0.1805 -0.3225 -0.5770
 6042SOL    HW129759   2.870   4.375   4.096  1.9057  0.0738 -0.5439
 6042SOL    HW229760   2.774   4.482   4.126  0.7513  1.3531  0.3896
 6043SOL     OW29761   2.090   1.586   7.550 -0.1189  0.8352  0.3667
 6043SOL    HW129762   2.023   1.647   7.582 -1.0497  0.5409 -1.0404
 6043SOL    HW229763   2.173   1.613   7.589 -0.8138  1.3761  1.4771
 6044SOL     OW29764   2.165   2.799   2.966  0.0086 -0.6533  0.2559
 6044SOL    HW129765   2.163   2.704   2.954 -0.4290 -0.8145  1.6280
 6044SOL    HW229766   2.206   2.803   3.053  0.3536  1.5713 -0.0241
 6045SOL     OW29767   0.256   0.892   4.851 -0.5374 -0.0230 -0.4478
 6045SOL    HW129768   0.262   0.860   4.942  0.3997 -0.6556 -0.7327
 6045SOL    HW229769   0.181   0.948   4.872  0.1894  0.5927  0.5351
 6046SOL     OW29770   4.092   3.991  17.023  0.5623 -0.3869  0.4532
 6046SOL    HW129771   4.056   4.078  17.039  0.9817  0.0104 -0.7367
 6046SOL    HW229772   4.072   3.935  17.098  0.9578  0.0580  0.8869
 6047SOL     OW29773   1.490   0.067   2.393  0.0705  0.1290  0.5005
 6047SOL    HW129774   1.510   4.728   2.443  3.3213  1.0052  0.5655
 6047SOL    HW229775   1.425   0.108   2.450  0.0951  0.2547  0.4362
 6048SOL     OW29776   2.705   3.060   3.967 -0.0201 -0.3855 -0.7477
 6048SOL    HW129777   2.615   3.088   3.985  0.6074 -0.2215  2.1367
 6048SOL    HW229778   2.702   3.048   3.872  1.7170  0.4175 -0.9108
 6049SOL     OW29779   1.639   3.410   7.049  0.3562  0.1823 -0.5178
 6049SOL    HW129780   1.693   3.435   6.974  0.6296  0.7571 -0.1307
 6049SOL    HW229781   1.661   3.478   7.113  2.0012 -1.7746  1.0027
 6050SOL     OW29782   1.911   0.277   3.153  0.3313 -0.3514  0.6711
 6050SOL    HW129783   1.999   0.287   3.115 -0.0731 -2.9465 -0.9540
 6050SOL    HW229784   1.894   0.191   3.114 -0.3514  0.1137 -0.0489
 6051SOL     OW29785   1.343   3.785   2.210  0.2746 -0.3823 -0.0146
 6051SOL    HW129786   1.369   3.876   2.223 -3.2998  0.3588  1.8112
 6051SOL    HW229787   1.310   3.792   2.120  0.8628 -0.4863 -0.2395
 6052SOL     OW29788   3.698   0.158  15.949  0.0215  0.4781 -0.1181
 6052SOL    HW129789   3.726   0.212  15.875  1.2176 -1.9117 -1.4048
 6052SOL    HW229790   3.603   0.171  15.948  0.2024  1.6610 -2.1656
 6053SOL     OW29791   0.421   2.446   5.977  0.5536  0.2227 -0.0297
 6053SOL    HW129792   0.473   2.431   5.898  0.7907  1.9637 -0.2103
 6053SOL    HW229793   0.334   2.467   5.944  0.4814 -2.8687 -1.7640
 6054SOL     OW29794   3.310   2.162  11.240 -0.0247  0.2185 -0.1618
 6054SOL    HW129795   3.236   2.154  11.300  2.1380 -1.2561  2.3530
 6054SOL    HW229796   3.319   2.257  11.246 -1.1651  0.4529 -2.2459
 6055SOL     OW29797   2.467   1.987   3.708 -0.4310 -0.2927  0.1605
 6055SOL    HW129798   2.556   1.952   3.702 -0.5858 -0.6351 -0.2209
 6055SOL    HW229799   2.443   1.950   3.793 -1.8737  0.6134  0.1485
 6056SOL     OW29800   0.797   1.508  16.520  0.2010  0.1129 -0.3437
 6056SOL    HW129801   0.736   1.581  16.509 -1.8698 -1.6630 -0.5623
 6056SOL    HW229802   0.769   1.447  16.451  0.2657 -1.6946  1.2385
 6057SOL     OW29803   0.218   3.540   9.555 -0.2215 -0.1694 -0.6231
 6057SOL    HW129804   0.272   3.592   9.495  1.0944 -1.0791 -0.2423
 6057SOL    HW229805   0.150   3.605   9.566 -2.3978 -2.3029 -1.4671
 6058SOL     OW29806   0.299   3.732   7.306 -0.1350 -0.2131  0.1356
 6058SOL    HW129807   0.228   3.786   7.340 -1.5471  0.1443 -3.3920
 6058SOL    HW229808   0.305   3.675   7.383 -0.9182 -1.3773 -0.6585
 6059SOL     OW29809   1.905   0.316   7.980  0.1071 -0.7122 -0.5804
 6059SOL    HW129810   1.953   0.366   7.914  4.2207  1.1479  3.8048
 6059SOL    HW229811   1.973   0.252   8.000  1.7810  1.3343  0.2172
 6060SOL     OW29812   1.236   2.174   5.969  0.1958 -0.7225 -0.2962
 6060SOL    HW129813   1.226   2.162   6.064  3.0804  0.6405  0.1865
 6060SOL    HW229814   1.185   2.100   5.937  1.8195 -1.3887 -1.3673
 6061SOL     OW29815   0.641   3.099   7.563  0.4059  0.2611  0.8469
 6061SOL    HW129816   0.627   3.106   7.658  1.1377 -1.3300  1.0744
 6061SOL    HW229817   0.551   3.123   7.541 -0.3783 -1.9475  1.5953
 6062SOL     OW29818   0.498   3.450  10.695 -0.5350  0.1327 -0.3885
 6062SOL    HW129819   0.439   3.440  10.620 -0.4687 -0.4086 -0.3624
 6062SOL    HW229820   0.579   3.475  10.649 -1.6142  2.1366 -1.2437
 6063SOL     OW29821   3.166   2.953   9.953 -0.0117 -0.1671 -0.2036
 6063SOL    HW129822   3.122   2.997  10.026  0.3490  0.1997 -0.2112
 6063SOL    HW229823   3.244   2.930  10.003 -1.3016 -0.2548  1.7747
 6064SOL     OW29824   3.081   4.532   5.309  0.1753  0.4213 -0.1808
 6064SOL    HW129825   3.108   4.586   5.235  1.1299  2.0175  1.3579
 6064SOL    HW229826   2.999   4.487   5.289 -1.1377  2.6179  0.2796
 6065SOL     OW29827   1.253   1.357   1.493 -0.6947  0.0363  0.0220
 6065SOL    HW129828   1.207   1.307   1.425  2.0301 -0.8959 -1.1011
 6065SOL    HW229829   1.330   1.375   1.440  0.1709 -3.5379  0.1371
 6066SOL     OW29830   4.569   4.663   3.313 -0.4859  0.2370  0.2327
 6066SOL    HW129831   4.630   4.617   3.370 -0.6105 -1.5425 -1.0473
 6066SOL    HW229832   4.621   4.674   3.233  2.3542 -3.1646  1.5909
 6067SOL     OW29833   4.600   0.278  16.956  0.0605  0.0597 -0.1786
 6067SOL    HW129834   4.639   0.362  16.933  0.8637 -1.2720 -3.5563
 6067SOL    HW229835   4.507   0.299  16.965  0.0343 -0.1435  0.0465
 6068SOL     OW29836   0.805   0.326  11.577 -0.0564  0.4673 -0.2734
 6068SOL    HW129837   0.794   0.419  11.555  0.0726  0.4755 -0.3029
 6068SOL    HW229838   0.716   0.294  11.564  0.4247 -0.4579 -1.3068
 6069SOL     OW29839   1.076   3.486   3.803 -0.6048  0.0589  0.2154
 6069SOL    HW129840   1.033   3.401   3.818  0.2381 -0.9244 -3.0037
 6069SOL    HW229841   1.084   3.483   3.708  0.9763  0.3367  0.3399
 6070SOL     OW29842   0.557   3.403   7.593 -0.6779  0.1259  0.6258
 6070SOL    HW129843   0.607   3.379   7.515  0.3956  0.9300  1.0747
 6070SOL    HW229844   0.618   3.467   7.630  0.2025 -0.2613 -0.1594
 6071SOL     OW29845   4.644   0.636  13.029  1.3490 -0.2437  0.1212
 6071SOL    HW129846   4.735   0.624  13.001  2.3999  1.1068  2.9292
 6071SOL    HW229847   4.610   0.602  12.947 -0.1941  2.4212 -0.3167
 6072SOL     OW29848   4.042   3.409   4.863 -0.1220  0.3755  0.1839
 6072SOL    HW129849   3.966   3.466   4.849 -0.5093  0.1736  1.4987
 6072SOL    HW229850   4.114   3.472   4.862 -0.4663  0.7730  0.7557
 6073SOL     OW29851   2.549   1.489   2.763 -0.7186  0.2172 -0.4484
 6073SOL    HW129852   2.509   1.424   2.821 -1.0693 -1.1318 -2.1726
 6073SOL    HW229853   2.497   1.566   2.784 -1.0803  0.2807 -1.5920
 6074SOL     OW29854   1.816   0.928  14.010 -0.6048  0.2512  0.1272
 6074SOL    HW129855   1.911   0.923  14.020 -0.6353  0.2878  0.4519
 6074SOL    HW229856   1.807   0.954  13.919 -0.8023  0.0913  0.1008
 6075SOL     OW29857   1.833   0.907   7.256  0.2885  0.4236 -0.5219
 6075SOL    HW129858   1.746   0.871   7.271  1.2117 -1.3124  0.7313
 6075SOL    HW229859   1.860   0.929   7.346  0.7699  1.8942 -1.0189
 6076SOL     OW29860   4.515   0.550  12.794  0.6249  0.8978 -0.7937
 6076SOL    HW129861   4.594   0.519  12.750 -0.1502  1.3955 -2.5123
 6076SOL    HW229862   4.468   0.470  12.817  0.1216  1.0016 -1.4834
 6077SOL     OW29863   3.369   2.629   4.992 -0.6196  0.3899 -0.9938
 6077SOL    HW129864   3.339   2.547   4.954 -2.6351  0.2943  0.8308
 6077SOL    HW229865   3.305   2.655   5.058  0.0375 -0.9148  0.1738
 6078SOL     OW29866   0.563   2.692  17.086 -0.4653  0.2254  0.0622
 6078SOL    HW129867   0.514   2.773  17.097  0.9588  0.8208  1.9765
 6078SOL    HW229868   0.500   2.633  17.044  0.6086 -0.3703 -0.7192
 6079SOL     OW29869   3.317   2.647   3.790 -0.3979 -0.8279 -0.0687
 6079SOL    HW129870   3.397   2.671   3.838  0.2593 -0.8132 -1.1668
 6079SOL    HW229871   3.347   2.662   3.700 -0.0919 -2.9098 -0.3066
 6080SOL     OW29872   4.549   0.411   7.013 -0.1314  0.0787  0.3900
 6080SOL    HW129873   4.494   0.341   6.980  1.0046 -0.8632  0.5111
 6080SOL    HW229874   4.522   0.413   7.105  0.9565  3.8358  0.6594
 6081SOL     OW29875   0.433   4.713  16.230 -0.0485  0.1007  0.0339
 6081SOL    HW129876   0.380   4.651  16.281  1.8334 -1.0432  0.5660
 6081SOL    HW229877   0.403   4.695  16.141  3.2837 -0.7778 -0.9117
 6082SOL     OW29878   3.991   4.627   0.858 -0.1642 -0.2622 -0.0762
 6082SOL    HW129879   3.900   4.649   0.880  0.5499  1.1056  1.4445
 6082SOL    HW229880   4.004   4.570   0.934 -2.4602  0.0527  0.5537
 6083SOL     OW29881   3.011   0.637  13.214 -0.9040  0.2460  0.5093
 6083SOL    HW129882   3.000   0.596  13.300 -1.9784  0.1497  0.3244
 6083SOL    HW229883   2.937   0.697  13.207 -1.2954 -0.0417  2.0910
 6084SOL     OW29884   0.233   0.263   8.179  0.4477 -0.0467  0.0977
 6084SOL    HW129885   0.313   0.263   8.128  1.4772 -0.9364  1.6931
 6084SOL    HW229886   0.248   0.198   8.248  2.3300 -0.4942 -0.7391
 6085SOL     OW29887   0.114   0.131   6.567 -0.1582  0.3111 -0.4450
 6085SOL    HW129888   0.056   0.167   6.499 -1.4372 -0.7239  0.0884
 6085SOL    HW229889   0.051   0.122   6.639 -0.4993  0.1661 -0.7582
 6086SOL     OW29890   2.747   4.454   9.643 -0.6056 -0.3217 -0.1000
 6086SOL    HW129891   2.706   4.540   9.652  1.1585  0.5215 -0.2114
 6086SOL    HW229892   2.757   4.425   9.733  1.1897 -0.0576 -0.2263
 6087SOL     OW29893   1.776   3.554   7.241 -0.1208 -0.3646  0.1969
 6087SOL    HW129894   1.832   3.611   7.294 -1.6982  2.7401 -1.4836
 6087SOL    HW229895   1.724   3.508   7.307  1.2343 -2.5266 -0.2448
 6088SOL     OW29896   1.124   1.903  16.520 -0.0169 -0.2580 -0.4039
 6088SOL    HW129897   1.039   1.942  16.541  0.2084 -2.3553  4.3474
 6088SOL    HW229898   1.099   1.817  16.486  1.2320 -0.7690 -0.0237
 6089SOL     OW29899   1.795   2.278   4.907 -0.2367 -0.6385  0.0142
 6089SOL    HW129900   1.794   2.245   4.997 -1.7600  0.9849  0.5976
 6089SOL    HW229901   1.704   2.305   4.893  0.0040  0.9074  1.3470
 6090SOL     OW29902   1.327   4.312  10.975  0.1539  0.0753  0.0670
 6090SOL    HW129903   1.372   4.322  11.059  1.4004  3.1216 -0.9170
 6090SOL    HW229904   1.266   4.386  10.964  0.5816  0.4612  0.2579
 6091SOL     OW29905   3.676   3.129   8.088 -0.3240 -0.3984  0.1798
 6091SOL    HW129906   3.747   3.087   8.038 -0.4303 -0.5418  0.1521
 6091SOL    HW229907   3.596   3.109   8.041  1.7045 -0.4264 -3.2966
 6092SOL     OW29908   1.395   0.056  14.894 -0.2545  0.2606  0.0901
 6092SOL    HW129909   1.469   0.039  14.835 -0.0488 -2.8006  1.1908
 6092SOL    HW229910   1.439   0.033  14.976  0.6146 -2.9781 -1.2881
 6093SOL     OW29911   2.675   0.017   7.399 -1.0924  0.9958  0.3724
 6093SOL    HW129912   2.627   0.085   7.351 -1.1624 -0.0161 -1.0025
 6093SOL    HW229913   2.694   4.703   7.322  0.6658  0.9066  0.8741
 6094SOL     OW29914   4.097   4.258   5.740 -0.0943 -0.1002 -0.0379
 6094SOL    HW129915   4.057   4.200   5.675  0.7690  0.5368 -1.1319
 6094SOL    HW229916   4.036   4.237   5.810  0.9311  0.0429  0.8946
 6095SOL     OW29917   0.249   0.923   0.523 -0.5846 -0.0053  0.3319
 6095SOL    HW129918   0.297   0.949   0.602  1.7811 -0.0724 -1.0567
 6095SOL    HW229919   0.192   0.851   0.549 -1.9223  0.9489  0.0144
 6096SOL     OW29920   1.128   0.142   5.678 -0.0827 -0.1515  0.0912
 6096SOL    HW129921   1.096   0.066   5.727  0.5046 -1.4188 -1.4644
 6096SOL    HW229922   1.222   0.138   5.699  0.1654  2.6650 -0.5511
 6097SOL     OW29923   4.439   1.405   5.725 -0.7057 -0.4591 -0.1318
 6097SOL    HW129924   4.445   1.316   5.691 -1.3619 -0.8420  0.7493
 6097SOL    HW229925   4.527   1.440   5.712 -0.8882 -0.4409 -1.3430
 6098SOL     OW29926   1.750   2.068   4.081  0.0907 -0.5903  0.1398
 6098SOL    HW129927   1.672   2.017   4.059 -0.1192  0.1655 -0.8882
 6098SOL    HW229928   1.798   2.005   4.134  0.2728  0.0774  0.7757
 6099SOL     OW29929   2.742   2.591   8.978  0.0675 -0.1620  0.3637
 6099SOL    HW129930   2.783   2.593   8.891 -1.3582 -0.1209 -0.3114
 6099SOL    HW229931   2.820   2.570   9.030 -0.1974  0.6671  1.0944
 6100SOL     OW29932   0.631   3.175  15.967 -0.0349 -0.2399  0.5698
 6100SOL    HW129933   0.610   3.183  16.060 -2.1814 -1.1936  0.1763
 6100SOL    HW229934   0.649   3.082  15.953  1.5628  0.1165  0.3296
 6101SOL     OW29935   4.584   2.374   8.361 -0.0979 -0.0467 -0.4658
 6101SOL    HW129936   4.500   2.379   8.406  0.4004  0.4091  0.4019
 6101SOL    HW229937   4.565   2.348   8.271 -0.4456  1.4184 -0.8133
 6102SOL     OW29938   4.478   2.617   7.051 -0.2483  0.1852  0.0125
 6102SOL    HW129939   4.466   2.706   7.083 -0.0001  0.0913  0.3721
 6102SOL    HW229940   4.506   2.580   7.135  1.3290  0.0951 -0.5394
 6103SOL     OW29941   3.408   1.789   3.728  0.4906 -0.1218  0.0729
 6103SOL    HW129942   3.347   1.740   3.673  0.6552  1.4886 -1.5550
 6103SOL    HW229943   3.490   1.741   3.732 -0.8406 -2.1609  3.0475
 6104SOL     OW29944   3.916   0.675   7.793 -0.5854 -0.1587 -0.7219
 6104SOL    HW129945   3.965   0.706   7.869  1.5003 -0.1377 -2.0720
 6104SOL    HW229946   3.949   0.585   7.790 -0.9242 -0.2527 -1.6358
 6105SOL     OW29947   3.932   0.731  16.387  0.2441 -0.0397  0.4763
 6105SOL    HW129948   3.922   0.746  16.293 -0.7420 -0.2419  0.5489
 6105SOL    HW229949   3.980   0.648  16.387  2.1638  1.0663 -0.3740
 6106SOL     OW29950   0.334   2.040   1.988  0.5031  0.0775  0.0209
 6106SOL    HW129951   0.306   1.956   2.024 -0.1937  0.4346  0.3031
 6106SOL    HW229952   0.346   2.093   2.067  0.8812  1.7288 -1.1376
 6107SOL     OW29953   0.956   1.473   0.486 -0.0013 -0.7776  0.6666
 6107SOL    HW129954   1.048   1.497   0.472 -0.0181 -0.6247  0.8192
 6107SOL    HW229955   0.954   1.387   0.445 -2.5867 -0.2243 -0.3929
 6108SOL     OW29956   1.375   1.755  12.876  0.7337  0.4133  0.0785
 6108SOL    HW129957   1.357   1.717  12.790  0.4374  2.6923 -0.8672
 6108SOL    HW229958   1.316   1.830  12.881  0.7266  0.5673 -1.9389
 6109SOL     OW29959   4.400   1.317  12.981 -0.1380  0.9142  0.9563
 6109SOL    HW129960   4.457   1.244  13.005  2.5871  2.0623 -2.1577
 6109SOL    HW229961   4.341   1.271  12.920  0.3279 -0.6466  1.6915
 6110SOL     OW29962   1.548   0.435   8.241 -0.4297 -0.0433  0.3759
 6110SOL    HW129963   1.616   0.470   8.298 -0.5324 -0.9096  1.0381
 6110SOL    HW229964   1.592   0.352   8.224  0.3486  0.0786  1.8683
 6111SOL     OW29965   1.789   4.235   5.577 -0.3115 -0.3612  0.4779
 6111SOL    HW129966   1.883   4.255   5.569 -0.2199 -0.9185  0.1783
 6111SOL    HW229967   1.743   4.311   5.542  1.1228  0.7033  0.9016
 6112SOL     OW29968   1.116   1.510   9.937  0.1815 -0.3861 -0.3036
 6112SOL    HW129969   1.064   1.430   9.937  2.1493 -1.6636 -2.1629
 6112SOL    HW229970   1.064   1.569   9.883 -2.2706 -1.3255  1.0527
 6113SOL     OW29971   0.864   1.727   7.681 -0.1438 -0.0895 -1.0960
 6113SOL    HW129972   0.855   1.773   7.765 -0.8660 -0.6951 -0.8449
 6113SOL    HW229973   0.781   1.680   7.684  0.0961 -0.4595 -0.2451
 6114SOL     OW29974   4.213   2.269   3.402 -0.5312 -0.9794 -0.1792
 6114SOL    HW129975   4.251   2.213   3.334  0.3166 -0.8943  0.2306
 6114SOL    HW229976   4.230   2.209   3.474 -0.4106 -1.9571 -1.0267
 6115SOL     OW29977   3.785   0.622   5.054  0.2926 -0.5080  1.0865
 6115SOL    HW129978   3.739   0.603   5.136 -0.4190 -0.5010  0.6876
 6115SOL    HW229979   3.756   0.560   4.987  2.6949 -1.6123  1.0469
 6116SOL     OW29980   0.062   3.056   6.432  0.8392 -0.4415 -0.2721
 6116SOL    HW129981   0.002   3.059   6.506  2.5937 -0.5801  1.1705
 6116SOL    HW229982   0.039   3.136   6.385 -0.0420  0.3399  1.4885
 6117SOL     OW29983   4.087   0.429   5.754 -0.3903  0.7686 -0.8730
 6117SOL    HW129984   4.081   0.520   5.782  2.4420  0.4295  0.8419
 6117SOL    HW229985   4.036   0.439   5.673 -0.8250  1.7231 -0.4841
 6118SOL     OW29986   3.440   1.617  11.115  0.3437  0.3907  0.2883
 6118SOL    HW129987   3.421   1.704  11.149  0.5992  1.1700 -1.5567
 6118SOL    HW229988   3.534   1.617  11.131  0.4203 -0.3113 -0.1624
 6119SOL     OW29989   1.111   1.934   2.931  0.7120 -0.1803  0.4748
 6119SOL    HW129990   1.097   1.894   2.846 -1.5469 -1.7289  1.5728
 6119SOL    HW229991   1.020   1.926   2.962  0.6975  0.0871  0.5044
 6120SOL     OW29992   0.162   4.071   4.461 -0.3383 -0.5832 -0.4053
 6120SOL    HW129993   0.105   4.003   4.426 -0.8257  0.6976 -2.0988
 6120SOL    HW229994   0.101   4.143   4.477 -1.0230 -1.1992 -0.2607
 6121SOL     OW29995   2.150   2.175   4.500 -0.1100 -0.1447 -1.1107
 6121SOL    HW129996   2.131   2.114   4.429  0.4963 -1.2667 -0.3097
 6121SOL    HW229997   2.068   2.156   4.546  1.4532 -1.3151  1.2006
 6122SOL     OW29998   0.362   0.446  12.816  0.5135 -1.1341 -0.4280
 6122SOL    HW129999   0.328   0.478  12.732 -1.0099  0.0164  0.6298
 6122SOL    HW230000   0.446   0.414  12.785  0.7868 -1.0075  0.1758
 6123SOL     OW30001   4.066   2.233   7.812 -0.1116 -0.2986 -0.2713
 6123SOL    HW130002   4.034   2.293   7.880  2.6151  0.2634  0.5226
 6123SOL    HW230003   3.998   2.248   7.747  0.7591 -0.5339 -1.2469
 6124SOL     OW30004   3.548   0.433   1.668  0.1243 -0.1134 -0.8627
 6124SOL    HW130005   3.579   0.475   1.588 -1.3143  0.7418 -0.9730
 6124SOL    HW230006   3.473   0.484   1.699 -1.5327 -1.8310 -2.0316
 6125SOL     OW30007   4.721   0.208   2.044 -0.4277  0.6670  0.4274
 6125SOL    HW130008   0.012   0.139   1.987 -0.7598  1.4051 -0.6599
 6125SOL    HW230009   4.647   0.155   2.075 -0.5920  1.2396  1.0220
 6126SOL     OW30010   1.398   1.597  17.232 -0.2576 -0.1588 -0.8222
 6126SOL    HW130011   1.458   1.578  17.161  0.8828 -0.8926  0.3307
 6126SOL    HW230012   1.419   1.522  17.288 -1.7335 -0.1555 -0.2424
 6127SOL     OW30013   2.584   2.322   5.187  0.4799  0.1280 -0.2025
 6127SOL    HW130014   2.489   2.327   5.176  0.1652 -1.9901  1.4567
 6127SOL    HW230015   2.607   2.397   5.132 -1.0277  1.6002  1.1600
 6128SOL     OW30016   1.097   0.454   8.757 -0.1231 -0.2405 -0.1590
 6128SOL    HW130017   1.064   0.543   8.768  2.5509  0.7653 -0.2192
 6128SOL    HW230018   1.068   0.420   8.672 -1.8938 -1.0270  0.7577
 6129SOL     OW30019   0.414   0.753   0.988 -0.1904 -0.6507 -0.4212
 6129SOL    HW130020   0.389   0.679   0.932 -0.4216 -0.9760  0.1125
 6129SOL    HW230021   0.444   0.810   0.918 -0.8610 -0.8918 -0.9011
 6130SOL     OW30022   2.020   0.695   1.594  0.2495  0.2206  0.4099
 6130SOL    HW130023   1.939   0.663   1.635  0.5972  0.0639  0.9807
 6130SOL    HW230024   2.083   0.629   1.623 -0.4848  0.1217  1.7685
 6131SOL     OW30025   0.259   3.058   7.386 -0.0963 -0.2615  0.2459
 6131SOL    HW130026   0.301   3.051   7.472  0.3946 -2.5553 -0.1975
 6131SOL    HW230027   0.297   2.985   7.338  0.9199  1.4554 -1.5845
 6132SOL     OW30028   1.862   2.701   6.526  0.0819  0.5756 -0.3242
 6132SOL    HW130029   1.923   2.762   6.484  0.0320  1.4348  0.8352
 6132SOL    HW230030   1.788   2.712   6.466 -0.3823 -0.6124  0.0288
 6133SOL     OW30031   0.406   4.045   8.116  0.3725 -0.3512 -0.2228
 6133SOL    HW130032   0.502   4.038   8.119  0.4501 -0.1242 -2.8346
 6133SOL    HW230033   0.372   3.962   8.149 -2.0691  0.6306 -0.2685
 6134SOL     OW30034   3.125   4.522   1.000  0.0903 -0.8875  0.0677
 6134SOL    HW130035   3.117   4.603   1.050 -0.6198 -0.5439 -0.6055
 6134SOL    HW230036   3.124   4.460   1.073 -1.1676 -1.4688 -0.4446
 6135SOL     OW30037   4.192   2.479   6.100 -0.1216  0.3901 -0.2577
 6135SOL    HW130038   4.202   2.387   6.078 -0.7779  0.4627 -0.8328
 6135SOL    HW230039   4.119   2.502   6.044  0.1241  0.6021 -0.4929
 6136SOL     OW30040   2.202   0.324   8.786 -0.3545 -0.2758  0.0743
 6136SOL    HW130041   2.135   0.366   8.839  0.8067  2.2237 -0.4492
 6136SOL    HW230042   2.250   0.406   8.773 -0.1311 -0.3866  0.1961
 6137SOL     OW30043   4.324   3.459   6.376  0.0257  0.0227  0.2225
 6137SOL    HW130044   4.249   3.472   6.433 -0.8200 -0.7543 -0.7089
 6137SOL    HW230045   4.381   3.529   6.409  0.4809  0.6733 -1.9080
 6138SOL     OW30046   2.095   1.515   1.770 -0.3008 -0.1527  0.1239
 6138SOL    HW130047   2.105   1.424   1.797 -1.8583 -0.0271  1.1288
 6138SOL    HW230048   2.033   1.551   1.833  1.1910  1.0228  0.9264
 6139SOL     OW30049   0.943   1.484   9.340 -0.0330  0.2764  0.2548
 6139SOL    HW130050   0.965   1.391   9.339 -2.0620 -0.2075  2.3280
 6139SOL    HW230051   0.888   1.474   9.418 -0.6257 -0.4809 -0.2591
 6140SOL     OW30052   4.220   4.236  13.946  0.3253  0.4213 -0.0619
 6140SOL    HW130053   4.209   4.330  13.937 -1.4617  0.3528  1.2716
 6140SOL    HW230054   4.301   4.214  13.900  0.2478 -1.1741  0.5553
 6141SOL     OW30055   4.279   4.430   2.373  0.2111 -0.3139 -0.2987
 6141SOL    HW130056   4.196   4.391   2.345 -0.3107 -0.4796  1.4670
 6141SOL    HW230057   4.254   4.459   2.461 -1.8338 -0.5057 -0.8235
 6142SOL     OW30058   0.373   2.887   4.347  0.5051  0.3230 -0.0904
 6142SOL    HW130059   0.332   2.811   4.307  0.0651 -0.8364  2.5884
 6142SOL    HW230060   0.419   2.841   4.417 -0.6790  1.5613  1.5036
 6143SOL     OW30061   1.502   0.156   9.548 -0.4983  0.1893  0.1578
 6143SOL    HW130062   1.442   0.105   9.493 -1.0675 -1.9966  2.8128
 6143SOL    HW230063   1.449   0.145   9.627 -0.7546 -1.1624 -0.2064
 6144SOL     OW30064   3.418   3.666   5.650  0.0673  0.6798  0.0774
 6144SOL    HW130065   3.493   3.620   5.611 -0.4506 -0.8710  0.8899
 6144SOL    HW230066   3.453   3.753   5.632 -0.8969  0.9078 -0.6816
 6145SOL     OW30067   0.283   3.194  17.621 -0.3800 -0.1614 -0.2377
 6145SOL    HW130068   0.347   3.209  17.551 -0.5997 -0.5155 -0.5151
 6145SOL    HW230069   0.331   3.182  17.703 -3.1755 -0.9372  1.2668
 6146SOL     OW30070   2.352   1.660   2.828  0.0939  0.2499 -0.9545
 6146SOL    HW130071   2.316   1.681   2.914 -0.7148 -2.3096 -0.6596
 6146SOL    HW230072   2.270   1.648   2.780 -0.2071  0.9240 -0.6102
 6147SOL     OW30073   0.726   0.913   2.465  0.1754  0.4141  0.1200
 6147SOL    HW130074   0.755   0.997   2.500 -1.1391  0.8658  0.1116
 6147SOL    HW230075   0.749   0.937   2.376 -0.9134  2.3714  0.3678
 6148SOL     OW30076   0.177   1.673   4.097 -0.2330  0.0821 -0.6672
 6148SOL    HW130077   0.237   1.660   4.023 -0.6484 -1.0237 -0.8117
 6148SOL    HW230078   0.087   1.680   4.065 -0.0892 -1.4828 -1.4154
 6149SOL     OW30079   3.542   4.424   7.266 -0.3468  0.4564  0.3832
 6149SOL    HW130080   3.563   4.338   7.303 -0.0037  0.1085 -0.6158
 6149SOL    HW230081   3.575   4.427   7.176 -0.8762  2.2102  0.2506
 6150SOL     OW30082   3.612   1.941   6.445  0.0039  0.6540 -0.0843
 6150SOL    HW130083   3.595   1.847   6.453  0.0479  0.6886  0.4172
 6150SOL    HW230084   3.528   1.982   6.466 -0.5181  1.0388 -2.8564
 6151SOL     OW30085   1.703   2.709   8.784 -0.1350  0.0047 -0.5907
 6151SOL    HW130086   1.716   2.791   8.736  0.3083  0.9375  1.1281
 6151SOL    HW230087   1.770   2.654   8.743  0.5278  1.3678 -1.3542
 6152SOL     OW30088   3.379   1.496   1.638 -0.4241  0.1323 -0.0541
 6152SOL    HW130089   3.292   1.518   1.605 -0.6543  3.3180  2.6122
 6152SOL    HW230090   3.427   1.513   1.557 -1.0913  0.5857 -0.3602
 6153SOL     OW30091   3.836   4.452   7.537  0.0044  0.0449 -0.0485
 6153SOL    HW130092   3.796   4.523   7.486 -1.7087 -0.1282  1.0534
 6153SOL    HW230093   3.875   4.403   7.464  0.0662  0.5174 -0.3373
 6154SOL     OW30094   0.778   4.655   8.526  0.2980 -0.8003  0.1941
 6154SOL    HW130095   0.717   4.615   8.464 -0.0088 -0.7612  0.4684
 6154SOL    HW230096   0.769   0.009   8.515  0.2476 -0.8898 -0.5432
 6155SOL     OW30097   2.180   3.776   1.858 -0.5581  0.8537  0.5381
 6155SOL    HW130098   2.204   3.834   1.930  1.6574  1.1427 -0.4361
 6155SOL    HW230099   2.130   3.718   1.915 -1.8052  1.9620  0.5716
 6156SOL     OW30100   0.439   0.967   5.949 -0.2823  0.1511  0.0706
 6156SOL    HW130101   0.494   1.031   5.994 -0.3599 -0.1473  0.5897
 6156SOL    HW230102   0.502   0.909   5.905 -1.2151 -1.3582  0.7087
 6157SOL     OW30103   4.128   0.222   9.839  0.1097 -0.0234 -0.7395
 6157SOL    HW130104   4.117   0.293   9.903 -0.0790  0.4018 -1.2518
 6157SOL    HW230105   4.140   0.266   9.756  0.5175 -2.4525 -1.9773
 6158SOL     OW30106   0.913   2.299   8.182  0.8450 -0.2365 -0.3586
 6158SOL    HW130107   0.909   2.376   8.126 -0.3509 -0.1349 -0.1374
 6158SOL    HW230108   0.830   2.316   8.228 -0.4989  1.3977 -3.4017
 6159SOL     OW30109   2.084   4.187  17.431  0.8852  0.1429 -0.1408
 6159SOL    HW130110   2.006   4.234  17.460 -0.6475 -2.2993 -0.3458
 6159SOL    HW230111   2.058   4.173  17.340 -3.0837 -1.5579  1.2650
 6160SOL     OW30112   3.385   2.489  16.196 -0.2777  0.1131 -0.0837
 6160SOL    HW130113   3.404   2.463  16.106  1.2185  1.7269 -0.2175
 6160SOL    HW230114   3.340   2.571  16.176  2.7798  1.6009 -0.8051
 6161SOL     OW30115   0.901   2.996   4.982  0.1446 -0.1712 -0.1419
 6161SOL    HW130116   0.911   2.903   5.003 -0.5366 -0.7367 -2.3452
 6161SOL    HW230117   0.988   3.028   5.004  0.4637 -1.9044  1.0783
 6162SOL     OW30118   3.576   0.657   4.833 -0.6576  0.3557 -0.9195
 6162SOL    HW130119   3.497   0.606   4.852  1.3692 -2.3877  0.1141
 6162SOL    HW230120   3.595   0.707   4.912  1.7071 -0.1370 -1.1984
 6163SOL     OW30121   1.521   3.442  16.285  0.3345  0.5574 -0.4010
 6163SOL    HW130122   1.600   3.396  16.255 -1.2942 -3.2088  1.0797
 6163SOL    HW230123   1.548   3.533  16.276  2.6054 -0.3810 -3.1469
 6164SOL     OW30124   4.494   4.651  11.795  0.5980  0.4058  0.0450
 6164SOL    HW130125   4.480   4.584  11.729 -0.6201 -0.2960  1.0146
 6164SOL    HW230126   4.530   4.594  11.863  2.7524 -0.7664 -2.1037
 6165SOL     OW30127   3.643   0.110  16.936 -0.3485  0.0727 -0.0232
 6165SOL    HW130128   3.560   0.157  16.930  0.8765  2.0114 -1.5702
 6165SOL    HW230129   3.664   0.093  16.844  0.3911 -0.5270  0.2529
 6166SOL     OW30130   3.331   3.507   6.984 -0.3681 -0.0078  0.6095
 6166SOL    HW130131   3.414   3.482   6.943 -1.1701  0.6597 -1.4602
 6166SOL    HW230132   3.334   3.458   7.066  0.3612 -0.4585  0.3183
 6167SOL     OW30133   3.596   4.054   8.865 -0.6652  0.1774 -0.0412
 6167SOL    HW130134   3.682   4.057   8.823 -0.7009 -2.1868 -0.2846
 6167SOL    HW230135   3.545   4.112   8.809 -1.5138 -1.0777 -0.5737
 6168SOL     OW30136   4.028   4.080   6.256  0.9148 -0.1079 -0.1486
 6168SOL    HW130137   4.115   4.110   6.231  0.5504  1.6233  0.6568
 6168SOL    HW230138   4.010   4.136   6.331  2.4156  0.0221  0.1022
 6169SOL     OW30139   2.021   1.129   6.863 -0.2721 -0.2334 -0.2443
 6169SOL    HW130140   1.948   1.080   6.903  0.3300 -0.9722 -0.0502
 6169SOL    HW230141   1.997   1.215   6.896  1.1265 -0.2363  0.7372
 6170SOL     OW30142   3.892   3.974   8.069  0.2980  0.1215 -0.0936
 6170SOL    HW130143   3.932   3.965   8.155 -0.8676 -1.1484  0.3237
 6170SOL    HW230144   3.847   3.889   8.072  1.5200 -0.4694  1.3719
 6171SOL     OW30145   4.099   2.720   7.421 -0.1231  0.1729 -0.1473
 6171SOL    HW130146   4.056   2.637   7.439 -0.0695 -0.0910 -1.2692
 6171SOL    HW230147   4.041   2.764   7.359  0.5631  0.1336 -0.8043
 6172SOL     OW30148   1.907   1.515  13.063  0.3874 -0.4408  0.6821
 6172SOL    HW130149   1.839   1.470  13.013 -0.0558  0.6322  0.3264
 6172SOL    HW230150   1.859   1.595  13.085 -1.3122 -1.5337  1.0377
 6173SOL     OW30151   2.854   0.438   4.026  0.2159 -0.0820  0.0480
 6173SOL    HW130152   2.780   0.478   4.071  0.0615  0.8253 -0.9977
 6173SOL    HW230153   2.806   0.364   3.989 -2.4026  1.5396  0.2101
 6174SOL     OW30154   3.166   4.488   4.262 -0.4609 -0.2508 -0.0059
 6174SOL    HW130155   3.203   4.460   4.346  1.8936 -1.3213 -1.3915
 6174SOL    HW230156   3.078   4.518   4.285 -0.7337 -0.4822 -0.7190
 6175SOL     OW30157   2.663   1.534  17.732  0.0715 -0.3916 -0.4049
 6175SOL    HW130158   2.691   1.597  17.667 -0.3452 -1.3637 -1.5204
 6175SOL    HW230159   2.696   1.449  17.701  1.0329 -0.1203 -0.1113
 6176SOL     OW30160   1.981   2.758  12.581  0.4955 -0.7557  0.1345
 6176SOL    HW130161   1.886   2.752  12.589  0.3161 -0.2854 -1.7719
 6176SOL    HW230162   2.010   2.811  12.655 -0.7761  0.3154 -0.1389
 6177SOL     OW30163   1.334   1.607  16.814 -0.1031 -0.2130 -0.1730
 6177SOL    HW130164   1.344   1.513  16.828 -4.6620 -0.9168 -1.4163
 6177SOL    HW230165   1.256   1.610  16.869 -0.6660  0.0786 -0.9769
 6178SOL     OW30166   1.031   0.567   0.479  0.4909  0.5639  0.2602
 6178SOL    HW130167   0.982   0.490   0.450 -0.3405  1.1969  0.0078
 6178SOL    HW230168   1.072   0.595   0.397  1.4700  1.0538  0.9260
 6179SOL     OW30169   1.357   2.451  12.062 -0.2278 -0.1315 -0.4038
 6179SOL    HW130170   1.340   2.420  11.973  0.1793 -0.2252 -0.4496
 6179SOL    HW230171   1.271   2.455  12.104 -0.4119  2.4442 -1.0048
 6180SOL     OW30172   1.496   4.409   5.446 -0.2585 -0.1006  0.2346
 6180SOL    HW130173   1.577   4.381   5.403 -0.2676 -0.5761  0.5177
 6180SOL    HW230174   1.461   4.322   5.468  1.2757 -0.9499 -0.6263
 6181SOL     OW30175   4.307   1.736  11.681 -0.0790 -0.3767  0.2461
 6181SOL    HW130176   4.334   1.799  11.614  0.5805  0.2935  1.1429
 6181SOL    HW230177   4.218   1.731  11.647  0.1335 -3.0348  0.0628
 6182SOL     OW30178   1.568   0.975   4.319 -0.3185  0.1436 -0.1269
 6182SOL    HW130179   1.556   0.898   4.264  4.1460 -0.6271 -0.0853
 6182SOL    HW230180   1.479   1.008   4.313 -0.0978  0.7264 -0.1763
 6183SOL     OW30181   4.574   1.583   6.186  0.0808  0.4341 -0.1370
 6183SOL    HW130182   4.638   1.515   6.167  0.9252  1.6513 -1.6374
 6183SOL    HW230183   4.529   1.547   6.263  0.8170 -0.1464  0.0219
 6184SOL     OW30184   3.763   2.028   9.092 -0.4833  0.5485  0.2320
 6184SOL    HW130185   3.715   2.051   9.012  0.7283  0.6140 -0.4787
 6184SOL    HW230186   3.716   1.949   9.118  0.4133  0.5607  1.8507
 6185SOL     OW30187   2.058   1.249   4.383  1.1824  0.4127 -0.2127
 6185SOL    HW130188   2.128   1.308   4.355  0.4171  1.1437 -0.5871
 6185SOL    HW230189   2.087   1.215   4.467  1.8027  3.0946  0.6525
 6186SOL     OW30190   4.569   2.932   1.737 -0.1838  0.1789 -0.2265
 6186SOL    HW130191   4.522   2.964   1.814  1.9451  0.0889  1.0934
 6186SOL    HW230192   4.510   2.957   1.665 -2.2045 -3.1338  0.2866
 6187SOL     OW30193   1.074   0.251   0.664 -0.3356  0.6266 -0.1748
 6187SOL    HW130194   1.065   0.158   0.682 -1.3349  1.3203  3.0077
 6187SOL    HW230195   1.082   0.252   0.569  0.8227 -0.3209 -0.0870
 6188SOL     OW30196   0.131   4.495   1.582 -0.0769 -0.1833  0.5172
 6188SOL    HW130197   0.191   4.420   1.584 -0.6634 -0.7007 -0.8509
 6188SOL    HW230198   0.173   4.563   1.530 -1.6682  0.4663  0.0758
 6189SOL     OW30199   4.022   3.630  14.054  0.0399  0.5592  0.3587
 6189SOL    HW130200   3.927   3.623  14.041 -0.1883  1.7166  1.4148
 6189SOL    HW230201   4.051   3.646  13.964 -1.9139 -0.0208 -0.3701
 6190SOL     OW30202   1.723   1.065  12.294 -0.2215 -0.3959  0.4451
 6190SOL    HW130203   1.784   0.992  12.284 -0.6045 -1.0490  2.9947
 6190SOL    HW230204   1.761   1.121  12.226 -0.1007 -0.5735  0.3650
 6191SOL     OW30205   0.270   1.779  10.670 -0.3990  0.3487  0.3917
 6191SOL    HW130206   0.224   1.843  10.617 -0.5599  0.4989  0.7136
 6191SOL    HW230207   0.190   1.737  10.703 -1.0403  3.0544  2.2270
 6192SOL     OW30208   0.595   4.225  13.868 -0.0857  0.2651  0.1862
 6192SOL    HW130209   0.544   4.291  13.916 -3.1654 -1.5516 -0.5429
 6192SOL    HW230210   0.578   4.245  13.775 -0.3670  2.9588  0.8145
 6193SOL     OW30211   1.340   0.979   3.600  0.4866  0.4321 -0.3716
 6193SOL    HW130212   1.386   1.012   3.522  0.0815 -2.6117 -1.8880
 6193SOL    HW230213   1.249   1.000   3.581  0.2409 -0.4570 -0.1543
 6194SOL     OW30214   2.200   3.752   0.982 -0.1486 -0.0411  0.6194
 6194SOL    HW130215   2.274   3.767   0.923 -1.3179 -1.0293 -1.0949
 6194SOL    HW230216   2.255   3.734   1.058 -1.6064 -0.5555  1.5524
 6195SOL     OW30217   2.422   0.639   1.753  0.2156 -0.1364 -0.0849
 6195SOL    HW130218   2.336   0.628   1.713  0.6333 -0.4919 -0.8963
 6195SOL    HW230219   2.418   0.581   1.829  2.0019 -0.7092 -0.4342
 6196SOL     OW30220   2.393   4.189  10.752  0.2301  0.0637  0.1977
 6196SOL    HW130221   2.386   4.112  10.808 -1.6557 -2.2263 -3.2097
 6196SOL    HW230222   2.464   4.239  10.792 -1.2638  2.5443 -0.2354
 6197SOL     OW30223   1.745   2.215   5.605 -0.1791  0.2436 -0.3696
 6197SOL    HW130224   1.800   2.146   5.568 -0.7087  0.6518 -1.9138
 6197SOL    HW230225   1.749   2.211   5.701 -0.4665 -3.1473 -0.5097
 6198SOL     OW30226   3.111   1.600   2.140  0.0202 -0.0947 -0.1711
 6198SOL    HW130227   3.157   1.682   2.163 -0.1248  0.2798 -1.2292
 6198SOL    HW230228   3.152   1.548   2.209 -3.8570  0.0356  2.1675
 6199SOL     OW30229   4.078   3.891   2.084  0.3976  0.5296  0.2328
 6199SOL    HW130230   4.046   3.801   2.079 -0.4459  0.7907  0.9910
 6199SOL    HW230231   4.073   3.918   1.992 -1.3377  1.0242  0.4714
 6200SOL     OW30232   0.576   2.692   9.463  0.0229  0.0684  0.5081
 6200SOL    HW130233   0.534   2.775   9.442 -1.1409 -0.4074  0.9450
 6200SOL    HW230234   0.507   2.626   9.453 -1.0810  1.5076 -1.4807
 6201SOL     OW30235   3.743   0.869   4.094  0.1315  0.0611 -0.6354
 6201SOL    HW130236   3.676   0.826   4.042  0.5424  0.3666 -1.4103
 6201SOL    HW230237   3.694   0.898   4.171 -1.0785 -2.0167 -0.6252
 6202SOL     OW30238   4.674   0.568   2.324 -0.3270 -0.4877 -0.0299
 6202SOL    HW130239   4.596   0.522   2.354 -1.2852  1.2736  0.1855
 6202SOL    HW230240   4.629   0.644   2.286 -0.0479 -1.3854 -2.1053
 6203SOL     OW30241   4.416   3.653   4.155  0.4920  0.0609 -0.1894
 6203SOL    HW130242   4.388   3.581   4.212 -1.1638  2.1458  1.5957
 6203SOL    HW230243   4.473   3.602   4.097  0.4995 -2.0675  1.6849
 6204SOL     OW30244   2.291   1.246  10.570  0.3627  0.2919 -0.2416
 6204SOL    HW130245   2.382   1.275  10.579  1.2037 -1.7377 -2.4505
 6204SOL    HW230246   2.307   1.174  10.509  1.1740  0.0829  0.2218
 6205SOL     OW30247   2.742   2.626   1.243 -0.2599 -0.5694  0.0114
 6205SOL    HW130248   2.825   2.581   1.227  1.5616  2.7199  0.3309
 6205SOL    HW230249   2.736   2.662   1.154 -0.4579  1.8956  1.0404
 6206SOL     OW30250   2.521   2.831   5.674  0.4074  0.5586  0.1450
 6206SOL    HW130251   2.501   2.836   5.581 -0.9899  2.6653  0.5472
 6206SOL    HW230252   2.617   2.833   5.676  0.4361 -3.0952  1.6654
 6207SOL     OW30253   1.725   3.906   1.318  0.3896 -0.4690 -0.3684
 6207SOL    HW130254   1.806   3.859   1.337 -0.8951 -2.1944  0.8980
 6207SOL    HW230255   1.760   3.978   1.266 -0.6024 -0.0788 -0.4997
 6208SOL     OW30256   2.772   1.059   8.750 -0.2063 -0.6770  0.0426
 6208SOL    HW130257   2.817   1.124   8.805  1.4125 -1.0272 -0.8443
 6208SOL    HW230258   2.796   1.082   8.660 -0.0857  0.1906  0.2881
 6209SOL     OW30259   1.461   4.210   9.749 -0.2850  0.8542  0.3048
 6209SOL    HW130260   1.439   4.246   9.663 -2.8142  1.4774  1.2048
 6209SOL    HW230261   1.525   4.275   9.779  1.1057 -0.1132 -0.5925
 6210SOL     OW30262   3.669   3.884   7.635 -0.3920 -0.3253  0.1437
 6210SOL    HW130263   3.709   3.965   7.602  0.3140 -0.0032  1.7631
 6210SOL    HW230264   3.746   3.835   7.664  0.8528 -0.0183 -2.6498
 6211SOL     OW30265   0.566   3.395   4.432 -0.1194 -0.2742 -0.4523
 6211SOL    HW130266   0.538   3.316   4.478 -1.6884 -0.0410 -1.0349
 6211SOL    HW230267   0.530   3.457   4.495 -0.6332  0.3196 -1.3408
 6212SOL     OW30268   2.114   4.053   5.450 -0.1925  0.9778 -0.9178
 6212SOL    HW130269   2.130   4.096   5.534  3.4705 -1.4606 -0.3503
 6212SOL    HW230270   2.024   4.071   5.424 -0.0478  1.3286 -1.1696
 6213SOL     OW30271   2.716   3.340   4.604  0.0813  0.0923  0.1753
 6213SOL    HW130272   2.626   3.354   4.576  0.1443 -0.1629 -0.1488
 6213SOL    HW230273   2.726   3.262   4.550 -0.2584  0.6926 -0.7565
 6214SOL     OW30274   0.442   1.657   3.444 -0.1747 -0.2186  0.2921
 6214SOL    HW130275   0.370   1.619   3.394 -1.6650 -0.6901  2.8194
 6214SOL    HW230276   0.399   1.685   3.525  1.1780 -0.9852  1.2672
 6215SOL     OW30277   2.343   4.614   9.559 -0.7865 -0.2289 -0.2353
 6215SOL    HW130278   2.325   4.627   9.466 -1.9696 -1.7554 -0.2308
 6215SOL    HW230279   2.270   4.659   9.600 -1.5073 -1.9217  0.3639
 6216SOL     OW30280   2.076   3.074   1.450  0.2991  0.2106 -0.3758
 6216SOL    HW130281   2.116   3.054   1.366 -0.5827  0.9861 -0.9806
 6216SOL    HW230282   2.145   3.127   1.490 -0.6130 -0.3832  2.0105
 6217SOL     OW30283   0.940   2.029  12.783 -0.2457  0.4534 -0.1691
 6217SOL    HW130284   0.980   1.943  12.777 -0.8608  0.1368  0.2408
 6217SOL    HW230285   0.954   2.066  12.696  4.1170 -2.1077 -0.5597
 6218SOL     OW30286   0.288   1.997   6.450 -0.0371  0.0255 -0.3401
 6218SOL    HW130287   0.318   2.045   6.527 -3.3406 -2.7587  2.6859
 6218SOL    HW230288   0.342   2.030   6.378  0.8772  1.7384  1.1422
 6219SOL     OW30289   2.277   3.953   2.034  0.0471 -0.3047 -0.1973
 6219SOL    HW130290   2.337   4.016   1.994 -0.3263 -0.4415 -0.9818
 6219SOL    HW230291   2.280   3.983   2.124 -0.9783  0.8089 -0.5326
 6220SOL     OW30292   4.561   2.222   3.698 -0.1434  0.1962 -0.2410
 6220SOL    HW130293   4.470   2.240   3.671 -1.2234 -1.3293  2.4543
 6220SOL    HW230294   4.611   2.266   3.629  1.7385 -1.5115  0.0687
 6221SOL     OW30295   2.443   1.990   2.411  0.1286 -0.6125 -0.3422
 6221SOL    HW130296   2.444   1.909   2.359  3.4145 -0.6515 -0.1614
 6221SOL    HW230297   2.416   1.956   2.497 -0.2095  3.4555  1.1775
 6222SOL     OW30298   2.079   2.722  16.048 -0.1077  0.0997  0.3561
 6222SOL    HW130299   2.000   2.760  16.084  0.0758  0.8951 -0.0876
 6222SOL    HW230300   2.037   2.710  15.962  0.7245  0.2012 -0.0660
 6223SOL     OW30301   1.879   4.539   3.318  0.1698  0.1224 -0.3123
 6223SOL    HW130302   1.833   4.519   3.400  0.6290 -0.3891 -0.1770
 6223SOL    HW230303   1.870   4.633   3.328  0.3632  0.3138 -1.9724
 6224SOL     OW30304   1.216   0.265   8.128  0.3534  0.1515 -0.2514
 6224SOL    HW130305   1.293   0.221   8.162  0.7874  1.2324  0.1677
 6224SOL    HW230306   1.149   0.232   8.188  0.5794 -0.1933 -0.1883
 6225SOL     OW30307   2.767   4.546   3.399 -0.2549 -0.3365 -0.3737
 6225SOL    HW130308   2.851   4.501   3.396  0.1504  0.4495 -0.8745
 6225SOL    HW230309   2.754   4.597   3.320 -0.0848 -0.3871 -0.4347
 6226SOL     OW30310   1.501   0.113   3.541  0.3317 -0.4460  0.4801
 6226SOL    HW130311   1.543   0.196   3.562  0.9190 -0.2225 -1.6487
 6226SOL    HW230312   1.481   0.089   3.632  0.9170 -0.9151  0.4852
 6227SOL     OW30313   4.656   4.533   1.744 -0.1825 -0.0129  0.5907
 6227SOL    HW130314   4.596   4.477   1.695  3.3251 -3.4914  0.2811
 6227SOL    HW230315   4.734   4.526   1.688  0.2725  0.1661  1.2119
 6228SOL     OW30316   2.742   0.120   6.803 -0.2547  0.2142 -0.4420
 6228SOL    HW130317   2.737   0.115   6.898 -1.4937 -1.1680 -0.5796
 6228SOL    HW230318   2.837   0.116   6.811 -0.3084 -3.6741 -1.8313
 6229SOL     OW30319   4.455   1.502   1.454  0.0566 -0.4038  0.2294
 6229SOL    HW130320   4.415   1.429   1.501 -1.3505 -0.0823 -0.4647
 6229SOL    HW230321   4.401   1.511   1.375 -1.3083 -2.1166  0.9759
 6230SOL     OW30322   0.898   3.130  12.086 -0.0148  0.0277 -0.4240
 6230SOL    HW130323   0.811   3.092  12.082 -0.4229  1.0869 -1.6378
 6230SOL    HW230324   0.950   3.055  12.055  1.1543 -0.8473  3.6799
 6231SOL     OW30325   1.728   4.578  14.846  0.8120  0.0390 -0.4839
 6231SOL    HW130326   1.763   4.493  14.874 -1.8495 -0.5032  1.1648
 6231SOL    HW230327   1.715   4.573  14.752  0.0562 -0.9417 -0.3243
 6232SOL     OW30328   0.356   0.999   1.962  0.1476 -0.3742 -0.3906
 6232SOL    HW130329   0.449   0.988   1.940  0.7336 -0.1297  1.9536
 6232SOL    HW230330   0.335   1.050   1.884 -1.4519  0.4906  0.6034
 6233SOL     OW30331   2.683   1.173   2.534  0.2050  0.3353 -0.7328
 6233SOL    HW130332   2.769   1.211   2.515  0.5855 -0.3308 -0.3461
 6233SOL    HW230333   2.691   1.084   2.499  1.2549  0.5790 -1.0991
 6234SOL     OW30334   4.605   2.924   6.868  0.1460  0.4812 -0.1802
 6234SOL    HW130335   4.513   2.933   6.844 -0.2389 -0.5601  0.9158
 6234SOL    HW230336   4.608   2.981   6.945  1.2806 -0.6397  0.6137
 6235SOL     OW30337   0.430   1.856   4.762 -0.3420  0.1597 -0.6602
 6235SOL    HW130338   0.475   1.940   4.768 -0.4450  0.0174  2.0499
 6235SOL    HW230339   0.508   1.802   4.751  0.8300  1.3691  1.6236
 6236SOL     OW30340   4.061   0.312  16.886 -0.4025 -0.9901  0.0222
 6236SOL    HW130341   4.022   0.319  16.798  0.2112 -1.5376 -0.2929
 6236SOL    HW230342   4.019   0.375  16.945 -0.7147  0.3594 -1.6338
 6237SOL     OW30343   2.838   0.407  14.331 -0.5657 -0.5006 -0.2820
 6237SOL    HW130344   2.748   0.439  14.322 -0.2939  0.8932  1.8078
 6237SOL    HW230345   2.846   0.391  14.425  0.3550  2.0157  0.0784
 6238SOL     OW30346   4.449   4.697  16.874 -0.4579 -0.2173  0.1778
 6238SOL    HW130347   4.405   4.612  16.882 -1.5163  0.1498 -1.7977
 6238SOL    HW230348   4.379   0.021  16.885 -1.9125 -1.4740 -1.7489
 6239SOL     OW30349   0.052   3.276   8.786  0.2432 -0.0491  0.3705
 6239SOL    HW130350   0.112   3.333   8.834 -0.6158  0.2491  1.0867
 6239SOL    HW230351   0.109   3.200   8.800  0.6400 -0.1445 -1.8266
 6240SOL     OW30352   1.045   1.092   9.539 -0.3601  0.2313 -0.0964
 6240SOL    HW130353   1.026   1.076   9.631 -0.0485 -0.6550 -0.1898
 6240SOL    HW230354   1.129   1.047   9.533  0.1359  0.8919  1.7034
 6241SOL     OW30355   3.155   0.554   2.441 -0.0877  0.4443 -0.1629
 6241SOL    HW130356   3.188   0.538   2.353 -2.0911 -0.8137 -0.6846
 6241SOL    HW230357   3.228   0.512   2.487 -1.8955 -1.8443  0.6045
 6242SOL     OW30358   1.826   2.278   7.878 -0.4417 -0.1009 -0.7609
 6242SOL    HW130359   1.823   2.373   7.886 -0.2669 -0.1662  0.0227
 6242SOL    HW230360   1.735   2.260   7.853 -0.6429 -1.5589  1.0434
 6243SOL     OW30361   4.096   3.514   8.979 -0.1249  0.0029  0.2103
 6243SOL    HW130362   4.181   3.493   8.940  1.0105  2.0651  1.5890
 6243SOL    HW230363   4.094   3.608   8.959 -4.8232 -0.4102 -1.4429
 6244SOL     OW30364   3.700   4.186   4.874 -0.0477  0.1838 -0.9591
 6244SOL    HW130365   3.786   4.198   4.832  0.1667  1.5152 -0.1385
 6244SOL    HW230366   3.703   4.091   4.876 -1.4403  0.1009 -2.9537
 6245SOL     OW30367   4.651   0.150   0.988 -0.5503 -0.2470  0.2787
 6245SOL    HW130368   4.633   0.191   1.073  0.2848  0.8020 -0.0432
 6245SOL    HW230369   4.575   0.092   0.990 -0.3344 -0.5073  0.6789
 6246SOL     OW30370   3.996   1.685   5.301  0.9852  0.9115 -0.2039
 6246SOL    HW130371   3.907   1.655   5.320  0.8727  1.1122 -0.4118
 6246SOL    HW230372   4.031   1.702   5.388 -1.7729  0.0134  1.0916
 6247SOL     OW30373   1.654   1.434  16.724 -0.3157 -0.0597 -0.3561
 6247SOL    HW130374   1.744   1.437  16.691 -0.8213  0.9433 -1.6698
 6247SOL    HW230375   1.627   1.348  16.692 -0.4081 -0.3802  0.5883
 6248SOL     OW30376   2.558   3.770   3.820  0.4007  0.3309 -0.4458
 6248SOL    HW130377   2.487   3.705   3.824  0.6473  0.0141 -1.0877
 6248SOL    HW230378   2.627   3.719   3.862  0.0040 -0.3471 -0.6040
 6249SOL     OW30379   3.262   0.735   8.005  0.0707  0.0220  0.1402
 6249SOL    HW130380   3.340   0.751   8.058 -0.8675 -1.4516  1.9551
 6249SOL    HW230381   3.203   0.709   8.076 -0.7394  2.4861  0.3493
 6250SOL     OW30382   4.378   0.622  14.412 -0.0152 -0.0730 -0.0874
 6250SOL    HW130383   4.295   0.669  14.421  0.2738  0.4785 -0.2368
 6250SOL    HW230384   4.402   0.602  14.502  3.2259  1.4780 -0.6244
 6251SOL     OW30385   3.434   1.325  17.014 -0.3224  0.0871  0.5933
 6251SOL    HW130386   3.435   1.230  17.000  1.6648  0.1984  0.0135
 6251SOL    HW230387   3.359   1.346  16.958 -0.1238 -3.3074 -0.9474
 6252SOL     OW30388   3.132   2.493   1.410  0.4414 -0.0739  0.1353
 6252SOL    HW130389   3.195   2.559   1.380 -0.1746  2.2166  3.8607
 6252SOL    HW230390   3.163   2.411   1.373 -2.2462 -1.0236  0.0246
 6253SOL     OW30391   1.699   1.705   6.169  0.3996 -0.2928 -0.4810
 6253SOL    HW130392   1.775   1.739   6.216  0.5600 -1.7830  0.3168
 6253SOL    HW230393   1.748   1.659   6.100 -3.0343 -2.1585 -1.6528
 6254SOL     OW30394   0.870   0.327   1.832 -0.8207  0.1724  0.0772
 6254SOL    HW130395   0.910   0.308   1.747  1.2915  0.6557  0.9718
 6254SOL    HW230396   0.830   0.413   1.823 -0.8349  0.0294 -1.1738
 6255SOL     OW30397   3.816   0.727   1.754  0.2808 -0.1558  0.4156
 6255SOL    HW130398   3.780   0.755   1.838 -0.9746 -0.3919 -0.0475
 6255SOL    HW230399   3.794   0.634   1.756  0.7758 -0.3132 -1.8159
 6256SOL     OW30400   0.071   0.980   9.847  0.4488  0.1480  0.2088
 6256SOL    HW130401   0.063   1.039   9.921  1.0085  1.0134 -0.4223
 6256SOL    HW230402   0.165   0.973   9.828  0.0767  0.6053 -1.8690
 6257SOL     OW30403   0.166   1.237  16.871 -0.2437  0.7080  0.3332
 6257SOL    HW130404   0.096   1.183  16.907  0.2392 -0.1338  0.0037
 6257SOL    HW230405   0.243   1.205  16.917 -1.5598 -3.0248 -0.0569
 6258SOL     OW30406   0.551   3.743  12.274  0.4788  0.1955 -0.3693
 6258SOL    HW130407   0.608   3.760  12.198 -0.2353  0.9297 -0.7454
 6258SOL    HW230408   0.591   3.801  12.340 -2.1200  0.2364  1.1354
 6259SOL     OW30409   3.794   1.736   4.956 -0.1366 -0.0994  0.2874
 6259SOL    HW130410   3.788   1.766   5.047 -0.7165  2.2746 -0.5414
 6259SOL    HW230411   3.830   1.817   4.919  0.6426 -2.1302 -3.3667
 6260SOL     OW30412   4.000   0.424   9.359 -0.1867  0.3708 -0.0159
 6260SOL    HW130413   4.093   0.445   9.350 -0.0844  0.6899  1.8329
 6260SOL    HW230414   3.981   0.451   9.449 -1.4584  1.8631 -0.7386
 6261SOL     OW30415   1.489   2.716   2.672 -0.1703 -0.3744 -0.0915
 6261SOL    HW130416   1.529   2.789   2.625 -1.7641  0.4143 -0.2179
 6261SOL    HW230417   1.438   2.760   2.740 -0.5358 -1.9710  0.6652
 6262SOL     OW30418   0.875   4.467   8.240 -0.4188 -0.2242 -0.4156
 6262SOL    HW130419   0.809   4.474   8.309 -1.2751  1.4839 -1.4290
 6262SOL    HW230420   0.935   4.539   8.256 -0.6404 -0.4784  1.5599
 6263SOL     OW30421   4.064   4.561   0.130 -0.2224 -0.2345  0.2280
 6263SOL    HW130422   4.115   4.622   0.077  1.5185 -1.8953 -0.0044
 6263SOL    HW230423   4.028   4.502   0.064 -1.8207 -0.0991  0.9834
 6264SOL     OW30424   2.907   3.860   4.807 -0.0401  0.7267  0.0571
 6264SOL    HW130425   2.961   3.840   4.883  0.1054  1.3084  0.1116
 6264SOL    HW230426   2.847   3.927   4.841  2.2516  1.5639  2.4198
 6265SOL     OW30427   0.983   4.303  15.896  0.3056  0.0841 -0.3483
 6265SOL    HW130428   0.911   4.247  15.864  1.3693 -1.0270 -0.7828
 6265SOL    HW230429   1.056   4.241  15.891  0.2113 -0.1680  1.4556
 6266SOL     OW30430   3.614   2.560  10.917  0.2463 -0.5489 -1.0372
 6266SOL    HW130431   3.538   2.616  10.903 -0.0321 -0.1012  2.3366
 6266SOL    HW230432   3.569   2.476  10.903 -2.2909  0.7862 -1.0035
 6267SOL     OW30433   3.406   0.457   0.950 -0.4526  0.7420 -0.0315
 6267SOL    HW130434   3.384   0.492   1.037  1.6773 -0.8081  1.1299
 6267SOL    HW230435   3.366   0.520   0.891 -1.8885  0.9475  1.1688
 6268SOL     OW30436   1.124   1.669  17.013 -0.2823 -0.0977 -0.3670
 6268SOL    HW130437   1.090   1.589  17.053  1.9265  0.4624  2.6226
 6268SOL    HW230438   1.175   1.701  17.087 -1.1541 -0.1813  0.2648
 6269SOL     OW30439   2.987   3.226   1.485  0.2192  0.2137  0.5938
 6269SOL    HW130440   2.967   3.143   1.529 -0.5165 -1.1839 -2.3934
 6269SOL    HW230441   3.079   3.212   1.465  0.2280  0.9484  0.1119
 6270SOL     OW30442   1.323   2.817   6.576 -0.5142  0.6785 -0.1644
 6270SOL    HW130443   1.323   2.901   6.623 -3.6710  2.1093 -2.6974
 6270SOL    HW230444   1.232   2.811   6.546 -0.5262  0.1619 -0.0265
 6271SOL     OW30445   2.976   1.740   5.354  0.3917 -0.2648 -0.4779
 6271SOL    HW130446   2.937   1.816   5.311 -0.1714  0.4961  1.3840
 6271SOL    HW230447   3.035   1.698   5.292  0.0068  0.0800 -1.0758
 6272SOL     OW30448   0.746   3.712   3.187 -0.8454 -0.5425  0.1182
 6272SOL    HW130449   0.730   3.798   3.148  1.1372  0.3345  1.2018
 6272SOL    HW230450   0.659   3.685   3.216 -0.5325 -0.7010  0.9013
 6273SOL     OW30451   3.939   3.120  12.910 -0.4550 -0.1464  0.0630
 6273SOL    HW130452   3.997   3.186  12.948 -1.9072  1.1466  0.0331
 6273SOL    HW230453   3.859   3.161  12.945 -0.2927  0.9635 -0.8723
 6274SOL     OW30454   4.039   0.876   6.718  0.0163  0.2481  0.5754
 6274SOL    HW130455   4.056   0.965   6.748  3.5556  0.0039 -0.7229
 6274SOL    HW230456   4.093   0.818   6.772 -0.8983 -0.5164  0.6772
 6275SOL     OW30457   4.477   3.813   4.438  0.6524 -0.1766 -0.3878
 6275SOL    HW130458   4.515   3.899   4.420 -0.1050 -0.2539 -2.3953
 6275SOL    HW230459   4.448   3.785   4.351  1.4216  1.3315 -1.1229
 6276SOL     OW30460   4.610   1.346  16.479 -0.4698 -0.1280  0.0186
 6276SOL    HW130461   4.617   1.441  16.472  3.6046 -0.3744  0.2894
 6276SOL    HW230462   4.688   1.323  16.530  0.1375 -1.8232 -1.6880
 6277SOL     OW30463   3.682   0.321   4.454  0.9929 -0.3527  0.2628
 6277SOL    HW130464   3.688   0.393   4.516  0.9854 -1.8240  1.9869
 6277SOL    HW230465   3.677   0.378   4.377 -0.1870 -0.8867 -0.0747
 6278SOL     OW30466   2.997   0.493  13.452 -0.4241  0.3550  0.1109
 6278SOL    HW130467   2.982   0.402  13.427 -0.2508  0.2297  0.4558
 6278SOL    HW230468   3.007   0.476  13.546 -2.4050 -1.1443  0.0600
 6279SOL     OW30469   0.912   1.294   5.672 -0.7419 -0.7720  0.0248
 6279SOL    HW130470   0.897   1.255   5.585 -0.6906  0.2714 -0.4524
 6279SOL    HW230471   0.888   1.384   5.651  0.4013 -0.6290 -0.6890
 6280SOL     OW30472   0.711   1.614   3.384  0.8531 -0.0672 -0.4081
 6280SOL    HW130473   0.753   1.676   3.444 -0.4939  0.0054  0.4577
 6280SOL    HW230474   0.621   1.637   3.405  0.0380 -0.6947 -3.3046
 6281SOL     OW30475   4.151   1.069   4.218 -0.3126 -0.5651 -0.5702
 6281SOL    HW130476   4.227   1.040   4.268  0.6281 -1.0579 -2.2676
 6281SOL    HW230477   4.099   0.989   4.212 -2.1923  0.7153 -1.4234
 6282SOL     OW30478   0.720   2.048   1.553  0.6790  0.4986 -0.1616
 6282SOL    HW130479   0.637   2.005   1.534  0.2157  0.8448  1.1138
 6282SOL    HW230480   0.706   2.112   1.484  1.2040 -0.9664 -1.6172
 6283SOL     OW30481   4.222   2.342   8.301 -0.3117 -0.1479 -0.5951
 6283SOL    HW130482   4.267   2.352   8.385  3.5049  1.0282 -2.7479
 6283SOL    HW230483   4.133   2.315   8.324 -0.8898  0.4258 -2.1550
 6284SOL     OW30484   1.465   3.259   2.694  0.3314 -0.0329  0.2894
 6284SOL    HW130485   1.451   3.354   2.702 -1.6197 -0.2072 -1.2022
 6284SOL    HW230486   1.452   3.223   2.782  0.5741  0.0482  0.3612
 6285SOL     OW30487   0.635   1.675   2.369 -0.1576 -0.0585  0.2283
 6285SOL    HW130488   0.573   1.707   2.303  1.0569 -1.2379 -1.4811
 6285SOL    HW230489   0.683   1.758   2.380 -0.5818  0.1661  0.3757
 6286SOL     OW30490   4.325   3.524   4.810  0.1975 -0.5086 -0.0784
 6286SOL    HW130491   4.378   3.599   4.839  0.2506 -0.7928  0.5640
 6286SOL    HW230492   4.356   3.500   4.723  2.3783  2.8746 -0.2531
 6287SOL     OW30493   1.939   3.759  13.092 -0.0278 -0.3251  0.1394
 6287SOL    HW130494   1.904   3.803  13.014 -0.7661 -1.1939 -0.0182
 6287SOL    HW230495   2.019   3.812  13.090 -0.3150  0.1277  0.5741
 6288SOL     OW30496   4.145   0.324  10.703  0.5049 -0.1516  0.1507
 6288SOL    HW130497   4.218   0.351  10.647 -0.9685  0.5777 -1.3898
 6288SOL    HW230498   4.089   0.262  10.656  1.5000 -1.3035  0.4723
 6289SOL     OW30499   3.375   4.699   5.588  0.0092 -0.4326  0.1565
 6289SOL    HW130500   3.339   4.639   5.522  0.8222 -1.4782  0.6634
 6289SOL    HW230501   3.453   4.661   5.628  0.8027  0.0824 -0.9212
 6290SOL     OW30502   0.964   1.398   7.552  0.5080  0.2082  0.0626
 6290SOL    HW130503   0.957   1.304   7.567  0.1770  0.0877 -0.8978
 6290SOL    HW230504   0.875   1.423   7.530 -0.0356 -0.3442  1.6297
 6291SOL     OW30505   3.586   2.739   3.803 -0.2107 -0.0441  0.6722
 6291SOL    HW130506   3.586   2.708   3.713 -1.1534  1.7907  0.0480
 6291SOL    HW230507   3.562   2.830   3.790  0.6427  0.2960  1.4359
 6292SOL     OW30508   1.524   1.084   1.354 -0.5564 -0.8139  0.3493
 6292SOL    HW130509   1.497   1.060   1.265 -1.3270  1.6835 -0.1021
 6292SOL    HW230510   1.581   1.009   1.372 -2.1766 -2.0426  0.3474
 6293SOL     OW30511   4.664   3.809  15.808 -0.1742 -0.1507 -0.5713
 6293SOL    HW130512   4.668   3.810  15.713 -1.3466  1.1373 -0.6097
 6293SOL    HW230513   4.578   3.780  15.839  0.7738 -0.5799  1.7108
 6294SOL     OW30514   2.414   3.721   2.026  0.2899 -0.1673  0.4765
 6294SOL    HW130515   2.391   3.813   2.031  1.2046  0.1177 -0.4887
 6294SOL    HW230516   2.407   3.709   1.931 -1.6042 -1.0180  0.7237
 6295SOL     OW30517   3.400   1.961   2.949  0.1303 -0.2339 -0.3331
 6295SOL    HW130518   3.451   2.041   2.958 -1.0332  0.2546  1.7308
 6295SOL    HW230519   3.369   1.948   3.038  1.0578 -2.8037 -0.3745
 6296SOL     OW30520   4.134   0.218   3.684  0.8546  0.2372 -0.2055
 6296SOL    HW130521   4.089   0.155   3.628 -0.6610  0.2469  0.9824
 6296SOL    HW230522   4.053   0.257   3.717  0.4023 -0.2598 -0.7450
 6297SOL     OW30523   0.210   0.677   9.517 -0.1405  0.0650  0.1156
 6297SOL    HW130524   0.178   0.764   9.495 -2.2050 -0.5924  0.4993
 6297SOL    HW230525   0.299   0.674   9.482  0.1267 -0.0083  0.7998
 6298SOL     OW30526   4.658   2.422  16.635  0.6997  0.3497 -0.1163
 6298SOL    HW130527   4.651   2.504  16.585 -1.5626  0.5535  0.5206
 6298SOL    HW230528   4.735   2.433  16.691 -0.5894 -1.3682  1.9488
 6299SOL     OW30529   4.432   4.629   6.490  0.5572 -0.0863  0.3253
 6299SOL    HW130530   4.471   4.636   6.403 -1.9137 -1.2393 -0.8468
 6299SOL    HW230531   4.508   4.607   6.544  1.3719 -1.3301 -1.3369
 6300SOL     OW30532   1.287   3.706   1.830  0.4035  0.2936 -0.2584
 6300SOL    HW130533   1.253   3.783   1.877 -1.6610 -0.6616 -0.1897
 6300SOL    HW230534   1.202   3.666   1.814  0.6666 -0.1796 -0.4868
 6301SOL     OW30535   2.426   0.170   8.186  0.5919 -0.2299  0.7172
 6301SOL    HW130536   2.478   0.089   8.180 -0.0157 -0.5982  0.4621
 6301SOL    HW230537   2.427   0.189   8.280  2.3396  0.9692  0.4626
 6302SOL     OW30538   4.495   3.209   5.148 -0.3087 -0.5259  0.2366
 6302SOL    HW130539   4.458   3.292   5.117 -3.6155 -2.2765 -0.4320
 6302SOL    HW230540   4.484   3.231   5.241 -0.0225 -2.0960  0.6356
 6303SOL     OW30541   4.089   0.810   6.334 -0.2005 -0.0387 -0.0087
 6303SOL    HW130542   4.051   0.898   6.330  0.5794  0.3061  0.3814
 6303SOL    HW230543   4.167   0.833   6.284 -0.3712 -2.8816 -1.5461
 6304SOL     OW30544   1.242   1.438   0.651  0.0888 -0.1311 -0.6950
 6304SOL    HW130545   1.292   1.515   0.679 -0.8312 -0.0259  0.6430
 6304SOL    HW230546   1.310   1.371   0.664 -1.7700 -1.9511 -0.4071
 6305SOL     OW30547   2.252   0.838   2.021  0.7759  0.4339 -0.4867
 6305SOL    HW130548   2.333   0.793   1.994 -0.6564  0.0459 -4.2067
 6305SOL    HW230549   2.203   0.773   2.070  0.1381  1.1109 -0.2303
 6306SOL     OW30550   2.386   0.205   1.107 -0.3626  0.2763 -0.0549
 6306SOL    HW130551   2.312   0.252   1.144 -0.1583  0.4814  0.0999
 6306SOL    HW230552   2.361   0.115   1.125 -0.0922  0.5501  1.6933
 6307SOL     OW30553   0.115   3.529   5.911 -0.0625 -0.0676 -0.0709
 6307SOL    HW130554   0.161   3.491   5.836 -0.1636  3.7165 -2.0240
 6307SOL    HW230555   0.177   3.601   5.920  0.9437 -0.9297 -0.0204
 6308SOL     OW30556   4.578   2.181  12.262 -0.1109 -0.7861  0.1781
 6308SOL    HW130557   4.565   2.094  12.224  0.4449  0.1173 -2.1075
 6308SOL    HW230558   4.498   2.212  12.219  0.1846  1.7062  1.4481
 6309SOL     OW30559   3.164   2.946   1.977  0.2907  0.0330 -0.0171
 6309SOL    HW130560   3.255   2.927   1.957  0.2700 -1.5759  1.4203
 6309SOL    HW230561   3.149   2.951   2.072  2.5662 -1.3894  0.4082
 6310SOL     OW30562   1.254   2.196   2.310 -0.5487  0.0815 -0.2028
 6310SOL    HW130563   1.201   2.173   2.387 -0.6427  0.0834 -0.2665
 6310SOL    HW230564   1.326   2.146   2.348 -0.3318  0.3878 -0.2074
 6311SOL     OW30565   3.483   1.931   7.123  0.6281 -0.4606  0.4060
 6311SOL    HW130566   3.563   1.884   7.100  0.5311  0.0054 -0.8685
 6311SOL    HW230567   3.520   2.019   7.133 -1.2905  0.5746 -1.7451
 6312SOL     OW30568   2.363   2.637   1.167 -0.2333 -0.0031 -0.3245
 6312SOL    HW130569   2.319   2.712   1.206  0.5203 -1.2764  2.9198
 6312SOL    HW230570   2.425   2.610   1.234 -0.3051  2.4159  0.7008
 6313SOL     OW30571   3.515   2.121   2.057 -0.9657 -0.2584 -0.7391
 6313SOL    HW130572   3.509   2.189   1.990  2.2124  0.4863 -0.2695
 6313SOL    HW230573   3.520   2.038   2.009 -3.7012  1.1052 -3.3885
 6314SOL     OW30574   3.136   2.155   0.536  0.3506 -0.0258 -0.8908
 6314SOL    HW130575   3.095   2.236   0.567  1.1124  0.4272 -1.0662
 6314SOL    HW230576   3.177   2.108   0.608  2.0674  1.6894 -0.7571
 6315SOL     OW30577   0.149   0.681   0.565 -0.1825  0.1974 -0.4975
 6315SOL    HW130578   0.171   0.591   0.590 -2.4175 -0.2601 -0.2000
 6315SOL    HW230579   0.058   0.675   0.538  0.5914 -0.3049 -3.0297
 6316SOL     OW30580   2.444   1.639   3.340 -0.4853  0.6152  0.0344
 6316SOL    HW130581   2.466   1.658   3.431 -0.5412  0.2488  0.1235
 6316SOL    HW230582   2.483   1.552   3.335 -1.5154  0.1030  0.7339
 6317SOL     OW30583   1.440   1.302   3.002 -0.6801  0.0315  0.4574
 6317SOL    HW130584   1.366   1.360   2.979  0.8271  1.5474 -0.5767
 6317SOL    HW230585   1.441   1.224   2.947  1.4028 -0.8909  1.8281
 6318SOL     OW30586   0.015   1.376   0.623 -0.1502 -0.7332 -0.0434
 6318SOL    HW130587   0.007   1.281   0.623  0.0277 -0.7456 -1.1404
 6318SOL    HW230588   0.109   1.375   0.607  0.0614  1.5250  0.9730
 6319SOL     OW30589   1.419   0.582   6.532  0.4773  0.0235  0.0463
 6319SOL    HW130590   1.456   0.506   6.487 -0.5254 -0.6355  0.3422
 6319SOL    HW230591   1.479   0.594   6.606  0.0809 -1.0171  0.5278
 6320SOL     OW30592   4.416   1.840   2.458  0.3492  0.5341  0.2159
 6320SOL    HW130593   4.399   1.852   2.364 -1.8139 -1.0399  0.3944
 6320SOL    HW230594   4.495   1.788   2.461  1.6026  2.3858 -0.5090
 6321SOL     OW30595   4.653   2.016   4.581 -0.1217  0.1977 -0.0858
 6321SOL    HW130596   4.614   1.929   4.591  2.6782 -0.9478  0.9099
 6321SOL    HW230597   4.722   1.992   4.519 -1.0731 -2.4052 -0.1629
 6322SOL     OW30598   1.690   0.190  13.354 -0.2103 -0.5794  0.3334
 6322SOL    HW130599   1.740   0.272  13.350  1.0884 -1.4383 -0.9378
 6322SOL    HW230600   1.662   0.177  13.444 -2.3801  1.2797 -0.0833
 6323SOL     OW30601   1.389   0.591   8.833  0.2477 -0.3357  0.3674
 6323SOL    HW130602   1.353   0.558   8.750 -0.2026  2.0573 -0.3716
 6323SOL    HW230603   1.455   0.647   8.793 -0.1429 -1.5873 -2.0665
 6324SOL     OW30604   3.875   4.156   6.884  0.0134 -0.1945  0.5780
 6324SOL    HW130605   3.823   4.210   6.825 -0.0156  1.3885  2.0412
 6324SOL    HW230606   3.937   4.133   6.815 -1.4432  0.5471 -0.9724
 6325SOL     OW30607   2.605   0.492   3.434  0.0997 -0.4363 -0.6004
 6325SOL    HW130608   2.555   0.569   3.405 -1.1430  0.1199  2.9296
 6325SOL    HW230609   2.536   0.426   3.425 -1.2322  0.5587  2.2097
 6326SOL     OW30610   2.385   4.530  12.678  0.0699  0.0319 -0.4271
 6326SOL    HW130611   2.401   4.610  12.628 -2.2014  1.4218  1.0470
 6326SOL    HW230612   2.375   4.563  12.768  2.0472  2.8356 -1.2320
 6327SOL     OW30613   0.222   1.824   2.128  0.4610  0.4760  0.4117
 6327SOL    HW130614   0.175   1.840   2.210 -2.1984  0.8566 -1.1681
 6327SOL    HW230615   0.168   1.752   2.096 -0.2535  0.8037  0.8782
 6328SOL     OW30616   3.319   2.443   2.044  0.5507  0.1576 -0.3370
 6328SOL    HW130617   3.261   2.395   1.985 -0.1070  1.4081 -0.7122
 6328SOL    HW230618   3.302   2.530   2.008  2.0039 -0.0840 -1.6364
 6329SOL     OW30619   1.955   2.886   8.093 -0.7642  0.5203 -0.0212
 6329SOL    HW130620   1.997   2.802   8.111 -2.1702 -0.0340  0.6543
 6329SOL    HW230621   1.921   2.868   8.005  0.7342 -0.4032 -0.4073
 6330SOL     OW30622   4.218   2.608   2.937 -0.2226 -0.5452 -0.4160
 6330SOL    HW130623   4.301   2.600   2.984  0.4768  0.1866 -1.5104
 6330SOL    HW230624   4.198   2.695   2.972 -0.6891 -0.1953 -1.5628
 6331SOL     OW30625   1.765   4.258   4.617 -0.0417 -0.4969 -0.1696
 6331SOL    HW130626   1.737   4.251   4.526 -0.4037  0.7364 -0.1543
 6331SOL    HW230627   1.859   4.241   4.609  0.3953  1.1725  1.3092
 6332SOL     OW30628   3.829   0.278   1.253 -0.4121 -0.2355  0.2513
 6332SOL    HW130629   3.749   0.319   1.220 -0.0615 -1.1562 -1.7576
 6332SOL    HW230630   3.875   0.306   1.174 -0.2580 -1.1764  0.0046
 6333SOL     OW30631   4.145   4.018   9.646  0.5676  0.2596 -0.7071
 6333SOL    HW130632   4.082   3.999   9.577 -0.2159  0.1928  0.0404
 6333SOL    HW230633   4.143   4.114   9.639  0.9986  0.4116  1.1525
 6334SOL     OW30634   2.492   2.758   2.593 -0.0210  0.2638 -0.9425
 6334SOL    HW130635   2.421   2.710   2.636 -0.3467  0.7595 -0.9334
 6334SOL    HW230636   2.474   2.727   2.504  0.3818  2.4857 -1.8115
 6335SOL     OW30637   0.528   1.441   5.890 -0.5070 -0.1689 -0.4705
 6335SOL    HW130638   0.522   1.450   5.985 -0.8375 -1.7364 -0.3518
 6335SOL    HW230639   0.483   1.357   5.879 -0.9172  0.1135 -0.9853
 6336SOL     OW30640   4.646   4.097  14.595 -0.9668  0.5296  0.3604
 6336SOL    HW130641   4.635   4.186  14.561 -1.0311  0.3036 -0.2050
 6336SOL    HW230642   4.713   4.062  14.537 -0.8023 -0.0642  0.9065
 6337SOL     OW30643   4.718   1.247   2.922 -0.1149  0.2134 -0.6802
 6337SOL    HW130644   0.004   1.310   2.989  0.4023 -0.0507 -0.6338
 6337SOL    HW230645   0.058   1.196   2.927  1.5002  2.6172 -1.9110
 6338SOL     OW30646   1.559   3.774   7.181 -0.1543  0.0474  0.3344
 6338SOL    HW130647   1.571   3.807   7.092 -0.0441  2.6819  1.3491
 6338SOL    HW230648   1.638   3.721   7.193 -0.5496 -1.0169 -1.6807
 6339SOL     OW30649   2.161   2.939   7.076  0.3229  0.9969 -0.0462
 6339SOL    HW130650   2.183   2.980   6.992  0.4114  0.3962 -0.3128
 6339SOL    HW230651   2.242   2.964   7.122  0.2550 -1.1174  1.2001
 6340SOL     OW30652   0.157   2.453  14.344 -0.4098  0.3914  0.0110
 6340SOL    HW130653   0.231   2.412  14.390 -0.1584  0.0547 -0.6936
 6340SOL    HW230654   0.195   2.536  14.316  0.1838 -0.3365 -1.3169
 6341SOL     OW30655   1.617   1.417   1.726  0.1378 -0.1530  0.4039
 6341SOL    HW130656   1.540   1.370   1.693  1.0041 -0.1862 -1.5851
 6341SOL    HW230657   1.615   1.479   1.653 -0.5911 -1.3822 -0.6303
 6342SOL     OW30658   0.532   3.445  16.595  0.1678 -0.2049 -0.0581
 6342SOL    HW130659   0.597   3.511  16.618  0.9712 -1.3382  0.9188
 6342SOL    HW230660   0.474   3.495  16.537 -1.1006 -2.1488 -0.4556
 6343SOL     OW30661   2.693   4.463   6.942 -0.1008  0.5512  0.2949
 6343SOL    HW130662   2.675   4.467   7.036 -2.7145  1.3055 -0.2165
 6343SOL    HW230663   2.786   4.483   6.939  0.0492 -0.3503 -0.8315
 6344SOL     OW30664   2.304   2.135   8.499  0.1635 -0.0479  0.2706
 6344SOL    HW130665   2.214   2.117   8.473  0.0341  0.0400  0.6607
 6344SOL    HW230666   2.298   2.209   8.560  0.4037 -0.3163  0.6247
 6345SOL     OW30667   4.029   0.718   8.069  0.2768 -0.1363 -0.5327
 6345SOL    HW130668   3.937   0.714   8.096  0.5069  0.3492  0.3190
 6345SOL    HW230669   4.070   0.679   8.147 -3.1251  0.4059  1.5125
 6346SOL     OW30670   4.335   3.863  14.592  0.0993 -0.4391  0.6706
 6346SOL    HW130671   4.299   3.941  14.634 -1.9479 -0.2192 -1.4724
 6346SOL    HW230672   4.252   3.816  14.586  0.4558 -0.6326 -2.4471
 6347SOL     OW30673   0.958   1.163   5.032 -0.8096 -0.0223 -0.3410
 6347SOL    HW130674   0.957   1.076   5.071  1.4022 -0.3682 -1.0324
 6347SOL    HW230675   0.889   1.161   4.965 -1.2794  4.5871  0.0214
 6348SOL     OW30676   3.626   0.762   8.412 -0.1193 -0.1464  0.0533
 6348SOL    HW130677   3.669   0.724   8.489 -1.4140 -2.6197 -0.4649
 6348SOL    HW230678   3.598   0.851   8.434  0.1443 -0.4172  1.5141
 6349SOL     OW30679   3.255   1.257  11.364  0.2743 -0.1518  1.3149
 6349SOL    HW130680   3.213   1.334  11.325 -0.5858 -1.7059 -0.8214
 6349SOL    HW230681   3.186   1.231  11.425 -1.4913 -0.6532 -0.8508
 6350SOL     OW30682   3.379   2.858  10.453  0.2216 -0.4911 -0.3423
 6350SOL    HW130683   3.303   2.889  10.500  0.5383  2.1333 -1.5427
 6350SOL    HW230684   3.341   2.864  10.365 -1.3834  1.5740  0.5046
 6351SOL     OW30685   1.378   1.142   4.424  0.0705  0.2455  0.2937
 6351SOL    HW130686   1.458   1.185   4.455  0.4301 -0.2371  0.0298
 6351SOL    HW230687   1.321   1.147   4.501 -3.4172 -0.7201 -2.2337
 6352SOL     OW30688   2.383   3.766   6.991  0.8257  0.3010 -0.7208
 6352SOL    HW130689   2.299   3.758   6.946  0.7906  0.7525 -0.7272
 6352SOL    HW230690   2.337   3.773   7.075  3.1014 -3.1187  0.8165
 6353SOL     OW30691   3.927   1.866  15.991  0.2478 -0.2413 -0.0221
 6353SOL    HW130692   3.857   1.912  15.944  1.2737  1.1941 -0.1349
 6353SOL    HW230693   3.897   1.868  16.082 -0.6552  1.0616 -0.3544
 6354SOL     OW30694   4.233   4.425  15.069 -0.2051  0.1929  0.4091
 6354SOL    HW130695   4.304   4.366  15.045  0.4915  0.9235  0.6587
 6354SOL    HW230696   4.159   4.373  15.038 -0.8166  1.0106  0.4725
 6355SOL     OW30697   2.305   2.028  11.993  0.4197 -0.4938 -0.3102
 6355SOL    HW130698   2.367   1.958  12.014  0.6486 -0.0306  0.5594
 6355SOL    HW230699   2.299   2.012  11.898 -1.2861 -0.3390 -0.2307
 6356SOL     OW30700   1.808   2.743   7.398 -0.0706  0.4474 -0.1658
 6356SOL    HW130701   1.897   2.767   7.374  0.7244 -1.6950  0.6744
 6356SOL    HW230702   1.801   2.655   7.361 -0.3894  0.7079 -0.7153
 6357SOL     OW30703   4.467   4.179   8.623 -0.1480  0.3706 -0.1204
 6357SOL    HW130704   4.519   4.143   8.695  1.3901  1.6431 -0.5952
 6357SOL    HW230705   4.423   4.102   8.588  0.5633  0.2598 -0.7691
 6358SOL     OW30706   1.333   1.031   5.124 -0.2769 -0.4382 -0.1508
 6358SOL    HW130707   1.280   1.069   5.194 -0.7391 -0.4032 -0.5212
 6358SOL    HW230708   1.421   1.038   5.160 -0.2726  2.3151 -0.6977
 6359SOL     OW30709   3.345   0.605   3.931 -0.5614  0.3091  0.1506
 6359SOL    HW130710   3.393   0.666   3.987 -0.2860  0.2571 -0.0320
 6359SOL    HW230711   3.261   0.651   3.931 -0.9359 -0.3707 -0.2854
 6360SOL     OW30712   3.617   1.810  10.338  0.2440  0.3913  0.4261
 6360SOL    HW130713   3.527   1.784  10.355 -0.8526  2.4341 -2.2980
 6360SOL    HW230714   3.665   1.728  10.327 -0.8450 -0.2012  0.1466
 6361SOL     OW30715   2.047   4.278   6.332  0.2752 -0.1340 -0.1157
 6361SOL    HW130716   2.041   4.222   6.410 -0.7712  0.7309  0.4400
 6361SOL    HW230717   1.983   4.225   6.283  1.0465 -1.5218  0.3576
 6362SOL     OW30718   0.021   4.385   5.139 -0.0184  0.2207 -0.1099
 6362SOL    HW130719   4.740   4.315   5.078  0.0963 -0.6693  0.8711
 6362SOL    HW230720   4.718   4.350   5.217 -0.1875  2.1445  0.6748
 6363SOL     OW30721   3.845   3.505   7.424 -0.0752  0.0377 -0.7725
 6363SOL    HW130722   3.782   3.432   7.427  0.4402 -0.3919 -0.4360
 6363SOL    HW230723   3.802   3.563   7.486 -0.6406  0.0018 -1.1205
 6364SOL     OW30724   1.308   3.045  16.863 -0.4935 -0.0170  0.2356
 6364SOL    HW130725   1.244   2.973  16.864 -1.0118  0.4486  0.4031
 6364SOL    HW230726   1.351   3.012  16.941 -3.6629 -0.9404  1.6086
 6365SOL     OW30727   0.885   1.875   7.953 -0.3175  0.4586 -0.3510
 6365SOL    HW130728   0.965   1.919   7.921 -0.2724 -0.6314 -1.7316
 6365SOL    HW230729   0.892   1.916   8.039 -1.8331 -0.4275  0.1852
 6366SOL     OW30730   4.446   1.690   5.510  0.0707  0.3167 -0.4150
 6366SOL    HW130731   4.376   1.676   5.573 -0.0084 -0.5984 -0.7057
 6366SOL    HW230732   4.505   1.743   5.563 -2.0687  3.1816 -0.8930
 6367SOL     OW30733   0.872   4.628   6.878  0.2321 -0.2237 -0.0093
 6367SOL    HW130734   0.925   4.696   6.919 -0.6329 -0.0505  0.8154
 6367SOL    HW230735   0.795   4.625   6.935 -0.6137 -1.1090 -1.2204
 6368SOL     OW30736   2.254   2.089   7.926  0.1358  0.5977  0.3076
 6368SOL    HW130737   2.316   2.127   7.863  0.8782 -0.9268  0.1080
 6368SOL    HW230738   2.256   1.999   7.892  1.2404  0.9531 -0.5704
 6369SOL     OW30739   0.218   2.160   6.102  0.2378  0.3338 -0.0445
 6369SOL    HW130740   0.126   2.156   6.076  0.5883 -0.5161 -1.1580
 6369SOL    HW230741   0.229   2.249   6.135  1.9515 -0.5323  1.6926
 6370SOL     OW30742   1.537   0.100   6.501 -0.3873  0.1668 -0.0406
 6370SOL    HW130743   1.460   0.043   6.503 -0.9597  1.0194  2.2552
 6370SOL    HW230744   1.548   0.103   6.596 -2.0495 -1.5919  0.2134
 6371SOL     OW30745   1.846   2.257   7.139 -0.0303 -0.3495  0.3979
 6371SOL    HW130746   1.764   2.215   7.113 -0.0049  0.4516 -0.9554
 6371SOL    HW230747   1.871   2.305   7.060  2.3829  0.3708  1.5982
 6372SOL     OW30748   2.606   0.437   7.853  0.3789 -0.2209  0.3002
 6372SOL    HW130749   2.625   0.348   7.823  2.6374  0.8647 -1.4089
 6372SOL    HW230750   2.691   0.480   7.862  1.2905 -1.4810 -2.3831
 6373SOL     OW30751   1.333   2.683   9.803 -0.1739 -0.1865 -0.4513
 6373SOL    HW130752   1.421   2.721   9.803 -0.2838  0.0643 -1.4942
 6373SOL    HW230753   1.312   2.723   9.719  1.8815 -1.2178 -1.4440
 6374SOL     OW30754   2.486   4.356  13.740  0.2051  0.5655  0.6249
 6374SOL    HW130755   2.446   4.421  13.683  1.6194  0.7700 -0.1235
 6374SOL    HW230756   2.551   4.316  13.682  0.6077 -0.8368  2.0154
 6375SOL     OW30757   2.881   1.954  17.315 -0.6590 -0.0487  0.3228
 6375SOL    HW130758   2.911   1.996  17.234  0.0853 -1.1018  0.0653
 6375SOL    HW230759   2.800   1.905  17.302 -1.7638  1.8804 -0.0492
 6376SOL     OW30760   3.049   2.189   8.097 -0.2221  0.0430  0.0867
 6376SOL    HW130761   2.965   2.154   8.129  0.2182 -1.2543 -0.1956
 6376SOL    HW230762   3.048   2.153   8.009 -0.6641 -2.5133  1.1469
 6377SOL     OW30763   2.016   1.915  12.175 -0.3373 -0.4651  0.1118
 6377SOL    HW130764   1.980   1.911  12.263  0.4604  1.1061  0.5079
 6377SOL    HW230765   2.097   1.867  12.193 -1.1092 -1.7416  0.1514
 6378SOL     OW30766   0.143   2.852  10.972  0.7279  0.1685  0.0839
 6378SOL    HW130767   0.161   2.845  10.878  0.4407  1.0422 -0.0350
 6378SOL    HW230768   0.231   2.864  11.006  2.0147 -0.8572 -2.9468
 6379SOL     OW30769   0.661   2.645  12.749  0.3156  0.1411  0.5091
 6379SOL    HW130770   0.638   2.736  12.767 -0.4321  0.2067 -0.8329
 6379SOL    HW230771   0.731   2.653  12.684  0.9985 -1.2224  1.0677
 6380SOL     OW30772   4.735   0.312   2.750  0.1417 -0.0929 -0.0812
 6380SOL    HW130773   4.715   0.375   2.681 -0.4134  0.8524  0.9574
 6380SOL    HW230774   0.081   0.284   2.720  0.3990  0.2243  0.3760
 6381SOL     OW30775   2.019   2.160   3.189 -0.2688  0.0780  0.1896
 6381SOL    HW130776   2.006   2.247   3.152  1.2071  0.2438  0.0709
 6381SOL    HW230777   1.974   2.166   3.274 -0.3594  1.1308  0.0737
 6382SOL     OW30778   4.610   4.499  14.823 -0.1302  0.0246  0.2199
 6382SOL    HW130779   4.536   4.469  14.876 -1.3129  1.5126 -0.5873
 6382SOL    HW230780   4.558   4.561  14.770  1.2004  1.3569  0.4748
 6383SOL     OW30781   2.605   2.203  13.179  0.2694 -0.1065  0.4479
 6383SOL    HW130782   2.611   2.111  13.154 -1.7454 -0.3715  0.9306
 6383SOL    HW230783   2.633   2.240  13.095  2.8532 -1.2511  0.7836
 6384SOL     OW30784   3.429   2.157   4.910  0.0710  0.4408  0.2863
 6384SOL    HW130785   3.486   2.090   4.947 -0.3493  0.0717  0.2608
 6384SOL    HW230786   3.367   2.116   4.850  1.0007  0.0726 -0.4328
 6385SOL     OW30787   3.973   4.324   3.500 -0.3083 -0.1617 -0.2157
 6385SOL    HW130788   4.019   4.374   3.433  1.0803 -1.0648  0.0628
 6385SOL    HW230789   3.906   4.392   3.509  1.0395  1.0184  0.8919
 6386SOL     OW30790   0.580   1.266   8.700  0.0427 -0.3602 -0.3428
 6386SOL    HW130791   0.593   1.251   8.793  0.8635  2.4849  0.0076
 6386SOL    HW230792   0.565   1.172   8.688 -1.0167 -0.0488 -1.4337
 6387SOL     OW30793   0.296   0.185   2.433  0.0970  0.5024  0.3213
 6387SOL    HW130794   0.285   0.153   2.344 -1.5067 -0.8407  1.0082
 6387SOL    HW230795   0.272   0.277   2.419 -1.4098 -0.2428 -1.9922
 6388SOL     OW30796   2.664   0.748   4.035 -0.1444  0.1947 -0.4395
 6388SOL    HW130797   2.582   0.798   4.046  0.1811  0.3675  1.1806
 6388SOL    HW230798   2.715   0.765   4.114 -0.5520 -3.3969  0.6066
 6389SOL     OW30799   1.911   0.366   1.743  0.4508 -0.1928  0.8939
 6389SOL    HW130800   1.820   0.377   1.773  0.3224  0.1145  0.3815
 6389SOL    HW230801   1.960   0.402   1.817  2.3554  1.4931 -1.2021
 6390SOL     OW30802   1.032   0.601   2.598 -0.0327 -0.6450 -0.1109
 6390SOL    HW130803   0.997   0.538   2.660  3.5167 -0.1849  2.3599
 6390SOL    HW230804   1.093   0.549   2.546  0.4714 -0.7886  0.6422
 6391SOL     OW30805   2.356   3.392   2.994 -0.7249 -0.3096  0.2471
 6391SOL    HW130806   2.312   3.436   3.067 -0.4771 -0.3871  0.4438
 6391SOL    HW230807   2.393   3.319   3.045  0.6254  0.3436  0.2103
 6392SOL     OW30808   2.456   1.882  13.693  0.9944 -0.2846  0.5162
 6392SOL    HW130809   2.385   1.821  13.710 -1.3826  1.3348 -3.6485
 6392SOL    HW230810   2.485   1.906  13.781  2.1531 -0.8140  0.2784
 6393SOL     OW30811   3.419   2.349  10.910 -0.1001 -0.0296  0.1156
 6393SOL    HW130812   3.395   2.362  11.002 -1.5413 -0.4863 -0.1907
 6393SOL    HW230813   3.442   2.256  10.912 -1.1872 -0.2939  0.4235
 6394SOL     OW30814   0.519   1.921   3.370 -0.1923 -0.7152 -0.2547
 6394SOL    HW130815   0.499   1.847   3.426 -1.8968 -0.4491 -0.5251
 6394SOL    HW230816   0.505   1.875   3.287 -0.4830 -0.5294 -0.3103
 6395SOL     OW30817   1.402   0.623   9.293 -0.2631 -0.2361 -0.2768
 6395SOL    HW130818   1.393   0.692   9.226 -2.9585 -0.9364 -0.6329
 6395SOL    HW230819   1.495   0.616   9.312 -0.5237 -2.2560  0.2327
 6396SOL     OW30820   4.668   2.565  14.400  0.2346 -0.0730  0.3816
 6396SOL    HW130821   0.007   2.520  14.373 -0.0661  0.4640 -1.4293
 6396SOL    HW230822   4.666   2.634  14.333 -0.5127  1.4681  1.9867
 6397SOL     OW30823   1.010   0.812  12.769  0.3107  0.3305  0.0978
 6397SOL    HW130824   1.021   0.884  12.706 -2.8106  1.8052  1.2349
 6397SOL    HW230825   0.960   0.855  12.838  0.9445  2.5191 -0.8046
 6398SOL     OW30826   0.856   1.272   6.119  0.1297 -0.1911 -0.7031
 6398SOL    HW130827   0.894   1.270   6.031  0.0970  0.4563 -0.7311
 6398SOL    HW230828   0.908   1.349   6.142 -0.7542  0.0922  0.3409
 6399SOL     OW30829   0.812   2.167   5.866  0.3670  0.0829 -0.2984
 6399SOL    HW130830   0.719   2.178   5.846  0.0149 -0.1380  1.1698
 6399SOL    HW230831   0.821   2.076   5.838 -1.2637  0.0235 -0.6415
 6400SOL     OW30832   4.219   2.091  16.573 -0.0079 -0.2335 -0.0222
 6400SOL    HW130833   4.233   2.141  16.653 -0.1731  1.1991 -0.8899
 6400SOL    HW230834   4.212   2.167  16.515 -3.5301  0.2785  1.1178
 6401SOL     OW30835   0.291   1.650   5.330 -0.2498 -0.4764 -0.4516
 6401SOL    HW130836   0.262   1.737   5.302  1.7284  0.6916  1.0917
 6401SOL    HW230837   0.377   1.659   5.372 -0.0173 -1.4064 -0.7152
 6402SOL     OW30838   3.079   1.666   5.806  0.2301 -0.0520  0.1460
 6402SOL    HW130839   3.083   1.736   5.740  2.1097  0.1304  0.4468
 6402SOL    HW230840   3.108   1.588   5.758 -0.0668  0.9950 -1.7496
 6403SOL     OW30841   2.250   2.307   6.298  0.2039  0.0603  0.2532
 6403SOL    HW130842   2.261   2.341   6.386  0.5317 -1.6686  0.8740
 6403SOL    HW230843   2.276   2.389   6.257 -2.7698 -0.1418 -2.1408
 6404SOL     OW30844   0.274   2.794   2.557  0.3044 -0.4447 -0.0748
 6404SOL    HW130845   0.234   2.836   2.633  0.4554  0.1615 -0.3328
 6404SOL    HW230846   0.249   2.845   2.480  0.6590 -1.4449 -0.8594
 6405SOL     OW30847   4.502   3.312   8.732  0.3474 -0.2428  0.0454
 6405SOL    HW130848   4.598   3.314   8.734  0.4050 -0.6450 -2.2279
 6405SOL    HW230849   4.487   3.288   8.640 -1.5703  0.5473  0.1484
 6406SOL     OW30850   2.483   4.019   4.621 -0.1809  0.3496 -0.8616
 6406SOL    HW130851   2.489   4.095   4.678 -0.1368  0.6243 -1.2280
 6406SOL    HW230852   2.570   4.019   4.580  1.5772 -0.2146  2.8802
 6407SOL     OW30853   2.621   0.710   6.492  0.1167 -0.2542 -0.2331
 6407SOL    HW130854   2.563   0.649   6.539  0.0299  0.8000  1.0221
 6407SOL    HW230855   2.682   0.722   6.565 -1.3689  0.1643  0.9398
 6408SOL     OW30856   2.084   4.648   4.398 -0.0437 -0.4924 -0.5272
 6408SOL    HW130857   2.100   4.605   4.483 -2.9825 -2.2811 -0.8702
 6408SOL    HW230858   2.111   4.584   4.332 -1.1509 -0.4399 -1.0312
 6409SOL     OW30859   1.636   2.493   6.523  0.1312 -0.1196  0.0102
 6409SOL    HW130860   1.653   2.549   6.447 -1.7754 -2.5956 -2.2701
 6409SOL    HW230861   1.624   2.557   6.593 -1.6944  1.6143 -1.8817
 6410SOL     OW30862   4.676   1.727  12.826 -0.5028 -0.1862  0.8336
 6410SOL    HW130863   4.581   1.714  12.819 -0.3989  0.3201 -1.6876
 6410SOL    HW230864   4.701   1.648  12.874  1.5978  0.3014  0.5203
 6411SOL     OW30865   3.136   4.643   6.469 -0.2170 -0.2495 -0.1379
 6411SOL    HW130866   3.115   4.550   6.481  0.7216 -0.5095 -0.5395
 6411SOL    HW230867   3.057   4.687   6.501 -0.4905 -0.8048 -0.0467
 6412SOL     OW30868   0.531   1.133   5.301  0.0433 -0.2924  0.4800
 6412SOL    HW130869   0.463   1.069   5.320  1.1621 -1.0410  1.9736
 6412SOL    HW230870   0.608   1.077   5.299 -0.2194 -0.6047 -1.3160
 6413SOL     OW30871   0.897   1.220   9.045  0.3191  0.4818 -0.1032
 6413SOL    HW130872   0.925   1.223   9.136  2.1465 -1.3894 -0.6010
 6413SOL    HW230873   0.907   1.126   9.027  1.4594  0.7491 -0.8535
 6414SOL     OW30874   0.650   0.176   1.828  0.1375 -0.0930 -0.0119
 6414SOL    HW130875   0.588   0.196   1.898 -0.6746 -2.8042  0.0450
 6414SOL    HW230876   0.720   0.236   1.854  1.9494 -1.6255 -1.3918
 6415SOL     OW30877   4.471   2.800   8.350 -0.3557  0.3929 -0.2032
 6415SOL    HW130878   4.382   2.766   8.355 -0.6243  0.6347 -3.2815
 6415SOL    HW230879   4.490   2.773   8.260 -2.1741  0.1575 -0.5152
 6416SOL     OW30880   1.345   1.564   2.895 -0.2965  0.4850  0.3465
 6416SOL    HW130881   1.439   1.581   2.896 -0.3123  0.7393 -1.6418
 6416SOL    HW230882   1.321   1.587   2.805  0.4469 -1.0237 -0.2612
 6417SOL     OW30883   0.894   1.977   8.719  1.0704 -0.4802 -0.1876
 6417SOL    HW130884   0.913   1.911   8.786 -2.4554 -2.1102 -0.7844
 6417SOL    HW230885   0.980   1.985   8.678  1.7106  2.3988  1.6778
 6418SOL     OW30886   3.575   3.286   2.799  0.1011 -0.0660 -0.5801
 6418SOL    HW130887   3.489   3.262   2.835  0.6781  0.5947  1.2619
 6418SOL    HW230888   3.634   3.236   2.855 -0.1767  0.8721  0.5716
 6419SOL     OW30889   4.311   1.413   8.801 -0.1531 -0.1511 -0.0086
 6419SOL    HW130890   4.315   1.419   8.706 -0.3591 -1.1796 -0.0781
 6419SOL    HW230891   4.342   1.500   8.825  0.0616  0.4313 -2.4169
 6420SOL     OW30892   3.589   0.262   7.817 -0.1491  0.0437 -0.2790
 6420SOL    HW130893   3.517   0.302   7.768  0.1395  0.4443 -0.3670
 6420SOL    HW230894   3.560   0.172   7.836 -0.0233  0.0261 -0.1744
 6421SOL     OW30895   1.368   4.351  15.980  0.0615 -0.1946 -0.1063
 6421SOL    HW130896   1.354   4.442  16.005 -2.8065 -0.9579  1.1199
 6421SOL    HW230897   1.428   4.317  16.047 -0.1842 -1.5633 -0.5879
 6422SOL     OW30898   4.011   2.978   8.996  0.7940  0.2053 -0.2217
 6422SOL    HW130899   4.094   2.994   9.041 -0.1298  2.4508  0.7116
 6422SOL    HW230900   4.027   2.969   8.902  0.0382  1.1321 -0.4418
 6423SOL     OW30901   3.346   3.455   8.986 -0.0125 -0.0171  0.1702
 6423SOL    HW130902   3.265   3.415   9.018 -0.0586 -0.8290 -0.9668
 6423SOL    HW230903   3.392   3.372   8.973 -0.6800 -0.4686  0.6871
 6424SOL     OW30904   1.236   3.807   4.154 -0.6664 -0.2851 -0.3615
 6424SOL    HW130905   1.326   3.818   4.125  0.7035 -1.9889  3.1912
 6424SOL    HW230906   1.216   3.738   4.091  2.9058 -0.4384 -1.3253
 6425SOL     OW30907   0.425   2.418   8.145 -0.0032 -0.2184  0.1834
 6425SOL    HW130908   0.389   2.352   8.203 -0.7805  0.5899  0.6072
 6425SOL    HW230909   0.422   2.381   8.057  0.1609  0.2264 -0.0099
 6426SOL     OW30910   3.790   1.241  17.519  0.2526 -0.3159  0.1280
 6426SOL    HW130911   3.788   1.211  17.610 -2.0993  1.6020  0.7005
 6426SOL    HW230912   3.730   1.315  17.521 -1.1122 -1.4238  0.2047
 6427SOL     OW30913   2.286   3.342   2.443 -0.0757  0.2047 -0.2060
 6427SOL    HW130914   2.269   3.337   2.537 -3.1183 -1.1554 -0.8322
 6427SOL    HW230915   2.257   3.433   2.439  0.8520  0.5228  0.2155
 6428SOL     OW30916   2.146   0.269   0.257 -0.3876  0.6215 -0.1029
 6428SOL    HW130917   2.079   0.210   0.292  0.4434 -1.2967 -1.7525
 6428SOL    HW230918   2.190   0.207   0.199 -0.6136  0.2055  0.1757
 6429SOL     OW30919   1.221   2.905   2.060  0.6101 -0.2301 -0.3203
 6429SOL    HW130920   1.181   2.904   2.147  1.0495  0.5512 -0.1073
 6429SOL    HW230921   1.213   2.996   2.032  2.4016  0.0945  0.2418
 6430SOL     OW30922   4.045   4.643  16.922 -0.3464  0.9582 -0.4902
 6430SOL    HW130923   4.119   4.705  16.927  1.7815 -1.5184 -1.2567
 6430SOL    HW230924   4.098   4.564  16.919  0.7842  1.6734  0.6225
 6431SOL     OW30925   0.021   1.411   9.860 -0.7877 -0.0928  0.4380
 6431SOL    HW130926   4.727   1.500   9.861  0.7445  0.5193 -1.8217
 6431SOL    HW230927   4.685   1.364   9.828 -1.2217  2.1676 -1.8566
 6432SOL     OW30928   0.023   2.364   6.824 -0.6347 -0.0393  0.6882
 6432SOL    HW130929   4.705   2.438   6.808  0.5421  0.9239  0.8086
 6432SOL    HW230930   0.024   2.366   6.920  0.2248  0.6609  0.6696
 6433SOL     OW30931   0.390   1.443   9.333  0.5732  0.2943  0.6793
 6433SOL    HW130932   0.343   1.402   9.406  1.9142  2.9232  3.0377
 6433SOL    HW230933   0.393   1.371   9.270 -0.6869  0.0782  0.8566
 6434SOL     OW30934   3.170   1.696  17.440 -0.0857 -0.1518 -0.3808
 6434SOL    HW130935   3.119   1.763  17.486  1.5861  1.1441 -0.4029
 6434SOL    HW230936   3.105   1.668  17.376 -0.3317  2.2310 -1.1867
 6435SOL     OW30937   3.627   1.387   3.067 -0.4310 -0.3025  0.0372
 6435SOL    HW130938   3.546   1.338   3.056  0.0872 -0.8207 -1.3620
 6435SOL    HW230939   3.691   1.323   3.099 -1.6012 -0.7774  1.3891
 6436SOL     OW30940   0.568   0.386   6.631 -0.2600 -0.3773 -0.2091
 6436SOL    HW130941   0.590   0.371   6.539  0.7425  0.3705 -0.0936
 6436SOL    HW230942   0.473   0.393   6.627 -0.1855  0.1550 -1.0381
 6437SOL     OW30943   4.722   3.002   5.092 -0.0181  0.1515 -0.0645
 6437SOL    HW130944   0.012   3.015   5.182 -0.7594  1.5344 -0.0207
 6437SOL    HW230945   4.653   3.067   5.090 -0.0482  0.2279  3.1210
 6438SOL     OW30946   1.325   1.216  14.511 -0.6639  0.1117  0.6545
 6438SOL    HW130947   1.258   1.270  14.468  1.5160  1.0509 -1.5298
 6438SOL    HW230948   1.272   1.188  14.586 -0.3080 -1.6620  0.2291
 6439SOL     OW30949   3.274   1.579  15.649  0.1579  0.1136  0.1079
 6439SOL    HW130950   3.344   1.575  15.714  0.8995 -0.1203 -0.7129
 6439SOL    HW230951   3.207   1.640  15.682  0.3577 -0.6111  1.8554
 6440SOL     OW30952   1.035   3.036  13.420 -0.5162 -0.0501 -0.2834
 6440SOL    HW130953   1.066   2.954  13.457 -1.2851 -0.8965 -1.5019
 6440SOL    HW230954   1.094   3.090  13.473  1.2925 -1.2475 -1.0787
 6441SOL     OW30955   4.070   2.313  11.056  0.0856 -0.8371 -0.7216
 6441SOL    HW130956   4.139   2.360  11.104 -2.3303 -1.9170  3.8419
 6441SOL    HW230957   4.015   2.383  11.022  0.2396 -0.9909 -1.2898
 6442SOL     OW30958   3.146   0.077   0.049  0.3007  0.3512  0.1037
 6442SOL    HW130959   3.084   0.006   0.063  0.8357 -0.1257  0.0741
 6442SOL    HW230960   3.095   0.136  17.752  1.2913  0.0218 -1.1648
 6443SOL     OW30961   0.817   4.039   8.941  0.0406  0.6509  0.2074
 6443SOL    HW130962   0.751   3.975   8.967 -0.0063  1.5820  2.3831
 6443SOL    HW230963   0.841   4.084   9.022  0.4654 -0.5278  0.7363
 6444SOL     OW30964   1.764   2.789  15.198  0.0343  0.4439 -0.3114
 6444SOL    HW130965   1.843   2.842  15.197  0.4142 -0.0407  3.7843
 6444SOL    HW230966   1.708   2.833  15.261 -1.9445 -0.1633 -1.6378
 6445SOL     OW30967   2.441   2.344  13.387  0.1001  0.5492  0.8373
 6445SOL    HW130968   2.498   2.302  13.322  0.9417  2.2541  0.4514
 6445SOL    HW230969   2.416   2.279  13.452  0.0193  1.0584  1.3113
 6446SOL     OW30970   3.802   0.092  13.270  0.2470 -0.0727 -0.2706
 6446SOL    HW130971   3.877   0.042  13.302 -0.6126 -0.8472  0.5441
 6446SOL    HW230972   3.841   0.178  13.283  0.7176 -0.5863  1.6554
 6447SOL     OW30973   2.959   2.439  11.816 -0.5529  0.0595  0.5062
 6447SOL    HW130974   2.863   2.447  11.817 -0.5684  0.3536 -3.4056
 6447SOL    HW230975   2.963   2.393  11.900 -0.2538  2.1299  1.6238
 6448SOL     OW30976   1.655   0.746   2.961  0.2067 -0.0897  0.5930
 6448SOL    HW130977   1.743   0.728   2.927 -0.3444 -0.4774 -0.6389
 6448SOL    HW230978   1.652   0.700   3.045 -0.5737 -1.7020 -0.3029
 6449SOL     OW30979   4.621   0.997   4.057 -0.5909 -0.1942 -0.4753
 6449SOL    HW130980   4.685   1.025   4.122 -0.3182 -0.0149 -0.8195
 6449SOL    HW230981   4.594   0.913   4.094 -0.5609  0.0005 -0.0146
 6450SOL     OW30982   3.739   1.064   3.641  0.3876  0.2876 -0.0270
 6450SOL    HW130983   3.717   1.081   3.732 -0.6717 -0.0269 -0.2252
 6450SOL    HW230984   3.683   1.130   3.599 -0.1157  0.4980  0.9991
 6451SOL     OW30985   3.144   3.885   6.341  0.2303 -0.0397  0.3276
 6451SOL    HW130986   3.074   3.946   6.363 -1.6366 -2.3491  0.8095
 6451SOL    HW230987   3.197   3.914   6.415  0.5101  0.6403 -0.1477
 6452SOL     OW30988   0.511   1.540   1.836  0.3548  0.1106 -0.1323
 6452SOL    HW130989   0.562   1.617   1.863  0.0901  0.1627  0.2180
 6452SOL    HW230990   0.482   1.512   1.923 -0.3057  0.1150 -0.3474
 6453SOL     OW30991   4.106   3.549  17.657 -0.4096 -0.6023 -0.3719
 6453SOL    HW130992   4.027   3.503  17.630  0.0070 -2.0286  0.8322
 6453SOL    HW230993   4.174   3.496  17.614  0.1831 -1.0431  1.0915
 6454SOL     OW30994   0.456   0.219   5.362 -0.0339  0.0591  0.5165
 6454SOL    HW130995   0.418   0.204   5.448 -0.9531 -2.5430 -0.3652
 6454SOL    HW230996   0.498   0.136   5.342 -0.2437  0.3582 -1.1643
 6455SOL     OW30997   3.629   4.562   4.249  0.5251 -0.4532  0.0451
 6455SOL    HW130998   3.605   4.600   4.165 -1.1841  1.7512  1.5471
 6455SOL    HW230999   3.543   4.571   4.289  0.0345  1.8753 -1.5395
 6456SOL     OW31000   4.563   2.556   6.799  0.3521 -0.2902  0.1891
 6456SOL    HW131001   4.540   2.562   6.891  1.1808 -1.6678  0.4773
 6456SOL    HW231002   4.549   2.648   6.774 -1.8127 -1.2718 -2.1945
 6457SOL     OW31003   0.004   3.064   2.072  0.8033  0.0170 -0.4163
 6457SOL    HW131004   0.001   2.993   2.135 -1.5325  0.9633  0.5514
 6457SOL    HW231005   4.676   3.040   2.009  0.5773  1.5677 -0.7709
 6458SOL     OW31006   1.463   2.306   5.866  0.0125 -0.2909 -0.5331
 6458SOL    HW131007   1.379   2.271   5.895 -0.3046 -0.1749 -1.3073
 6458SOL    HW231008   1.492   2.342   5.950 -5.4381 -1.8460  2.0144
 6459SOL     OW31009   2.441   2.838   1.796 -0.3480  0.2254  0.8367
 6459SOL    HW131010   2.530   2.805   1.787  0.1574  1.4563  1.2796
 6459SOL    HW231011   2.438   2.911   1.733  1.0679 -0.9351 -0.5632
 6460SOL     OW31012   3.107   4.525   1.953 -0.2120  0.0534 -0.1006
 6460SOL    HW131013   3.158   4.604   1.970 -1.5074  0.5586  1.4817
 6460SOL    HW231014   3.148   4.471   1.885 -0.6451 -0.4796  0.0583
 6461SOL     OW31015   3.812   3.300   8.689  0.6207 -0.0477  0.6979
 6461SOL    HW131016   3.840   3.350   8.766  0.0330 -2.6200  2.5807
 6461SOL    HW231017   3.890   3.244   8.681  0.6048 -0.0085  0.2513
 6462SOL     OW31018   3.500   0.510  15.223 -0.7226  0.2184 -0.0619
 6462SOL    HW131019   3.595   0.496  15.218 -0.4801  2.6188 -2.1706
 6462SOL    HW231020   3.496   0.499  15.318  0.0699  2.2377  0.2088
 6463SOL     OW31021   4.129   1.273   4.829  0.3012 -0.8635 -0.7085
 6463SOL    HW131022   4.179   1.260   4.909 -1.4196  0.0607  0.5285
 6463SOL    HW231023   4.188   1.331   4.780  0.9151  0.3736  1.4773
 6464SOL     OW31024   2.400   2.943   9.467  0.3923 -0.0965  0.0347
 6464SOL    HW131025   2.470   2.940   9.531  1.1177 -0.8170 -0.7860
 6464SOL    HW231026   2.456   2.907   9.398  0.1167 -1.4347  0.5069
 6465SOL     OW31027   4.224   1.536   0.327 -0.1396  0.8202  0.3035
 6465SOL    HW131028   4.201   1.627   0.309  0.8142  0.8910 -0.5748
 6465SOL    HW231029   4.233   1.522   0.233 -1.8643  1.2574  0.0706
 6466SOL     OW31030   4.726   4.355   3.770 -0.1474 -0.3694  0.5004
 6466SOL    HW131031   4.688   4.340   3.683  0.8493 -0.3734  0.0612
 6466SOL    HW231032   4.709   4.447   3.786  1.2254 -0.2478  1.3151
 6467SOL     OW31033   0.568   1.245   4.500  0.6350  0.6996  0.2645
 6467SOL    HW131034   0.598   1.325   4.544 -1.5691  1.7639 -0.1678
 6467SOL    HW231035   0.650   1.197   4.494  1.4087  2.0678 -0.1529
 6468SOL     OW31036   3.354   1.321   6.802 -0.1185 -0.4545 -0.2225
 6468SOL    HW131037   3.284   1.340   6.740 -0.0736 -2.3287 -0.8572
 6468SOL    HW231038   3.342   1.391   6.866 -1.2687  0.0888 -1.0387
 6469SOL     OW31039   1.611   3.130   2.377 -0.3486  0.3934  0.4034
 6469SOL    HW131040   1.600   3.058   2.439 -0.6061  0.9016  0.9501
 6469SOL    HW231041   1.555   3.091   2.310  1.4403  2.3402 -2.2153
 6470SOL     OW31042   3.393   1.576   3.932 -0.7706 -0.1009 -0.4438
 6470SOL    HW131043   3.410   1.656   3.881 -1.5634  1.0815  1.1660
 6470SOL    HW231044   3.480   1.560   3.968 -1.0202  1.5457  0.8895
 6471SOL     OW31045   1.200   3.753   6.746 -0.2069  1.0338  0.2502
 6471SOL    HW131046   1.136   3.822   6.728  0.4194  1.6331  0.3512
 6471SOL    HW231047   1.275   3.810   6.761 -0.3382  0.9932  1.0323
 6472SOL     OW31048   1.145   4.679  11.270  0.4213  0.7966 -0.2908
 6472SOL    HW131049   1.096   4.696  11.189  0.3866 -1.5118 -0.7436
 6472SOL    HW231050   1.147   0.030  11.300  0.4878 -0.6562  4.0587
 6473SOL     OW31051   4.371   4.469   7.546 -0.6851  0.2028 -0.5130
 6473SOL    HW131052   4.369   4.473   7.642  2.6749 -0.4553 -0.4254
 6473SOL    HW231053   4.346   4.378   7.534  3.1821 -0.8326 -0.7543
 6474SOL     OW31054   3.352   1.221   1.345 -0.3014  0.1600  0.2209
 6474SOL    HW131055   3.356   1.201   1.252 -0.9230  0.6729  0.0850
 6474SOL    HW231056   3.433   1.272   1.351  1.1451 -2.0553 -0.7186
 6475SOL     OW31057   0.806   3.108   6.254 -0.6795  0.0477  0.0806
 6475SOL    HW131058   0.734   3.046   6.263 -2.1810  1.9251  1.1400
 6475SOL    HW231059   0.766   3.185   6.295  0.6482  0.8145 -0.0641
 6476SOL     OW31060   1.183   1.230   5.280  0.4890 -0.2042  0.1629
 6476SOL    HW131061   1.245   1.256   5.348  0.4167  1.6782 -0.4686
 6476SOL    HW231062   1.150   1.317   5.256 -0.6016 -0.6896 -0.0892
 6477SOL     OW31063   3.785   4.304   3.192 -0.0013 -0.0657 -0.0007
 6477SOL    HW131064   3.840   4.254   3.132 -0.7044 -1.8018  0.7981
 6477SOL    HW231065   3.753   4.231   3.246  0.0259 -1.0566 -1.3309
 6478SOL     OW31066   4.442   3.581   2.099  0.6419 -0.0545  0.0925
 6478SOL    HW131067   4.375   3.586   2.031  0.0174 -1.1831  0.6200
 6478SOL    HW231068   4.388   3.547   2.171  1.0067  0.3386  0.5524
 6479SOL     OW31069   0.873   3.343   0.189 -0.6638 -0.2215 -0.2973
 6479SOL    HW131070   0.940   3.275   0.192  0.9903  1.4418  0.5029
 6479SOL    HW231071   0.905   3.399   0.260 -0.3434  0.3263 -0.8788
 6480SOL     OW31072   3.470   0.168   1.641  0.2046  0.2835  0.4922
 6480SOL    HW131073   3.540   0.106   1.659  0.6384  0.8114  0.6413
 6480SOL    HW231074   3.502   0.251   1.675 -0.9519  0.9604 -0.0465
 6481SOL     OW31075   3.354   0.197   8.889  0.2446  0.3242  0.2856
 6481SOL    HW131076   3.368   0.137   8.962  1.1387 -1.4240 -1.3124
 6481SOL    HW231077   3.429   0.255   8.900  0.3234  0.0223  1.3250
 6482SOL     OW31078   3.520   2.590   8.553  0.2956 -0.1171 -0.6046
 6482SOL    HW131079   3.597   2.646   8.548 -0.6518  1.3078  0.8555
 6482SOL    HW231080   3.515   2.591   8.648 -0.7656  1.4209 -0.6838
 6483SOL     OW31081   3.669   0.349   4.938  0.6956 -0.0631 -0.0035
 6483SOL    HW131082   3.765   0.351   4.943  0.6363 -0.4514  1.5194
 6483SOL    HW231083   3.642   0.350   5.030 -1.9950  3.0211 -0.8417
 6484SOL     OW31084   3.249   3.456   6.125 -0.1383  0.2365 -0.3514
 6484SOL    HW131085   3.322   3.439   6.065 -0.1411 -1.8551  0.2511
 6484SOL    HW231086   3.267   3.403   6.202  1.7062  1.1258 -0.1523
 6485SOL     OW31087   0.059   3.334   9.715  0.4999  0.2273  0.0009
 6485SOL    HW131088   0.124   3.382   9.663  0.6461  0.4682  0.4033
 6485SOL    HW231089   0.095   3.352   9.802 -1.2483  1.1703  0.5161
 6486SOL     OW31090   0.520   1.223   0.215 -0.4089  0.4166 -0.4182
 6486SOL    HW131091   0.491   1.257   0.130  2.2113 -1.6034 -2.1118
 6486SOL    HW231092   0.440   1.200   0.262 -1.0343  1.1076 -1.1363
 6487SOL     OW31093   3.443   0.754   2.297  0.0028  0.0099 -0.3114
 6487SOL    HW131094   3.383   0.688   2.263  0.3964 -0.4147 -0.1879
 6487SOL    HW231095   3.488   0.700   2.362  0.6538  1.3204  0.3337
 6488SOL     OW31096   3.860   2.146   4.106  0.1402 -0.2865  0.5278
 6488SOL    HW131097   3.914   2.067   4.100 -0.6288 -0.9416  2.0917
 6488SOL    HW231098   3.849   2.170   4.015 -0.1024  1.1197  0.9283
 6489SOL     OW31099   2.717   4.021   4.906 -0.1351 -0.1200 -0.1623
 6489SOL    HW131100   2.715   3.990   4.996  3.7487 -1.0413 -0.3674
 6489SOL    HW231101   2.630   3.991   4.883 -1.1375  2.1595  0.6763
 6490SOL     OW31102   4.205   2.165   3.819  0.1390 -0.7871  0.2245
 6490SOL    HW131103   4.228   2.073   3.835  1.5188 -1.0713 -3.4261
 6490SOL    HW231104   4.212   2.166   3.724  2.3675  1.5870  0.4199
 6491SOL     OW31105   2.544   3.249   6.736  0.0312 -0.0327  0.0324
 6491SOL    HW131106   2.503   3.328   6.701 -0.0331 -0.5503 -1.0665
 6491SOL    HW231107   2.633   3.271   6.709  1.4652 -2.7344  2.5495
 6492SOL     OW31108   2.635   2.914   5.149  0.3409 -0.2251 -0.1204
 6492SOL    HW131109   2.594   2.838   5.109 -0.2073  0.1124 -0.2117
 6492SOL    HW231110   2.700   2.934   5.081  1.5092 -1.0272  0.7695
 6493SOL     OW31111   1.545   1.788   6.947 -0.1653 -0.7031  0.8213
 6493SOL    HW131112   1.455   1.816   6.960 -0.3929 -0.5341 -1.0653
 6493SOL    HW231113   1.567   1.862   6.891 -1.0170 -2.3372 -1.6780
 6494SOL     OW31114   2.934   1.571   6.012  0.5503  0.3773  0.0774
 6494SOL    HW131115   2.973   1.609   5.933  1.1647 -1.5910 -0.5803
 6494SOL    HW231116   3.003   1.520   6.054  0.9236 -0.9011 -2.0349
 6495SOL     OW31117   0.047   2.601   2.855  0.4726  0.4837 -0.6042
 6495SOL    HW131118   0.029   2.590   2.948  2.3506 -0.2947 -0.3284
 6495SOL    HW231119   4.706   2.629   2.813 -1.0911 -1.2361  1.2542
 6496SOL     OW31120   1.584   0.270   2.803 -0.5375 -0.2842  0.2913
 6496SOL    HW131121   1.574   0.318   2.885  0.1275  1.1341 -0.4493
 6496SOL    HW231122   1.593   0.336   2.735 -1.4629 -0.5546 -0.0937
 6497SOL     OW31123   3.261   2.903   9.225 -0.3929 -0.5857  0.5382
 6497SOL    HW131124   3.220   2.835   9.171 -0.4436  1.2050 -1.6903
 6497SOL    HW231125   3.318   2.934   9.154  0.0798 -0.6358  0.9013
 6498SOL     OW31126   4.167   0.409   6.787  0.3090 -0.5137  0.0206
 6498SOL    HW131127   4.115   0.384   6.711 -0.3900 -0.7827  0.5841
 6498SOL    HW231128   4.198   0.496   6.763 -0.4305  0.1046  1.2818
 6499SOL     OW31129   2.989   4.045   2.982 -0.3144  0.2656 -0.4591
 6499SOL    HW131130   3.033   3.961   2.965  1.9311  0.9916  1.7123
 6499SOL    HW231131   3.052   4.096   3.032  0.0083 -2.6367  2.0832
 6500SOL     OW31132   3.198   1.912   5.114 -0.2086 -0.4835 -0.5677
 6500SOL    HW131133   3.264   1.948   5.173 -1.2903 -0.3164  0.5659
 6500SOL    HW231134   3.241   1.835   5.078 -1.0736 -1.2889  0.1024
 6501SOL     OW31135   2.006   1.868   0.888  0.1667  0.4268 -0.0860
 6501SOL    HW131136   2.070   1.823   0.944  1.5526  1.5559 -0.7475
 6501SOL    HW231137   2.034   1.960   0.888 -1.0051  0.7843  1.3771
 6502SOL     OW31138   4.032   4.157   0.448  0.0088  0.2997  0.6329
 6502SOL    HW131139   4.020   4.234   0.503  2.2293  1.0086  0.1245
 6502SOL    HW231140   4.075   4.095   0.507 -1.5351 -0.7044  0.7052
 6503SOL     OW31141   4.272   4.217   2.707  0.2083  0.0169  0.0491
 6503SOL    HW131142   4.305   4.169   2.631 -0.2172 -0.3588  0.1081
 6503SOL    HW231143   4.358   4.226   2.749 -0.4985  0.2026  1.4379
 6504SOL     OW31144   2.078   3.747   7.855 -0.4246  0.4603 -0.2225
 6504SOL    HW131145   2.084   3.818   7.791 -0.9259 -0.2016 -0.9979
 6504SOL    HW231146   1.996   3.773   7.896 -0.5017 -2.6887  1.6018
 6505SOL     OW31147   0.342   2.836   0.541  0.3328  0.3145 -0.1274
 6505SOL    HW131148   0.358   2.797   0.626  0.3299 -1.8421 -1.1109
 6505SOL    HW231149   0.289   2.914   0.556 -0.3555  0.0130 -0.9434
 6506SOL     OW31150   0.392   2.891  17.143  0.0124  0.9376  0.6032
 6506SOL    HW131151   0.337   2.890  17.221  2.2636 -2.0094  2.1289
 6506SOL    HW231152   0.402   2.983  17.120 -0.6600  0.6257 -0.9485
 6507SOL     OW31153   1.230   3.969   0.097 -0.4674  0.0146  0.5126
 6507SOL    HW131154   1.280   4.049   0.115  0.6447 -0.6401  0.3349
 6507SOL    HW231155   1.153   3.992   0.149 -1.9426 -0.7357 -1.3316
 6508SOL     OW31156   0.931   3.658   2.047  0.0831 -0.2125  0.2202
 6508SOL    HW131157   0.959   3.628   2.133 -0.7707 -0.3401  0.4515
 6508SOL    HW231158   0.852   3.711   2.062  1.0861  0.7030  2.2681
 6509SOL     OW31159   3.268   3.495   2.022 -0.2002  0.5227 -0.4946
 6509SOL    HW131160   3.184   3.521   1.982 -1.8850 -1.0915  2.0079
 6509SOL    HW231161   3.264   3.400   2.014  2.5671  0.4060 -0.4168
 6510SOL     OW31162   2.538   0.879   7.104 -0.6973  0.0514  0.1121
 6510SOL    HW131163   2.508   0.931   7.179  0.2845 -1.8435  1.8008
 6510SOL    HW231164   2.594   0.943   7.060 -0.0437  0.9449  2.2675
 6511SOL     OW31165   1.995   4.636   5.399 -0.0286 -0.1012  0.2014
 6511SOL    HW131166   1.920   4.690   5.425 -2.6595 -3.5943 -0.0884
 6511SOL    HW231167   2.025   4.693   5.329  1.6964 -0.4567  0.6536
 6512SOL     OW31168   2.160   4.613   6.581  0.2880 -0.2476 -0.0789
 6512SOL    HW131169   2.243   4.566   6.587 -0.0958 -1.1064 -1.4133
 6512SOL    HW231170   2.100   4.544   6.609  0.0940 -0.7029 -1.5751
 6513SOL     OW31171   3.313   0.613   1.759  0.0438 -0.4603  0.7132
 6513SOL    HW131172   3.327   0.708   1.757 -0.2785 -0.4229  0.2787
 6513SOL    HW231173   3.285   0.603   1.850  1.3344 -1.0142  1.0393
 6514SOL     OW31174   0.157   3.971  17.423 -0.4364 -0.1151 -0.2360
 6514SOL    HW131175   0.140   4.053  17.377 -1.7339 -0.2000  0.0657
 6514SOL    HW231176   0.251   3.961  17.433 -0.5408  2.5374  3.4353
 6515SOL     OW31177   2.699   1.736  17.279  0.4537  0.4699  0.2118
 6515SOL    HW131178   2.626   1.736  17.218 -0.1809 -0.9150  0.9889
 6515SOL    HW231179   2.667   1.690  17.355  0.4117  0.4053  0.1545
 6516SOL     OW31180   1.412   2.964   4.906 -0.7353 -0.2151  0.3861
 6516SOL    HW131181   1.417   3.047   4.860 -0.2818  0.5826  1.8478
 6516SOL    HW231182   1.474   2.913   4.855 -0.0271  1.5588 -0.5259
 6517SOL     OW31183   1.509   1.354  17.242 -0.0767 -0.5138  0.0777
 6517SOL    HW131184   1.601   1.348  17.266 -0.2605  1.7184  1.2674
 6517SOL    HW231185   1.512   1.319  17.153 -2.0410 -1.9874  0.5801
 6518SOL     OW31186   1.897   3.052   3.139 -0.0653 -0.2293  0.2177
 6518SOL    HW131187   1.894   3.127   3.198 -1.8999 -1.4878  1.7579
 6518SOL    HW231188   1.830   3.000   3.183  0.0573  0.2913  1.0272
 6519SOL     OW31189   1.361   3.203   7.344 -0.4523 -0.3513 -0.6065
 6519SOL    HW131190   1.269   3.207   7.320 -0.8926 -1.3063  1.0106
 6519SOL    HW231191   1.376   3.297   7.330 -0.2794 -0.3688 -0.5457
 6520SOL     OW31192   2.739   0.164   7.064 -0.2687  0.2741 -0.6856
 6520SOL    HW131193   2.655   0.141   7.104 -0.1865  2.2160  0.5965
 6520SOL    HW231194   2.801   0.122   7.124 -0.1874 -0.1375 -1.0619
 6521SOL     OW31195   4.049   2.751  13.625 -0.6505 -0.0555  0.4732
 6521SOL    HW131196   4.050   2.803  13.706 -1.1778  0.4667  0.1441
 6521SOL    HW231197   4.142   2.753  13.604 -1.2080 -0.8525 -1.9602
 6522SOL     OW31198   1.946   0.553  15.598 -0.6570 -0.1826  0.0163
 6522SOL    HW131199   1.965   0.492  15.526  1.3110  1.4063 -0.8017
 6522SOL    HW231200   2.006   0.535  15.671 -1.0989  0.3543  0.5085
 6523SOL     OW31201   4.148   2.335   5.326  0.0198  0.4896  0.4322
 6523SOL    HW131202   4.206   2.351   5.400  3.0569 -2.9665 -1.2065
 6523SOL    HW231203   4.073   2.393   5.340 -2.0570 -1.8275 -0.9479
 6524SOL     OW31204   3.656   3.981  12.875 -0.3929  0.6271 -0.8624
 6524SOL    HW131205   3.703   4.063  12.859 -0.5250  0.8723 -0.0110
 6524SOL    HW231206   3.650   3.990  12.970 -0.0146 -1.1428 -0.6620
 6525SOL     OW31207   4.305   4.645  13.696 -0.6842 -0.1062  0.2729
 6525SOL    HW131208   4.378   4.586  13.716 -1.1583 -1.3267 -1.5550
 6525SOL    HW231209   4.345   4.670  13.613 -0.6183 -2.7711 -0.5185
 6526SOL     OW31210   3.757   4.648  15.927  0.4047  0.1174 -0.3770
 6526SOL    HW131211   3.826   4.669  15.864  1.0647  0.3775  0.4342
 6526SOL    HW231212   3.713   4.731  15.946  2.7442  1.3294 -0.2819
 6527SOL     OW31213   3.478   2.042   3.303  0.2746 -0.6714 -0.3572
 6527SOL    HW131214   3.521   2.127   3.293 -1.8453  0.7355  2.4185
 6527SOL    HW231215   3.384   2.051   3.293  0.2273 -0.5224  0.1909
 6528SOL     OW31216   2.637   2.218   2.769 -0.3241  0.5528  0.1289
 6528SOL    HW131217   2.631   2.313   2.761 -1.2936  0.2876 -2.3299
 6528SOL    HW231218   2.682   2.196   2.687  0.5549  1.4318  0.3782
 6529SOL     OW31219   4.254   4.310   8.192  0.1489 -0.0719  0.1201
 6529SOL    HW131220   4.220   4.318   8.281 -2.0540 -0.6220 -0.6658
 6529SOL    HW231221   4.200   4.373   8.143  0.5133  1.0656  1.1928
 6530SOL     OW31222   1.285   2.491   4.879 -0.2673  0.1318 -0.0450
 6530SOL    HW131223   1.269   2.523   4.791 -1.3031  1.7970  0.7355
 6530SOL    HW231224   1.272   2.573   4.928  0.3006  0.0498  0.2472
 6531SOL     OW31225   3.950   2.534   5.386  0.0576 -0.1292  0.2028
 6531SOL    HW131226   3.980   2.621   5.413  1.6721 -0.0878 -1.7481
 6531SOL    HW231227   3.858   2.559   5.383 -0.0213 -0.3830  0.5279
 6532SOL     OW31228   4.138   0.808  12.738 -0.1242 -0.5759  0.0170
 6532SOL    HW131229   4.123   0.889  12.788  0.6107 -0.5051  0.1104
 6532SOL    HW231230   4.226   0.788  12.768 -0.1513 -0.1120  0.4065
 6533SOL     OW31231   4.243   4.589   0.349  0.3654 -0.7049 -0.1704
 6533SOL    HW131232   4.333   4.560   0.335  0.1913 -1.9335  1.2914
 6533SOL    HW231233   4.190   4.564   0.273  1.1035 -2.7506 -0.0005
 6534SOL     OW31234   2.419   4.671   6.007 -0.0877  0.6051 -0.3232
 6534SOL    HW131235   2.507   4.703   6.027  0.2819 -0.1825 -0.6920
 6534SOL    HW231236   2.371   4.723   6.072 -1.5222 -0.7382 -0.3303
 6535SOL     OW31237   2.901   2.420   2.985 -0.4237 -0.2856 -0.5989
 6535SOL    HW131238   2.888   2.467   2.903  1.8208 -0.8267 -1.2497
 6535SOL    HW231239   2.859   2.486   3.041  1.4740 -0.2675  0.7956
 6536SOL     OW31240   4.053   1.089   3.064 -0.6399 -0.5231 -0.2460
 6536SOL    HW131241   4.077   1.021   3.000  0.6947  0.2923 -0.5962
 6536SOL    HW231242   4.076   1.168   3.015 -0.7819  0.4413  1.2510
 6537SOL     OW31243   0.009   2.368   3.521  0.2400 -0.3293  0.4632
 6537SOL    HW131244   0.054   2.452   3.508  1.0395 -0.8853 -0.3429
 6537SOL    HW231245   4.685   2.372   3.449  0.5074 -1.0169  0.1904
 6538SOL     OW31246   2.975   1.061   4.982 -0.2243  0.5973 -0.6700
 6538SOL    HW131247   2.952   1.105   4.900 -2.2762  0.1272 -0.3461
 6538SOL    HW231248   3.034   0.993   4.948 -0.3228  1.0655 -1.7760
 6539SOL     OW31249   4.593   4.154   7.754  0.4424 -0.8135  0.0665
 6539SOL    HW131250   4.568   4.110   7.836  0.3704 -0.5160  0.2030
 6539SOL    HW231251   4.588   4.247   7.775  1.4740 -0.7321 -0.0468
 6540SOL     OW31252   0.179   4.007   5.791  0.2091  0.9822 -0.2635
 6540SOL    HW131253   0.090   4.021   5.757  0.5726  1.5751 -0.9705
 6540SOL    HW231254   0.213   3.939   5.732  0.2466 -0.2091  1.1331
 6541SOL     OW31255   1.220   0.667   4.556 -0.0675  0.0714 -0.1496
 6541SOL    HW131256   1.211   0.639   4.647 -0.6327  1.5613  0.2667
 6541SOL    HW231257   1.315   0.679   4.555  0.1216 -1.4586 -0.5609
 6542SOL     OW31258   0.857   3.519   8.979  0.0520 -0.1543  0.6933
 6542SOL    HW131259   0.905   3.581   9.034 -2.9240  0.0266  3.1010
 6542SOL    HW231260   0.897   3.534   8.893  0.4860  1.2449  1.1391
 6543SOL     OW31261   0.139   2.386   9.533 -0.3422  1.3761  0.0542
 6543SOL    HW131262   0.060   2.337   9.508  0.9639  0.0057 -1.4119
 6543SOL    HW231263   0.096   2.464   9.568 -2.3046 -0.5029  1.8005
 6544SOL     OW31264   3.638   3.096   6.347  0.5691 -0.3273  0.2132
 6544SOL    HW131265   3.568   3.046   6.303  3.0553 -1.1424 -2.8080
 6544SOL    HW231266   3.717   3.047   6.326 -1.1191 -2.6603 -0.8058
 6545SOL     OW31267   1.680   2.325  16.530 -0.1352 -0.2747  0.4152
 6545SOL    HW131268   1.616   2.259  16.503 -0.7505  0.6842 -0.4635
 6545SOL    HW231269   1.705   2.361  16.445 -1.5632  1.0684  0.5790
 6546SOL     OW31270   0.008   1.340   2.250 -0.3622 -0.3552 -0.4548
 6546SOL    HW131271   4.705   1.376   2.173 -2.1966 -0.8624  0.3373
 6546SOL    HW231272   0.053   1.266   2.211 -0.0606  0.3031 -1.3623
 6547SOL     OW31273   1.143   1.195   8.597  0.0230 -0.4060  0.1928
 6547SOL    HW131274   1.227   1.204   8.552  0.0966 -0.5031  0.3095
 6547SOL    HW231275   1.086   1.167   8.525  3.4819  0.2632 -2.8127
 6548SOL     OW31276   3.370   3.662   0.621 -0.3461  0.3356  0.2974
 6548SOL    HW131277   3.310   3.716   0.570  0.5672  1.8391  0.8152
 6548SOL    HW231278   3.376   3.580   0.572 -1.6977 -0.2280  1.0850
 6549SOL     OW31279   1.988   4.629   8.336 -0.1032  0.0917 -0.5779
 6549SOL    HW131280   1.951   4.688   8.401  1.4589 -1.7199  1.9492
 6549SOL    HW231281   2.004   4.553   8.391  0.9667  1.6577  1.2799
 6550SOL     OW31282   2.828   2.184   3.324  0.0143  0.1647 -0.1846
 6550SOL    HW131283   2.753   2.231   3.361 -0.0300  0.7459 -1.0156
 6550SOL    HW231284   2.796   2.176   3.234  1.3810 -0.7774 -0.5820
 6551SOL     OW31285   2.656   2.534  13.321  0.1097 -0.4492 -0.4281
 6551SOL    HW131286   2.572   2.490  13.335 -0.5361  0.3355 -1.8286
 6551SOL    HW231287   2.711   2.477  13.375 -1.1264 -2.8374 -1.6553
 6552SOL     OW31288   0.801   3.226  14.326 -0.5634  0.0155  0.2985
 6552SOL    HW131289   0.724   3.170  14.317  0.4846 -1.1661 -1.2769
 6552SOL    HW231290   0.783   3.290  14.257  0.3510  0.3044  0.3219
 6553SOL     OW31291   1.328   2.771   9.546  0.4720  0.6401  0.5137
 6553SOL    HW131292   1.263   2.754   9.478  0.2656 -1.5049  1.2366
 6553SOL    HW231293   1.315   2.865   9.557  0.0670  0.4821  1.4245
 6554SOL     OW31294   1.881   0.264   1.120  0.4526  0.1755  0.1268
 6554SOL    HW131295   1.915   0.187   1.075  0.8588  1.1439 -1.2109
 6554SOL    HW231296   1.867   0.230   1.208  0.9451 -0.0939  0.1041
 6555SOL     OW31297   3.789   1.536   4.768  0.3359 -0.2803 -0.2740
 6555SOL    HW131298   3.802   1.626   4.799 -1.1874 -1.1391  2.8325
 6555SOL    HW231299   3.799   1.486   4.849  2.7095  2.2329  1.0073
 6556SOL     OW31300   4.293   1.598   3.896  0.3700  0.2049  0.0652
 6556SOL    HW131301   4.356   1.668   3.918 -1.1279  0.3949  3.8423
 6556SOL    HW231302   4.318   1.538   3.966 -1.6700 -1.9623 -1.0805
 6557SOL     OW31303   2.146   1.017   1.824 -0.2782 -0.4208  0.2931
 6557SOL    HW131304   2.184   1.104   1.834 -2.8290  1.0864 -3.1480
 6557SOL    HW231305   2.199   0.968   1.887 -0.1421  0.2639  0.7070
 6558SOL     OW31306   0.320   3.682   5.892  0.8121 -0.4137  0.1685
 6558SOL    HW131307   0.367   3.759   5.861 -0.6570  1.7187  3.1684
 6558SOL    HW231308   0.387   3.615   5.886  0.7654 -0.2736 -2.0760
 6559SOL     OW31309   2.114   3.322   6.787 -0.2146 -0.3881  0.8585
 6559SOL    HW131310   2.028   3.311   6.827  0.0112  0.8406  1.6827
 6559SOL    HW231311   2.093   3.356   6.700  1.3437 -1.3834  0.1031
 6560SOL     OW31312   3.112   2.161  12.321 -0.9070 -0.2284 -0.2781
 6560SOL    HW131313   3.181   2.223  12.346 -0.8011 -0.8761  1.0630
 6560SOL    HW231314   3.048   2.177  12.391  1.2288  1.2453  1.3512
 6561SOL     OW31315   1.051   1.459  17.156 -0.3537 -0.1301  0.3256
 6561SOL    HW131316   1.017   1.380  17.114 -0.2912 -0.0100  0.0500
 6561SOL    HW231317   1.087   1.421  17.236  0.1857 -0.3783 -0.0390
 6562SOL     OW31318   2.552   2.273   8.392  0.8112 -0.3684  0.3550
 6562SOL    HW131319   2.530   2.358   8.432 -0.2691 -0.3640 -0.2376
 6562SOL    HW231320   2.471   2.223   8.403  0.2238  0.4491 -0.2680
 6563SOL     OW31321   4.454   4.089   2.544  0.4883  0.4366 -0.1236
 6563SOL    HW131322   4.424   4.010   2.500  2.0545  1.1333 -2.4409
 6563SOL    HW231323   4.541   4.060   2.571  0.2080 -0.8538 -0.5887
 6564SOL     OW31324   3.883   4.301  14.366 -0.1552 -0.2803 -0.5208
 6564SOL    HW131325   3.944   4.288  14.294  0.2571 -1.0581 -0.0313
 6564SOL    HW231326   3.924   4.382  14.395 -0.5301 -1.0486  2.2146
 6565SOL     OW31327   4.517   1.139  12.330  0.2263  0.0611  0.7217
 6565SOL    HW131328   4.443   1.087  12.298  1.4559 -0.4655 -1.2964
 6565SOL    HW231329   4.590   1.086  12.300  0.0339 -0.0183  0.3914
 6566SOL     OW31330   3.715   4.437   8.175  0.4213  0.1746 -0.4382
 6566SOL    HW131331   3.775   4.379   8.128  0.2822 -1.8598  1.8405
 6566SOL    HW231332   3.683   4.385   8.249 -0.3337  1.1817 -0.0666
 6567SOL     OW31333   1.665   4.717   7.209  0.1325  0.4129 -0.3785
 6567SOL    HW131334   1.669   0.072   7.221 -1.4202  0.3604  0.5581
 6567SOL    HW231335   1.753   4.686   7.227  1.1197  2.4465 -1.5561
 6568SOL     OW31336   3.009   3.660   2.144  0.5883  0.6939 -0.0192
 6568SOL    HW131337   2.993   3.586   2.086 -1.3491  3.0096 -2.4405
 6568SOL    HW231338   2.952   3.638   2.218  2.2157 -0.1252  0.9912
 6569SOL     OW31339   3.977   1.969  16.492  0.0840  0.0376  0.3401
 6569SOL    HW131340   3.992   2.049  16.541 -1.3288 -0.3486  1.3998
 6569SOL    HW231341   4.070   1.945  16.483  0.1173  0.3260 -0.0899
 6570SOL     OW31342   1.347   0.407  17.709 -0.0892  0.2234  0.6151
 6570SOL    HW131343   1.342   0.489  17.757  0.9554  0.9098 -0.4359
 6570SOL    HW231344   1.421   0.429  17.653 -1.0647 -1.5766 -1.3703
 6571SOL     OW31345   2.407   1.548   5.740  0.0679  0.6514  0.1721
 6571SOL    HW131346   2.331   1.532   5.683 -0.4313 -1.0623  1.3440
 6571SOL    HW231347   2.362   1.546   5.824 -2.9462 -2.2589 -1.5016
 6572SOL     OW31348   2.048   0.099   6.688 -0.2169 -0.3401  0.4863
 6572SOL    HW131349   2.105   0.028   6.659 -1.4331 -1.3512  0.5749
 6572SOL    HW231350   1.969   0.065   6.646 -1.2757  3.5700 -0.6288
 6573SOL     OW31351   4.126   4.504   3.374  0.5594 -0.0491  0.5269
 6573SOL    HW131352   4.205   4.495   3.428  1.4116  2.7566 -0.2174
 6573SOL    HW231353   4.169   4.552   3.303  0.3054  2.6505  2.1735
 6574SOL     OW31354   2.598   2.756   6.810 -0.3580 -0.1327 -0.6030
 6574SOL    HW131355   2.528   2.736   6.872  0.1536 -1.5739 -0.4809
 6574SOL    HW231356   2.618   2.847   6.830 -0.4889 -0.6857  2.0109
 6575SOL     OW31357   4.122   3.236   6.105  0.0064  0.5387  0.2815
 6575SOL    HW131358   4.162   3.317   6.074  1.9394 -0.7806 -0.6661
 6575SOL    HW231359   4.048   3.266   6.158  1.6841  1.4056  2.1770
 6576SOL     OW31360   0.974   3.636  12.273 -0.4338 -0.1036  0.2779
 6576SOL    HW131361   0.956   3.543  12.263  0.5349 -0.3272  0.6264
 6576SOL    HW231362   0.959   3.650  12.367 -0.7395  0.0914  0.1998
 6577SOL     OW31363   3.971   4.009  12.551  0.1341 -0.4743  0.6509
 6577SOL    HW131364   3.964   4.082  12.489 -0.4416 -0.5340  0.6484
 6577SOL    HW231365   3.952   3.938  12.489 -1.7691  0.6619 -0.0453
 6578SOL     OW31366   0.300   0.147  10.799 -0.7024 -0.3502 -0.2230
 6578SOL    HW131367   0.391   0.143  10.830 -0.2963  1.0532 -1.2277
 6578SOL    HW231368   0.321   0.175  10.710 -2.0348 -2.3960 -1.1779
 6579SOL     OW31369   1.334   1.189   4.150 -0.1878 -0.3541 -0.4658
 6579SOL    HW131370   1.319   1.179   4.244  1.9297 -1.1803 -0.2103
 6579SOL    HW231371   1.391   1.266   4.140  0.0884 -0.9364 -3.5065
 6580SOL     OW31372   3.641   1.790   2.780 -0.0122 -0.3817  0.2746
 6580SOL    HW131373   3.587   1.741   2.842 -0.3755 -0.1631  0.1366
 6580SOL    HW231374   3.575   1.783   2.710  0.2657 -0.5978  0.0355
 6581SOL     OW31375   0.404   1.774   3.173 -0.1229  0.7248  0.3706
 6581SOL    HW131376   0.346   1.702   3.197 -3.1521  3.2798  0.7766
 6581SOL    HW231377   0.475   1.730   3.126 -1.2329  1.3697 -1.9467
 6582SOL     OW31378   0.350   2.659  12.359  0.0228 -0.0311 -0.4258
 6582SOL    HW131379   0.378   2.692  12.274  1.6421 -0.7238 -0.1607
 6582SOL    HW231380   0.371   2.569  12.336 -1.3510 -0.3005 -0.5975
 6583SOL     OW31381   1.432   3.221   3.001 -0.5065 -0.3557 -0.1218
 6583SOL    HW131382   1.407   3.205   3.092 -0.1034  2.7273  0.5196
 6583SOL    HW231383   1.477   3.304   3.016 -2.0331  0.9642 -2.7440
 6584SOL     OW31384   1.377   3.978   3.690 -0.0661  0.1306 -0.0220
 6584SOL    HW131385   1.428   3.983   3.610 -1.2787  1.8500 -0.6827
 6584SOL    HW231386   1.452   3.978   3.749 -0.0559 -3.7343 -0.0090
 6585SOL     OW31387   4.245   2.071   8.137 -0.4496 -0.1259  0.4945
 6585SOL    HW131388   4.188   2.140   8.170  0.7957  0.9225  0.4562
 6585SOL    HW231389   4.253   2.102   8.047  0.1070  1.6985  1.1684
 6586SOL     OW31390   4.352   0.256   6.878 -0.4386  0.1592 -0.3684
 6586SOL    HW131391   4.278   0.297   6.835 -0.7727 -0.2444 -0.1785
 6586SOL    HW231392   4.361   0.169   6.838 -2.1769 -0.4640  0.5843
 6587SOL     OW31393   0.604   3.378   2.401  0.0381 -0.2693  0.7810
 6587SOL    HW131394   0.511   3.370   2.425 -0.3851 -1.0145 -1.1243
 6587SOL    HW231395   0.594   3.443   2.331 -4.1309 -1.3766  0.3129
 6588SOL     OW31396   1.490   2.706   8.491 -0.1356 -0.1486  0.6049
 6588SOL    HW131397   1.439   2.705   8.572  1.1280 -0.6004  1.3920
 6588SOL    HW231398   1.437   2.645   8.440 -0.5714 -0.4932  1.4825
 6589SOL     OW31399   0.687   2.248   6.252  0.2049  0.0774 -0.0772
 6589SOL    HW131400   0.765   2.212   6.210 -0.3182  0.0712 -1.0492
 6589SOL    HW231401   0.714   2.232   6.343 -0.2533 -0.0135  0.0455
 6590SOL     OW31402   2.197   4.143   0.397 -0.8719 -0.0932 -0.0017
 6590SOL    HW131403   2.252   4.162   0.321 -0.6005  2.7306  0.9108
 6590SOL    HW231404   2.132   4.090   0.351 -0.0171 -1.9808  0.9838
 6591SOL     OW31405   1.679   4.056   9.085 -0.0241  0.3604 -0.2459
 6591SOL    HW131406   1.758   4.089   9.127  0.2877 -2.0732  1.0750
 6591SOL    HW231407   1.674   3.961   9.099  1.0802  0.2800 -0.4138
 6592SOL     OW31408   1.570   1.631   4.450  0.3917  0.3691 -0.2694
 6592SOL    HW131409   1.533   1.718   4.435  0.6529  0.3228 -1.1741
 6592SOL    HW231410   1.591   1.631   4.543 -1.1075 -1.7023  0.0796
 6593SOL     OW31411   3.387   1.493  12.260  0.6649 -0.1993 -0.0414
 6593SOL    HW131412   3.459   1.552  12.279 -1.8523  2.6849  0.6058
 6593SOL    HW231413   3.317   1.525  12.317 -1.0482 -2.5511 -0.8269
 6594SOL     OW31414   3.520   4.201   5.435  0.0138 -0.2522  0.0085
 6594SOL    HW131415   3.480   4.205   5.348 -1.3882  1.4676  0.7174
 6594SOL    HW231416   3.443   4.208   5.492  1.9512  1.2583  2.4080
 6595SOL     OW31417   2.978   4.403   3.178  0.4084 -0.2290 -0.5593
 6595SOL    HW131418   2.978   4.395   3.274  1.8705 -1.9033 -0.6950
 6595SOL    HW231419   3.070   4.384   3.159  0.2732 -0.9333 -0.5162
 6596SOL     OW31420   4.673   1.045  10.151  0.1064  0.2817  0.5304
 6596SOL    HW131421   4.690   0.955  10.122 -0.3884  0.6353 -0.8450
 6596SOL    HW231422   4.578   1.046  10.141  0.2330  0.5500 -0.6800
 6597SOL     OW31423   2.681   0.542   6.282 -0.2805  0.1472 -0.4255
 6597SOL    HW131424   2.686   0.478   6.353  0.2040  0.4038 -0.2220
 6597SOL    HW231425   2.673   0.622   6.335 -0.6726  0.7990 -1.4695
 6598SOL     OW31426   1.170   3.280   4.626  0.6214 -0.1037 -0.2918
 6598SOL    HW131427   1.117   3.201   4.615 -2.3475  1.6814  1.2406
 6598SOL    HW231428   1.160   3.295   4.720 -0.3939  2.0051 -0.7355
 6599SOL     OW31429   2.675   2.902   4.721 -0.0462 -0.6859 -0.1260
 6599SOL    HW131430   2.593   2.910   4.672  0.0364 -0.2382 -0.1916
 6599SOL    HW231431   2.733   2.957   4.668 -0.5446 -1.3865 -1.4244
 6600SOL     OW31432   0.170   2.327   9.044  0.6739  0.0248  0.3154
 6600SOL    HW131433   0.241   2.264   9.049  0.3329 -0.4911 -1.4048
 6600SOL    HW231434   0.120   2.302   9.121  2.3419 -1.1838  1.0033
 6601SOL     OW31435   2.026   0.004   0.998 -0.1611 -0.1394  0.0917
 6601SOL    HW131436   2.054   4.654   1.011 -1.2323 -0.4342  0.2615
 6601SOL    HW231437   2.106   0.047   0.967  0.8204 -2.1679 -0.2026
 6602SOL     OW31438   2.532   1.703   7.208 -0.1258  0.5075  0.6467
 6602SOL    HW131439   2.440   1.723   7.222 -0.1410  0.4451  0.6398
 6602SOL    HW231440   2.581   1.765   7.261 -0.7499  2.4778 -1.0818
 6603SOL     OW31441   4.587   4.610   7.017  0.2509 -0.4409 -0.1736
 6603SOL    HW131442   4.530   4.542   7.055 -3.2192  2.6342  0.1475
 6603SOL    HW231443   4.594   4.667   7.094  1.3506  1.3525 -1.6016
 6604SOL     OW31444   3.234   0.262  12.576 -0.0289 -0.0497 -0.5207
 6604SOL    HW131445   3.138   0.259  12.579 -0.0660  0.8963 -0.6518
 6604SOL    HW231446   3.251   0.213  12.496 -0.0631  1.5962 -1.5318
 6605SOL     OW31447   3.978   2.862   2.076  0.3216  0.1771  0.2531
 6605SOL    HW131448   4.039   2.843   2.005 -2.8394  0.4857 -2.5383
 6605SOL    HW231449   4.027   2.813   2.142  0.4426 -0.2949 -0.1882
 6606SOL     OW31450   4.506   2.764   4.973 -0.2047 -0.4188 -0.5899
 6606SOL    HW131451   4.490   2.858   4.967  2.5692  0.2272  1.5616
 6606SOL    HW231452   4.468   2.729   4.893 -1.1390  0.2372 -0.4330
 6607SOL     OW31453   2.452   4.023   9.255 -0.3799 -0.3572 -0.1077
 6607SOL    HW131454   2.481   3.958   9.319 -0.3381 -2.4850 -2.2688
 6607SOL    HW231455   2.523   4.087   9.248 -0.9475  0.2666 -0.0526
 6608SOL     OW31456   0.271   2.599  17.018 -0.6925 -0.7571 -0.0082
 6608SOL    HW131457   0.283   2.552  17.100 -0.1009 -3.3727 -1.6188
 6608SOL    HW231458   0.259   2.689  17.050  0.4917 -0.9552  1.0036
 6609SOL     OW31459   3.790   2.075   3.642  0.3814 -0.0144  0.3060
 6609SOL    HW131460   3.718   2.047   3.699  0.3760 -4.1148 -1.7637
 6609SOL    HW231461   3.822   2.144   3.701 -0.5155  1.7255 -1.2407
 6610SOL     OW31462   1.807   3.950   9.421 -0.7685 -0.2386  0.2848
 6610SOL    HW131463   1.871   3.986   9.360 -0.7218 -0.5572  0.1449
 6610SOL    HW231464   1.745   3.900   9.368  0.2198  0.2942 -1.3834
 6611SOL     OW31465   3.660   1.470   0.030  0.2601 -0.3761 -0.0558
 6611SOL    HW131466   3.716   1.394   0.014  3.4326  2.0474 -0.3980
 6611SOL    HW231467   3.717   1.544   0.008 -1.3984  0.8084 -0.3438
 6612SOL     OW31468   0.812   2.829   1.790 -0.0211  0.0065 -0.0923
 6612SOL    HW131469   0.879   2.813   1.856  0.8858  0.4419 -0.9040
 6612SOL    HW231470   0.739   2.827   1.852 -0.6413 -1.0466 -0.8502
 6613SOL     OW31471   1.874   3.340  15.376  0.6303  0.6706 -0.2117
 6613SOL    HW131472   1.894   3.280  15.448  0.1563 -0.4034 -0.9672
 6613SOL    HW231473   1.934   3.408  15.406  0.3068  0.6442  0.4974
 6614SOL     OW31474   4.276   3.489   6.099  0.0467  0.2669  0.2965
 6614SOL    HW131475   4.305   3.474   6.189 -0.5294 -2.4551  0.0298
 6614SOL    HW231476   4.299   3.580   6.080  0.2645  0.3118  0.7968
 6615SOL     OW31477   0.490   1.841   4.326 -0.2290 -0.3550 -0.1754
 6615SOL    HW131478   0.434   1.772   4.360  0.7574 -1.0231  0.0831
 6615SOL    HW231479   0.481   1.828   4.231 -1.4986  1.3102 -0.2997
 6616SOL     OW31480   4.435   3.090   7.574  0.3756  0.1345  0.6538
 6616SOL    HW131481   4.441   2.995   7.583 -0.7035  0.1833  1.8698
 6616SOL    HW231482   4.340   3.092   7.569  0.3765 -0.1375  0.5468
 6617SOL     OW31483   4.638   1.791   0.568 -0.0718 -0.1724 -0.3566
 6617SOL    HW131484   4.677   1.859   0.623 -0.3010 -1.3020  1.2154
 6617SOL    HW231485   4.614   1.719   0.626  1.8778 -0.1598  0.4693
 6618SOL     OW31486   0.074   0.209   5.893 -0.0393  0.0693 -0.3021
 6618SOL    HW131487   0.064   0.259   5.974 -1.5734  2.0147 -1.6973
 6618SOL    HW231488   0.161   0.177   5.917  1.7618  4.3752 -1.1826
 6619SOL     OW31489   0.760   2.386  17.184  0.1998  0.1171  0.3709
 6619SOL    HW131490   0.684   2.328  17.191  0.6106 -0.6662 -1.5633
 6619SOL    HW231491   0.820   2.336  17.128  0.2842 -0.2606  0.7996
 6620SOL     OW31492   4.167   2.649   4.528 -0.6276 -0.0129 -0.1281
 6620SOL    HW131493   4.136   2.659   4.439 -0.4291  1.4339 -0.0309
 6620SOL    HW231494   4.084   2.654   4.575  0.3459  0.6008  1.5514
 6621SOL     OW31495   1.860   0.763   8.124  0.3287 -0.2186  0.3725
 6621SOL    HW131496   1.870   0.854   8.098  0.3457 -0.2673  0.2127
 6621SOL    HW231497   1.807   0.741   8.048  0.6959 -0.0124  0.0567
 6622SOL     OW31498   0.704   2.762  11.247  0.0904 -0.1433  0.3423
 6622SOL    HW131499   0.734   2.712  11.171  1.2182  0.4323  0.4071
 6622SOL    HW231500   0.726   2.853  11.228  0.4939 -0.1508  0.7622
 6623SOL     OW31501   0.238   0.780  11.535  0.2788 -0.8079  0.1250
 6623SOL    HW131502   0.182   0.702  11.536 -0.0568 -0.5705 -0.5931
 6623SOL    HW231503   0.175   0.851  11.537  0.2079 -0.8456 -1.0409
 6624SOL     OW31504   4.671   3.080  14.622  0.0729 -0.1077 -0.2407
 6624SOL    HW131505   4.674   3.015  14.552  0.9979  1.0911 -1.3009
 6624SOL    HW231506   4.663   3.156  14.564  0.8417  1.0143  1.1330
 6625SOL     OW31507   0.568   2.811   3.946 -0.6249  0.5093  0.4072
 6625SOL    HW131508   0.474   2.792   3.947 -0.5108 -0.0957 -0.9980
 6625SOL    HW231509   0.604   2.769   3.869 -0.2474  0.4400  0.6190
 6626SOL     OW31510   3.428   4.601   4.409  0.2832  0.2074  0.0024
 6626SOL    HW131511   3.410   4.610   4.503  3.8148  0.0211  0.6694
 6626SOL    HW231512   3.361   4.660   4.374  0.1950 -1.0380 -1.9332
 6627SOL     OW31513   3.935   1.134  10.177  0.2818 -0.2064 -0.3881
 6627SOL    HW131514   3.960   1.193  10.106  1.8807 -0.3795  0.0421
 6627SOL    HW231515   3.885   1.196  10.230  0.9417  0.0219 -0.0323
 6628SOL     OW31516   3.661   2.141   7.093 -0.1536 -0.1738  0.1983
 6628SOL    HW131517   3.661   2.186   7.009 -2.4893 -0.0566  0.2645
 6628SOL    HW231518   3.751   2.108   7.085  0.8009  2.5462 -0.2846
 6629SOL     OW31519   2.779   1.950  16.043 -0.2250  0.2151 -0.0300
 6629SOL    HW131520   2.835   1.876  16.066  0.1256  0.0880 -1.2777
 6629SOL    HW231521   2.711   1.904  15.993 -1.9570  3.7231 -0.8698
 6630SOL     OW31522   1.400   3.414  10.953 -0.2189 -0.5965 -0.3712
 6630SOL    HW131523   1.384   3.442  10.863 -1.4238 -3.8947 -1.1706
 6630SOL    HW231524   1.485   3.454  10.972 -1.9219  2.4364  0.9759
 6631SOL     OW31525   4.162   2.081  13.491  0.1631  0.1307 -0.1144
 6631SOL    HW131526   4.078   2.106  13.454  0.6542  2.3480  0.2700
 6631SOL    HW231527   4.223   2.118  13.427 -1.6919 -1.7391 -2.9676
 6632SOL     OW31528   1.556   2.124   8.125 -0.3197 -0.1536 -0.2504
 6632SOL    HW131529   1.571   2.162   8.039  1.3432 -2.9890 -1.1972
 6632SOL    HW231530   1.461   2.112   8.124 -0.4942  1.0173  0.7658
 6633SOL     OW31531   2.855   3.670   5.251  0.5816 -0.2324 -0.5064
 6633SOL    HW131532   2.903   3.669   5.335  2.5222  1.2244 -1.5827
 6633SOL    HW231533   2.770   3.643   5.285  1.1452 -2.8064 -1.1595
 6634SOL     OW31534   4.132   1.784  16.820 -0.1012  0.2418 -0.1205
 6634SOL    HW131535   4.216   1.827  16.833  0.2598  0.1577 -2.1444
 6634SOL    HW231536   4.160   1.705  16.773  1.3830 -0.4311  1.8936
 6635SOL     OW31537   4.266   3.339  13.654 -0.4455  0.2940 -0.0619
 6635SOL    HW131538   4.312   3.418  13.682 -0.5925 -0.3770  2.0709
 6635SOL    HW231539   4.340   3.292  13.615  1.3576  2.2495  1.0217
 6636SOL     OW31540   3.493   0.579  16.922  0.5501  0.1394  0.7002
 6636SOL    HW131541   3.502   0.667  16.887 -0.6750  0.0216  0.1106
 6636SOL    HW231542   3.521   0.520  16.852  0.4722  0.4581  0.4039
 6637SOL     OW31543   4.290   2.041   4.266 -0.1788  0.4916 -0.4646
 6637SOL    HW131544   4.370   2.078   4.304  1.5392 -1.9082 -1.7291
 6637SOL    HW231545   4.234   2.118   4.275 -0.3890  0.3354 -0.4506
 6638SOL     OW31546   3.627   1.169   4.630 -0.0568  0.1948  0.0043
 6638SOL    HW131547   3.539   1.133   4.619  0.2763 -0.6743  0.1748
 6638SOL    HW231548   3.599   1.250   4.672 -0.8803  1.6126 -3.2326
 6639SOL     OW31549   1.369   2.135   4.922 -0.5512  0.2709 -0.0549
 6639SOL    HW131550   1.410   2.175   4.845 -0.2232  1.8168  0.9235
 6639SOL    HW231551   1.409   2.194   4.986 -1.6018  1.7056 -0.7278
 6640SOL     OW31552   0.133   4.138   3.831  0.8651 -0.2947 -0.1812
 6640SOL    HW131553   0.175   4.130   3.745 -1.5726  0.6588 -1.4852
 6640SOL    HW231554   0.105   4.229   3.839  0.9534 -0.3335  0.5327
 6641SOL     OW31555   2.133   0.062   6.065  0.5060 -0.4374 -0.2214
 6641SOL    HW131556   2.105   0.136   6.119 -0.5049 -0.6222 -0.5025
 6641SOL    HW231557   2.050   0.018   6.047  0.9419 -0.9104 -1.0877
 6642SOL     OW31558   2.034   3.543  16.126  0.2979 -0.2822 -0.1565
 6642SOL    HW131559   2.013   3.471  16.067 -0.2550 -1.2974  1.2693
 6642SOL    HW231560   2.077   3.602  16.065 -2.8745 -0.1691 -2.2852
 6643SOL     OW31561   2.558   0.775   5.347 -0.4304 -0.5364 -0.3836
 6643SOL    HW131562   2.574   0.868   5.329 -1.9057 -0.1115  0.5274
 6643SOL    HW231563   2.618   0.761   5.420 -0.9979 -0.2309  0.1351
 6644SOL     OW31564   4.698   2.091   8.361  0.5202 -0.0641 -0.2241
 6644SOL    HW131565   4.624   2.151   8.353 -0.4741 -0.8526  2.8768
 6644SOL    HW231566   0.028   2.155   8.365  1.6261 -1.2435 -0.7250
 6645SOL     OW31567   3.527   1.041   7.066 -0.0294 -0.4183 -0.2766
 6645SOL    HW131568   3.463   1.004   7.126  0.0127  0.4534  0.3092
 6645SOL    HW231569   3.475   1.036   6.986 -0.1312 -0.6498 -0.1937
 6646SOL     OW31570   0.722   0.993   9.858  0.3908  0.5114 -0.1865
 6646SOL    HW131571   0.744   0.902   9.878  0.8132  0.5837 -0.3379
 6646SOL    HW231572   0.633   0.989   9.895  0.7419 -0.9758  0.4786
 6647SOL     OW31573   1.889   3.028   1.744  0.4165  0.2510 -0.1656
 6647SOL    HW131574   1.959   2.977   1.705 -1.4150 -1.0033 -1.8414
 6647SOL    HW231575   1.884   3.093   1.674 -3.0650  0.6289  0.4368
 6648SOL     OW31576   3.170   0.015   7.541  0.5278  0.3748 -0.7137
 6648SOL    HW131577   3.140   4.699   7.613  2.1634  0.9669  0.4103
 6648SOL    HW231578   3.162   4.689   7.472  0.8848  0.1238 -0.5124
 6649SOL     OW31579   4.720   2.628   5.043 -0.2361 -0.5171 -0.4180
 6649SOL    HW131580   0.021   2.660   5.123 -0.5133  1.8674 -1.2120
 6649SOL    HW231581   4.635   2.671   5.042  0.7147  1.3886 -0.1529
 6650SOL     OW31582   0.529   2.834   8.325  0.4431 -0.6107  0.5981
 6650SOL    HW131583   0.481   2.759   8.360 -0.2314 -0.9800 -1.1417
 6650SOL    HW231584   0.532   2.818   8.231 -2.6595 -2.1687  0.7622
 6651SOL     OW31585   0.657   2.689   8.756 -0.0421  0.1592 -0.6444
 6651SOL    HW131586   0.610   2.609   8.783 -1.1484  1.2706  0.7134
 6651SOL    HW231587   0.691   2.703   8.845  0.6597  1.4841 -1.1321
 6652SOL     OW31588   3.166   0.570   5.521  0.2329 -0.3635 -0.4818
 6652SOL    HW131589   3.093   0.615   5.478  0.7832  0.2338 -0.7896
 6652SOL    HW231590   3.154   0.478   5.497 -0.4955 -0.4199  0.0934
 6653SOL     OW31591   3.228   4.237   7.886 -0.2127  0.4872  0.7670
 6653SOL    HW131592   3.251   4.329   7.878 -0.9545  0.3592 -2.7145
 6653SOL    HW231593   3.273   4.208   7.966  2.1074 -0.9207 -1.0717
 6654SOL     OW31594   3.231   4.443   8.377  0.6794 -0.0225  0.1917
 6654SOL    HW131595   3.270   4.527   8.351 -0.6499  0.9358  1.3158
 6654SOL    HW231596   3.281   4.390   8.314 -0.5042 -0.5992 -0.2480
 6655SOL     OW31597   1.424   2.107   8.530  0.0892 -0.6919  1.2650
 6655SOL    HW131598   1.446   2.080   8.619  0.3102  0.5323  1.5849
 6655SOL    HW231599   1.425   2.019   8.492 -0.3678  1.0778 -2.9343
 6656SOL     OW31600   0.876   0.865   6.900  0.3313  0.1580  0.1756
 6656SOL    HW131601   0.785   0.872   6.927  0.9982  2.4611  1.7627
 6656SOL    HW231602   0.873   0.898   6.810  0.5515  0.7477  0.3893
 6657SOL     OW31603   2.275   3.586   8.189  0.0988  0.5821 -0.0264
 6657SOL    HW131604   2.276   3.680   8.211 -0.9204  1.0251 -1.8719
 6657SOL    HW231605   2.357   3.558   8.230 -0.0064  0.8572  0.3667
 6658SOL     OW31606   2.324   3.059   9.770  0.3804 -0.1171 -0.1402
 6658SOL    HW131607   2.412   3.026   9.754  0.3997 -0.4662  0.6693
 6658SOL    HW231608   2.294   2.971   9.792 -1.2351  0.3100 -0.6020
 6659SOL     OW31609   2.292   3.041  17.103  0.4417  0.4819 -0.0400
 6659SOL    HW131610   2.357   2.971  17.096  0.2797  0.2546  0.7577
 6659SOL    HW231611   2.215   3.003  17.061  1.2584 -0.8561 -0.3115
 6660SOL     OW31612   0.212   1.914   7.506  0.3340 -0.2242 -0.1391
 6660SOL    HW131613   0.308   1.917   7.498  0.0205  1.0561 -3.4356
 6660SOL    HW231614   0.189   1.998   7.546 -2.6955 -0.9648 -0.3506
 6661SOL     OW31615   1.991   0.273  13.843  0.2102 -0.2063 -0.6192
 6661SOL    HW131616   1.926   0.340  13.820  0.9184  0.7861  0.2487
 6661SOL    HW231617   2.059   0.323  13.888 -0.6133  0.3914 -0.0383
 6662SOL     OW31618   4.006   3.738   3.956  0.4162 -0.1257 -0.1396
 6662SOL    HW131619   3.936   3.745   3.890  0.1884 -0.2283  0.0901
 6662SOL    HW231620   4.031   3.830   3.968 -0.7886  0.3503 -1.2469
 6663SOL     OW31621   2.242   4.233   2.872 -0.0168 -0.2558 -0.1514
 6663SOL    HW131622   2.338   4.234   2.869 -0.0256  1.4632  0.0892
 6663SOL    HW231623   2.227   4.303   2.808  0.6484  0.5895  0.6055
 6664SOL     OW31624   1.204   4.255  11.472 -0.3826  0.5494  0.1736
 6664SOL    HW131625   1.122   4.207  11.462  1.1781 -1.5101 -2.6327
 6664SOL    HW231626   1.193   4.306  11.391  1.4580 -0.6141 -0.8054
 6665SOL     OW31627   4.643   2.679   2.410 -0.0243 -0.2237 -0.4113
 6665SOL    HW131628   4.593   2.609   2.452  0.8953  1.0675  2.8497
 6665SOL    HW231629   4.634   2.735   2.488 -0.2912 -1.1947  0.2567
 6666SOL     OW31630   3.811   4.207   3.724 -0.3035  0.0612  0.2858
 6666SOL    HW131631   3.880   4.242   3.780  0.1207 -1.6643  0.8298
 6666SOL    HW231632   3.836   4.262   3.650 -1.2814  2.7333  1.9338
 6667SOL     OW31633   1.821   3.236   3.321 -0.7128 -0.0512  0.0131
 6667SOL    HW131634   1.858   3.313   3.278 -1.2114  0.7889  1.0877
 6667SOL    HW231635   1.800   3.271   3.407  2.4907 -0.2288  0.8302
 6668SOL     OW31636   0.056   1.319   9.298 -0.1464 -0.7830  0.1357
 6668SOL    HW131637   0.015   1.282   9.220 -0.5787 -2.8931  1.3526
 6668SOL    HW231638   0.148   1.306   9.276  0.8367  1.5062  2.9899
 6669SOL     OW31639   2.396   3.827   8.597 -0.1647  0.3749 -0.0967
 6669SOL    HW131640   2.438   3.805   8.680 -0.7196 -1.3090 -0.2690
 6669SOL    HW231641   2.474   3.810   8.544  1.1127 -0.1849  1.9739
 6670SOL     OW31642   2.139   0.416   6.424 -0.4292  0.1338 -0.0764
 6670SOL    HW131643   2.235   0.420   6.420 -0.2943 -0.9055  1.9585
 6670SOL    HW231644   2.126   0.388   6.334  1.6777 -1.1553  0.0350
 6671SOL     OW31645   0.657   2.662  16.669  0.2384  0.5941  0.6189
 6671SOL    HW131646   0.637   2.660  16.762  0.4953  0.2647  0.6692
 6671SOL    HW231647   0.725   2.730  16.666  1.9624 -1.0848  1.6422
 6672SOL     OW31648   0.536   2.262   9.587 -0.0182 -0.4583 -0.2567
 6672SOL    HW131649   0.581   2.345   9.604 -0.0443 -0.1943 -1.4529
 6672SOL    HW231650   0.592   2.208   9.643 -1.3977 -2.0745 -0.4269
 6673SOL     OW31651   4.517   2.590  13.019  0.1732 -0.4930  0.7418
 6673SOL    HW131652   4.463   2.639  13.081 -0.2156  0.6183 -0.4909
 6673SOL    HW231653   4.581   2.652  12.985  0.8169 -0.3899  2.1058
 6674SOL     OW31654   1.697   1.735   9.172 -0.6470  0.0492 -0.6529
 6674SOL    HW131655   1.777   1.691   9.145 -1.5183 -1.6185 -0.5334
 6674SOL    HW231656   1.721   1.825   9.152 -1.2881  0.8393  2.0931
 6675SOL     OW31657   0.179   1.103   8.138 -0.4804 -0.0859 -0.4859
 6675SOL    HW131658   0.189   1.197   8.148  1.5044 -0.3802  0.2701
 6675SOL    HW231659   0.221   1.091   8.053  0.8800  0.5770  0.0963
 6676SOL     OW31660   0.476   1.819   2.214 -0.6785  0.0966 -0.0880
 6676SOL    HW131661   0.440   1.892   2.265  0.9617  0.1892  0.9326
 6676SOL    HW231662   0.403   1.797   2.157  0.1955 -2.4476 -0.2050
 6677SOL     OW31663   1.242   0.538   8.211 -0.1706 -0.0453  0.0323
 6677SOL    HW131664   1.271   0.447   8.205 -0.0662 -0.0942  1.3891
 6677SOL    HW231665   1.307   0.571   8.149 -0.9660  1.0369 -0.2194
 6678SOL     OW31666   0.346   0.967   9.789 -0.2497  0.0937  0.2558
 6678SOL    HW131667   0.375   0.985   9.878 -0.6040 -0.2693  0.4486
 6678SOL    HW231668   0.422   0.985   9.734 -0.4480 -1.0886 -0.4064
 6679SOL     OW31669   0.369   2.031   2.368 -0.5930 -0.0603 -0.5264
 6679SOL    HW131670   0.460   2.043   2.395 -1.3530 -1.2662  2.5894
 6679SOL    HW231671   0.342   2.123   2.374 -1.2663 -0.2322 -0.9512
 6680SOL     OW31672   0.492   0.647   9.101  0.4784 -0.1074  0.2936
 6680SOL    HW131673   0.519   0.701   9.027 -0.9020  3.0887  2.1499
 6680SOL    HW231674   0.562   0.582   9.112  0.7813  0.1478 -0.1087
 6681SOL     OW31675   0.390   1.458  14.297  0.4602 -0.2947 -0.3573
 6681SOL    HW131676   0.350   1.373  14.282 -0.7642  0.1746  0.2567
 6681SOL    HW231677   0.435   1.464  14.213  2.4716 -2.2244  0.5758
 6682SOL     OW31678   2.868   3.088   6.007 -0.1294 -0.2080 -0.0253
 6682SOL    HW131679   2.945   3.057   6.056  0.5325 -1.5613 -1.9482
 6682SOL    HW231680   2.796   3.042   6.049  0.6641 -1.7462 -0.3522
 6683SOL     OW31681   2.222   2.231   7.314 -0.7554 -0.1434 -0.2810
 6683SOL    HW131682   2.183   2.175   7.247 -0.6956 -0.9501  0.3741
 6683SOL    HW231683   2.287   2.273   7.257 -0.3460 -2.0390 -1.1964
 6684SOL     OW31684   3.420   0.842   5.440  0.1635  0.3089 -0.2267
 6684SOL    HW131685   3.353   0.899   5.475  0.5204 -0.1461  1.1883
 6684SOL    HW231686   3.460   0.811   5.521 -0.0579 -0.1503 -0.2914
 6685SOL     OW31687   4.110   0.047   2.880 -0.0027  0.4658  0.1672
 6685SOL    HW131688   4.083   0.085   2.963 -2.0839 -1.3500  0.3326
 6685SOL    HW231689   4.165   0.118   2.846 -0.7772  0.9612 -0.0450
 6686SOL     OW31690   4.109   3.210   8.647  0.7977  0.0408 -0.0262
 6686SOL    HW131691   4.150   3.175   8.568  0.2849  3.9644 -2.0123
 6686SOL    HW231692   4.118   3.130   8.700  1.2021  1.9429  2.7951
 6687SOL     OW31693   1.253   4.689   3.970  0.7454 -0.3283  0.5186
 6687SOL    HW131694   1.184   4.724   4.026  0.4349 -0.5423  0.2705
 6687SOL    HW231695   1.244   4.596   3.992  0.4873 -0.1553  1.1450
 6688SOL     OW31696   0.576   1.675  16.486 -0.0884 -0.5475  0.1180
 6688SOL    HW131697   0.488   1.690  16.451 -0.6749 -0.0296  1.8204
 6688SOL    HW231698   0.623   1.757  16.468  0.9673 -1.5701 -1.7926
 6689SOL     OW31699   0.697   3.828  15.042 -0.0788  0.1167  0.0957
 6689SOL    HW131700   0.728   3.780  15.118 -0.8232 -0.8379 -0.2036
 6689SOL    HW231701   0.782   3.821  14.999  0.5939  1.2328  1.2107
 6690SOL     OW31702   2.232   1.846   8.510 -0.0828 -0.5121  0.0246
 6690SOL    HW131703   2.239   1.912   8.441 -1.4088 -0.3807  0.0213
 6690SOL    HW231704   2.138   1.840   8.528  0.2078 -0.8252  1.4189
 6691SOL     OW31705   4.043   2.834   6.064  0.0222 -0.0674  0.1303
 6691SOL    HW131706   3.969   2.863   6.010 -1.0338 -2.6541  0.2135
 6691SOL    HW231707   4.052   2.751   6.018 -4.3750 -1.1440  1.2878
 6692SOL     OW31708   1.331   0.875  17.349 -0.7222  0.2132 -0.1947
 6692SOL    HW131709   1.356   0.939  17.414 -1.1544 -1.1297  1.2933
 6692SOL    HW231710   1.396   0.891  17.280 -1.0299 -0.5214 -0.6663
 6693SOL     OW31711   3.087   0.789  13.548  0.1262 -0.1347  0.5185
 6693SOL    HW131712   3.160   0.748  13.501  1.3396 -0.1670  2.4551
 6693SOL    HW231713   3.143   0.841  13.605  0.0223  0.4313  0.0942
 6694SOL     OW31714   2.097   0.359   5.198 -0.2956  0.0114  0.0004
 6694SOL    HW131715   2.151   0.374   5.276  0.1828 -0.7932 -0.1691
 6694SOL    HW231716   2.086   0.264   5.189 -0.6301 -0.0870  1.3167
 6695SOL     OW31717   1.984   4.169   7.576 -0.8942 -0.5324  0.0214
 6695SOL    HW131718   1.907   4.182   7.632 -0.5311  1.3312  0.0606
 6695SOL    HW231719   1.987   4.251   7.528  0.4607 -1.0458 -0.7605
 6696SOL     OW31720   3.108   0.352   6.287 -0.3120 -0.1859  0.2374
 6696SOL    HW131721   3.193   0.395   6.297  0.2106 -1.1276 -0.1237
 6696SOL    HW231722   3.072   0.404   6.214  2.5273 -0.2290 -1.2123
 6697SOL     OW31723   2.666   0.876   1.744 -0.1833  0.0147 -0.2639
 6697SOL    HW131724   2.638   0.933   1.816 -0.8056  0.8367 -1.1639
 6697SOL    HW231725   2.738   0.922   1.700 -1.4775  2.3905  0.1267
 6698SOL     OW31726   1.170   4.547  11.909  0.1936  0.2802  0.1050
 6698SOL    HW131727   1.180   4.616  11.843  2.1226  0.2161  0.3424
 6698SOL    HW231728   1.156   4.468  11.857  3.3234 -0.4262  0.3395
 6699SOL     OW31729   3.576   2.802   5.072 -0.0422 -0.8266  0.1256
 6699SOL    HW131730   3.533   2.884   5.095  3.0767  1.1041 -1.0927
 6699SOL    HW231731   3.532   2.784   4.989  3.0327  0.0195 -1.6699
 6700SOL     OW31732   2.853   3.133   1.939  0.2545  0.1046 -0.3671
 6700SOL    HW131733   2.820   3.191   2.007  3.5490  1.4053  0.1442
 6700SOL    HW231734   2.933   3.177   1.909 -0.2792  0.7391 -0.8670
 6701SOL     OW31735   0.439   3.764   5.433 -0.2552  0.7818  0.5245
 6701SOL    HW131736   0.469   3.707   5.504  1.1630 -1.1901 -1.6514
 6701SOL    HW231737   0.371   3.814   5.479 -1.1024 -0.1657  0.3120
 6702SOL     OW31738   2.511   0.702   8.636  0.8447 -0.1072  0.3061
 6702SOL    HW131739   2.584   0.644   8.658 -0.2675 -2.6219 -2.4930
 6702SOL    HW231740   2.548   0.788   8.653  0.0635  0.3768 -0.4047
 6703SOL     OW31741   1.037   2.731   0.615  0.1996 -0.6917  0.0409
 6703SOL    HW131742   1.095   2.688   0.552 -0.3495 -0.3243 -0.7093
 6703SOL    HW231743   1.016   2.660   0.675  0.7283  0.9029  2.1356
 6704SOL     OW31744   3.350   1.561   1.148  0.5417  0.5751  0.7531
 6704SOL    HW131745   3.322   1.568   1.057 -1.5409  0.1517  1.3407
 6704SOL    HW231746   3.431   1.510   1.149  0.7177  0.8623  2.2365
 6705SOL     OW31747   1.792   0.687  10.006  0.0822 -0.1371  0.2088
 6705SOL    HW131748   1.779   0.755  10.072  1.7207  0.4442 -0.0742
 6705SOL    HW231749   1.762   0.735   9.928  0.6789 -0.7681 -0.4101
 6706SOL     OW31750   4.188   2.668   7.088 -0.1155  0.0023  0.0593
 6706SOL    HW131751   4.281   2.646   7.080 -0.2624 -0.1535 -1.2376
 6706SOL    HW231752   4.182   2.743   7.148 -0.5537  0.1225 -0.1357
 6707SOL     OW31753   2.336   2.282   9.107 -0.1688 -0.1971 -0.2629
 6707SOL    HW131754   2.408   2.253   9.051  1.0638 -0.9315  1.7078
 6707SOL    HW231755   2.261   2.268   9.049  0.8189 -0.5064 -1.4564
 6708SOL     OW31756   1.262   0.031  14.366  1.2901  0.1605 -0.1206
 6708SOL    HW131757   1.319   4.695  14.364 -1.1131 -1.6188  0.3796
 6708SOL    HW231758   1.217   0.016  14.449  1.7773  1.0408  0.3024
 6709SOL     OW31759   0.874   3.671   6.793 -0.2691  0.3394  0.1248
 6709SOL    HW131760   0.804   3.634   6.846 -1.4003 -0.0412 -1.6712
 6709SOL    HW231761   0.884   3.763   6.817 -3.4115  0.8857 -0.6902
 6710SOL     OW31762   1.292   3.023   8.123  0.1869 -0.1753  0.6083
 6710SOL    HW131763   1.336   3.015   8.208  1.2986 -0.1591  0.0334
 6710SOL    HW231764   1.347   3.089   8.081  0.2965 -1.6661 -1.5819
 6711SOL     OW31765   1.268   2.973   5.286 -0.7469  0.1306  0.3421
 6711SOL    HW131766   1.187   2.943   5.328 -0.2955  0.6384  1.5840
 6711SOL    HW231767   1.326   2.905   5.319 -1.7668  0.4426  2.8050
 6712SOL     OW31768   2.540   2.544   7.348  0.3616  0.0322  0.0621
 6712SOL    HW131769   2.610   2.494   7.392 -0.4450 -0.3319  0.9340
 6712SOL    HW231770   2.551   2.628   7.393  0.6751 -0.1465  0.3234
 6713SOL     OW31771   0.842   3.935   4.445 -0.1965  0.0850  0.5441
 6713SOL    HW131772   0.806   3.987   4.373  1.2625  0.0843 -0.1946
 6713SOL    HW231773   0.933   3.920   4.419 -0.4908 -0.1142 -0.3641
 6714SOL     OW31774   2.952   0.588   5.774 -0.6684  0.1719  0.1128
 6714SOL    HW131775   2.908   0.673   5.764 -1.2871 -0.4225 -2.1443
 6714SOL    HW231776   2.881   0.534   5.808  0.0199 -1.4149 -1.0084
 6715SOL     OW31777   1.701   1.084   2.760  0.2862 -0.4839 -0.0358
 6715SOL    HW131778   1.744   1.013   2.714  0.1965 -1.4080  1.3026
 6715SOL    HW231779   1.755   1.090   2.839  1.4315  1.5655 -0.9677
 6716SOL     OW31780   2.243   0.446   0.414 -0.4613  0.4047 -0.5607
 6716SOL    HW131781   2.163   0.482   0.452  1.0257  2.1281  0.9147
 6716SOL    HW231782   2.207   0.381   0.353 -0.0506  0.6298 -1.0422
 6717SOL     OW31783   2.183   1.179   7.113 -0.8684  0.1569  0.2431
 6717SOL    HW131784   2.109   1.166   7.054  0.3589  0.4260 -1.3668
 6717SOL    HW231785   2.131   1.149   7.187 -0.0948 -2.4702 -0.2946
 6718SOL     OW31786   3.046   3.611   8.750  0.1619  0.0210 -0.3158
 6718SOL    HW131787   3.008   3.625   8.837  0.4738 -0.0162 -0.1700
 6718SOL    HW231788   3.129   3.655   8.769 -0.6504  1.8474 -1.0297
 6719SOL     OW31789   1.429   0.028   7.846 -0.3448  0.1746 -0.7218
 6719SOL    HW131790   1.484   0.053   7.772 -2.1037  1.1922 -1.6886
 6719SOL    HW231791   1.457   4.680   7.868  2.4888  1.9477  2.7504
 6720SOL     OW31792   2.804   2.095   6.505  0.1665  0.6405  0.3897
 6720SOL    HW131793   2.796   1.999   6.508  1.7451  0.5336  0.8290
 6720SOL    HW231794   2.715   2.121   6.480 -0.8915 -2.2075  1.2008
 6721SOL     OW31795   4.284   0.493   9.330 -0.0367  0.3980 -0.3199
 6721SOL    HW131796   4.343   0.418   9.345  0.8598  1.4387  1.3624
 6721SOL    HW231797   4.308   0.502   9.238 -1.2546  1.7589 -0.4933
 6722SOL     OW31798   4.250   0.688   4.475  0.6878 -0.3828 -0.1047
 6722SOL    HW131799   4.223   0.601   4.445  1.3131 -0.7629  0.4604
 6722SOL    HW231800   4.174   0.718   4.524 -0.8395 -0.9358 -2.1116
 6723SOL     OW31801   4.697   3.146   5.670 -0.2658  0.4144 -0.2641
 6723SOL    HW131802   4.654   3.231   5.666  0.1971  0.6312 -0.6888
 6723SOL    HW231803   0.033   3.161   5.614  1.0904 -0.0415  1.4258
 6724SOL     OW31804   2.828   3.464   5.937 -0.4341 -0.5153 -0.2047
 6724SOL    HW131805   2.758   3.473   6.001 -1.2927 -1.0918 -1.0690
 6724SOL    HW231806   2.823   3.369   5.922  1.7964 -0.3873 -1.7782
 6725SOL     OW31807   0.633   1.033   2.737 -0.7166 -0.0409 -0.5648
 6725SOL    HW131808   0.581   0.996   2.808  0.4079  1.5102  1.0543
 6725SOL    HW231809   0.572   1.092   2.692  1.5060  3.6591  1.2615
 6726SOL     OW31810   3.613   1.539   5.225  0.5538  0.3411 -0.0560
 6726SOL    HW131811   3.626   1.586   5.142  3.6267  1.1311  0.8636
 6726SOL    HW231812   3.553   1.475   5.187 -0.9672  0.2753  2.4861
 6727SOL     OW31813   1.084   3.308   5.519 -0.2548  0.0170 -0.0058
 6727SOL    HW131814   1.124   3.348   5.596  1.4628 -3.0973  0.7196
 6727SOL    HW231815   1.060   3.381   5.461 -1.1644 -0.3284 -0.0646
 6728SOL     OW31816   0.694   3.991   0.245  0.1311  0.7702  0.5150
 6728SOL    HW131817   0.703   3.916   0.303 -1.3022  0.2422  0.0457
 6728SOL    HW231818   0.643   4.054   0.296 -1.2219 -0.3725  0.5602
 6729SOL     OW31819   0.743   1.571   6.422  0.3004 -0.3799  0.2391
 6729SOL    HW131820   0.720   1.623   6.345  5.1049 -0.3934 -1.2137
 6729SOL    HW231821   0.836   1.564   6.399 -0.1383  3.6729 -2.7593
 6730SOL     OW31822   0.761   4.699   3.551  0.5726  0.2681 -0.1445
 6730SOL    HW131823   0.723   4.615   3.574  0.1023  0.1723 -1.2475
 6730SOL    HW231824   0.706   4.714   3.474  0.2942 -0.4736 -0.0926
 6731SOL     OW31825   4.283   1.327   1.583  0.7266 -0.3406  0.5716
 6731SOL    HW131826   4.190   1.349   1.590  1.4030  2.8898 -0.8042
 6731SOL    HW231827   4.289   1.232   1.569  1.3698 -0.0191 -1.2448
 6732SOL     OW31828   0.779   3.596   5.242 -0.0520 -0.4379  0.0677
 6732SOL    HW131829   0.757   3.603   5.149  0.8577  1.2760 -0.0210
 6732SOL    HW231830   0.690   3.581   5.275 -0.2411 -0.9563 -0.6971
 6733SOL     OW31831   1.083   3.228   8.319  0.2329  0.1640 -0.3354
 6733SOL    HW131832   1.091   3.149   8.373  1.7544 -1.0884 -2.4197
 6733SOL    HW231833   0.995   3.212   8.285 -1.1652 -1.0812  3.8571
 6734SOL     OW31834   4.557   1.241  11.033 -0.2108 -0.0905 -0.2316
 6734SOL    HW131835   4.611   1.193  11.095 -0.9779 -0.0796  0.4366
 6734SOL    HW231836   4.471   1.240  11.073 -0.3770  0.0618 -0.5800
 6735SOL     OW31837   4.296   4.004   9.276  0.0164 -0.0702 -0.6970
 6735SOL    HW131838   4.362   3.940   9.302 -1.2773 -0.2272  2.2143
 6735SOL    HW231839   4.320   4.075   9.337  1.3789 -1.5054  0.4318
 6736SOL     OW31840   0.915   0.954  12.336 -0.5592  0.5367  0.4040
 6736SOL    HW131841   0.872   0.877  12.298 -0.8174  0.4554  0.8576
 6736SOL    HW231842   0.898   1.006  12.258  1.8869  1.4289  0.4763
 6737SOL     OW31843   3.951   1.238   6.587 -0.2700  0.2157  0.3024
 6737SOL    HW131844   4.015   1.309   6.589  2.2837 -2.0117 -1.6126
 6737SOL    HW231845   3.983   1.189   6.662  0.8380  1.5840  0.6999
 6738SOL     OW31846   0.839   4.705   4.925 -0.5121 -0.2307  0.1246
 6738SOL    HW131847   0.854   4.667   5.011 -1.0248  0.4938  0.5284
 6738SOL    HW231848   0.813   4.624   4.881  0.8400 -0.3165 -0.5169
 6739SOL     OW31849   0.604   2.724   4.210 -0.5402  0.5056 -0.0067
 6739SOL    HW131850   0.622   2.734   4.116 -0.8648  1.9039  0.0745
 6739SOL    HW231851   0.509   2.712   4.210 -0.7867  2.4874  1.3322
 6740SOL     OW31852   1.216   3.162   2.476 -0.4274  0.0855 -0.7645
 6740SOL    HW131853   1.243   3.095   2.538  0.4580  0.7595 -0.4289
 6740SOL    HW231854   1.141   3.125   2.428 -0.5839  1.2601 -1.4326
 6741SOL     OW31855   3.368   3.993   2.011  0.6913 -0.3840 -0.3854
 6741SOL    HW131856   3.419   4.020   2.087  1.8003  0.2874 -1.3612
 6741SOL    HW231857   3.388   3.900   2.001  1.4623 -0.2188 -0.3650
 6742SOL     OW31858   0.530   4.229  17.693 -0.1294  0.2900  0.2419
 6742SOL    HW131859   0.588   4.300  17.721 -0.3370  0.3840  0.4349
 6742SOL    HW231860   0.599   4.174  17.655 -0.8412 -0.1063 -0.4638
 6743SOL     OW31861   1.068   4.715   9.590  0.2157  0.0332  0.0334
 6743SOL    HW131862   0.987   0.024   9.601  0.4665  0.2369  0.9266
 6743SOL    HW231863   1.030   4.638   9.547  0.5873  0.1881 -0.5694
 6744SOL     OW31864   2.938   0.418   1.785  0.4224  0.0941 -0.0147
 6744SOL    HW131865   2.957   0.436   1.878  1.2469  0.1092 -0.1904
 6744SOL    HW231866   2.931   0.506   1.748 -1.0299  0.3584  0.8534
 6745SOL     OW31867   4.697   4.523   2.783 -1.1311  0.1138  0.7153
 6745SOL    HW131868   4.679   4.440   2.740 -0.8946  0.8011 -0.7041
 6745SOL    HW231869   4.683   4.583   2.709 -0.3637 -0.2669  0.2673
 6746SOL     OW31870   2.783   2.573   4.262 -0.4203 -0.1983  0.2654
 6746SOL    HW131871   2.832   2.644   4.220 -0.0052  0.3051  1.5913
 6746SOL    HW231872   2.713   2.553   4.201  0.1378  1.2261 -0.8419
 6747SOL     OW31873   3.028   3.032   8.126  0.0942 -0.1934 -0.1103
 6747SOL    HW131874   3.008   3.046   8.218 -1.2009  0.5158 -0.4942
 6747SOL    HW231875   2.973   3.093   8.076 -1.9349  0.1707  2.5585
 6748SOL     OW31876   4.509   1.031   5.225 -0.3499  0.0027  0.3012
 6748SOL    HW131877   4.485   0.961   5.286  4.2036 -0.1832  1.9020
 6748SOL    HW231878   4.427   1.062   5.187 -1.8234 -0.8190  2.7904
 6749SOL     OW31879   1.991   3.100   7.188 -0.0828 -0.0684 -0.4106
 6749SOL    HW131880   2.045   3.051   7.127  1.3909  0.6274  0.3448
 6749SOL    HW231881   1.978   3.191   7.161  0.2889 -0.4415 -1.8492
 6750SOL     OW31882   1.354   4.226   7.666  0.1420 -0.1080  0.2989
 6750SOL    HW131883   1.318   4.223   7.755  2.3562  2.2376  1.2681
 6750SOL    HW231884   1.401   4.143   7.667  0.4523  0.0734  0.8399
 6751SOL     OW31885   3.730   2.437   2.383 -0.0570  0.0625  0.1397
 6751SOL    HW131886   3.730   2.342   2.372 -0.5562  0.2021 -1.0820
 6751SOL    HW231887   3.774   2.460   2.301  1.2395 -2.7364  0.0270
 6752SOL     OW31888   0.113   4.515   9.155  0.0678  0.1911  0.2794
 6752SOL    HW131889   0.148   4.604   9.147 -1.4856  0.7715  0.0039
 6752SOL    HW231890   0.021   4.538   9.144  0.3034  0.6898 -0.6953
 6753SOL     OW31891   3.142   2.062  13.613 -0.0683  0.2890  0.3448
 6753SOL    HW131892   3.174   1.982  13.573 -1.4499 -0.4092  0.6352
 6753SOL    HW231893   3.227   2.101  13.635  0.0202 -0.5860  1.5663
 6754SOL     OW31894   2.309   4.683   1.161 -0.1027  0.1918 -0.0946
 6754SOL    HW131895   2.218   4.670   1.133  0.4984 -0.9773 -1.5063
 6754SOL    HW231896   2.340   4.596   1.135 -0.3700  0.0462  0.0715
 6755SOL     OW31897   4.710   1.206   7.642  0.3003  0.1410 -0.4309
 6755SOL    HW131898   0.007   1.144   7.578  1.3792  0.8513 -0.4994
 6755SOL    HW231899   0.049   1.244   7.680  1.2257 -0.3020 -1.9296
 6756SOL     OW31900   4.310   3.376   5.591 -1.4603 -0.2400 -0.1546
 6756SOL    HW131901   4.392   3.394   5.546 -1.1407  2.3201  1.4769
 6756SOL    HW231902   4.248   3.421   5.534 -0.0531 -0.3397 -1.7688
 6757SOL     OW31903   1.580   3.373   5.888  0.5923  0.4988 -0.2396
 6757SOL    HW131904   1.545   3.413   5.809  1.4056  0.3060 -0.7044
 6757SOL    HW231905   1.511   3.320   5.927  1.0770 -0.8616 -1.2264
 6758SOL     OW31906   2.408   0.084   1.636  0.1014 -0.2421 -0.1467
 6758SOL    HW131907   2.478   0.040   1.588 -0.4365 -0.8783 -0.3621
 6758SOL    HW231908   2.333   0.036   1.600 -1.1378  1.8176 -0.3149
 6759SOL     OW31909   2.648   3.252   1.438  0.8192  0.3510  0.0323
 6759SOL    HW131910   2.697   3.197   1.499  0.3649 -1.5871 -1.3807
 6759SOL    HW231911   2.601   3.189   1.384 -0.4192  1.7171 -0.4979
 6760SOL     OW31912   0.579   2.375   5.722 -0.2360  0.0122 -0.4548
 6760SOL    HW131913   0.629   2.346   5.646  0.3469 -2.2558  0.8123
 6760SOL    HW231914   0.550   2.288   5.747  0.5408 -0.7687 -2.2180
 6761SOL     OW31915   2.546   3.746   7.951 -0.0731  0.4879  0.1097
 6761SOL    HW131916   2.472   3.785   7.904 -1.8120  1.5897  3.8206
 6761SOL    HW231917   2.506   3.661   7.971  2.2682  0.1169  3.1610
 6762SOL     OW31918   2.962   3.099  14.918  0.2859 -0.2710  0.3859
 6762SOL    HW131919   2.932   3.134  15.002 -0.1157  0.0627  0.1061
 6762SOL    HW231920   2.958   3.168  14.852  1.0456  0.2060  0.8447
 6763SOL     OW31921   0.704   1.732   2.037 -0.5266  0.2562  0.3999
 6763SOL    HW131922   0.680   1.814   2.079 -1.1478 -0.1116  0.7486
 6763SOL    HW231923   0.779   1.762   1.985  0.2976 -0.7423  0.9946
 6764SOL     OW31924   0.250   3.450   8.938 -0.1283  0.3914  0.2547
 6764SOL    HW131925   0.182   3.504   8.979 -2.0298 -0.5494 -1.6969
 6764SOL    HW231926   0.257   3.388   9.011 -1.5226 -0.5242 -0.3823
 6765SOL     OW31927   0.067   4.288  15.088 -0.4083 -0.5918  0.0113
 6765SOL    HW131928   4.720   4.289  15.127 -0.7290  1.5721 -0.7777
 6765SOL    HW231929   0.068   4.236  15.007 -3.3516 -1.9269  0.8320
 6766SOL     OW31930   3.730   3.182  15.581 -0.1343 -0.4144  0.5114
 6766SOL    HW131931   3.692   3.268  15.563 -0.2808 -0.0705  2.4421
 6766SOL    HW231932   3.798   3.189  15.514 -0.3649 -1.0214  0.2092
 6767SOL     OW31933   0.260   4.315  17.691  0.3638 -0.3632  0.0760
 6767SOL    HW131934   0.350   4.302  17.661  0.3465  2.3039 -1.1307
 6767SOL    HW231935   0.248   4.251   0.002 -3.2349 -0.2233 -0.3990
 6768SOL     OW31936   4.405   2.924  11.390  0.1305 -0.2107 -0.4723
 6768SOL    HW131937   4.476   2.934  11.454 -0.3767 -0.0014  0.0530
 6768SOL    HW231938   4.349   2.868  11.442 -0.5269  2.0008  1.1731
 6769SOL     OW31939   3.706   1.049   5.489  0.4606  0.2474  0.1533
 6769SOL    HW131940   3.764   0.981   5.522 -0.0658 -0.8711 -1.2363
 6769SOL    HW231941   3.666   1.092   5.565 -0.9233 -0.4393 -0.1780
 6770SOL     OW31942   3.698   0.365   2.623 -0.1577  0.5544  0.2176
 6770SOL    HW131943   3.680   0.446   2.575 -2.0345  0.4128  0.6758
 6770SOL    HW231944   3.784   0.338   2.591 -0.2086 -1.7524  2.0033
 6771SOL     OW31945   4.154   0.976   8.079  0.2020  0.2418  0.0788
 6771SOL    HW131946   4.102   1.025   8.014 -1.2419 -0.2565  0.8552
 6771SOL    HW231947   4.120   0.887   8.074 -0.0306  0.4149 -1.4221
 6772SOL     OW31948   0.408   0.374   9.314  0.0195 -0.7761 -0.2142
 6772SOL    HW131949   0.498   0.391   9.286 -0.4899  0.6321 -0.9957
 6772SOL    HW231950   0.398   0.419   9.398  0.5424 -1.3690  0.1652
 6773SOL     OW31951   0.101   0.347   0.849  0.5396  0.0595  0.1578
 6773SOL    HW131952   0.045   0.301   0.912 -1.1920  0.2757 -1.2212
 6773SOL    HW231953   0.049   0.330   0.771 -0.7143 -2.4693  1.5026
 6774SOL     OW31954   0.814   1.327   6.826  0.1312  0.4794 -0.0274
 6774SOL    HW131955   0.828   1.242   6.784  1.8666  0.8759 -0.2082
 6774SOL    HW231956   0.765   1.305   6.906 -1.4210 -1.2165 -1.4368
 6775SOL     OW31957   0.807   0.953   1.791  0.0272 -0.5055 -0.0643
 6775SOL    HW131958   0.827   0.960   1.884  0.2361 -0.5371 -0.1070
 6775SOL    HW231959   0.729   0.899   1.795  0.2528 -0.6579  2.1862
 6776SOL     OW31960   2.774   1.841   9.984  0.6376  0.1761  0.2635
 6776SOL    HW131961   2.689   1.812   9.953 -0.3345  1.1968  1.9545
 6776SOL    HW231962   2.829   1.764   9.973  0.7877  0.3592 -0.2753
 6777SOL     OW31963   1.711   2.681  14.463 -0.5113  0.0891  0.3949
 6777SOL    HW131964   1.663   2.747  14.413  0.5936  1.0640  0.6347
 6777SOL    HW231965   1.674   2.700  14.549 -1.3114 -2.0462  0.5356
 6778SOL     OW31966   1.881   2.398   4.576 -0.2309 -0.3425  0.2145
 6778SOL    HW131967   1.925   2.369   4.495  1.9127 -0.3681  1.3736
 6778SOL    HW231968   1.962   2.409   4.627 -0.1242  0.8254 -0.2048
 6779SOL     OW31969   1.443   1.481   5.220 -0.3416  0.3611  0.2899
 6779SOL    HW131970   1.515   1.535   5.189 -1.0391  0.7234 -0.7276
 6779SOL    HW231971   1.487   1.397   5.227  3.4398  2.3332  0.1045
 6780SOL     OW31972   3.082   0.357  11.573  0.3468  0.6901 -0.3493
 6780SOL    HW131973   3.114   0.440  11.536  1.2030  0.7220  0.4600
 6780SOL    HW231974   3.071   0.371  11.667  2.2356 -1.2618  0.1524
 6781SOL     OW31975   1.131   0.915   1.643 -0.4403  0.2724  0.3756
 6781SOL    HW131976   1.158   0.840   1.696 -1.7874  0.1906  0.9508
 6781SOL    HW231977   1.125   0.971   1.721  0.2000  1.6531 -0.5657
 6782SOL     OW31978   2.670   1.275   1.718  0.0319 -0.0637 -0.0195
 6782SOL    HW131979   2.687   1.237   1.804  2.0502 -1.2199 -0.9282
 6782SOL    HW231980   2.749   1.242   1.675  1.4617  0.8975  1.8175
 6783SOL     OW31981   0.333   2.421   6.233 -0.1883  0.2168 -0.1939
 6783SOL    HW131982   0.247   2.457   6.258  0.5328  1.4378  0.5033
 6783SOL    HW231983   0.341   2.427   6.138 -0.4194  0.9582 -0.1606
 6784SOL     OW31984   4.450   2.136   4.702  0.2128 -0.0331  0.2132
 6784SOL    HW131985   4.357   2.113   4.695  0.5854 -1.8370  1.2193
 6784SOL    HW231986   4.500   2.065   4.661  0.4738  2.6866 -4.2052
 6785SOL     OW31987   0.566   3.287   6.064  0.1933 -0.6705 -0.4998
 6785SOL    HW131988   0.608   3.324   6.142  2.6290 -0.2636 -2.0227
 6785SOL    HW231989   0.538   3.209   6.111 -1.2103 -0.9475 -1.8088
 6786SOL     OW31990   1.666   0.490   3.394 -0.0453 -0.2016 -0.1584
 6786SOL    HW131991   1.754   0.453   3.384 -0.2999 -0.2411 -2.2797
 6786SOL    HW231992   1.642   0.444   3.475  2.4863 -1.0813  0.0832
 6787SOL     OW31993   0.874   2.892   3.180 -0.4605  0.9670  0.3169
 6787SOL    HW131994   0.833   2.907   3.094  1.0406  0.5586 -0.4781
 6787SOL    HW231995   0.921   2.975   3.191  0.2148  0.3794  1.7660
 6788SOL     OW31996   2.539   3.122  10.689  0.3021 -0.1691 -0.3333
 6788SOL    HW131997   2.458   3.084  10.723  0.5637 -0.4636 -0.0351
 6788SOL    HW231998   2.523   3.097  10.598  3.9501 -0.6050 -0.8458
 6789SOL     OW31999   1.232   4.071   4.081  0.5546  0.1248 -0.5292
 6789SOL    HW132000   1.240   4.032   4.168  2.1128  1.2583 -0.1625
 6789SOL    HW232001   1.300   4.138   4.080 -0.6842  1.3951  1.1431
 6790SOL     OW32002   4.663   2.760  14.184 -0.3057  0.1770 -0.3358
 6790SOL    HW132003   4.733   2.756  14.119  0.1206  1.6657  0.0290
 6790SOL    HW232004   4.594   2.770  14.119 -1.3978 -0.1537  0.7653
 6791SOL     OW32005   4.118   0.695   0.564 -0.3369  0.0278 -0.2000
 6791SOL    HW132006   4.096   0.606   0.537  0.4471 -1.0699  2.7801
 6791SOL    HW232007   4.036   0.720   0.607  0.5853 -0.0800  1.6009
 6792SOL     OW32008   2.550   4.380  14.558  0.5660 -0.4785 -0.1013
 6792SOL    HW132009   2.525   4.389  14.650  1.3646  1.0653 -0.0381
 6792SOL    HW232010   2.498   4.451  14.521  1.7917 -0.5183 -1.8663
 6793SOL     OW32011   4.645   4.337  14.439 -0.1702  0.5084  0.2579
 6793SOL    HW132012   4.667   4.429  14.451 -0.6551  0.9112 -1.8771
 6793SOL    HW232013   4.561   4.346  14.393  0.1994  0.2081 -0.4770
 6794SOL     OW32014   1.860   0.455   6.223  0.3012  0.0418 -0.2664
 6794SOL    HW132015   1.825   0.405   6.297 -1.2186 -1.3559 -1.9385
 6794SOL    HW232016   1.888   0.537   6.264  0.1099  0.6045 -1.2613
 6795SOL     OW32017   3.714   3.156   5.097  0.1414 -0.8412  0.1098
 6795SOL    HW132018   3.677   3.236   5.059  1.1486 -0.8426 -0.8768
 6795SOL    HW232019   3.739   3.112   5.015 -1.0864 -3.5735  1.1790
 6796SOL     OW32020   3.375   1.060   7.810  0.5643 -0.4879 -0.3014
 6796SOL    HW132021   3.303   1.009   7.845  0.7919 -0.8644 -0.3857
 6796SOL    HW232022   3.371   1.140   7.862  1.5887 -0.1126 -0.7859
 6797SOL     OW32023   0.479   0.621   8.656 -0.4260  0.4588 -0.3749
 6797SOL    HW132024   0.456   0.646   8.746 -1.8429 -0.5242 -0.4615
 6797SOL    HW232025   0.429   0.686   8.608 -2.1591 -2.7367 -2.8884
 6798SOL     OW32026   2.802   4.432   3.815 -0.4182  0.3699  0.3253
 6798SOL    HW132027   2.890   4.429   3.776 -0.1953  1.0894  0.7670
 6798SOL    HW232028   2.830   4.433   3.907 -0.6241  0.5887  0.3848
 6799SOL     OW32029   2.589   3.731   2.492 -0.1019  0.8133  0.1334
 6799SOL    HW132030   2.612   3.652   2.444  1.0949  1.9733 -1.1936
 6799SOL    HW232031   2.523   3.688   2.546  0.2671  1.7425  1.3293
 6800SOL     OW32032   1.991   3.034   4.551  0.1696  0.0793  0.0121
 6800SOL    HW132033   1.945   3.019   4.469  2.6478  1.3626 -1.6058
 6800SOL    HW232034   2.031   2.948   4.562 -1.8746 -0.7060  1.4464
 6801SOL     OW32035   3.853   4.316   0.164  0.1319  0.1968  0.1704
 6801SOL    HW132036   3.876   4.393   0.215  1.0762  1.6595 -2.4527
 6801SOL    HW232037   3.849   4.342   0.072  3.5494  1.7073  0.4480
 6802SOL     OW32038   3.505   3.315  15.700 -0.2568 -0.5137  0.3309
 6802SOL    HW132039   3.446   3.248  15.735 -0.9978 -0.4707 -0.8349
 6802SOL    HW232040   3.585   3.315  15.753  0.5809  0.1453 -0.9338
 6803SOL     OW32041   4.634   1.322   3.948  0.1982 -0.4537  0.0644
 6803SOL    HW132042   4.673   1.346   4.032  2.6348  0.8392 -1.4265
 6803SOL    HW232043   4.546   1.360   3.955 -0.1717 -1.3588  0.4227
 6804SOL     OW32044   4.477   4.402  12.775 -0.9741 -0.1595 -0.1147
 6804SOL    HW132045   4.447   4.396  12.866  0.9235 -2.0855  0.3919
 6804SOL    HW232046   4.550   4.461  12.796 -0.6941 -0.7774  0.6709
 6805SOL     OW32047   3.400   0.714   6.810 -0.4213  0.2588 -0.5154
 6805SOL    HW132048   3.369   0.639   6.859 -1.5748  1.9469  1.3235
 6805SOL    HW232049   3.337   0.782   6.834 -0.0109 -0.2144  1.8743
 6806SOL     OW32050   3.569   1.835  14.778  0.1101 -0.2241 -0.1573
 6806SOL    HW132051   3.636   1.882  14.729  1.0434 -0.7472  0.6178
 6806SOL    HW232052   3.581   1.742  14.757 -1.2214 -0.6699  1.0296
 6807SOL     OW32053   2.259   3.279   2.742  0.1234  0.1345 -0.7786
 6807SOL    HW132054   2.227   3.190   2.758 -0.4900  0.9390  2.3361
 6807SOL    HW232055   2.271   3.302   2.834  0.2766 -1.0475 -0.5075
 6808SOL     OW32056   0.800   3.997   3.855 -0.7035 -0.8195  0.0564
 6808SOL    HW132057   0.850   3.916   3.841 -0.9677 -1.1583  1.0346
 6808SOL    HW232058   0.836   4.048   3.782  1.9720  1.7735  3.1629
 6809SOL     OW32059   2.278   0.720   9.970 -0.3413 -0.0923 -0.2073
 6809SOL    HW132060   2.312   0.715  10.059  0.9985 -3.0724 -0.9032
 6809SOL    HW232061   2.199   0.666   9.980 -1.5407  1.6549 -0.0869
 6810SOL     OW32062   0.441   3.628   3.942 -0.8986  0.4813  0.9413
 6810SOL    HW132063   0.492   3.710   3.938  0.9551 -0.7813 -1.3664
 6810SOL    HW232064   0.473   3.598   4.027 -1.4199 -0.1833  0.8943
 6811SOL     OW32065   2.246   3.112   4.419  0.0724  0.2724  0.1222
 6811SOL    HW132066   2.199   3.103   4.336 -1.5102  1.8154  0.8478
 6811SOL    HW232067   2.175   3.109   4.484 -1.9009  1.0146 -2.0042
 6812SOL     OW32068   1.892   3.599  12.320  0.4659  0.5275 -0.0129
 6812SOL    HW132069   1.901   3.522  12.375  0.2133  1.1426  0.8923
 6812SOL    HW232070   1.962   3.657  12.348  1.0658  0.5851 -1.6354
 6813SOL     OW32071   2.599   2.357   7.936 -0.1231  0.4448  0.0391
 6813SOL    HW132072   2.532   2.418   7.966 -0.1914  0.7263 -0.6877
 6813SOL    HW232073   2.658   2.364   8.011  2.0831 -1.8884 -1.4631
 6814SOL     OW32074   0.362   1.344   7.850  0.1850 -0.1867 -0.1118
 6814SOL    HW132075   0.394   1.385   7.769 -0.2335  0.1723 -0.0952
 6814SOL    HW232076   0.359   1.254   7.819 -0.7110  0.1185 -0.8981
 6815SOL     OW32077   3.965   3.156   3.784  0.3510  0.0563 -0.0078
 6815SOL    HW132078   3.915   3.114   3.714  0.2733 -1.0555  0.7037
 6815SOL    HW232079   3.900   3.221   3.809 -1.8018 -1.2831 -2.1332
 6816SOL     OW32080   4.174   1.807  15.421 -0.2226  0.8968  0.2369
 6816SOL    HW132081   4.216   1.864  15.485 -0.6328 -0.7020  1.9054
 6816SOL    HW232082   4.159   1.871  15.351 -2.7872  0.4912  0.4370
 6817SOL     OW32083   4.702   3.657   2.173  0.0671 -0.9119  0.1323
 6817SOL    HW132084   4.618   3.619   2.147  0.5312 -1.3178 -0.7853
 6817SOL    HW232085   4.731   3.682   2.086  1.1236 -1.2895  0.3782
 6818SOL     OW32086   2.073   1.970   4.778  0.0638  0.4149  0.2998
 6818SOL    HW132087   1.994   1.943   4.731  0.2371  1.4208 -0.5714
 6818SOL    HW232088   2.140   1.926   4.727 -0.7412 -0.3263 -0.1032
 6819SOL     OW32089   0.054   4.575  15.019  0.1775 -0.0643 -0.1563
 6819SOL    HW132090   0.049   4.482  15.044 -0.3291  0.1099  0.3771
 6819SOL    HW232091   0.018   4.580  14.930 -0.4176 -1.0584  0.0317
 6820SOL     OW32092   3.550   1.508   1.422  0.2782  0.6378  0.7988
 6820SOL    HW132093   3.580   1.494   1.332  1.8423 -1.1296  1.6007
 6820SOL    HW232094   3.636   1.492   1.460 -0.0281 -1.1256  0.7543
 6821SOL     OW32095   3.406   1.742  13.091 -0.1573 -0.1515 -0.4097
 6821SOL    HW132096   3.445   1.655  13.098  0.4061  0.2473  1.5194
 6821SOL    HW232097   3.315   1.710  13.089  0.2218 -1.2550  0.1807
 6822SOL     OW32098   0.645   1.353  16.327 -0.0728  0.0755 -0.4545
 6822SOL    HW132099   0.562   1.316  16.357 -0.4687  0.0437 -1.5600
 6822SOL    HW232100   0.692   1.273  16.305  2.2529  1.9975 -2.5151
 6823SOL     OW32101   0.458   1.720  13.917 -0.0310  0.6721 -0.4648
 6823SOL    HW132102   0.456   1.669  13.836  1.3806 -1.5122  0.8859
 6823SOL    HW232103   0.385   1.780  13.902 -0.0637  0.8995  0.6158
 6824SOL     OW32104   4.586   2.310   6.103 -0.7008  0.4234  0.5761
 6824SOL    HW132105   4.573   2.331   6.010 -2.6341  1.3651  1.0726
 6824SOL    HW232106   4.588   2.396   6.145  1.4035  0.5705  0.1650
 6825SOL     OW32107   0.357   3.863   3.314  0.6808 -0.0136 -0.4769
 6825SOL    HW132108   0.365   3.863   3.409 -0.0555  1.0279 -0.4108
 6825SOL    HW232109   0.428   3.926   3.300 -0.8859  1.0982 -3.5780
 6826SOL     OW32110   4.268   4.512   2.632  0.4369 -0.0037 -0.0124
 6826SOL    HW132111   4.315   4.595   2.630 -2.9812  1.8937 -0.5024
 6826SOL    HW232112   4.292   4.489   2.722 -1.5297  0.3779  0.6143
 6827SOL     OW32113   3.381   4.719   6.552  0.0004  0.1847 -0.0526
 6827SOL    HW132114   3.395   0.051   6.490  0.2920  1.7349  1.8134
 6827SOL    HW232115   3.289   4.691   6.552 -0.0060  0.1954 -2.8549
 6828SOL     OW32116   3.665   0.329   6.472 -0.0250  0.0567 -0.5027
 6828SOL    HW132117   3.678   0.413   6.516 -0.7516 -1.0801  1.9005
 6828SOL    HW232118   3.681   0.270   6.546  0.0827 -0.0713 -0.6281
 6829SOL     OW32119   4.019   2.904   4.345 -0.1903  0.2120  0.6289
 6829SOL    HW132120   3.938   2.853   4.347 -0.0221 -0.0574  0.5063
 6829SOL    HW232121   4.017   2.960   4.422  3.8318  0.4860  0.5267
 6830SOL     OW32122   4.161   4.059  10.970  0.0807  0.0286 -0.2516
 6830SOL    HW132123   4.231   4.042  10.907  1.8238  1.6115  1.2823
 6830SOL    HW232124   4.209   4.111  11.034  1.3077 -1.1263 -0.2261
 6831SOL     OW32125   3.738   1.907   7.381  0.2788  0.0067  0.7999
 6831SOL    HW132126   3.731   1.832   7.441  2.4860 -1.2083 -0.4616
 6831SOL    HW232127   3.675   1.964   7.424 -0.7308 -0.7276  0.2960
 6832SOL     OW32128   3.259   0.719   4.374 -0.2323 -0.0816  0.5517
 6832SOL    HW132129   3.234   0.729   4.282  0.3390  1.2353  0.5397
 6832SOL    HW232130   3.247   0.813   4.392  1.2015  0.1940  0.0252
 6833SOL     OW32131   1.175   2.917   5.552 -0.1182  0.4510  0.4287
 6833SOL    HW132132   1.103   2.887   5.607  0.6902 -0.9498  0.7025
 6833SOL    HW232133   1.182   2.847   5.488  2.0830  0.7001  0.3778
 6834SOL     OW32134   0.604   2.460   5.145 -0.7419 -0.1904 -0.1919
 6834SOL    HW132135   0.557   2.528   5.097 -1.5955 -0.1368  0.7001
 6834SOL    HW232136   0.695   2.462   5.117 -0.3632  2.0547  1.1998
 6835SOL     OW32137   4.137   1.632   7.316  0.3608  1.2977 -1.1009
 6835SOL    HW132138   4.150   1.614   7.223 -1.0247 -2.7773 -0.5308
 6835SOL    HW232139   4.080   1.708   7.311 -0.6815  0.5374 -0.8561
 6836SOL     OW32140   3.352   2.569   6.752  0.0118 -0.6322 -0.0896
 6836SOL    HW132141   3.374   2.571   6.845  1.9823  0.3729 -0.5918
 6836SOL    HW232142   3.339   2.475   6.738  3.3075 -1.0560 -0.1323
 6837SOL     OW32143   3.112   0.739  11.719 -0.1171  0.3406  0.5331
 6837SOL    HW132144   3.023   0.758  11.747 -1.3767 -2.1253 -1.8746
 6837SOL    HW232145   3.158   0.793  11.784  2.2783 -2.5649  1.2578
 6838SOL     OW32146   2.515   1.176   6.260  0.1444  0.2243  0.5086
 6838SOL    HW132147   2.467   1.150   6.338 -0.3757 -1.6321 -0.4217
 6838SOL    HW232148   2.450   1.151   6.194 -0.7905  0.2284  1.4333
 6839SOL     OW32149   0.653   0.327  16.131  0.1322 -0.3227  0.4255
 6839SOL    HW132150   0.674   0.330  16.225 -1.5356 -0.2968  0.7850
 6839SOL    HW232151   0.561   0.301  16.130  0.2576 -0.8262  1.8076
 6840SOL     OW32152   0.144   0.680   7.496  0.3086 -1.5525  0.6539
 6840SOL    HW132153   0.200   0.624   7.444 -1.7316 -0.5183 -2.6685
 6840SOL    HW232154   0.191   0.670   7.579  1.4458  1.2906  0.3482
 6841SOL     OW32155   3.612   2.594   1.459 -0.3075 -0.1766  0.0659
 6841SOL    HW132156   3.689   2.538   1.461 -1.1935 -1.4487 -1.3010
 6841SOL    HW232157   3.546   2.526   1.473 -1.3837  0.5889 -1.2854
 6842SOL     OW32158   4.009   1.070   6.357 -0.0432  0.4811 -0.4609
 6842SOL    HW132159   4.065   1.131   6.309 -3.3534  1.5520 -2.9212
 6842SOL    HW232160   4.008   1.097   6.449 -0.1729  2.8398 -1.1540
 6843SOL     OW32161   0.787   2.996   1.146  0.1853 -0.5803  0.3850
 6843SOL    HW132162   0.813   3.026   1.233  0.2246 -0.3867  0.3077
 6843SOL    HW232163   0.876   2.982   1.112 -0.5162 -0.8247 -1.3900
 6844SOL     OW32164   2.192   4.686   2.745  0.5129 -0.3348  0.0906
 6844SOL    HW132165   2.129   4.691   2.817  0.4944 -0.3720  0.0770
 6844SOL    HW232166   2.272   4.728   2.777 -0.3230  0.8087  0.6785
 6845SOL     OW32167   1.555   2.539  12.836  0.1072 -0.1993 -0.2580
 6845SOL    HW132168   1.575   2.446  12.826 -0.3965 -0.3072 -0.2695
 6845SOL    HW232169   1.528   2.570  12.749 -1.1737 -0.1051  0.1710
 6846SOL     OW32170   2.397   0.523   3.148 -0.1541 -0.2879 -0.2598
 6846SOL    HW132171   2.466   0.589   3.157 -0.3168 -0.1318 -0.1640
 6846SOL    HW232172   2.397   0.506   3.054 -1.9891 -1.6067 -0.0096
 6847SOL     OW32173   0.226   2.741   8.366  0.5646  0.1908 -0.1266
 6847SOL    HW132174   0.241   2.686   8.443  0.1140 -1.5901 -1.3108
 6847SOL    HW232175   0.150   2.703   8.320  0.6836 -0.2966  0.0820
 6848SOL     OW32176   4.624   1.641   4.108 -0.0416 -0.2620  0.0041
 6848SOL    HW132177   4.604   1.575   4.174 -2.5282 -0.5070 -1.0268
 6848SOL    HW232178   4.551   1.698   4.132  1.0829  1.1692  0.0300
 6849SOL     OW32179   0.844   3.094   1.708  0.3413  0.1427  0.0644
 6849SOL    HW132180   0.778   3.116   1.774 -2.5110 -1.2467 -2.3056
 6849SOL    HW232181   0.863   3.002   1.722  0.6110 -0.1573 -2.2130
 6850SOL     OW32182   3.664   3.477   2.625  0.1802  0.4040 -0.8126
 6850SOL    HW132183   3.625   3.403   2.672  0.9064  2.2308  2.6878
 6850SOL    HW232184   3.752   3.469   2.662 -0.8566 -0.3703  1.4961
 6851SOL     OW32185   3.704   1.596  16.688 -0.1498  0.2767  0.6836
 6851SOL    HW132186   3.785   1.638  16.717  2.4799 -3.3203 -1.4785
 6851SOL    HW232187   3.640   1.612  16.757 -0.2386 -0.6031  0.8093
 6852SOL     OW32188   2.324   4.391  15.154 -0.1137 -0.1000 -0.0332
 6852SOL    HW132189   2.308   4.449  15.080 -1.8713  1.8210  1.8793
 6852SOL    HW232190   2.417   4.373  15.142 -0.5820 -1.1764 -2.0890
 6853SOL     OW32191   3.616   2.883   9.353  0.0301 -0.5787  0.1207
 6853SOL    HW132192   3.539   2.937   9.367  1.4966  1.3222  0.9091
 6853SOL    HW232193   3.691   2.942   9.346  0.8327 -1.4799  1.0581
 6854SOL     OW32194   2.944   0.274   0.388 -0.5591 -0.5434  0.0819
 6854SOL    HW132195   2.910   0.208   0.327  2.6306 -1.2656 -0.9311
 6854SOL    HW232196   3.029   0.304   0.355 -1.6337  1.7641 -0.5721
 6855SOL     OW32197   1.557   1.258   5.609  0.0369 -0.6266 -0.5680
 6855SOL    HW132198   1.530   1.254   5.700  3.6411  0.9387  0.5700
 6855SOL    HW232199   1.650   1.236   5.614  0.5922  2.0309  0.5856
 6856SOL     OW32200   4.518   3.460   4.381  0.0704  0.0649 -0.4153
 6856SOL    HW132201   4.465   3.383   4.360 -0.8071  0.3828  0.5995
 6856SOL    HW232202   4.483   3.481   4.468 -0.6789  1.0141 -0.9562
 6857SOL     OW32203   1.736   3.215   2.615 -0.0023  0.1510  0.0232
 6857SOL    HW132204   1.724   3.262   2.533  1.7775 -1.5931 -1.2280
 6857SOL    HW232205   1.643   3.198   2.629 -0.3528 -0.1269 -2.7330
 6858SOL     OW32206   0.614   3.570  12.504  0.1016  0.0521  0.3826
 6858SOL    HW132207   0.559   3.628  12.451 -0.6235 -1.1885 -0.2137
 6858SOL    HW232208   0.548   3.514  12.544 -1.8346  4.0990  2.7709
 6859SOL     OW32209   2.353   0.981  15.871  0.1710  0.7839 -0.5506
 6859SOL    HW132210   2.444   0.999  15.894  0.5071 -0.5033 -0.8751
 6859SOL    HW232211   2.316   1.069  15.865 -0.4267  0.5898  0.3643
 6860SOL     OW32212   1.536   4.483   4.252  0.1890 -0.3902  0.0091
 6860SOL    HW132213   1.502   4.573   4.252 -0.5496 -0.6617  0.7105
 6860SOL    HW232214   1.622   4.497   4.215  0.5143 -0.6517  0.6677
 6861SOL     OW32215   3.284   2.980   5.766 -0.5272 -0.4943  0.5751
 6861SOL    HW132216   3.235   3.062   5.753  0.3246  0.1116  1.1864
 6861SOL    HW232217   3.239   2.925   5.702  1.0585 -0.4628 -0.5460
 6862SOL     OW32218   2.890   2.096  16.246  0.2575 -0.1567 -0.3814
 6862SOL    HW132219   2.841   2.050  16.178  0.7558 -0.1007 -0.7722
 6862SOL    HW232220   2.974   2.105  16.202  0.7427  0.8032  0.7401
 6863SOL     OW32221   2.191   3.840   5.234  0.3140 -0.3834 -0.0619
 6863SOL    HW132222   2.210   3.753   5.268  2.5028  0.9229  1.9926
 6863SOL    HW232223   2.098   3.845   5.258  0.5692 -0.9422  1.0148
 6864SOL     OW32224   4.590   4.125   3.865 -0.5747 -0.0587  0.0276
 6864SOL    HW132225   4.651   4.199   3.868 -1.2464  0.5257 -0.6789
 6864SOL    HW232226   4.649   4.058   3.829 -2.1033 -0.6803 -1.3496
 6865SOL     OW32227   1.578   2.751   0.889 -0.1013  0.0911  0.6868
 6865SOL    HW132228   1.510   2.789   0.945 -0.7981  1.2166 -0.9072
 6865SOL    HW232229   1.652   2.797   0.929  0.8638 -0.4622 -0.4780
 6866SOL     OW32230   0.314   3.414   2.872 -0.0926  0.3746  0.0051
 6866SOL    HW132231   0.293   3.507   2.884 -2.0208 -0.0321 -0.1391
 6866SOL    HW232232   0.234   3.371   2.902  1.8106 -1.6257  2.1979
 6867SOL     OW32233   1.858   4.049   8.465  0.4231  0.1502 -0.2381
 6867SOL    HW132234   1.889   4.102   8.392  3.7216 -0.3948  0.7893
 6867SOL    HW232235   1.919   3.979   8.488  0.0358  0.0950  0.6312
 6868SOL     OW32236   2.192   2.524  15.864  0.4222  0.5141 -0.3714
 6868SOL    HW132237   2.183   2.562  15.951 -0.2839  0.6260 -0.4928
 6868SOL    HW232238   2.217   2.434  15.886 -1.5041  0.4791  1.6208
 6869SOL     OW32239   2.682   2.643  16.868 -0.1921  0.4229  0.4623
 6869SOL    HW132240   2.592   2.612  16.866 -0.1561  0.3037  0.6980
 6869SOL    HW232241   2.697   2.673  16.957  0.9085 -0.1724  0.4844
 6870SOL     OW32242   3.924   0.495   9.071 -0.1106  0.0035  0.0360
 6870SOL    HW132243   4.001   0.549   9.052  0.4996 -0.4400  1.2834
 6870SOL    HW232244   3.932   0.465   9.161 -1.7771  0.0033  0.1956
 6871SOL     OW32245   2.997   0.714   2.277  0.3393  0.1495  0.6778
 6871SOL    HW132246   3.063   0.660   2.320 -0.1718  0.1602  1.4907
 6871SOL    HW232247   2.914   0.673   2.302 -0.7964  2.7806  1.2229
 6872SOL     OW32248   0.836   1.965   9.531 -0.2033 -0.0413 -0.3601
 6872SOL    HW132249   0.901   1.919   9.584 -4.2768 -3.1126  1.9278
 6872SOL    HW232250   0.793   2.013   9.601 -2.0080 -1.5073 -0.4624
 6873SOL     OW32251   3.753   3.582   1.879  0.3157 -0.7706  0.1916
 6873SOL    HW132252   3.707   3.501   1.902 -0.5420  0.2864  2.2839
 6873SOL    HW232253   3.685   3.634   1.835  0.8732  1.4858  1.9821
 6874SOL     OW32254   0.099   2.315   6.458 -1.0272  0.1621  0.0412
 6874SOL    HW132255   0.158   2.276   6.523 -1.6862 -1.6220 -0.4351
 6874SOL    HW232256   0.018   2.270   6.482  0.8336 -2.4583  1.3739
 6875SOL     OW32257   0.867   1.788   0.295  0.1285  0.6865  0.7571
 6875SOL    HW132258   0.837   1.769   0.384 -0.0777 -0.9072  0.3489
 6875SOL    HW232259   0.823   1.723   0.241 -0.1607  0.8273  0.8256
 6876SOL     OW32260   3.662   0.832  13.362  0.7336 -0.4664  0.1868
 6876SOL    HW132261   3.633   0.824  13.452  0.5345 -0.2611  0.1410
 6876SOL    HW232262   3.581   0.857  13.316 -0.8325  0.1324  3.3218
 6877SOL     OW32263   2.260   1.567  12.797  0.2417  0.3745  0.3110
 6877SOL    HW132264   2.316   1.508  12.746  0.3204 -0.1450  0.9974
 6877SOL    HW232265   2.178   1.552  12.750 -0.4903  1.0233  1.3731
 6878SOL     OW32266   4.071   3.924   4.718  0.5212 -0.1836 -0.7611
 6878SOL    HW132267   4.109   4.012   4.726  0.5571 -0.2476 -0.2060
 6878SOL    HW232268   3.986   3.951   4.754  1.0592 -0.0564  0.3957
 6879SOL     OW32269   0.863   2.024  16.582 -0.1001  0.6977 -0.2720
 6879SOL    HW132270   0.783   2.012  16.532  0.4135  0.3835 -1.0209
 6879SOL    HW232271   0.828   2.040  16.670  1.0905 -0.0589  0.3383
 6880SOL     OW32272   1.318   1.531   3.573  0.1103 -0.2923 -0.2123
 6880SOL    HW132273   1.273   1.460   3.527 -3.8450  1.0497  1.6365
 6880SOL    HW232274   1.340   1.587   3.498  1.1796 -1.2334 -0.6120
 6881SOL     OW32275   3.388   0.511   5.690  0.8254 -0.5340  0.1926
 6881SOL    HW132276   3.325   0.531   5.621  0.4683 -1.5596  0.2219
 6881SOL    HW232277   3.363   0.421   5.709  2.1625 -1.2586 -1.4095
 6882SOL     OW32278   1.972   2.614   3.712 -0.0610  0.6216 -0.1613
 6882SOL    HW132279   1.930   2.640   3.630 -2.5943 -0.6613  0.7181
 6882SOL    HW232280   2.036   2.555   3.673 -1.6175 -0.6609 -0.8200
 6883SOL     OW32281   2.762   1.139   6.366 -0.5992  0.0648  0.2517
 6883SOL    HW132282   2.791   1.078   6.299 -0.8505 -0.5316  0.6886
 6883SOL    HW232283   2.675   1.165   6.338 -0.2189 -0.3826 -1.3693
 6884SOL     OW32284   2.873   3.469   2.343  0.1522  0.7790 -0.4882
 6884SOL    HW132285   2.897   3.476   2.435  0.4433  2.9649 -0.7248
 6884SOL    HW232286   2.855   3.375   2.336  1.8743  0.4571 -0.6911
 6885SOL     OW32287   0.648   0.122   6.751 -0.3633 -0.0568 -0.6525
 6885SOL    HW132288   0.613   0.194   6.699  1.7907  2.7354  1.7254
 6885SOL    HW232289   0.614   0.039   6.719  0.4080 -1.1787  1.4659
 6886SOL     OW32290   1.278   4.404  11.713  0.2490 -0.4638 -0.4188
 6886SOL    HW132291   1.367   4.432  11.693 -0.5089  1.2873 -1.3630
 6886SOL    HW232292   1.254   4.367  11.628  0.6212 -0.7570 -0.3956
 6887SOL     OW32293   1.243   4.420   2.986 -0.3709 -0.1802  0.2567
 6887SOL    HW132294   1.331   4.432   2.950 -0.4098  0.0605  0.2382
 6887SOL    HW232295   1.244   4.337   3.034 -1.8854  0.3389  1.2162
 6888SOL     OW32296   0.423   2.493  12.738  0.0148  0.5606 -0.3648
 6888SOL    HW132297   0.498   2.548  12.719 -1.7866  2.0702 -3.1179
 6888SOL    HW232298   0.457   2.404  12.730 -0.6459  0.4621 -2.1809
 6889SOL     OW32299   2.985   1.014   6.730  0.2415  0.0017  0.2949
 6889SOL    HW132300   2.902   1.063   6.736  0.1947 -0.0519  0.0990
 6889SOL    HW232301   3.023   1.070   6.662 -1.3538 -1.7124 -2.0422
 6890SOL     OW32302   2.742   3.113   0.694 -0.5834  0.0536  0.2152
 6890SOL    HW132303   2.835   3.134   0.691  0.1305 -2.9925  1.6026
 6890SOL    HW232304   2.730   3.085   0.603  0.9180  0.4221 -0.0798
 6891SOL     OW32305   4.626   1.280   6.551 -0.1970  1.2621  0.2678
 6891SOL    HW132306   4.713   1.252   6.580 -0.3217  1.2125  0.6053
 6891SOL    HW232307   4.635   1.375   6.547  0.3050  1.0716 -2.7008
 6892SOL     OW32308   1.680   4.561   5.258 -0.2526  0.1209  0.2635
 6892SOL    HW132309   1.724   4.599   5.182 -0.8882  0.3581  0.0141
 6892SOL    HW232310   1.645   4.642   5.296  0.6432 -0.1433  1.6595
 6893SOL     OW32311   2.623   1.140   0.940 -0.7035 -0.2753 -0.5119
 6893SOL    HW132312   2.574   1.172   0.864 -1.3529  0.8518  0.3797
 6893SOL    HW232313   2.568   1.066   0.965 -1.4004  0.7998  1.1099
 6894SOL     OW32314   4.039   3.255   7.768 -0.2532  0.2034 -0.4626
 6894SOL    HW132315   4.043   3.345   7.801 -1.4385  0.0945 -0.0236
 6894SOL    HW232316   4.080   3.210   7.843 -0.2981  0.6168 -0.1917
 6895SOL     OW32317   3.546   3.944  11.850 -0.0514 -0.1349  0.0495
 6895SOL    HW132318   3.626   3.944  11.902 -1.2255 -0.3934  1.8669
 6895SOL    HW232319   3.512   3.855  11.861  0.2486 -0.1937  0.4890
 6896SOL     OW32320   2.011   1.820   6.804  0.0065 -0.1590 -0.1256
 6896SOL    HW132321   2.022   1.758   6.875 -3.6881  1.6846  2.0788
 6896SOL    HW232322   2.039   1.759   6.736 -0.5201 -0.6770  0.1201
 6897SOL     OW32323   1.842   2.684   5.562  0.5147 -0.0062 -0.2881
 6897SOL    HW132324   1.910   2.645   5.617  0.2995  3.4324  2.4111
 6897SOL    HW232325   1.879   2.773   5.565 -0.4457  0.3517  0.7571
 6898SOL     OW32326   3.306   2.823   8.250  0.0538  0.7275 -0.2272
 6898SOL    HW132327   3.322   2.885   8.321  1.1063 -0.7987  0.8317
 6898SOL    HW232328   3.387   2.773   8.250  0.3251  1.1573 -1.8995
 6899SOL     OW32329   4.346   0.844   3.601  0.2133 -0.2646 -0.1059
 6899SOL    HW132330   4.299   0.915   3.645 -0.3497 -1.0570  0.5641
 6899SOL    HW232331   4.412   0.826   3.668  1.2853  3.0901 -0.2671
 6900SOL     OW32332   3.364   0.610   5.028 -0.0016 -0.3359  0.1292
 6900SOL    HW132333   3.280   0.602   4.984 -0.5148 -1.5688  1.3517
 6900SOL    HW232334   3.339   0.627   5.118  0.1161  0.7403 -0.0351
 6901SOL     OW32335   2.149   0.498   8.293  0.0023  0.4266 -0.1390
 6901SOL    HW132336   2.231   0.545   8.313 -0.0686  0.1277  0.8637
 6901SOL    HW232337   2.131   0.514   8.201 -1.9547  1.2658  0.4043
 6902SOL     OW32338   4.471   4.717   9.393 -0.1082  0.1110 -0.0635
 6902SOL    HW132339   4.379   4.731   9.370 -0.4239  2.3276  2.5207
 6902SOL    HW232340   4.518   0.045   9.345 -0.3003  0.2862 -0.0066
 6903SOL     OW32341   2.631   4.594   6.707  0.0168  0.3257 -0.3522
 6903SOL    HW132342   2.653   4.685   6.728  0.8438 -0.5402  2.5852
 6903SOL    HW232343   2.684   4.536   6.762  1.1825  2.0452  0.3352
 6904SOL     OW32344   3.531   3.668   0.358 -0.3948 -0.6450  0.3097
 6904SOL    HW132345   3.470   3.605   0.397  1.7433 -2.8905  0.0177
 6904SOL    HW232346   3.604   3.613   0.329 -0.6625 -0.9862  0.2794
 6905SOL     OW32347   0.554   4.657   1.957 -0.4324 -0.1003 -0.1805
 6905SOL    HW132348   0.646   4.674   1.974 -0.4404  0.6443 -0.9018
 6905SOL    HW232349   0.542   4.578   2.009 -0.6371 -0.2967 -0.5215
 6906SOL     OW32350   1.225   2.394   1.766  0.3077 -0.1403  0.7403
 6906SOL    HW132351   1.318   2.397   1.744  0.2355 -1.2181  0.2707
 6906SOL    HW232352   1.203   2.478   1.806  1.0272  1.3398 -1.9632
 6907SOL     OW32353   1.657   0.912   7.838  0.3682  0.3158  0.1604
 6907SOL    HW132354   1.721   0.845   7.863  0.4503  0.3292 -0.0141
 6907SOL    HW232355   1.687   1.000   7.861  1.8975 -0.4700  1.1409
 6908SOL     OW32356   4.437   0.969  10.254  0.0659 -0.6723 -0.2093
 6908SOL    HW132357   4.429   1.020  10.334  0.1576 -0.6355 -0.2244
 6908SOL    HW232358   4.477   0.890  10.290 -0.9158 -2.0876 -2.1825
 6909SOL     OW32359   0.532   0.597  17.005  0.0637 -0.5393  0.4822
 6909SOL    HW132360   0.606   0.622  17.061 -1.0829  1.5577  1.0554
 6909SOL    HW232361   0.552   0.509  16.972  1.4938 -0.1039  0.2071
 6910SOL     OW32362   4.349   4.725   8.283  0.0616 -0.0624  0.1980
 6910SOL    HW132363   4.372   4.679   8.364  1.3033  0.1027 -0.0630
 6910SOL    HW232364   4.437   0.013   8.260  0.2401 -0.5438  0.2764
 6911SOL     OW32365   1.426   1.196   1.942  0.0135 -0.3495 -0.6936
 6911SOL    HW132366   1.403   1.276   1.894  0.0513 -0.0589 -0.2269
 6911SOL    HW232367   1.509   1.173   1.900  1.5025  0.9782  1.5218
 6912SOL     OW32368   1.162   2.539   7.738  0.0664 -0.1079  0.4665
 6912SOL    HW132369   1.212   2.608   7.692 -1.7592 -0.3154 -1.8261
 6912SOL    HW232370   1.209   2.537   7.821 -2.4062  0.1901  1.8772
 6913SOL     OW32371   1.385   1.946  16.630  0.2125  0.1165 -0.8438
 6913SOL    HW132372   1.361   1.916  16.717 -0.0956  1.7894 -0.3477
 6913SOL    HW232373   1.314   1.915  16.574 -1.2058  0.8465  0.5596
 6914SOL     OW32374   4.096   4.061  11.984  0.5343  0.0977  0.7896
 6914SOL    HW132375   4.155   4.036  11.913  0.4476 -0.4255  0.8975
 6914SOL    HW232376   4.026   4.102  11.933 -0.3495 -1.4521  0.7419
 6915SOL     OW32377   2.040   3.628   2.039 -0.2613 -0.1064  0.0212
 6915SOL    HW132378   2.075   3.615   2.127  2.9986 -0.6362 -1.3405
 6915SOL    HW232379   2.001   3.541   2.025  0.5664 -0.2260 -1.5794
 6916SOL     OW32380   1.786   0.278   8.629 -0.4100  0.6634 -0.6426
 6916SOL    HW132381   1.784   0.285   8.724 -1.6217 -2.7189 -0.4221
 6916SOL    HW232382   1.818   0.358   8.587 -0.8189  1.4539  0.5745
 6917SOL     OW32383   2.675   0.448   9.152  0.1747  0.0486 -0.2130
 6917SOL    HW132384   2.703   0.532   9.116  0.9658 -0.0953  0.0720
 6917SOL    HW232385   2.722   0.385   9.098 -1.2507 -0.5437 -0.7637
 6918SOL     OW32386   3.556   3.923   5.594 -0.6462  0.0841  0.3394
 6918SOL    HW132387   3.614   3.923   5.671  0.0438  0.9101 -0.1742
 6918SOL    HW232388   3.614   3.940   5.520 -1.5574 -1.7622 -0.7927
 6919SOL     OW32389   0.650   4.296   7.912  0.8193  0.0993  0.2609
 6919SOL    HW132390   0.721   4.239   7.941 -0.4239 -1.0953  0.9811
 6919SOL    HW232391   0.590   4.242   7.861 -0.4206  0.3000  1.5067
 6920SOL     OW32392   3.766   3.422  11.423 -0.1773 -0.6250  0.0328
 6920SOL    HW132393   3.717   3.345  11.393 -2.5923  2.0293 -2.7846
 6920SOL    HW232394   3.838   3.395  11.480  0.1678  1.7396  0.7381
 6921SOL     OW32395   1.764   0.899   5.636  0.4211 -0.6071  0.2849
 6921SOL    HW132396   1.708   0.835   5.680 -0.8541  0.8078  0.7277
 6921SOL    HW232397   1.772   0.968   5.702  0.1928 -0.4909  0.1895
 6922SOL     OW32398   3.913   1.212   2.086 -0.6905  0.1613 -0.0943
 6922SOL    HW132399   3.966   1.244   2.159  0.6646  1.0274 -1.4559
 6922SOL    HW232400   3.973   1.155   2.038 -1.0823 -0.4576  0.1577
 6923SOL     OW32401   2.445   1.818   2.640 -0.5752 -0.3834 -0.1975
 6923SOL    HW132402   2.440   1.754   2.712  2.4268  0.2329  0.5505
 6923SOL    HW232403   2.516   1.875   2.669  0.9850 -1.8352 -1.2044
 6924SOL     OW32404   0.574   4.666   5.966  0.2559  0.4408  0.3651
 6924SOL    HW132405   0.543   4.595   6.022 -1.4864  2.4706  1.9680
 6924SOL    HW232406   0.659   4.624   5.950  0.2081  1.6196 -2.8520
 6925SOL     OW32407   3.685   2.468   9.281 -0.0999 -0.5434 -0.0710
 6925SOL    HW132408   3.753   2.510   9.334 -0.4846  0.1954 -0.1741
 6925SOL    HW232409   3.643   2.400   9.334  2.0901 -1.5359  0.3958
 6926SOL     OW32410   3.515   4.047   1.772  0.2619 -0.4120 -0.3411
 6926SOL    HW132411   3.485   4.054   1.862  1.7047 -1.1255  0.1980
 6926SOL    HW232412   3.438   4.074   1.723 -1.1321 -1.1417  1.4566
 6927SOL     OW32413   2.603   3.844   3.305  0.1370 -0.3728 -0.1863
 6927SOL    HW132414   2.578   3.812   3.392 -0.7920 -0.4034 -0.4571
 6927SOL    HW232415   2.608   3.939   3.319  0.9418 -1.0269  3.8819
 6928SOL     OW32416   2.806   3.149   8.618  0.0175  0.1762  0.3643
 6928SOL    HW132417   2.780   3.208   8.548 -2.2203 -3.4374 -1.8205
 6928SOL    HW232418   2.724   3.148   8.667  2.3062  2.2733  4.2377
 6929SOL     OW32419   1.839   1.322  11.838 -0.5654 -0.1453  0.0215
 6929SOL    HW132420   1.758   1.277  11.813 -0.5859  0.1731 -0.4796
 6929SOL    HW232421   1.900   1.264  11.791 -2.1921  0.1851 -2.5290
 6930SOL     OW32422   3.534   3.904   3.795  0.7156 -0.1378 -0.1589
 6930SOL    HW132423   3.627   3.904   3.773  0.7927 -0.3199  0.1574
 6930SOL    HW232424   3.509   3.985   3.752  0.2672  0.2089  0.7548
 6931SOL     OW32425   2.060   2.790   8.821  0.3866 -0.3507  0.5219
 6931SOL    HW132426   1.989   2.850   8.798  0.2715 -0.4653  0.5768
 6931SOL    HW232427   2.112   2.791   8.741  0.3540 -2.0469  0.4829
 6932SOL     OW32428   4.473   2.470   2.794 -0.3669  0.4126  0.4171
 6932SOL    HW132429   4.497   2.472   2.701  0.9604  0.9323  0.7727
 6932SOL    HW232430   4.383   2.502   2.797  0.1869  1.9058  1.3165
 6933SOL     OW32431   1.842   3.796   1.905 -0.2072  0.3535  0.0973
 6933SOL    HW132432   1.781   3.731   1.870 -0.1453  0.4438 -0.1760
 6933SOL    HW232433   1.900   3.750   1.967  1.0296  1.8567  0.0482
 6934SOL     OW32434   0.605   1.861   6.441 -0.3013  0.3396  0.2949
 6934SOL    HW132435   0.536   1.926   6.452  0.7328  1.6620 -0.9461
 6934SOL    HW232436   0.682   1.903   6.402 -1.1331  0.7083 -0.9480
 6935SOL     OW32437   1.882   4.145   7.911  0.0610  0.0735  0.4170
 6935SOL    HW132438   1.830   4.123   7.834 -0.7833  1.3079  0.6401
 6935SOL    HW232439   1.917   4.058   7.930 -2.2576 -0.9400  0.0149
 6936SOL     OW32440   4.470   3.804  11.987 -0.8061 -0.1516 -0.5098
 6936SOL    HW132441   4.378   3.794  12.013 -0.7849  0.5482 -0.1547
 6936SOL    HW232442   4.489   3.897  11.975  2.2017 -0.8590 -1.2566
 6937SOL     OW32443   3.252   2.347  10.703  0.2480 -0.1800  0.4064
 6937SOL    HW132444   3.329   2.347  10.760 -0.1223  2.4818  0.9153
 6937SOL    HW232445   3.240   2.442  10.697 -1.6517 -0.4079  0.6685
 6938SOL     OW32446   0.720   2.174   4.869  0.5158 -0.0281  0.3906
 6938SOL    HW132447   0.662   2.137   4.802 -1.7305  0.4708  2.0550
 6938SOL    HW232448   0.798   2.191   4.816 -1.0727 -0.4733 -2.1145
 6939SOL     OW32449   4.146   4.213   7.072 -0.1369 -0.1935  0.0534
 6939SOL    HW132450   4.068   4.223   7.017  1.0099 -0.3233 -1.5839
 6939SOL    HW232451   4.201   4.291   7.064  0.2829 -0.2098  2.9324
 6940SOL     OW32452   2.882   2.719  10.217 -0.1030  0.5177 -0.6791
 6940SOL    HW132453   2.949   2.654  10.196 -0.3396 -0.1376  0.6519
 6940SOL    HW232454   2.805   2.705  10.162 -0.3009  2.5961 -0.9091
 6941SOL     OW32455   0.276   2.324  17.597  0.2954  0.8390  0.2997
 6941SOL    HW132456   0.297   2.417  17.589  0.1073  1.0399  2.0495
 6941SOL    HW232457   0.182   2.331  17.613  0.9186  0.9419  3.9582
 6942SOL     OW32458   3.394   2.155  13.227 -0.0589  0.1713 -0.2300
 6942SOL    HW132459   3.375   2.122  13.139 -1.5166 -1.1943  0.6081
 6942SOL    HW232460   3.393   2.251  13.220 -1.0427  0.0671 -1.4065
 6943SOL     OW32461   2.326   4.084   4.113  0.2557 -0.2012 -0.2298
 6943SOL    HW132462   2.287   4.162   4.154  0.9317  0.0950 -0.1468
 6943SOL    HW232463   2.401   4.078   4.172 -1.1385 -1.0093  1.4616
 6944SOL     OW32464   1.333   1.678   4.911 -0.0379  0.6480  0.8483
 6944SOL    HW132465   1.385   1.696   4.832  0.1056 -1.1935  0.5283
 6944SOL    HW232466   1.352   1.752   4.968 -1.5072  1.8186 -0.1745
 6945SOL     OW32467   2.732   2.391   4.465  0.5891 -0.1067 -0.2510
 6945SOL    HW132468   2.761   2.436   4.385 -2.2527  0.4300 -0.9841
 6945SOL    HW232469   2.807   2.414   4.520  0.0245  1.4909 -0.1360
 6946SOL     OW32470   2.638   3.038  15.922 -0.0661  0.2619 -0.2256
 6946SOL    HW132471   2.602   3.062  16.007 -2.1757  2.7922 -1.7880
 6946SOL    HW232472   2.559   2.997  15.885 -1.0194 -0.4100  2.5993
 6947SOL     OW32473   2.529   1.699   4.593 -0.1976  0.3151 -0.0493
 6947SOL    HW132474   2.578   1.630   4.548  1.3918  1.2622  0.2187
 6947SOL    HW232475   2.565   1.783   4.562  0.7486 -0.5075 -1.1795
 6948SOL     OW32476   0.266   2.731  13.674 -0.2744 -0.1096 -0.4915
 6948SOL    HW132477   0.230   2.767  13.754  0.5073  1.2157 -0.7364
 6948SOL    HW232478   0.339   2.789  13.652 -1.1844  0.7433 -1.2571
 6949SOL     OW32479   1.623   1.880   5.388 -0.0459  0.1761  0.5031
 6949SOL    HW132480   1.554   1.819   5.414  1.1029 -2.1830 -1.9555
 6949SOL    HW232481   1.660   1.820   5.323  0.2106 -0.1060  0.9117
 6950SOL     OW32482   1.216   1.983  10.386  0.7699 -0.1946  0.5891
 6950SOL    HW132483   1.149   2.047  10.412  1.5752 -0.4863  3.3845
 6950SOL    HW232484   1.248   2.017  10.303  0.2968 -1.0769  0.0475
 6951SOL     OW32485   0.766   4.262   0.549 -0.1644 -0.4502 -0.9281
 6951SOL    HW132486   0.732   4.338   0.597  3.2766  0.2019  0.4214
 6951SOL    HW232487   0.694   4.229   0.495  0.2298 -1.3594 -0.8916
 6952SOL     OW32488   3.022   2.257  17.106 -0.4718 -0.1936  0.2738
 6952SOL    HW132489   3.077   2.326  17.067 -0.3625 -0.3650  0.1231
 6952SOL    HW232490   2.935   2.278  17.072 -1.0672 -3.2406 -0.1192
 6953SOL     OW32491   0.296   3.857   3.672 -0.4038  0.4932  0.0553
 6953SOL    HW132492   0.382   3.831   3.639 -1.5889  0.3444 -2.9200
 6953SOL    HW232493   0.313   3.950   3.687  0.3395  0.5256 -0.9581
 6954SOL     OW32494   2.972   0.845  17.454  0.0162 -0.7352  1.0698
 6954SOL    HW132495   2.997   0.755  17.432  1.1362 -0.7772  2.5134
 6954SOL    HW232496   3.045   0.888  17.409 -0.0008 -0.5382  1.2317
 6955SOL     OW32497   3.292   2.588   7.448 -0.2326  0.1026  0.1784
 6955SOL    HW132498   3.385   2.607   7.461 -0.4105  1.4573 -0.5443
 6955SOL    HW232499   3.265   2.679   7.459  1.6793  0.3938  2.4414
 6956SOL     OW32500   4.525   0.859  13.164 -0.2614  0.4105 -0.2328
 6956SOL    HW132501   4.443   0.849  13.116  0.3506  0.3679 -1.2778
 6956SOL    HW232502   4.568   0.773  13.165 -0.7957  0.1649  1.9057
 6957SOL     OW32503   1.199   2.278   6.469 -0.1907 -0.2435 -0.2915
 6957SOL    HW132504   1.162   2.366   6.469  0.6295  0.1149 -2.1629
 6957SOL    HW232505   1.291   2.295   6.449 -0.0738 -1.5696 -0.8841
 6958SOL     OW32506   3.171   4.363   1.217  0.0788 -0.6409  0.1811
 6958SOL    HW132507   3.213   4.277   1.227  0.8819  0.0688  3.0198
 6958SOL    HW232508   3.205   4.400   1.298 -0.4899 -2.2672  1.1831
 6959SOL     OW32509   4.456   2.288   7.675 -0.6146 -0.2435 -0.5768
 6959SOL    HW132510   4.424   2.374   7.647 -1.3032 -0.5268 -0.6760
 6959SOL    HW232511   4.428   2.235   7.600  0.5632 -0.6812 -0.7114
 6960SOL     OW32512   3.724   3.134   4.029 -0.0468  0.2394  0.0505
 6960SOL    HW132513   3.663   3.143   3.956 -0.1728 -2.2002 -0.1291
 6960SOL    HW232514   3.796   3.195   4.010 -1.3516  2.3075  1.7518
 6961SOL     OW32515   4.190   2.633   9.553 -0.9120  0.3695  0.2432
 6961SOL    HW132516   4.111   2.624   9.607 -1.3170 -2.3356 -0.8022
 6961SOL    HW232517   4.168   2.717   9.511 -1.4394  0.3456  0.4660
 6962SOL     OW32518   3.524   1.755   8.186 -0.4271  0.5965  0.0086
 6962SOL    HW132519   3.479   1.744   8.269  2.3151  0.7769  1.5140
 6962SOL    HW232520   3.593   1.816   8.213 -1.3432  0.7609  1.9628
 6963SOL     OW32521   3.604   3.604  11.121  0.3158  0.4397  0.6813
 6963SOL    HW132522   3.693   3.603  11.156  0.7101  0.0288 -0.3443
 6963SOL    HW232523   3.610   3.674  11.056 -0.4001 -0.9255 -0.8430
 6964SOL     OW32524   1.860   4.351   8.349 -0.0917 -0.0414 -0.4169
 6964SOL    HW132525   1.879   4.345   8.443 -0.9817  1.3290 -0.1421
 6964SOL    HW232526   1.788   4.412   8.368  0.3767  0.1332  0.8238
 6965SOL     OW32527   2.417   0.703   3.434  0.2175 -0.8667 -0.4296
 6965SOL    HW132528   2.336   0.711   3.383 -0.6051  2.8481  1.4650
 6965SOL    HW232529   2.380   0.702   3.522  1.5936  0.4747  0.1641
 6966SOL     OW32530   0.661   4.124   2.822 -0.1821  0.4193 -0.3466
 6966SOL    HW132531   0.703   4.210   2.824 -2.5183  1.5253  1.3987
 6966SOL    HW232532   0.625   4.111   2.735 -0.3635  0.0742 -0.2235
 6967SOL     OW32533   1.006   3.979   2.197 -0.4680  0.2384 -0.0998
 6967SOL    HW132534   1.076   3.993   2.261 -1.6223  1.5950  0.8632
 6967SOL    HW232535   0.960   3.904   2.234 -2.9049  2.6852  1.8060
 6968SOL     OW32536   4.415   0.828  17.289  0.3981  0.3802 -0.2528
 6968SOL    HW132537   4.417   0.759  17.222  2.5966  0.7012 -0.5404
 6968SOL    HW232538   4.436   0.775  17.366  2.2451  0.8120 -0.4611
 6969SOL     OW32539   2.973   3.295  14.713 -0.4922 -0.3840 -0.0748
 6969SOL    HW132540   2.990   3.388  14.730  1.6986 -0.5785 -1.2386
 6969SOL    HW232541   2.885   3.295  14.676 -0.9261  0.0050  0.9573
 6970SOL     OW32542   3.207   1.145   5.249  0.5470  0.0067 -0.5107
 6970SOL    HW132543   3.249   1.161   5.334  2.2553  0.1181 -1.3781
 6970SOL    HW232544   3.166   1.058   5.256  1.7024 -0.4314  0.9847
 6971SOL     OW32545   2.094   1.248   8.056 -0.5774  0.2580  0.3256
 6971SOL    HW132546   2.053   1.332   8.037 -0.0621  0.3272 -0.4856
 6971SOL    HW232547   2.182   1.274   8.083 -0.4903 -1.8534  2.0914
 6972SOL     OW32548   0.302   2.676   4.211 -0.0216  0.1895 -0.3574
 6972SOL    HW132549   0.300   2.649   4.119 -0.5114 -1.6753  0.1960
 6972SOL    HW232550   0.247   2.604   4.243 -0.9929  1.0524 -0.0963
 6973SOL     OW32551   1.921   1.790  11.952  0.4348 -0.1306 -0.4782
 6973SOL    HW132552   1.910   1.875  11.910 -0.2985 -0.6234 -1.2738
 6973SOL    HW232553   1.963   1.814  12.034 -1.8269 -1.8360  1.1801
 6974SOL     OW32554   3.065   2.731   9.088 -0.1921  0.1797 -0.1459
 6974SOL    HW132555   2.982   2.773   9.066  0.6998  1.7664 -0.4523
 6974SOL    HW232556   3.083   2.676   9.012  0.9393  1.4670 -0.8117
 6975SOL     OW32557   1.339   1.642   2.641 -0.3262 -0.1645 -0.2069
 6975SOL    HW132558   1.349   1.582   2.568 -0.1814 -0.3230 -0.0582
 6975SOL    HW232559   1.307   1.713   2.586 -1.2951  0.8923  1.7050
 6976SOL     OW32560   3.244   2.972   0.937  0.0785 -0.2446 -0.1769
 6976SOL    HW132561   3.172   2.962   0.999  0.9652  0.5023  0.9869
 6976SOL    HW232562   3.253   2.888   0.892 -0.8482 -0.8499  0.7651
 6977SOL     OW32563   1.069   3.330   7.460 -0.6840  0.7552  0.0158
 6977SOL    HW132564   1.102   3.354   7.546  0.3358  1.0639 -0.4554
 6977SOL    HW232565   1.082   3.235   7.468  0.2751  0.9778  1.0688
 6978SOL     OW32566   2.285   4.667   7.467  0.0469 -0.7244  0.1470
 6978SOL    HW132567   2.240   4.730   7.523 -2.7239 -0.4865 -2.3269
 6978SOL    HW232568   2.361   4.643   7.519 -0.0114 -2.3661 -0.5154
 6979SOL     OW32569   1.155   3.120  14.958  0.0856  0.4691 -0.0681
 6979SOL    HW132570   1.091   3.131  14.887 -0.2455 -0.1867  0.1203
 6979SOL    HW232571   1.170   3.026  14.945 -1.2286  0.3935 -1.0895
 6980SOL     OW32572   2.420   2.995   6.253 -0.2297  0.4064  0.0913
 6980SOL    HW132573   2.383   2.955   6.332  0.6335 -0.3171  0.1291
 6980SOL    HW232574   2.470   2.924   6.214 -1.2057 -0.4693  0.4141
 6981SOL     OW32575   3.225   4.375   7.562 -0.9075  0.4697 -0.9031
 6981SOL    HW132576   3.189   4.289   7.582  0.0460 -0.0801 -1.5780
 6981SOL    HW232577   3.251   4.360   7.471  1.1262  2.7989 -0.6797
 6982SOL     OW32578   0.403   4.083   6.463 -0.5330 -0.4257  0.3865
 6982SOL    HW132579   0.385   4.094   6.557 -0.0837  0.6383  0.3376
 6982SOL    HW232580   0.494   4.053   6.457 -0.7408 -0.6036 -1.8864
 6983SOL     OW32581   1.009   0.789  13.460 -0.5527 -0.2466 -0.1462
 6983SOL    HW132582   0.931   0.764  13.510 -1.0556  0.4422 -0.5855
 6983SOL    HW232583   0.988   0.762  13.370 -0.2488 -0.2571 -0.2113
 6984SOL     OW32584   2.380   0.860  16.839  0.2931  0.4081  0.1689
 6984SOL    HW132585   2.294   0.877  16.801  1.2587  1.2120 -1.6672
 6984SOL    HW232586   2.369   0.853  16.934  0.9648  1.6545  0.3398
 6985SOL     OW32587   4.663   3.347   6.473  0.1917  0.0509 -0.2664
 6985SOL    HW132588   4.670   3.318   6.382 -0.3317 -2.2300  0.4125
 6985SOL    HW232589   4.591   3.410   6.471  1.0868  1.0769 -0.0951
 6986SOL     OW32590   1.700   1.629   5.280 -0.4576  0.2590  0.1670
 6986SOL    HW132591   1.791   1.623   5.252 -0.8184 -3.4355 -0.2572
 6986SOL    HW232592   1.712   1.612   5.373 -0.9612 -1.8723 -0.1482
 6987SOL     OW32593   1.386   2.518   7.360 -0.4937 -0.3161  0.6006
 6987SOL    HW132594   1.456   2.540   7.421 -0.4763  2.7926 -0.5446
 6987SOL    HW232595   1.335   2.598   7.349  0.8450  0.6687  1.5460
 6988SOL     OW32596   3.226   4.394   1.723 -0.5342 -0.1128  0.4159
 6988SOL    HW132597   3.264   4.306   1.716  1.4062  0.7086  0.5641
 6988SOL    HW232598   3.201   4.405   1.632 -1.8407  0.7650  0.8846
 6989SOL     OW32599   0.190   2.541   5.902 -0.2851  0.6286  0.0149
 6989SOL    HW132600   0.097   2.562   5.893 -0.4616 -0.5207 -0.7140
 6989SOL    HW232601   0.221   2.623   5.863  1.6882 -0.4156 -0.6008
 6990SOL     OW32602   4.731   3.468   4.213  0.0730 -0.0354  0.1997
 6990SOL    HW132603   4.665   3.452   4.281  0.4503 -0.3078  0.5031
 6990SOL    HW232604   0.062   3.418   4.252  0.5618  1.8745  1.7306
 6991SOL     OW32605   2.555   3.388   7.024  0.0898  0.5694 -0.3224
 6991SOL    HW132606   2.505   3.461   7.059 -1.4147 -0.9489  0.6751
 6991SOL    HW232607   2.558   3.322   7.093 -0.7059  0.1824 -0.6688
 6992SOL     OW32608   0.444   2.717   2.229 -0.5094 -0.3001  0.1153
 6992SOL    HW132609   0.383   2.672   2.287 -0.2941 -0.3820  0.2783
 6992SOL    HW232610   0.473   2.645   2.172  0.0769 -0.3140  0.4255
 6993SOL     OW32611   1.898   3.593   2.448  0.0323 -0.7274 -0.2674
 6993SOL    HW132612   1.932   3.512   2.485 -0.2897  0.0675  1.7916
 6993SOL    HW232613   1.812   3.554   2.435  1.1204 -2.4683 -2.2297
 6994SOL     OW32614   2.618   1.939   6.034 -0.0029 -0.1370  0.1393
 6994SOL    HW132615   2.560   1.947   6.109 -0.9121  1.1944 -0.6960
 6994SOL    HW232616   2.700   1.933   6.082  0.0872  0.4325  0.0570
 6995SOL     OW32617   4.548   0.718   4.438 -0.1826  0.3587 -0.9355
 6995SOL    HW132618   4.556   0.746   4.347 -0.2803  0.5294 -0.8921
 6995SOL    HW232619   4.454   0.715   4.455 -0.4383 -1.3613 -2.6594
 6996SOL     OW32620   3.073   4.347  16.485 -0.2684  0.4016  0.1775
 6996SOL    HW132621   3.154   4.335  16.435  0.0603  0.0468  0.7941
 6996SOL    HW232622   3.062   4.260  16.523 -3.8188  0.4677 -0.7178
 6997SOL     OW32623   3.402   0.876   1.624 -0.3177  0.2704 -0.5629
 6997SOL    HW132624   3.309   0.890   1.603 -0.3708 -1.0593 -1.1512
 6997SOL    HW232625   3.421   0.954   1.676  0.4257 -0.6603  0.5597
 6998SOL     OW32626   1.990   0.055   0.340 -0.5011  0.0397 -0.3712
 6998SOL    HW132627   1.908   0.081   0.381 -0.1815 -0.6188  0.7011
 6998SOL    HW232628   2.006   4.721   0.399  0.8287  0.1686 -0.5711
 6999SOL     OW32629   0.985   2.410   1.561  0.6330 -0.0528  0.1997
 6999SOL    HW132630   1.028   2.367   1.487  0.0800  0.5803 -0.4907
 6999SOL    HW232631   1.059   2.454   1.603  1.6280 -0.4374 -1.1317
 7000SOL     OW32632   3.269   0.651  13.130  0.5570 -0.2750  0.1392
 7000SOL    HW132633   3.297   0.570  13.173  0.0284 -0.0444  0.9113
 7000SOL    HW232634   3.179   0.647  13.162  0.7966 -0.6308  0.7798
 7001SOL     OW32635   1.667   1.562   5.550  0.4644 -0.4071  0.0800
 7001SOL    HW132636   1.623   1.477   5.547  0.4675 -0.3907 -0.5337
 7001SOL    HW232637   1.585   1.608   5.527  1.0002  0.6056  0.1823
 7002SOL     OW32638   2.304   3.136   6.533  0.1425  0.1866 -0.4741
 7002SOL    HW132639   2.350   3.217   6.510  2.0524 -0.6336  0.4953
 7002SOL    HW232640   2.374   3.074   6.551  1.7826  1.8390 -1.1524
 7003SOL     OW32641   2.269   4.538   0.080  0.7503  0.3206 -0.3155
 7003SOL    HW132642   2.322   4.518   0.157 -0.8108 -0.5084  0.5515
 7003SOL    HW232643   2.201   4.471   0.075  0.9657 -0.0213  1.1886
 7004SOL     OW32644   4.618   4.621   6.706 -0.8735 -0.4438 -0.1506
 7004SOL    HW132645   4.640   4.714   6.698 -0.4698 -0.4447  0.9831
 7004SOL    HW232646   4.582   4.620   6.794  2.8804  1.7581  1.3868
 7005SOL     OW32647   1.060   0.112   7.730  0.0201 -0.6412  0.1084
 7005SOL    HW132648   1.129   0.170   7.762  1.1472 -0.6272 -2.2961
 7005SOL    HW232649   1.035   0.074   7.814  1.7774 -1.6172  0.1829
 7006SOL     OW32650   2.951   2.774   6.606 -0.1243  0.5236 -0.2338
 7006SOL    HW132651   2.947   2.870   6.613 -1.9865  0.3941  0.3579
 7006SOL    HW232652   2.882   2.755   6.669  1.1620  0.1542  1.0633
 7007SOL     OW32653   4.487   2.490   8.779  0.0280 -0.8395 -0.3315
 7007SOL    HW132654   4.489   2.550   8.854 -0.6666 -2.8368  1.2757
 7007SOL    HW232655   4.468   2.414   8.834 -1.5739 -0.4623 -0.3680
 7008SOL     OW32656   3.164   3.036  10.888 -0.2149 -0.1727  0.0723
 7008SOL    HW132657   3.074   3.005  10.877 -0.0139  0.0492 -2.1989
 7008SOL    HW232658   3.163   3.057  10.982  0.1799 -1.0427  0.2736
 7009SOL     OW32659   0.422   4.498   6.450  0.3958  0.3427  0.0153
 7009SOL    HW132660   0.395   4.423   6.397  1.4685  0.3987 -0.6247
 7009SOL    HW232661   0.340   4.516   6.496  0.6077 -2.2664  1.3586
 7010SOL     OW32662   1.859   3.214   1.542  0.1053 -0.1555  0.5660
 7010SOL    HW132663   1.834   3.289   1.488  1.9884  1.1726  1.5370
 7010SOL    HW232664   1.923   3.169   1.486  0.6731 -0.6015  1.5613
 7011SOL     OW32665   0.112   1.840   7.764  0.4321  0.4190 -0.3168
 7011SOL    HW132666   0.158   1.843   7.680 -1.2127 -1.4997 -1.3035
 7011SOL    HW232667   0.169   1.896   7.816  0.6402 -0.0094 -0.0833
 7012SOL     OW32668   4.383   4.313   1.809 -0.8252  0.3675 -0.4748
 7012SOL    HW132669   4.297   4.351   1.826 -0.7197  0.4280 -0.0907
 7012SOL    HW232670   4.393   4.363   1.728 -2.3395  0.4864 -0.5854
 7013SOL     OW32671   3.913   4.265   8.086 -0.1093  0.3031  0.2808
 7013SOL    HW132672   3.905   4.200   8.156  3.2373 -0.5387 -0.1175
 7013SOL    HW232673   3.918   4.209   8.008  2.5861  0.2628  0.4817
 7014SOL     OW32674   3.818   1.439  14.674 -0.2228 -0.2294 -0.1396
 7014SOL    HW132675   3.890   1.491  14.638  0.9704 -3.0254 -1.8300
 7014SOL    HW232676   3.877   1.397  14.737  3.3957  2.3208 -1.8123
 7015SOL     OW32677   4.213   0.800   9.762  0.2362 -0.7354 -0.2594
 7015SOL    HW132678   4.222   0.768   9.673 -3.0269  1.1363 -1.2345
 7015SOL    HW232679   4.160   0.732   9.804 -0.3703  0.1120  0.3459
 7016SOL     OW32680   2.271   3.584   1.388 -0.0733  0.4156 -0.3050
 7016SOL    HW132681   2.188   3.549   1.355  1.3162 -1.8378 -1.3859
 7016SOL    HW232682   2.239   3.601   1.477 -0.0930 -1.5426  0.0711
 7017SOL     OW32683   4.395   0.573   3.166 -0.5272 -0.3015  1.1033
 7017SOL    HW132684   4.310   0.617   3.163  0.4393  1.5362  0.5343
 7017SOL    HW232685   4.423   0.613   3.249 -0.7523  1.8207  0.1547
 7018SOL     OW32686   1.415   1.788   1.579  0.1826 -0.0468 -0.5186
 7018SOL    HW132687   1.481   1.737   1.533 -1.5565  0.0421 -3.1065
 7018SOL    HW232688   1.369   1.818   1.500 -0.1633 -2.4040 -1.2074
 7019SOL     OW32689   1.543   3.321   9.085 -0.5672 -0.2651  0.2065
 7019SOL    HW132690   1.558   3.283   8.999 -1.6018 -0.1352 -0.0268
 7019SOL    HW232691   1.452   3.296   9.100 -0.9817  1.5927  0.8017
 7020SOL     OW32692   2.396   1.471   1.854 -0.7116  0.1373 -0.1370
 7020SOL    HW132693   2.454   1.527   1.906 -1.8766 -0.1624  1.4999
 7020SOL    HW232694   2.444   1.459   1.772  0.7494  0.3877  0.6741
 7021SOL     OW32695   0.672   2.706   9.051  0.0892 -0.2921 -0.1198
 7021SOL    HW132696   0.616   2.630   9.069  0.3585 -0.4403  0.0951
 7021SOL    HW232697   0.616   2.777   9.080  0.4989  0.5243 -1.3457
 7022SOL     OW32698   4.456   3.078  13.762  0.7169  0.6553 -0.3744
 7022SOL    HW132699   4.389   3.111  13.821  0.7468  0.5893 -0.3022
 7022SOL    HW232700   4.442   2.983  13.762 -0.1379  0.7921  1.6087
 7023SOL     OW32701   0.722   1.355  15.494  0.0893  0.0592  0.0811
 7023SOL    HW132702   0.722   1.435  15.442  0.9163 -0.3335 -0.5212
 7023SOL    HW232703   0.631   1.334  15.473  0.7856 -0.8227 -2.0715
 7024SOL     OW32704   4.656   0.733   5.012  0.3671  0.9724 -0.0203
 7024SOL    HW132705   4.715   0.807   5.001  0.6403  0.9626  1.3179
 7024SOL    HW232706   4.697   0.657   4.970 -2.0498  0.3653 -1.2745
 7025SOL     OW32707   4.120   2.987  12.755  1.0091 -0.5155 -0.5301
 7025SOL    HW132708   4.063   3.050  12.799  1.4887  0.0066 -0.6617
 7025SOL    HW232709   4.056   2.923  12.722 -1.0843 -0.2132  2.9878
 7026SOL     OW32710   2.896   0.029  14.549  0.5172 -0.3959 -0.2853
 7026SOL    HW132711   2.899   0.005  14.642  1.4849 -0.0780 -0.2296
 7026SOL    HW232712   2.808   0.028  14.512  1.0602  0.8808 -1.5810
 7027SOL     OW32713   3.038   1.682  17.149 -0.0593  0.2158 -0.4941
 7027SOL    HW132714   3.031   1.778  17.140 -1.3662  0.3434  2.0016
 7027SOL    HW232715   2.962   1.657  17.096  0.0551 -0.7322 -0.1936
 7028SOL     OW32716   0.630   2.898   6.360 -0.4984 -0.1547  0.4785
 7028SOL    HW132717   0.652   2.854   6.442  1.1918  1.6520  1.0084
 7028SOL    HW232718   0.613   2.821   6.306 -0.8038 -0.1918  0.6324
 7029SOL     OW32719   1.096   4.125  14.495 -0.0540 -0.0685  0.6605
 7029SOL    HW132720   1.087   4.086  14.407  2.0495 -0.8905  0.8024
 7029SOL    HW232721   1.091   4.218  14.473  1.0354 -0.4425 -1.2464
 7030SOL     OW32722   4.020   3.864  17.266 -0.3764  0.1993  0.0025
 7030SOL    HW132723   3.953   3.923  17.299 -1.1815 -0.2491 -0.8296
 7030SOL    HW232724   3.963   3.787  17.263 -0.1274 -0.0066  0.6662
 7031SOL     OW32725   2.619   0.977  17.071 -0.4247  0.7817 -0.3806
 7031SOL    HW132726   2.557   0.980  17.144 -1.1760 -1.1204 -0.9428
 7031SOL    HW232727   2.568   0.997  16.993  0.7658 -2.1802 -1.8857
 7032SOL     OW32728   3.435   2.535  12.485  0.4539  0.9502  0.0868
 7032SOL    HW132729   3.383   2.615  12.482  0.6050  0.9515 -2.6999
 7032SOL    HW232730   3.435   2.521  12.580  0.8541  1.3123  0.1419
 7033SOL     OW32731   3.061   0.758  10.873  0.9104  0.3188 -0.2910
 7033SOL    HW132732   3.112   0.802  10.941 -0.3356  0.3384  0.6349
 7033SOL    HW232733   3.111   0.682  10.844 -1.0413 -1.4653  0.9537
 7034SOL     OW32734   1.185   4.574   5.073 -0.3447 -0.3451 -0.4225
 7034SOL    HW132735   1.170   4.483   5.047 -2.3003 -0.4681  1.1031
 7034SOL    HW232736   1.271   4.559   5.112  0.2106  2.4149 -0.6444
 7035SOL     OW32737   4.589   2.315   8.999  0.3805  0.7020  0.1617
 7035SOL    HW132738   4.515   2.284   9.051 -0.8505  2.0887 -0.7497
 7035SOL    HW232739   4.653   2.259   9.041  1.3664  1.2603 -0.5992
 7036SOL     OW32740   2.438   0.381   4.496  0.3452 -0.2615  0.0722
 7036SOL    HW132741   2.408   0.420   4.414 -0.0449  2.3870  1.4728
 7036SOL    HW232742   2.529   0.412   4.488  0.6324 -0.6967  1.5644
 7037SOL     OW32743   1.634   0.634   5.389 -0.1399 -0.1453 -0.7158
 7037SOL    HW132744   1.591   0.659   5.471 -0.9461 -2.3031 -0.4745
 7037SOL    HW232745   1.568   0.663   5.327  0.4034  0.5774 -0.9483
 7038SOL     OW32746   1.060   0.920  15.294  0.0998 -0.4508 -0.1131
 7038SOL    HW132747   1.128   0.916  15.361  0.4578 -0.2289 -0.4630
 7038SOL    HW232748   0.993   0.860  15.327  1.1408 -0.2197  2.4205
 7039SOL     OW32749   2.705   2.919  16.427 -0.4003  0.1385 -0.4796
 7039SOL    HW132750   2.647   2.852  16.391 -0.3270  0.1315 -0.5830
 7039SOL    HW232751   2.752   2.881  16.501  0.4178  0.5993 -0.7689
 7040SOL     OW32752   1.814   2.717   7.051  0.3885 -0.5067 -0.1767
 7040SOL    HW132753   1.721   2.739   7.058  0.4999  0.1251 -0.7274
 7040SOL    HW232754   1.839   2.769   6.975  0.4741  0.1632  0.3127
 7041SOL     OW32755   0.378   1.097   7.685 -0.0380 -0.2669  0.3158
 7041SOL    HW132756   0.297   1.049   7.703 -0.1930 -0.8720 -2.0202
 7041SOL    HW232757   0.351   1.125   7.598  2.4987  3.7959  0.8208
 7042SOL     OW32758   0.416   3.857   2.985 -0.4176  0.4976 -0.2028
 7042SOL    HW132759   0.364   3.863   3.065  0.2733 -2.4550  0.4784
 7042SOL    HW232760   0.505   3.869   3.017 -0.2602 -0.5568 -0.2328
 7043SOL     OW32761   2.924   4.042   1.486 -0.4019 -0.0399 -0.1236
 7043SOL    HW132762   3.003   4.004   1.525 -1.4242 -0.3911  1.5940
 7043SOL    HW232763   2.870   3.964   1.496 -0.5002  0.0626  0.1279
 7044SOL     OW32764   3.029   1.149  13.635 -0.6482 -0.1077  0.2861
 7044SOL    HW132765   3.064   1.157  13.724  0.1052  0.5718 -0.0767
 7044SOL    HW232766   3.044   1.236  13.598 -1.2381  0.5327  1.5398
 7045SOL     OW32767   0.684   2.076   5.311 -0.7972  0.5919 -0.3002
 7045SOL    HW132768   0.633   2.121   5.243 -2.6889  0.6387  1.1617
 7045SOL    HW232769   0.719   2.001   5.262 -0.8941 -0.0311  0.5911
 7046SOL     OW32770   1.789   2.345  10.574 -0.8148 -0.3361 -0.1036
 7046SOL    HW132771   1.706   2.298  10.576 -1.9486  1.7565  2.3473
 7046SOL    HW232772   1.795   2.386  10.660 -0.8082 -0.2270 -0.1562
 7047SOL     OW32773   4.077   1.396   7.655  0.0371 -0.0128 -0.3624
 7047SOL    HW132774   4.079   1.301   7.645  2.2613  0.0075  0.1087
 7047SOL    HW232775   4.063   1.426   7.565  2.4471 -1.1437 -1.0874
 7048SOL     OW32776   1.978   4.118   8.825 -0.2052 -0.3017 -0.1022
 7048SOL    HW132777   2.069   4.099   8.802  0.1852  1.8087 -0.2763
 7048SOL    HW232778   1.962   4.045   8.884 -2.3907  0.0788 -0.2349
 7049SOL     OW32779   0.432   1.282   1.592  0.3380 -0.2475 -0.1547
 7049SOL    HW132780   0.407   1.372   1.570 -1.9262 -1.0531 -0.8202
 7049SOL    HW232781   0.509   1.296   1.648  1.3256  2.2257 -2.1243
 7050SOL     OW32782   3.824   3.084   8.437 -0.2950  0.0120 -0.1053
 7050SOL    HW132783   3.831   3.081   8.532 -1.0092  1.5468 -0.0069
 7050SOL    HW232784   3.738   3.125   8.429  0.1473  0.5606 -2.0956
 7051SOL     OW32785   0.867   3.549  17.271 -0.1323 -0.2573  0.2728
 7051SOL    HW132786   0.852   3.644  17.264  1.2178 -0.1475 -1.0907
 7051SOL    HW232787   0.779   3.518  17.293 -0.6917  0.6653 -0.6531
 7052SOL     OW32788   0.445   4.404  16.878  0.4585 -0.6758 -0.2389
 7052SOL    HW132789   0.500   4.476  16.849 -0.7806  0.1977 -0.4123
 7052SOL    HW232790   0.505   4.332  16.897 -0.4372 -1.2129  0.5721
 7053SOL     OW32791   4.449   0.117  15.512  0.2955 -0.0198 -0.4923
 7053SOL    HW132792   4.407   0.058  15.450 -0.2348 -0.5537  0.3847
 7053SOL    HW232793   4.409   0.088  15.594 -0.7531  0.1620 -0.9433
 7054SOL     OW32794   2.825   2.219   5.713 -0.2865  0.1550  0.1641
 7054SOL    HW132795   2.832   2.312   5.692  0.1108 -0.0477 -0.5953
 7054SOL    HW232796   2.743   2.220   5.763  0.1709 -0.9723  0.9300
 7055SOL     OW32797   3.508   4.074   4.660  0.1366 -0.6409 -0.0635
 7055SOL    HW132798   3.450   4.000   4.643 -0.6173  0.3572 -1.8355
 7055SOL    HW232799   3.587   4.022   4.643  1.3418  0.7233  1.2722
 7056SOL     OW32800   0.156   4.380   1.897 -0.5616  0.3206 -0.0003
 7056SOL    HW132801   0.227   4.362   1.836 -0.4569  2.9481 -0.6349
 7056SOL    HW232802   0.087   4.413   1.839 -1.0780 -1.8891 -0.6683
 7057SOL     OW32803   0.691   3.841   0.488  0.3644  0.1454  0.1114
 7057SOL    HW132804   0.768   3.890   0.518 -1.3275  3.0917 -0.2764
 7057SOL    HW232805   0.720   3.753   0.510 -1.6382 -0.4466  0.3441
 7058SOL     OW32806   0.594   4.700   9.231 -1.0069  0.0002 -0.2400
 7058SOL    HW132807   0.565   4.650   9.155 -0.3408 -2.7426  1.2742
 7058SOL    HW232808   0.534   4.683   9.303 -0.1578  2.9881  1.1728
 7059SOL     OW32809   0.025   3.764   9.627 -0.0971  0.1774 -0.0716
 7059SOL    HW132810   0.022   3.807   9.712 -0.9064 -0.2359  0.1100
 7059SOL    HW232811   0.036   3.834   9.562 -1.0402 -2.8141 -3.4337
 7060SOL     OW32812   3.342   0.287   8.051 -0.2607 -0.3694 -0.3360
 7060SOL    HW132813   3.420   0.341   8.061 -1.6479  1.2780  1.4361
 7060SOL    HW232814   3.372   0.196   8.044  2.7285  0.3817  2.7291
 7061SOL     OW32815   0.333   3.619   6.829 -0.0581  0.1424 -0.4502
 7061SOL    HW132816   0.375   3.629   6.914  0.2630 -1.4793 -0.4081
 7061SOL    HW232817   0.273   3.693   6.831  1.7327  1.5982 -0.7715
 7062SOL     OW32818   1.500   0.204  16.166  0.0548  0.5016 -0.3196
 7062SOL    HW132819   1.433   0.271  16.178  0.1010  0.7088 -1.2225
 7062SOL    HW232820   1.459   0.161  16.090 -1.0063 -1.2289  1.2457
 7063SOL     OW32821   1.126   2.434   3.139  0.5548  0.3788 -0.2576
 7063SOL    HW132822   1.060   2.497   3.167  0.9302  0.1896  1.0663
 7063SOL    HW232823   1.173   2.495   3.082 -1.6088  0.1090 -2.3215
 7064SOL     OW32824   3.243   2.353   8.891 -0.3245 -0.1403 -0.0200
 7064SOL    HW132825   3.311   2.347   8.824  0.8341 -0.1688  1.1657
 7064SOL    HW232826   3.234   2.265   8.928 -0.9346 -0.6570 -1.3898
 7065SOL     OW32827   3.567   3.231   3.099  0.1363 -0.1433 -0.1598
 7065SOL    HW132828   3.613   3.312   3.077  2.8733 -1.8494 -0.7269
 7065SOL    HW232829   3.491   3.272   3.140  0.5157  0.7553 -0.3542
 7066SOL     OW32830   0.681   4.416   9.438 -0.4354  0.1863 -0.3351
 7066SOL    HW132831   0.608   4.444   9.493 -1.0626 -3.7078  0.7947
 7066SOL    HW232832   0.648   4.373   9.359  0.5805  0.3833 -0.8700
 7067SOL     OW32833   1.764   4.628   1.088 -0.2714  0.2523 -0.0531
 7067SOL    HW132834   1.819   4.686   1.035 -0.4584 -0.1440 -0.6762
 7067SOL    HW232835   1.821   4.579   1.148 -0.0725  0.6511  0.0843
 7068SOL     OW32836   2.861   0.952   2.836  0.4139  0.3183 -0.0201
 7068SOL    HW132837   2.817   0.939   2.919 -2.5141  1.2191 -1.4143
 7068SOL    HW232838   2.850   1.045   2.817  1.3991  0.4854  0.2269
 7069SOL     OW32839   3.243   0.438  16.925 -0.4620 -0.5200  0.1012
 7069SOL    HW132840   3.178   0.478  16.983 -1.6700  0.3339 -1.8376
 7069SOL    HW232841   3.300   0.513  16.908 -0.9786 -0.3415 -0.8144
 7070SOL     OW32842   3.559   0.895   5.003 -0.0572 -0.2986  0.2366
 7070SOL    HW132843   3.571   0.871   5.095  0.1879  0.7530  0.4863
 7070SOL    HW232844   3.498   0.969   4.999  0.1720  0.0117  2.1072
 7071SOL     OW32845   3.099   3.328   3.784  0.0227  0.1162  0.2607
 7071SOL    HW132846   3.031   3.267   3.815  0.6888 -0.0492  1.3818
 7071SOL    HW232847   3.070   3.345   3.694  0.1498  0.8543  0.3623
 7072SOL     OW32848   1.141   4.270   7.475 -0.2500 -0.2304  0.6057
 7072SOL    HW132849   1.180   4.312   7.399  0.4035  1.0548  1.6366
 7072SOL    HW232850   1.211   4.287   7.539  0.8786 -0.0715 -0.6697
 7073SOL     OW32851   2.335   0.207   4.153  0.8598 -0.1473  0.6337
 7073SOL    HW132852   2.263   0.223   4.214  0.1712 -3.4108  0.6768
 7073SOL    HW232853   2.291   0.202   4.068 -1.3215  3.5655  1.5521
 7074SOL     OW32854   3.132   0.962   7.176  0.0180  0.1791  0.7278
 7074SOL    HW132855   3.096   1.039   7.132 -0.5387  0.7273  2.1391
 7074SOL    HW232856   3.222   0.990   7.194  0.6749 -0.7515 -1.1591
 7075SOL     OW32857   1.656   0.672   3.842 -0.7149 -0.2452 -0.0058
 7075SOL    HW132858   1.692   0.614   3.775 -0.3997 -0.3266  0.2332
 7075SOL    HW232859   1.701   0.756   3.842 -0.5584 -0.3337  1.4624
 7076SOL     OW32860   0.957   1.413   4.631  0.1076 -0.0771 -0.1289
 7076SOL    HW132861   1.042   1.395   4.590  1.4538 -2.8451  3.8683
 7076SOL    HW232862   0.996   1.409   4.718 -1.6367 -0.2011  0.6386
 7077SOL     OW32863   3.382   3.811   0.166 -0.3889  0.2025  0.4908
 7077SOL    HW132864   3.340   3.876   0.221  1.2803  0.3706  1.5502
 7077SOL    HW232865   3.453   3.784   0.223 -1.4572 -1.2709  1.1321
 7078SOL     OW32866   2.370   3.813   3.086  0.2250  0.5000  0.1669
 7078SOL    HW132867   2.453   3.827   3.039 -0.9305  1.4646 -1.5559
 7078SOL    HW232868   2.395   3.807   3.179  2.6385  1.0571 -0.4344
 7079SOL     OW32869   3.629   0.450   7.181  0.0501 -0.2619 -0.2240
 7079SOL    HW132870   3.718   0.451   7.216 -0.2725 -1.1745  0.6495
 7079SOL    HW232871   3.580   0.500   7.246  3.2766  1.9073  0.5504
 7080SOL     OW32872   2.573   1.592   2.034  0.2726 -0.0977 -0.0857
 7080SOL    HW132873   2.667   1.573   2.041  0.2168 -0.6152 -0.6905
 7080SOL    HW232874   2.546   1.556   2.118 -1.9961  1.3429 -0.2041
 7081SOL     OW32875   4.155   4.637   1.679 -0.1856 -0.2183  0.1845
 7081SOL    HW132876   4.200   4.710   1.722  1.8954  0.3807 -2.9515
 7081SOL    HW232877   4.146   4.572   1.748 -1.8752 -2.6853 -2.3383
 7082SOL     OW32878   2.466   1.310  16.952 -0.1487 -0.1939  0.2475
 7082SOL    HW132879   2.398   1.260  16.997 -0.1750  0.4225  0.8939
 7082SOL    HW232880   2.418   1.337  16.875 -0.3136  1.7532  1.0417
 7083SOL     OW32881   0.094   3.368   3.029  0.9330 -0.0504 -0.0184
 7083SOL    HW132882   0.052   3.328   3.105  1.9891 -1.8109 -0.3525
 7083SOL    HW232883   0.027   3.354   2.962  0.5897 -3.2490  1.0108
 7084SOL     OW32884   1.273   3.861   7.994 -0.1169 -0.5436 -0.2290
 7084SOL    HW132885   1.254   3.826   8.081  0.2611 -2.7747 -1.0505
 7084SOL    HW232886   1.341   3.800   7.966  2.2241  2.4368 -0.9876
 7085SOL     OW32887   0.411   3.516   4.628  0.4951 -0.0244  0.2334
 7085SOL    HW132888   0.342   3.493   4.689 -0.4429  2.5132  0.1643
 7085SOL    HW232889   0.376   3.598   4.592 -1.7981 -1.3513 -0.5207
 7086SOL     OW32890   0.843   4.396  12.134  0.4003  0.0239 -0.4331
 7086SOL    HW132891   0.801   4.360  12.212  1.5659  3.4399  1.7362
 7086SOL    HW232892   0.934   4.400  12.163  0.8194 -0.7828 -1.5919
 7087SOL     OW32893   3.105   3.416  15.306  0.6549 -0.0683  0.2277
 7087SOL    HW132894   3.120   3.322  15.313  0.8898 -0.0392  0.1018
 7087SOL    HW232895   3.191   3.454  15.288 -0.4220  1.8347 -0.9875
 7088SOL     OW32896   3.964   1.831   6.444 -0.2131 -0.2731 -0.5116
 7088SOL    HW132897   3.873   1.803   6.453 -0.1983 -0.6351 -1.4960
 7088SOL    HW232898   3.953   1.924   6.423 -0.0545  0.3223  1.9577
 7089SOL     OW32899   3.153   2.825   8.034  0.0876  0.6791 -0.1493
 7089SOL    HW132900   3.104   2.901   8.066  1.0590  0.5214  1.7065
 7089SOL    HW232901   3.203   2.811   8.114 -0.9659 -2.6007 -0.0459
 7090SOL     OW32902   1.189   4.030   7.006 -0.0068  0.1648 -0.0955
 7090SOL    HW132903   1.113   4.083   7.031 -0.8924 -0.5690 -1.1723
 7090SOL    HW232904   1.183   3.970   7.080 -0.4065 -1.2491 -1.2797
 7091SOL     OW32905   2.283   3.680   3.360 -0.3782 -0.1157 -0.0836
 7091SOL    HW132906   2.328   3.734   3.425  0.4318  0.0029 -0.7391
 7091SOL    HW232907   2.362   3.640   3.322 -0.4991  1.8317 -2.3740
 7092SOL     OW32908   3.713   4.398  10.852  0.1004 -0.3407 -0.1528
 7092SOL    HW132909   3.728   4.320  10.798  0.9709  0.5880 -1.2367
 7092SOL    HW232910   3.640   4.380  10.912 -0.9481 -0.5864 -1.5147
 7093SOL     OW32911   2.800   0.674   5.138 -0.5209  0.5766 -0.2999
 7093SOL    HW132912   2.806   0.668   5.043 -0.8877 -0.9583 -0.2306
 7093SOL    HW232913   2.781   0.767   5.152  1.0503  1.2784 -2.8165
 7094SOL     OW32914   2.715   4.674   3.640 -0.4832 -0.4614 -0.7609
 7094SOL    HW132915   2.752   4.609   3.700 -0.4108  0.4102  0.1327
 7094SOL    HW232916   2.732   4.635   3.554  2.4572  0.0239 -0.4020
 7095SOL     OW32917   4.639   0.108  14.651  0.1685  0.3014  0.5021
 7095SOL    HW132918   4.732   0.109  14.675  0.6774 -1.5056 -1.3145
 7095SOL    HW232919   4.595   0.082  14.732  1.9062  0.0934  1.3834
 7096SOL     OW32920   1.543   4.237   6.174  0.1275  0.8976  0.0211
 7096SOL    HW132921   1.555   4.155   6.127 -0.0461  1.2449 -0.6356
 7096SOL    HW232922   1.583   4.287   6.103 -0.8223  0.3310 -0.9140
 7097SOL     OW32923   3.115   0.610  14.759 -0.0244  0.5489  0.3918
 7097SOL    HW132924   3.108   0.524  14.801 -0.6466  1.3806  2.0070
 7097SOL    HW232925   3.102   0.664  14.838  0.2848  1.6171 -0.2887
 7098SOL     OW32926   4.005   2.898  13.850  0.3516  0.2763 -0.3293
 7098SOL    HW132927   3.937   2.955  13.813 -0.4348  0.9513  2.1800
 7098SOL    HW232928   3.949   2.838  13.900  1.2927 -0.1774  0.1723
 7099SOL     OW32929   3.773   3.028   8.722  0.1903  0.0405  0.0946
 7099SOL    HW132930   3.739   2.989   8.802 -1.3665  1.4832  0.1344
 7099SOL    HW232931   3.766   3.122   8.735  0.0283 -0.1824  1.6362
 7100SOL     OW32932   3.722   0.064   2.549 -0.7611 -0.5421 -0.3040
 7100SOL    HW132933   3.807   0.022   2.562 -0.8434 -0.4099  0.6567
 7100SOL    HW232934   3.742   0.135   2.609 -1.5990 -0.5790  0.0130
 7101SOL     OW32935   1.562   2.451   8.677  0.0062  0.3772  0.4497
 7101SOL    HW132936   1.651   2.417   8.672 -0.1590 -0.1901  1.3519
 7101SOL    HW232937   1.586   2.533   8.719  1.4519  0.0778  0.1808
 7102SOL     OW32938   2.940   4.461   2.343  0.3675 -0.1946  0.1113
 7102SOL    HW132939   2.881   4.386   2.332 -0.1582  0.3469 -0.7950
 7102SOL    HW232940   2.915   4.515   2.268 -0.4238  0.1163  0.5848
 7103SOL     OW32941   2.409   1.613   7.568 -0.0339 -0.3405 -0.4895
 7103SOL    HW132942   2.477   1.631   7.634  0.1737 -2.8899 -0.0116
 7103SOL    HW232943   2.422   1.521   7.546  2.1609  0.3685 -2.0583
 7104SOL     OW32944   4.574   3.284   9.408  0.0683 -0.1234  0.2816
 7104SOL    HW132945   4.502   3.256   9.464  0.4348 -2.8109 -0.5732
 7104SOL    HW232946   4.653   3.233   9.426  0.9039  1.1301  0.1458
 7105SOL     OW32947   4.575   4.359  17.552  0.2382 -0.1231  0.4175
 7105SOL    HW132948   4.579   4.276  17.599  0.2477 -1.3282 -1.7457
 7105SOL    HW232949   4.665   4.374  17.524  0.5522  1.8672  2.4381
 7106SOL     OW32950   3.957   2.640   4.673  0.6339  0.2371 -0.4787
 7106SOL    HW132951   3.951   2.545   4.669 -1.3439  0.2089  3.5107
 7106SOL    HW232952   3.967   2.654   4.767  0.0363 -1.8513 -0.1048
 7107SOL     OW32953   2.373   4.651   1.984 -0.4525  0.4483 -0.4635
 7107SOL    HW132954   2.456   4.675   2.026 -0.3030  3.0384 -2.2910
 7107SOL    HW232955   2.388   4.564   1.946 -0.5181  0.0446  0.4212
 7108SOL     OW32956   0.381   4.472   1.151 -0.4641 -0.0392 -0.2304
 7108SOL    HW132957   0.402   4.379   1.163  0.6589  0.1499 -0.7460
 7108SOL    HW232958   0.314   4.469   1.082 -2.2082  2.3136  1.3695
 7109SOL     OW32959   0.277   0.045   5.977 -0.3392 -0.4231  0.1681
 7109SOL    HW132960   0.283   0.042   6.073 -0.1317  1.0108  0.2023
 7109SOL    HW232961   0.364   0.016   5.950  0.3578  1.8647 -0.0373
 7110SOL     OW32962   4.236   0.627   8.463  0.0528 -0.2221 -0.0843
 7110SOL    HW132963   4.248   0.652   8.554  0.9041  0.2812 -0.3267
 7110SOL    HW232964   4.141   0.635   8.464  0.1028  0.1486  0.9787
 7111SOL     OW32965   1.350   0.619   7.228 -0.4657  0.2723 -0.1580
 7111SOL    HW132966   1.273   0.578   7.267 -0.1047  0.3654  0.6514
 7111SOL    HW232967   1.418   0.554   7.249 -0.0961  1.6260  2.9462
 7112SOL     OW32968   3.829   3.389   8.058 -0.5092  0.9229 -0.2624
 7112SOL    HW132969   3.783   3.433   8.130 -0.6860 -1.6083  1.1930
 7112SOL    HW232970   3.777   3.308   8.060 -2.3882  2.1044 -2.0797
 7113SOL     OW32971   2.197   2.505   5.499  0.2773  0.1251 -0.4194
 7113SOL    HW132972   2.159   2.557   5.569  1.1429  0.1183  0.0524
 7113SOL    HW232973   2.293   2.507   5.497  0.3094  0.7631  1.6225
 7114SOL     OW32974   2.884   1.225   1.929 -0.0677 -0.6455  0.5499
 7114SOL    HW132975   2.940   1.302   1.935  0.3507 -0.8388 -0.7770
 7114SOL    HW232976   2.851   1.218   2.018  0.6672  2.0310  1.0272
 7115SOL     OW32977   4.392   2.674   6.007  0.7447 -0.3604 -0.4398
 7115SOL    HW132978   4.409   2.629   5.924 -1.1906 -1.6834 -0.1073
 7115SOL    HW232979   4.323   2.622   6.046  0.3166 -1.8857 -3.2238
 7116SOL     OW32980   2.055   0.983   8.411  0.1924  0.3964  0.1410
 7116SOL    HW132981   2.149   0.997   8.419  0.6484 -2.1365 -0.7241
 7116SOL    HW232982   2.027   1.042   8.341  0.5912 -1.1389 -1.2987
 7117SOL     OW32983   2.272   3.211  17.302 -0.2088 -0.3262 -0.4568
 7117SOL    HW132984   2.199   3.245  17.250 -1.5671  1.3360  2.5533
 7117SOL    HW232985   2.296   3.152  17.231 -0.5185  0.6672 -1.3866
 7118SOL     OW32986   1.819   1.434   6.193  0.1433  0.0402  0.6096
 7118SOL    HW132987   1.741   1.420   6.140  0.4243 -1.6775  0.6738
 7118SOL    HW232988   1.787   1.496   6.259 -0.3286 -1.6596  1.9601
 7119SOL     OW32989   1.372   3.156   4.742 -0.2759  0.3865  0.3871
 7119SOL    HW132990   1.303   3.192   4.686 -0.7974 -0.2767  0.6103
 7119SOL    HW232991   1.430   3.124   4.673 -0.8996 -0.9817  0.5040
 7120SOL     OW32992   1.281   0.662   9.543 -0.7932 -1.1107  0.1384
 7120SOL    HW132993   1.286   0.756   9.561 -3.0146 -0.8774 -0.4734
 7120SOL    HW232994   1.331   0.650   9.462 -3.2362 -2.8824 -1.0921
 7121SOL     OW32995   4.514   0.033   2.843 -0.0104  0.2683  0.4711
 7121SOL    HW132996   4.492   4.692   2.889 -0.6168  0.9918  1.4565
 7121SOL    HW232997   4.571   0.071   2.910  0.5987 -0.2357  0.2510
 7122SOL     OW32998   1.779   2.676  12.900 -0.1905  0.8443  0.3207
 7122SOL    HW132999   1.692   2.638  12.908  0.7208 -1.5582 -1.4670
 7122SOL    HW233000   1.781   2.681  12.804 -2.0012  3.8247  0.4157
 7123SOL     OW33001   2.304   2.586   2.716 -0.0936 -0.7035  0.1450
 7123SOL    HW133002   2.282   2.496   2.738  1.8473 -1.0906  0.5241
 7123SOL    HW233003   2.230   2.617   2.663  0.5766 -1.4540 -1.2380
 7124SOL     OW33004   4.131   1.733  12.251 -0.2676 -0.3335 -0.0988
 7124SOL    HW133005   4.065   1.671  12.282 -0.5629  1.1762  2.2996
 7124SOL    HW233006   4.196   1.735  12.322 -0.3144  1.2888 -0.1101
 7125SOL     OW33007   0.021   2.459  11.159  0.2616 -0.0039 -0.4146
 7125SOL    HW133008   4.678   2.413  11.147  1.7520 -2.7111 -0.4942
 7125SOL    HW233009   0.048   2.466  11.067 -3.1118  0.0411 -1.3957
 7126SOL     OW33010   4.166   1.411   6.520  0.2260  0.5657 -0.3025
 7126SOL    HW133011   4.153   1.503   6.541  2.8541  1.0072 -0.5581
 7126SOL    HW233012   4.236   1.392   6.583 -2.5072 -1.0778  2.2268
 7127SOL     OW33013   4.432   4.514  14.463 -0.3352  0.2108  0.1131
 7127SOL    HW133014   4.376   4.591  14.460 -0.9661 -0.2608 -0.0477
 7127SOL    HW233015   4.386   4.456  14.524  0.1226 -0.3598 -0.0803
 7128SOL     OW33016   4.081   0.830   2.941  0.5238 -0.1997 -0.3197
 7128SOL    HW133017   4.137   0.786   3.005 -1.4228 -0.9485  0.8594
 7128SOL    HW233018   3.997   0.784   2.940  1.2528 -1.5623 -0.0228
 7129SOL     OW33019   0.982   0.292   5.952  0.0357 -0.5213 -0.0038
 7129SOL    HW133020   0.906   0.245   5.919  0.3048 -1.4419  0.6792
 7129SOL    HW233021   1.022   0.225   6.008 -0.2494 -1.5004 -0.9638
 7130SOL     OW33022   3.429   1.570  13.411  0.2361 -0.0299 -0.0383
 7130SOL    HW133023   3.507   1.613  13.446  0.8269 -0.2783 -1.0558
 7130SOL    HW233024   3.396   1.517  13.484  1.4665  1.1590  1.3713
 7131SOL     OW33025   1.661   0.912   8.316  0.0948  0.5744  0.1248
 7131SOL    HW133026   1.597   0.850   8.349  0.7301  0.5103  1.2523
 7131SOL    HW233027   1.714   0.856   8.259 -0.9935 -2.4545  2.0766
 7132SOL     OW33028   1.040   3.513   2.250  0.1337 -0.8701 -0.1275
 7132SOL    HW133029   0.976   3.489   2.317 -0.5703  1.7853  0.1624
 7132SOL    HW233030   1.117   3.542   2.299 -0.2694 -1.0214  0.5942
 7133SOL     OW33031   2.657   3.888   8.176  0.1143 -0.2693 -0.1635
 7133SOL    HW133032   2.647   3.814   8.116  0.9768  0.3016 -1.0048
 7133SOL    HW233033   2.586   3.949   8.152 -1.0743 -1.5677  0.0567
 7134SOL     OW33034   3.532   3.884   6.679  0.1455  0.1887 -0.2729
 7134SOL    HW133035   3.498   3.942   6.747  0.5784  0.5036 -0.3247
 7134SOL    HW233036   3.523   3.805   6.732  0.5657  2.0883  2.6206
 7135SOL     OW33037   1.573   4.005  11.766 -0.7411  0.2516 -0.3817
 7135SOL    HW133038   1.493   4.028  11.718 -0.7635  1.6679  0.3451
 7135SOL    HW233039   1.594   4.078  11.824 -0.2834 -1.0614  1.0969
 7136SOL     OW33040   1.864   2.452  10.181 -0.8035  1.1548 -0.3890
 7136SOL    HW133041   1.856   2.357  10.172 -1.5387  1.3040 -1.3137
 7136SOL    HW233042   1.897   2.454  10.271 -1.8761 -1.0496  0.0581
 7137SOL     OW33043   1.770   0.208  15.173 -0.4203  0.0790  0.3955
 7137SOL    HW133044   1.847   0.260  15.195 -0.2117 -0.1837  0.2817
 7137SOL    HW233045   1.708   0.251  15.232 -0.0834  2.0487 -0.6876
 7138SOL     OW33046   2.704   0.942   2.340 -0.2585 -0.3001  0.0271
 7138SOL    HW133047   2.613   0.914   2.332 -0.5715 -0.0075  2.5891
 7138SOL    HW233048   2.743   0.875   2.396 -0.4638 -1.2513 -0.9939
 7139SOL     OW33049   1.936   3.716   6.992 -0.3405 -0.2322  0.3703
 7139SOL    HW133050   1.900   3.774   6.924  1.7727  0.8276  0.1672
 7139SOL    HW233051   1.914   3.748   7.079  0.1505  1.2060 -0.0273
 7140SOL     OW33052   3.541   0.959  13.823  0.0492 -0.5939  0.4061
 7140SOL    HW133053   3.556   1.047  13.856  0.7803 -0.8997  0.9032
 7140SOL    HW233054   3.506   0.919  13.902  2.2206 -2.8159  0.2561
 7141SOL     OW33055   0.095   2.825   8.032  0.2798  0.3878  0.0296
 7141SOL    HW133056   0.151   2.748   8.022  0.8743  1.0437 -1.7126
 7141SOL    HW233057   0.130   2.865   8.111  0.3952 -1.7581  1.0522
 7142SOL     OW33058   3.442   3.575   5.910  0.1330  0.6709 -0.1772
 7142SOL    HW133059   3.427   3.614   5.824 -2.4003  1.4886  0.6325
 7142SOL    HW233060   3.510   3.508   5.897  0.6250  1.2412 -0.5603
 7143SOL     OW33061   0.418   1.250   2.839 -0.0489 -0.0008  0.0328
 7143SOL    HW133062   0.442   1.243   2.747  2.2786  1.8024  0.4995
 7143SOL    HW233063   0.475   1.327   2.848 -0.3992  0.0204  2.1577
 7144SOL     OW33064   2.113   1.454   6.160 -0.0487 -0.0774  0.1275
 7144SOL    HW133065   2.117   1.387   6.092  1.4381 -1.8691  1.9828
 7144SOL    HW233066   2.018   1.449   6.174 -0.0912  0.1738 -0.0654
 7145SOL     OW33067   0.835   3.364   7.264 -0.1684 -0.0809 -0.1113
 7145SOL    HW133068   0.918   3.348   7.310  0.9247  0.0212 -2.0704
 7145SOL    HW233069   0.858   3.330   7.177 -0.3185 -0.3987 -0.0267
 7146SOL     OW33070   4.054   4.537   5.838  0.0958  0.0022 -0.5128
 7146SOL    HW133071   4.044   4.442   5.827  1.0018 -0.3788  1.8862
 7146SOL    HW233072   4.063   4.549   5.744 -1.4271  2.2156 -0.3882
 7147SOL     OW33073   4.714   1.849   7.369  0.0872  0.7607  0.4750
 7147SOL    HW133074   0.059   1.872   7.405  2.0042 -1.7952 -2.4083
 7147SOL    HW233075   4.656   1.904   7.422 -1.2780 -3.1169  2.9885
 7148SOL     OW33076   0.382   4.244   3.062  0.1423 -0.4866 -0.2812
 7148SOL    HW133077   0.463   4.271   3.105  1.7495 -2.8544 -1.8263
 7148SOL    HW233078   0.343   4.323   3.023  1.4275 -1.4041 -3.4803
 7149SOL     OW33079   4.467   0.824   8.253 -0.4595 -0.1265 -0.7841
 7149SOL    HW133080   4.538   0.880   8.220 -1.3342  0.5159 -1.5958
 7149SOL    HW233081   4.413   0.888   8.300  0.7964 -1.8290  2.9917
 7150SOL     OW33082   1.318   1.247   3.240  0.5711 -0.4936 -0.4895
 7150SOL    HW133083   1.248   1.197   3.198 -1.9197  1.0875  1.7353
 7150SOL    HW233084   1.367   1.277   3.164  2.3635  1.9212  1.6222
 7151SOL     OW33085   3.217   2.088   8.966 -0.0837 -0.0088  0.7752
 7151SOL    HW133086   3.156   2.027   8.925 -1.5122  2.3576 -0.5841
 7151SOL    HW233087   3.174   2.101   9.051  0.7608  0.5957  1.1077
 7152SOL     OW33088   3.151   0.382   8.929  0.0049  0.1861  0.1019
 7152SOL    HW133089   3.235   0.340   8.911 -0.5068 -0.7146 -0.1685
 7152SOL    HW233090   3.138   0.416   8.840 -0.2556 -1.2990 -0.4134
 7153SOL     OW33091   2.823   4.453   6.199 -0.1142  0.2348 -0.2702
 7153SOL    HW133092   2.820   4.548   6.208  0.6149 -0.0343  2.7077
 7153SOL    HW233093   2.821   4.440   6.104 -1.8569 -0.5246 -0.1165
 7154SOL     OW33094   1.885   2.773   1.475 -0.1873  0.1507 -0.6506
 7154SOL    HW133095   1.938   2.810   1.546 -0.7999  1.0247 -0.6416
 7154SOL    HW233096   1.820   2.840   1.452 -2.5337 -1.1243  2.2973
 7155SOL     OW33097   1.925   3.420   5.463 -0.0632 -0.3979  0.1906
 7155SOL    HW133098   1.965   3.348   5.413  1.2995  0.4057  0.1132
 7155SOL    HW233099   1.848   3.378   5.499 -1.4666  1.5425 -0.5146
 7156SOL     OW33100   3.314   2.496   9.235 -0.4398 -0.5581  0.0092
 7156SOL    HW133101   3.255   2.526   9.304  3.2468  1.8044  2.1119
 7156SOL    HW233102   3.300   2.402   9.238 -1.3930 -0.4355 -0.5562
 7157SOL     OW33103   3.388   3.744   2.575  0.7208  0.1697 -0.7174
 7157SOL    HW133104   3.427   3.701   2.651  0.0331 -0.4005 -0.6806
 7157SOL    HW233105   3.339   3.669   2.540 -0.1518  0.9153 -1.1115
 7158SOL     OW33106   2.030   3.291   4.281  0.5078 -0.3967  0.1537
 7158SOL    HW133107   1.956   3.299   4.342 -0.4818 -0.9489 -0.9858
 7158SOL    HW233108   1.981   3.243   4.214 -0.5771  1.0564 -0.0831
 7159SOL     OW33109   3.570   3.507   3.809  0.4420 -0.1454 -0.3614
 7159SOL    HW133110   3.527   3.429   3.772  0.5709 -0.9996  1.3352
 7159SOL    HW233111   3.599   3.550   3.728 -1.4097  3.3823  0.8587
 7160SOL     OW33112   2.716   1.077   8.222 -0.2605 -0.1225 -0.7928
 7160SOL    HW133113   2.697   1.088   8.316  0.1291 -3.9190 -0.2965
 7160SOL    HW233114   2.759   1.162   8.211 -2.0914  0.8641 -0.3834
 7161SOL     OW33115   2.707   4.682   3.176  0.4770  0.5679  0.3971
 7161SOL    HW133116   2.691   0.015   3.235  1.6054  0.1859  1.1591
 7161SOL    HW233117   2.615   4.667   3.153  0.9506 -1.7913  0.0203
 7162SOL     OW33118   0.305   0.231   4.343  0.1876  1.0269 -0.4739
 7162SOL    HW133119   0.338   0.302   4.289 -1.0988  1.5345 -0.5997
 7162SOL    HW233120   0.276   0.182   4.266  1.4045 -0.6070  0.0894
 7163SOL     OW33121   3.081   0.078   4.017 -0.3970 -0.5153  0.8538
 7163SOL    HW133122   3.064   0.170   4.037 -2.0192 -0.8630  1.1198
 7163SOL    HW233123   3.044   0.036   4.094 -1.8870 -0.9812 -0.1099
 7164SOL     OW33124   2.350   2.689   2.354  0.0570  0.2390 -0.0654
 7164SOL    HW133125   2.410   2.622   2.387  0.2928 -0.4105 -1.7825
 7164SOL    HW233126   2.333   2.643   2.271 -0.1767  0.0258  0.0982
 7165SOL     OW33127   0.366   0.655   4.244 -0.0195  0.8487  0.0704
 7165SOL    HW133128   0.431   0.596   4.283 -1.1676  0.9414  2.1677
 7165SOL    HW233129   0.289   0.598   4.248  1.3078 -1.0738 -1.9938
 7166SOL     OW33130   0.333   4.350  17.386 -0.0396 -0.5000  0.3248
 7166SOL    HW133131   0.428   4.338  17.393 -0.1047 -1.5635 -0.6956
 7166SOL    HW233132   0.323   4.346  17.291 -0.2053 -0.6393  0.3494
 7167SOL     OW33133   1.686   3.339   7.775 -0.2234  0.0837  0.0034
 7167SOL    HW133134   1.749   3.411   7.785  1.1650 -0.4974 -4.8975
 7167SOL    HW233135   1.750   3.281   7.733  1.9318  1.9559  0.7044
 7168SOL     OW33136   1.564   4.539   6.578 -0.5813  0.6853 -0.2047
 7168SOL    HW133137   1.590   4.494   6.497  1.0629  1.3614 -0.0479
 7168SOL    HW233138   1.478   4.578   6.560 -0.0132  1.7557 -0.5499
 7169SOL     OW33139   3.324   1.382   7.560 -0.2797  0.1040 -0.2724
 7169SOL    HW133140   3.372   1.439   7.620  2.8348 -2.2089 -0.5843
 7169SOL    HW233141   3.243   1.429   7.540  0.0365  1.0287  0.6074
 7170SOL     OW33142   1.349   3.200   1.264  0.3636 -0.0065 -0.1207
 7170SOL    HW133143   1.386   3.266   1.205  0.3379  0.2164  0.1177
 7170SOL    HW233144   1.344   3.245   1.348 -1.2080 -1.2290  0.4422
 7171SOL     OW33145   2.956   3.039   5.729 -0.4617 -0.4481 -0.0847
 7171SOL    HW133146   2.929   3.041   5.820  0.3784  1.5688  0.1225
 7171SOL    HW233147   3.040   3.086   5.732  1.2711 -3.6835  2.4817
 7172SOL     OW33148   0.746   4.004  13.967 -0.7427  0.2471 -0.0450
 7172SOL    HW133149   0.695   3.928  13.941  2.8425 -2.1698  0.0177
 7172SOL    HW233150   0.678   4.069  13.951 -0.9883 -0.0654 -0.2535
 7173SOL     OW33151   1.045   2.467   5.313  0.0383  0.3334  0.1030
 7173SOL    HW133152   1.107   2.421   5.257 -0.3747  1.4443 -1.2684
 7173SOL    HW233153   1.102   2.473   5.390  0.8576  1.4283 -0.5996
 7174SOL     OW33154   0.779   3.855   5.447  0.4482  0.5206 -0.6912
 7174SOL    HW133155   0.740   3.802   5.378  0.1940 -1.2529  0.8175
 7174SOL    HW233156   0.863   3.885   5.411  0.1164  2.3456  0.0402
 7175SOL     OW33157   4.421   0.641   4.846  0.0109  0.3417  0.3064
 7175SOL    HW133158   4.427   0.732   4.819 -0.7571  0.3818  0.2655
 7175SOL    HW233159   4.469   0.651   4.928  0.5633 -2.3456  0.3213
 7176SOL     OW33160   2.804   1.626   7.645 -0.3909  0.1643 -0.6828
 7176SOL    HW133161   2.794   1.627   7.549  1.7210 -0.1538 -0.9181
 7176SOL    HW233162   2.815   1.534   7.668  3.9209  1.0854  0.8568
 7177SOL     OW33163   0.906   2.646   4.217 -0.1311  0.5737 -0.5183
 7177SOL    HW133164   0.890   2.552   4.212 -0.1654  0.5737 -0.3909
 7177SOL    HW233165   0.822   2.657   4.261 -0.1873 -1.2608 -0.2005
 7178SOL     OW33166   3.523   1.746  15.040 -0.1198  0.3772 -0.2163
 7178SOL    HW133167   3.456   1.790  15.093  2.0983  1.0304  2.0064
 7178SOL    HW233168   3.511   1.794  14.957  0.2030  1.3875  0.3194
 7179SOL     OW33169   4.151   2.461   3.225  0.1537 -0.2394 -0.1496
 7179SOL    HW133170   4.160   2.393   3.292  0.9082 -1.0929 -1.1192
 7179SOL    HW233171   4.172   2.417   3.143  0.2439  0.5209 -0.5279
 7180SOL     OW33172   2.931   2.418   1.606 -0.1381 -0.1652 -0.1643
 7180SOL    HW133173   2.988   2.442   1.532 -0.1599 -0.5183 -0.2945
 7180SOL    HW233174   2.933   2.323   1.598  0.5552 -0.0683 -1.1723
 7181SOL     OW33175   2.328   2.663   7.729 -0.0617  0.0525 -0.0648
 7181SOL    HW133176   2.387   2.736   7.709  0.0555 -0.0093  0.0612
 7181SOL    HW233177   2.349   2.664   7.822 -1.2754 -1.9433  0.2198
 7182SOL     OW33178   4.667   0.156   6.757 -0.3539  0.4646  0.4548
 7182SOL    HW133179   4.690   0.225   6.819 -0.1328 -0.1840  1.0895
 7182SOL    HW233180   4.573   0.168   6.744 -0.7750 -1.4635  1.6512
 7183SOL     OW33181   0.999   1.067   7.271  0.2851  0.0438 -0.6037
 7183SOL    HW133182   0.904   1.076   7.281  0.2645  0.3917 -1.1074
 7183SOL    HW233183   1.005   1.080   7.176 -0.1563  2.9629 -0.2164
 7184SOL     OW33184   3.847   2.737   5.062  0.0457 -0.1564  0.3084
 7184SOL    HW133185   3.758   2.767   5.079 -0.9508 -2.5782 -0.6165
 7184SOL    HW233186   3.893   2.803   5.114 -2.8249  0.6485  1.8457
 7185SOL     OW33187   3.888   0.215   5.391 -0.3334 -0.4330 -0.4385
 7185SOL    HW133188   3.978   0.188   5.411 -1.1790 -3.4344 -0.7158
 7185SOL    HW233189   3.848   0.129   5.394  0.7672 -0.9713 -1.2261
 7186SOL     OW33190   1.561   4.693   2.131  0.0432 -0.1490  0.0938
 7186SOL    HW133191   1.494   4.708   2.197 -1.6024 -1.6007 -1.2673
 7186SOL    HW233192   1.624   0.022   2.152 -0.5865 -0.1089  1.8571
 7187SOL     OW33193   2.389   4.367  11.317 -0.4193  0.3760  0.5073
 7187SOL    HW133194   2.359   4.277  11.316 -2.3130  0.9649  4.0276
 7187SOL    HW233195   2.441   4.355  11.396  1.2059 -1.0789 -0.7876
 7188SOL     OW33196   0.896   2.151   6.129 -0.1573  0.1638 -0.0685
 7188SOL    HW133197   0.905   2.158   6.034 -0.0464 -0.2673 -0.0917
 7188SOL    HW233198   0.987   2.138   6.154 -0.0573 -1.5022 -1.2735
 7189SOL     OW33199   1.477   3.791   8.563 -0.3396 -0.0964 -0.2830
 7189SOL    HW133200   1.486   3.698   8.540  3.2409 -0.1721  1.5264
 7189SOL    HW233201   1.528   3.803   8.643 -1.0193 -0.0656  0.1491
 7190SOL     OW33202   3.679   3.131   1.742  0.1254 -0.0424 -0.5828
 7190SOL    HW133203   3.716   3.079   1.813 -0.3976 -0.0623 -0.3214
 7190SOL    HW233204   3.713   3.089   1.663 -2.0339 -1.0507 -0.9789
 7191SOL     OW33205   2.307   2.317  15.988 -0.3231  0.4978  0.1543
 7191SOL    HW133206   2.329   2.224  15.993  0.0806  0.6311  0.8288
 7191SOL    HW233207   2.395   2.353  15.993  0.5204 -1.5288 -0.0724
 7192SOL     OW33208   2.058   0.757   7.155 -0.0943  0.8022  0.7574
 7192SOL    HW133209   1.981   0.809   7.178  0.5296  1.4011  1.5014
 7192SOL    HW233210   2.095   0.735   7.240  0.3694  0.0865  0.3649
 7193SOL     OW33211   0.658   4.717   2.663  0.5313 -0.4147  0.6432
 7193SOL    HW133212   0.688   0.003   2.576  1.5379 -1.0728  0.7960
 7193SOL    HW233213   0.564   4.719   2.645 -0.0192 -1.3139  3.4503
 7194SOL     OW33214   4.534   0.989   3.355  0.0279 -0.0968 -0.5264
 7194SOL    HW133215   4.537   1.080   3.325  0.7314  0.1047  0.1663
 7194SOL    HW233216   4.575   1.008   3.439  1.1084  0.2746 -1.1469
 7195SOL     OW33217   3.571   2.712   5.663 -0.4127  0.2373  0.1250
 7195SOL    HW133218   3.658   2.743   5.637 -1.1447  2.2252  0.0504
 7195SOL    HW233219   3.564   2.724   5.758 -1.6380 -0.1390  0.0868
 7196SOL     OW33220   3.958   3.801  12.332  0.0826 -0.0639  0.5669
 7196SOL    HW133221   3.868   3.781  12.306  0.9565 -3.6715  0.2900
 7196SOL    HW233222   3.977   3.721  12.382  2.0330 -1.5753 -2.6635
 7197SOL     OW33223   0.230   0.617   2.729 -0.4289  0.3241 -0.3117
 7197SOL    HW133224   0.215   0.549   2.663 -1.5756  0.2894 -0.0072
 7197SOL    HW233225   0.317   0.594   2.761 -0.4051 -1.1240 -1.3870
 7198SOL     OW33226   0.508   2.182  17.275 -0.5989 -0.3925  0.0546
 7198SOL    HW133227   0.509   2.113  17.208 -0.9086 -0.0809 -0.2777
 7198SOL    HW233228   0.421   2.170  17.312 -0.4867  1.4628  0.8905
 7199SOL     OW33229   3.101   1.523   1.299 -0.4116 -0.4125 -0.5281
 7199SOL    HW133230   3.195   1.514   1.280 -0.1609  0.1922  0.4261
 7199SOL    HW233231   3.089   1.508   1.393  0.4441 -0.3758 -0.4076
 7200SOL     OW33232   4.067   1.664   2.875 -0.0679 -0.1227 -0.6133
 7200SOL    HW133233   4.066   1.649   2.780  2.8621 -1.5705 -0.4234
 7200SOL    HW233234   3.986   1.619   2.897  0.9878 -0.8777  1.7346
 7201SOL     OW33235   4.116   1.302   1.095  0.1349 -0.5178  0.3044
 7201SOL    HW133236   4.116   1.262   1.009  0.2805  1.5997 -0.6835
 7201SOL    HW233237   4.134   1.227   1.151 -0.0012  0.7520  2.0604
 7202SOL     OW33238   1.111   3.616  16.680  0.0016 -0.2514 -0.1861
 7202SOL    HW133239   1.123   3.521  16.685 -0.1327 -0.1904  1.4767
 7202SOL    HW233240   1.101   3.635  16.773 -0.7299 -2.9018  0.2735
 7203SOL     OW33241   2.212   0.611   2.189  0.0159 -0.6627 -0.4596
 7203SOL    HW133242   2.167   0.558   2.253 -0.1270  1.5773  1.3019
 7203SOL    HW233243   2.299   0.571   2.183  0.5189 -0.0600  2.8303
 7204SOL     OW33244   1.932   4.123   2.749 -0.0300 -0.1884  0.1083
 7204SOL    HW133245   1.948   4.095   2.839  1.1173 -0.6452 -0.2408
 7204SOL    HW233246   1.952   4.039   2.707 -0.3768  1.3196 -3.1376
 7205SOL     OW33247   1.524   4.154   5.550  0.3674 -0.8649 -0.2024
 7205SOL    HW133248   1.469   4.143   5.627 -0.0594  1.4757 -0.1605
 7205SOL    HW233249   1.601   4.140   5.605 -0.3002 -1.9028  0.4699
 7206SOL     OW33250   2.385   0.422  11.449 -0.0487 -0.2468  0.8708
 7206SOL    HW133251   2.472   0.394  11.477  0.1764 -0.5640 -0.1475
 7206SOL    HW233252   2.402   0.489  11.383 -1.0382 -0.9683 -0.1235
 7207SOL     OW33253   4.591   4.310   8.253  0.4925  0.5382 -0.1245
 7207SOL    HW133254   4.498   4.332   8.246  1.0514  3.3180  1.4764
 7207SOL    HW233255   4.620   4.324   8.163 -2.4035  0.1123 -1.1206
 7208SOL     OW33256   0.244   1.157   1.262 -0.0454 -0.8275  0.5807
 7208SOL    HW133257   0.270   1.159   1.170  0.1515 -4.1342  0.5528
 7208SOL    HW233258   0.155   1.190   1.266  0.4973  0.7202 -0.5255
 7209SOL     OW33259   2.249   2.128   3.639  0.5082  0.3204 -0.5301
 7209SOL    HW133260   2.325   2.070   3.645 -1.0413 -1.6673 -0.1096
 7209SOL    HW233261   2.204   2.127   3.724  1.7663  0.2941  0.1388
 7210SOL     OW33262   4.179   0.326  12.493 -0.6941 -0.3568 -0.3567
 7210SOL    HW133263   4.182   0.370  12.578 -1.1532  1.6938 -1.3989
 7210SOL    HW233264   4.109   0.366  12.441  0.1387 -0.9009 -1.8709
 7211SOL     OW33265   2.275   3.190   4.945  0.3636  0.8285  0.1164
 7211SOL    HW133266   2.363   3.208   4.976  0.8296  0.0138 -0.7554
 7211SOL    HW233267   2.284   3.095   4.944  1.1421  0.8965  0.5227
 7212SOL     OW33268   2.459   4.646  15.353  0.3904 -0.3514 -0.2703
 7212SOL    HW133269   2.380   4.682  15.314 -0.5024  1.5237  3.2787
 7212SOL    HW233270   2.419   4.609  15.431  2.1838 -2.5383 -0.3728
 7213SOL     OW33271   1.997   1.151   6.581  0.6418  0.8323  0.0595
 7213SOL    HW133272   2.011   1.099   6.659  0.2220  1.8561  0.8268
 7213SOL    HW233273   1.905   1.176   6.592  0.6838  0.9425  0.1558
 7214SOL     OW33274   1.964   1.379   0.627 -0.2397  0.3695  0.5908
 7214SOL    HW133275   1.937   1.343   0.711  1.6288 -0.2678  0.9222
 7214SOL    HW233276   1.882   1.402   0.583 -0.8316 -1.0622  0.9202
 7215SOL     OW33277   0.146   3.265  14.558  0.0269  0.3717 -0.8225
 7215SOL    HW133278   0.190   3.313  14.488  1.8215  1.8432  1.2882
 7215SOL    HW233279   0.056   3.297  14.554  0.2696  0.9010 -1.9093
 7216SOL     OW33280   3.397   1.861   2.658  0.5768  0.9025 -0.2810
 7216SOL    HW133281   3.347   1.931   2.616 -1.9082 -1.5683 -1.4666
 7216SOL    HW233282   3.390   1.876   2.752  0.6023 -2.9162  0.3454
 7217SOL     OW33283   1.079   0.937  17.168 -0.2995 -0.0448  0.3060
 7217SOL    HW133284   1.165   0.901  17.191  0.2627 -0.0253 -1.7338
 7217SOL    HW233285   1.083   0.943  17.073 -3.5029  0.3127  0.1866
 7218SOL     OW33286   3.534   3.949  12.615  0.0735 -0.5424  0.1008
 7218SOL    HW133287   3.587   3.971  12.692 -0.2169 -2.7009  0.9081
 7218SOL    HW233288   3.507   4.036  12.584 -0.8678 -0.0257  2.3678
 7219SOL     OW33289   3.451   1.274   2.308  0.4006  0.5404  0.0438
 7219SOL    HW133290   3.525   1.331   2.328  1.2645  0.1977 -2.1962
 7219SOL    HW233291   3.485   1.185   2.318 -1.5117 -0.0721  0.9542
 7220SOL     OW33292   4.006   3.543   9.324 -0.0161  0.0722  0.0105
 7220SOL    HW133293   4.044   3.540   9.412  2.1678 -1.2841 -0.9596
 7220SOL    HW233294   4.052   3.621   9.291  0.8817 -0.2614  0.4531
 7221SOL     OW33295   2.950   2.603   3.768  0.4072 -0.1858 -0.4296
 7221SOL    HW133296   3.037   2.632   3.798  1.2568 -0.7118 -2.3806
 7221SOL    HW233297   2.953   2.516   3.810  0.6751  0.5480  1.0728
 7222SOL     OW33298   0.248   3.146   5.030 -0.6050  0.5922  0.3108
 7222SOL    HW133299   0.240   3.050   5.028  0.2752  0.4718  2.1483
 7222SOL    HW233300   0.218   3.167   5.119 -1.3612 -0.7415  0.3728
 7223SOL     OW33301   0.320   0.495   0.775 -0.4101 -0.2600 -0.2270
 7223SOL    HW133302   0.353   0.450   0.698  1.8978 -0.5447  0.9378
 7223SOL    HW233303   0.243   0.445   0.804 -0.1430 -1.4525 -1.5910
 7224SOL     OW33304   3.633   0.231   8.768 -0.5962  0.4730 -0.1137
 7224SOL    HW133305   3.612   0.315   8.809 -0.8922  1.4864 -2.3686
 7224SOL    HW233306   3.700   0.248   8.702 -0.6766 -2.9285 -1.0293
 7225SOL     OW33307   3.428   0.020   6.072 -0.0887  0.0465 -0.3485
 7225SOL    HW133308   3.482   0.080   6.124 -2.3107  1.6593  0.0683
 7225SOL    HW233309   3.343   0.037   6.112  0.0435 -0.3107  0.0842
 7226SOL     OW33310   3.241   3.237  11.827  0.0356 -0.3271  0.2320
 7226SOL    HW133311   3.264   3.144  11.828  0.7432 -0.1530 -0.0271
 7226SOL    HW233312   3.301   3.264  11.758  0.6416 -2.2773  0.0026
 7227SOL     OW33313   2.811   4.254   1.840  0.1693 -0.3525 -0.3620
 7227SOL    HW133314   2.866   4.179   1.816  1.5157  0.6224 -0.3332
 7227SOL    HW233315   2.773   4.273   1.754 -1.0012  1.7008  0.6316
 7228SOL     OW33316   3.414   3.506  10.920  0.8939 -0.0394 -0.3012
 7228SOL    HW133317   3.470   3.449  10.866 -0.7809  0.4725 -2.5662
 7228SOL    HW233318   3.466   3.531  10.996  0.4639  1.9428 -0.6657
 7229SOL     OW33319   2.373   4.111  14.276  0.4754  0.3602  0.1613
 7229SOL    HW133320   2.296   4.166  14.292  0.9524  1.1033 -0.0891
 7229SOL    HW233321   2.442   4.159  14.323  0.9235 -0.6097  0.4935
 7230SOL     OW33322   3.965   4.287  12.204  0.2762  0.0997 -0.3038
 7230SOL    HW133323   3.947   4.380  12.194  1.3644  0.4069  0.5520
 7230SOL    HW233324   3.921   4.272  12.288  0.1733 -0.8452 -0.5190
 7231SOL     OW33325   0.150   2.027  14.358  0.1222  0.1889  0.8456
 7231SOL    HW133326   0.236   1.990  14.378  0.3081 -0.1410 -0.5263
 7231SOL    HW233327   0.169   2.118  14.377  0.8027  0.1242  0.4799
 7232SOL     OW33328   3.530   4.180   3.726 -0.2487  0.2068  0.6803
 7232SOL    HW133329   3.623   4.199   3.716 -0.6815  1.2386 -1.4296
 7232SOL    HW233330   3.508   4.202   3.816  1.4911  0.4108  1.0400
 7233SOL     OW33331   4.035   3.587  14.379  0.1795 -0.3909 -0.8323
 7233SOL    HW133332   3.964   3.636  14.421 -1.1165 -4.4933  1.7586
 7233SOL    HW233333   4.059   3.656  14.318 -2.8124  2.4700  1.1883
 7234SOL     OW33334   4.491   1.061   0.540  0.1026 -0.2384  0.9403
 7234SOL    HW133335   4.531   1.113   0.610  1.4239  0.7419 -0.5286
 7234SOL    HW233336   4.403   1.048   0.573  0.6488 -0.5224  2.2733
 7235SOL     OW33337   2.204   3.299   1.229 -0.3326  0.3351 -0.1438
 7235SOL    HW133338   2.246   3.343   1.155 -0.6340 -1.1143 -1.1902
 7235SOL    HW233339   2.117   3.338   1.237  0.2872  1.5384  0.7568
 7236SOL     OW33340   2.818   4.379   2.082  0.7122 -0.1527 -0.7448
 7236SOL    HW133341   2.746   4.413   2.029 -0.6922 -2.0840 -0.0765
 7236SOL    HW233342   2.848   4.301   2.036  4.2130 -0.3935  1.8836
 7237SOL     OW33343   0.989   2.391  16.959  0.4374  0.4897  0.4787
 7237SOL    HW133344   1.030   2.434  16.884 -0.2885 -1.5937 -1.0975
 7237SOL    HW233345   1.049   2.320  16.984  2.1809  2.4051  1.7665
 7238SOL     OW33346   2.001   3.473   5.759  0.6215  0.7340 -0.1237
 7238SOL    HW133347   1.917   3.500   5.721  0.9602  1.3832 -0.3944
 7238SOL    HW233348   2.003   3.379   5.739 -0.8109  0.1574  2.4512
 7239SOL     OW33349   3.233   2.854   6.353  0.0025  0.1372 -0.6748
 7239SOL    HW133350   3.314   2.844   6.303  0.5408  2.8083 -0.3276
 7239SOL    HW233351   3.235   2.775   6.406  3.7644  0.4158 -0.3826
 7240SOL     OW33352   4.452   0.012  12.628 -0.0490 -0.4853 -0.2437
 7240SOL    HW133353   4.471   0.103  12.651  0.0348 -0.6324  0.2692
 7240SOL    HW233354   4.388   4.731  12.696 -0.0278  1.5947  0.4329
 7241SOL     OW33355   0.194   2.848  15.690  0.3770 -0.6780  0.0320
 7241SOL    HW133356   0.284   2.823  15.667  0.4642  0.3106 -0.7469
 7241SOL    HW233357   0.197   2.941  15.666  0.4790 -0.1418  2.1251
 7242SOL     OW33358   0.304   2.573   2.405 -0.3220 -0.7499  0.0126
 7242SOL    HW133359   0.376   2.515   2.432  1.9336  0.7644 -2.7034
 7242SOL    HW233360   0.314   2.632   2.480 -3.1882  1.9438 -1.7332
 7243SOL     OW33361   2.022   0.468   0.775  0.4618 -0.8448 -0.1356
 7243SOL    HW133362   1.966   0.495   0.847 -0.8256 -1.4013 -0.9287
 7243SOL    HW233363   2.107   0.501   0.804  0.0605 -1.0512  1.2796
 7244SOL     OW33364   2.570   2.946   9.751 -0.0954  0.2737  0.1186
 7244SOL    HW133365   2.634   2.875   9.754  0.8084  0.9751 -2.1836
 7244SOL    HW233366   2.633   3.015   9.773  1.6702 -0.2829 -3.0965
 7245SOL     OW33367   0.348   4.344   9.160 -0.4183 -0.5942  0.1666
 7245SOL    HW133368   0.271   4.287   9.151  0.9902 -2.4583 -0.1280
 7245SOL    HW233369   0.292   4.422   9.161  0.6886  0.1942  0.6680
 7246SOL     OW33370   0.655   0.172   3.677  0.3264 -0.3240 -0.0808
 7246SOL    HW133371   0.697   0.102   3.627  1.4846  0.7301 -0.5904
 7246SOL    HW233372   0.662   0.240   3.611 -0.5162 -0.9004 -0.7576
 7247SOL     OW33373   3.754   4.317   8.688  0.2961 -0.5457 -0.5062
 7247SOL    HW133374   3.798   4.401   8.696 -0.7271 -0.2950  2.4641
 7247SOL    HW233375   3.664   4.346   8.707  0.1385 -2.1542  1.2651
 7248SOL     OW33376   2.565   4.092   7.704  0.2618 -0.3220 -0.4259
 7248SOL    HW133377   2.556   4.036   7.627 -2.3990  0.7393 -0.8843
 7248SOL    HW233378   2.626   4.156   7.666  0.6183  0.6605  1.8142
 7249SOL     OW33379   0.418   1.268   6.258 -0.6753 -0.7599 -0.1924
 7249SOL    HW133380   0.384   1.352   6.228 -0.4069  0.3755  2.7116
 7249SOL    HW233381   0.441   1.223   6.177 -0.8137 -0.9988 -0.0973
 7250SOL     OW33382   2.534   0.537   3.911 -0.4080 -0.2943  0.1858
 7250SOL    HW133383   2.564   0.625   3.937 -0.3072 -0.2066 -0.2391
 7250SOL    HW233384   2.548   0.485   3.990  0.6553 -1.0013 -0.4753
 7251SOL     OW33385   1.248   1.798   7.965  0.6615  0.1922 -0.0497
 7251SOL    HW133386   1.247   1.840   7.879  0.7977 -2.4445 -1.3326
 7251SOL    HW233387   1.181   1.729   7.966 -0.9075  1.7221  0.6873
 7252SOL     OW33388   0.416   0.239  16.187  0.3374  0.1334 -0.5002
 7252SOL    HW133389   0.347   0.251  16.253  0.2266  0.4510 -0.6730
 7252SOL    HW233390   0.434   0.146  16.203 -0.5305  0.3911  2.0338
 7253SOL     OW33391   1.732   4.092   7.162  0.9801 -0.3780 -0.0106
 7253SOL    HW133392   1.826   4.109   7.154  1.1810 -1.0401  1.0324
 7253SOL    HW233393   1.701   4.183   7.154 -3.9066 -2.0114  0.1028
 7254SOL     OW33394   2.968   0.113   7.215 -0.1760  0.4212 -0.6496
 7254SOL    HW133395   2.970   0.208   7.225 -2.0212  0.1554  2.1356
 7254SOL    HW233396   3.018   0.101   7.134 -1.8710  0.0098 -1.6442
 7255SOL     OW33397   0.361   0.901   2.482  0.5143  0.8341 -0.6303
 7255SOL    HW133398   0.312   0.932   2.558  4.2158  3.3078  0.7476
 7255SOL    HW233399   0.438   0.864   2.526  0.6570  1.9039  0.0047
 7256SOL     OW33400   2.252   1.167   7.535  0.0994 -0.0908 -0.4545
 7256SOL    HW133401   2.292   1.251   7.556  0.0474  0.2727 -1.7782
 7256SOL    HW233402   2.206   1.156   7.618 -1.1043  2.7907 -0.7161
 7257SOL     OW33403   1.589   1.418   1.134 -0.4187 -0.0738  0.4128
 7257SOL    HW133404   1.678   1.434   1.168 -1.5736  2.4950  2.2843
 7257SOL    HW233405   1.563   1.509   1.121  0.3238 -0.1751 -1.8121
 7258SOL     OW33406   1.158   2.927   0.771  0.3086  0.3446  0.0471
 7258SOL    HW133407   1.115   2.863   0.714  1.3695 -1.4709  1.2825
 7258SOL    HW233408   1.227   2.955   0.710 -0.1714  1.2527 -0.0751
 7259SOL     OW33409   2.070   1.001   0.759  0.2673 -0.0690  0.4784
 7259SOL    HW133410   2.099   0.922   0.805 -1.0915 -0.1422  1.2378
 7259SOL    HW233411   2.115   1.079   0.792  2.1048 -0.0608 -2.1308
 7260SOL     OW33412   1.871   0.876   2.676 -0.3848  0.2620 -0.0963
 7260SOL    HW133413   1.930   0.912   2.610  1.7543  0.3802  1.8872
 7260SOL    HW233414   1.932   0.826   2.730  1.3518  2.2617 -0.2222
 7261SOL     OW33415   2.111   4.681   2.018  0.5313  0.4401  0.2067
 7261SOL    HW133416   2.206   4.684   2.011  0.3189  2.0095 -1.9554
 7261SOL    HW233417   2.092   4.587   2.025 -0.4873  0.4733 -2.1295
 7262SOL     OW33418   3.706   0.628   4.360 -0.7390  0.0710  0.0636
 7262SOL    HW133419   3.615   0.629   4.388 -0.5864 -0.1430  0.5746
 7262SOL    HW233420   3.715   0.719   4.330 -1.1262 -0.4248 -1.5236
 7263SOL     OW33421   4.306   0.570   4.161  0.3897  0.0271 -0.4143
 7263SOL    HW133422   4.351   0.488   4.142 -0.2182 -1.0561  2.8169
 7263SOL    HW233423   4.234   0.535   4.213  0.9504 -1.0625 -0.3739
 7264SOL     OW33424   3.338   2.308   7.334  0.0344 -0.2357  0.0674
 7264SOL    HW133425   3.433   2.309   7.329  0.0353 -1.2359 -0.0664
 7264SOL    HW233426   3.320   2.366   7.408 -1.5845 -1.1497  0.3897
 7265SOL     OW33427   4.194   1.847  12.986  0.4111  0.5449  0.6529
 7265SOL    HW133428   4.284   1.875  12.972 -0.2221  1.1002 -2.3152
 7265SOL    HW233429   4.203   1.752  12.974 -0.6600  0.3667  1.2392
 7266SOL     OW33430   4.642   4.219   6.547 -0.0996  0.9005  0.1005
 7266SOL    HW133431   4.639   4.281   6.475 -3.1315  0.7134  0.0629
 7266SOL    HW233432   4.627   4.142   6.492  0.9174  0.9219 -0.2241
 7267SOL     OW33433   0.932   0.714   4.523  0.4956 -0.1388  0.3807
 7267SOL    HW133434   1.026   0.695   4.520  0.9418  2.0587  0.2399
 7267SOL    HW233435   0.923   0.806   4.548 -3.8929 -0.7646  1.2108
 7268SOL     OW33436   1.811   2.702  17.612  0.0312  0.6236  0.3758
 7268SOL    HW133437   1.854   2.633  17.560  0.9675  1.1842  0.4026
 7268SOL    HW233438   1.856   2.710  17.696  0.4254 -0.6105  0.2941
 7269SOL     OW33439   1.768   2.355   8.467 -1.0570 -0.1099  0.4462
 7269SOL    HW133440   1.688   2.303   8.472 -1.3561  0.2671 -0.2937
 7269SOL    HW233441   1.824   2.293   8.420 -0.2927 -1.6056  3.3687
 7270SOL     OW33442   1.444   1.447   7.306 -0.3951  0.2099 -0.8237
 7270SOL    HW133443   1.370   1.398   7.343  2.2888 -1.5068  2.2346
 7270SOL    HW233444   1.408   1.523   7.260  0.3360  2.3180  2.0865
 7271SOL     OW33445   0.736   3.145   4.718 -0.2784  0.5798  0.0851
 7271SOL    HW133446   0.780   3.221   4.679  0.8964 -1.4961 -2.6507
 7271SOL    HW233447   0.658   3.150   4.663 -1.2694  1.9340  1.6214
 7272SOL     OW33448   3.249   1.820   2.239  0.5118 -0.4675 -0.0104
 7272SOL    HW133449   3.249   1.914   2.254 -1.7684 -0.0198 -2.7104
 7272SOL    HW233450   3.327   1.788   2.286  1.2906 -0.2215 -1.1302
 7273SOL     OW33451   0.856   0.371  10.359 -0.4052  0.1349  0.0959
 7273SOL    HW133452   0.768   0.338  10.382 -0.7051  0.8798  0.0072
 7273SOL    HW233453   0.906   0.290  10.369  0.0107  0.0817 -2.4215
 7274SOL     OW33454   3.856   0.312   0.255  0.2748  0.2288 -0.1405
 7274SOL    HW133455   3.837   0.324   0.162  1.8679 -3.7123 -0.9843
 7274SOL    HW233456   3.773   0.320   0.303 -0.2783 -1.6291 -0.7854
 7275SOL     OW33457   1.613   4.659  10.056 -0.3220  0.3324 -0.0988
 7275SOL    HW133458   1.606   4.678  10.149 -0.8659  1.2499 -0.3299
 7275SOL    HW233459   1.522   4.659  10.027 -0.3181  1.0506 -0.1056
 7276SOL     OW33460   1.042   0.424   7.859 -0.4682 -0.0191  0.1397
 7276SOL    HW133461   1.066   0.500   7.805 -1.8253 -1.2560 -2.1919
 7276SOL    HW233462   1.107   0.356   7.843 -1.3520 -0.8145 -0.0979
 7277SOL     OW33463   0.767   2.938   4.376 -0.2109  0.3379  0.5443
 7277SOL    HW133464   0.746   2.871   4.311  1.1454  0.4651 -0.0213
 7277SOL    HW233465   0.713   3.009   4.342  1.1398  1.5926  0.9968
 7278SOL     OW33466   1.257   0.942   6.868  0.1101  0.4841  0.1186
 7278SOL    HW133467   1.231   0.859   6.829 -2.2973  1.4106 -0.2545
 7278SOL    HW233468   1.276   0.919   6.959 -1.0901 -2.1429 -0.3112
 7279SOL     OW33469   0.005   0.739   8.355  0.4239  0.8344  0.0489
 7279SOL    HW133470   4.652   0.745   8.375 -0.5515 -2.8701 -3.2777
 7279SOL    HW233471   0.005   0.644   8.339  0.7381  0.3803  2.8060
 7280SOL     OW33472   4.169   1.715  10.016 -0.5076  0.0371 -0.6560
 7280SOL    HW133473   4.074   1.716  10.005 -0.7068 -3.8481  0.6969
 7280SOL    HW233474   4.184   1.805  10.043 -0.7221 -0.5590  1.4249
 7281SOL     OW33475   1.244   2.550   8.004 -0.0487  0.3038  0.3576
 7281SOL    HW133476   1.266   2.470   8.051 -0.2365 -0.5780 -1.0595
 7281SOL    HW233477   1.281   2.620   8.058  1.5471  0.0825 -0.4549
 7282SOL     OW33478   3.785   0.807   3.316  0.0813  0.7803  0.1256
 7282SOL    HW133479   3.737   0.860   3.253 -0.2194 -1.4723 -1.5147
 7282SOL    HW233480   3.874   0.839   3.304  0.2022  0.4502  0.1382
 7283SOL     OW33481   3.858   2.921   6.276  0.5218  0.1159 -0.0260
 7283SOL    HW133482   3.928   2.904   6.214  2.3059 -0.7784  2.2518
 7283SOL    HW233483   3.796   2.850   6.259  0.0368  0.4721  0.2202
 7284SOL     OW33484   0.759   0.471   4.540 -0.0907 -0.1445 -0.3573
 7284SOL    HW133485   0.822   0.539   4.566  1.5524 -1.5818 -0.6386
 7284SOL    HW233486   0.806   0.435   4.465 -0.4763 -1.3339 -0.0268
 7285SOL     OW33487   4.176   3.953   5.170 -0.3420  0.2012  0.9068
 7285SOL    HW133488   4.266   3.936   5.142 -0.3320 -0.0704  1.1002
 7285SOL    HW233489   4.146   4.024   5.115  1.4447  1.0629  1.0493
 7286SOL     OW33490   0.146   2.295   5.278 -0.0730  0.5295 -0.8026
 7286SOL    HW133491   0.212   2.308   5.346 -1.5722 -2.0304  1.1259
 7286SOL    HW233492   0.075   2.326   5.333 -0.2779 -0.6926 -0.3806
 7287SOL     OW33493   2.791   4.484   4.644 -0.5703 -0.0655  0.2329
 7287SOL    HW133494   2.802   4.417   4.711  3.8886  1.8541  1.4025
 7287SOL    HW233495   2.761   4.559   4.695 -1.4360 -1.6104  1.9874
 7288SOL     OW33496   3.649   4.175   0.302  0.1564  0.2045  0.1311
 7288SOL    HW133497   3.700   4.094   0.305  0.0723  0.0627 -1.8362
 7288SOL    HW233498   3.712   4.244   0.284  0.4082  0.2242  1.0832
 7289SOL     OW33499   1.951   2.144   2.318 -0.3612 -0.3227 -0.0972
 7289SOL    HW133500   1.904   2.212   2.270  1.1277  0.7208 -0.0767
 7289SOL    HW233501   2.025   2.194   2.354 -0.8249 -0.6298  1.2998
 7290SOL     OW33502   1.169   3.580  16.955  0.9427 -0.7998  0.0244
 7290SOL    HW133503   1.262   3.601  16.948  0.8998 -1.0963 -1.5085
 7290SOL    HW233504   1.180   3.485  16.951  0.9610 -0.8019  0.1278
 7291SOL     OW33505   2.945   0.547   8.123  0.0913 -0.5935 -0.4243
 7291SOL    HW133506   3.008   0.596   8.175 -0.2746 -1.2164  0.5967
 7291SOL    HW233507   3.006   0.493   8.073  1.7172 -0.4542  1.4300
 7292SOL     OW33508   1.642   3.208   6.365 -0.2449 -0.0253  0.9877
 7292SOL    HW133509   1.560   3.201   6.317  2.2664  0.0335 -3.3430
 7292SOL    HW233510   1.692   3.142   6.318 -1.3527  0.1424 -0.4185
 7293SOL     OW33511   2.139   0.296   4.343 -1.0854 -0.4362 -0.3114
 7293SOL    HW133512   2.183   0.345   4.412  1.1664 -3.4043  0.3902
 7293SOL    HW233513   2.093   0.372   4.307 -1.0564 -0.3161 -0.0933
 7294SOL     OW33514   4.323   3.880   8.093 -0.1728 -0.1154  0.1450
 7294SOL    HW133515   4.354   3.970   8.083 -0.3103  0.1144  1.7976
 7294SOL    HW233516   4.335   3.842   8.006 -0.2712  0.8001 -0.2710
 7295SOL     OW33517   4.643   0.675   4.092  0.0615 -0.5028 -0.0597
 7295SOL    HW133518   4.649   0.581   4.075  0.7268 -0.0784 -2.2223
 7295SOL    HW233519   4.732   0.706   4.104 -0.3451  0.5037  0.3223
 7296SOL     OW33520   0.542   2.500   9.165 -0.2895  0.6506 -0.2671
 7296SOL    HW133521   0.545   2.407   9.188  0.5790  0.5906 -0.6358
 7296SOL    HW233522   0.483   2.527   9.235  3.2233  2.0373  2.1333
 7297SOL     OW33523   0.979   1.280  10.358 -0.3832  0.2171 -0.0772
 7297SOL    HW133524   1.031   1.359  10.347 -1.4279  0.9562  0.2652
 7297SOL    HW233525   0.959   1.269  10.265 -1.3590 -1.2151  0.2952
 7298SOL     OW33526   1.986   2.522   3.966  0.0012  0.1224 -0.0691
 7298SOL    HW133527   1.966   2.544   3.875 -1.6700  1.0577  0.5155
 7298SOL    HW233528   1.924   2.450   3.974  0.6064 -0.5568 -1.4900
 7299SOL     OW33529   0.061   0.296   7.957 -0.2241 -0.4083 -0.4755
 7299SOL    HW133530   0.109   0.300   8.040 -0.1248  1.6130 -0.6269
 7299SOL    HW233531   0.016   0.214   7.976 -2.0988  0.6442 -0.3362
 7300SOL     OW33532   3.449   4.407  16.589  0.0346 -0.3918 -0.6151
 7300SOL    HW133533   3.424   4.317  16.611 -1.7236  0.3756  0.5139
 7300SOL    HW233534   3.473   4.452  16.670  0.9429  0.3347 -1.2733
 7301SOL     OW33535   2.755   2.659   5.406  0.4234  0.0201  0.2296
 7301SOL    HW133536   2.692   2.687   5.339  1.0388  0.6574 -0.0849
 7301SOL    HW233537   2.824   2.720   5.381  0.3070 -0.3034 -0.9205
 7302SOL     OW33538   4.089   1.673   3.656  0.0545  0.2250 -0.2459
 7302SOL    HW133539   4.043   1.696   3.737  0.8563 -0.9319  0.5355
 7302SOL    HW233540   4.135   1.593   3.679 -2.5870 -1.3139 -0.3214
 7303SOL     OW33541   0.037   3.066   9.790  0.1497  0.3991  0.6739
 7303SOL    HW133542   4.698   3.019   9.765 -0.3980  1.6345  0.0976
 7303SOL    HW233543   0.036   3.137   9.726  0.5863  0.0385  0.2617
 7304SOL     OW33544   1.737   2.939   5.185  0.0224  0.1466  0.1234
 7304SOL    HW133545   1.744   3.031   5.156 -1.9955 -0.3579 -1.9354
 7304SOL    HW233546   1.829   2.925   5.210 -0.1364  1.1546  1.2678
 7305SOL     OW33547   2.013   3.485   1.314 -0.4186 -0.1588  0.1269
 7305SOL    HW133548   1.986   3.564   1.267 -1.5323  0.2374  1.4494
 7305SOL    HW233549   1.927   3.454   1.342 -0.3675 -0.8048 -0.4322
 7306SOL     OW33550   3.613   3.450   7.198 -0.6698 -0.1516 -0.2441
 7306SOL    HW133551   3.581   3.538   7.179 -0.7505  0.0808  0.9309
 7306SOL    HW233552   3.708   3.456   7.185 -0.5286 -0.4216  0.6393
 7307SOL     OW33553   0.399   0.406   9.889  0.1578 -0.0687  0.1562
 7307SOL    HW133554   0.409   0.372   9.800 -1.8938  0.8269 -0.4165
 7307SOL    HW233555   0.425   0.497   9.881 -0.7292  0.3076  1.6333
 7308SOL     OW33556   0.283   1.580   6.706 -0.3191  0.7384  0.6034
 7308SOL    HW133557   0.357   1.578   6.646  1.2716  1.0472  2.5683
 7308SOL    HW233558   0.317   1.631   6.780  0.2073  0.7165  0.3780
 7309SOL     OW33559   3.503   0.986  14.536  0.5607 -0.1234 -0.5213
 7309SOL    HW133560   3.571   1.030  14.588  0.6386 -0.3668 -0.4207
 7309SOL    HW233561   3.450   0.945  14.605 -0.3030  0.9416 -0.5373
 7310SOL     OW33562   2.979   3.823   5.971  0.2464  0.4518  0.1043
 7310SOL    HW133563   3.051   3.883   5.990 -1.0123  1.5110  1.4923
 7310SOL    HW233564   3.003   3.755   6.033  3.3451  0.1121 -1.4861
 7311SOL     OW33565   4.603   0.784  16.028  0.3719 -0.6226 -0.2231
 7311SOL    HW133566   4.638   0.699  16.052  2.3728 -0.0479 -1.1572
 7311SOL    HW233567   4.660   0.815  15.958 -1.7864  0.9821 -1.2819
 7312SOL     OW33568   3.943   2.547   8.456 -0.3483  0.1291 -0.4028
 7312SOL    HW133569   3.945   2.533   8.550 -0.7663 -0.0110 -0.4141
 7312SOL    HW233570   3.906   2.462   8.430  1.6635 -0.3470 -1.7428
 7313SOL     OW33571   2.408   4.736   2.490 -0.1707  0.1702 -0.1191
 7313SOL    HW133572   2.319   0.025   2.509 -1.1041 -2.2259 -0.8337
 7313SOL    HW233573   2.397   4.641   2.486  1.2892 -0.0489  0.7982
 7314SOL     OW33574   2.538   3.396   2.355  0.1264 -0.2308 -0.1538
 7314SOL    HW133575   2.489   3.466   2.312  2.3667  1.4502 -0.0153
 7314SOL    HW233576   2.454   3.363   2.387  0.5610  0.8870  2.1559
 7315SOL     OW33577   3.844   1.532   7.749  0.2432 -0.1656 -0.6894
 7315SOL    HW133578   3.769   1.483   7.715  1.2317 -2.2003  0.0852
 7315SOL    HW233579   3.916   1.503   7.693  1.0254  1.5602 -0.5681
 7316SOL     OW33580   1.585   2.517  14.985 -0.2972  0.2284  0.4270
 7316SOL    HW133581   1.514   2.523  14.921  1.4063 -0.2234 -1.5361
 7316SOL    HW233582   1.537   2.525  15.067 -2.2918 -2.9501 -0.4662
 7317SOL     OW33583   0.188   1.889   5.195 -0.8199 -0.2468 -0.1376
 7317SOL    HW133584   0.231   1.967   5.161 -1.8462  0.6586  0.6705
 7317SOL    HW233585   0.097   1.908   5.219 -1.5862 -3.1201 -0.7431
 7318SOL     OW33586   2.131   3.179   2.282  0.2165 -0.3689 -0.0088
 7318SOL    HW133587   2.047   3.214   2.310  1.2020 -1.1463  4.0085
 7318SOL    HW233588   2.195   3.209   2.347  1.5470 -0.7325 -1.1673
 7319SOL     OW33589   4.239   1.004  11.312 -0.4210 -0.3838 -0.2632
 7319SOL    HW133590   4.250   0.915  11.345  1.8727  0.3400  0.9792
 7319SOL    HW233591   4.160   0.988  11.261 -1.4846  3.3300  0.2162
 7320SOL     OW33592   0.597   3.962   2.505  0.6447 -0.2034 -0.1408
 7320SOL    HW133593   0.529   3.901   2.531 -2.1948  2.0439 -2.2683
 7320SOL    HW233594   0.557   4.038   2.462  2.1197 -1.3917 -3.6757
 7321SOL     OW33595   0.341   1.726   2.800 -0.1125  0.9434  0.1128
 7321SOL    HW133596   0.387   1.670   2.737  0.1872  1.0121  0.2738
 7321SOL    HW233597   0.407   1.794   2.815  0.3613 -0.0605  2.5526
 7322SOL     OW33598   3.167   4.379   9.867  0.0569  0.4177 -0.4244
 7322SOL    HW133599   3.206   4.294   9.889 -0.4599 -0.1706 -1.7604
 7322SOL    HW233600   3.083   4.371   9.911 -0.4326  2.1177 -1.0425
 7323SOL     OW33601   1.288   0.263   6.314 -0.2909  0.0599  0.3624
 7323SOL    HW133602   1.299   0.290   6.406  2.0595  1.6970 -0.3873
 7323SOL    HW233603   1.247   0.177   6.315  1.1741 -0.6374  0.7364
 7324SOL     OW33604   1.689   0.219   8.146 -0.2955 -0.1647 -0.2030
 7324SOL    HW133605   1.760   0.265   8.102 -1.0045  3.1778  2.1518
 7324SOL    HW233606   1.723   0.130   8.159 -0.3447  0.1923  2.3410
 7325SOL     OW33607   2.614   3.137   7.439 -0.8019 -0.6706 -0.9450
 7325SOL    HW133608   2.562   3.095   7.507 -2.1138  0.4822 -1.2569
 7325SOL    HW233609   2.680   3.180   7.493 -0.2481 -1.4282 -1.0115
 7326SOL     OW33610   0.045   2.258   7.072  0.3492  0.1613 -0.4629
 7326SOL    HW133611   0.114   2.324   7.072  0.4969  0.0097  1.6386
 7326SOL    HW233612   0.085   2.178   7.106 -3.3869 -1.6028 -0.2525
 7327SOL     OW33613   0.754   1.906   6.847  0.0474 -0.5565 -0.0953
 7327SOL    HW133614   0.708   1.975   6.799  0.2192  1.3775  2.4715
 7327SOL    HW233615   0.736   1.823   6.804  0.2978 -0.3412 -0.6167
 7328SOL     OW33616   3.778   3.924   4.795 -0.2020  0.2980 -0.1892
 7328SOL    HW133617   3.731   3.848   4.760 -1.0338  0.9982 -0.5820
 7328SOL    HW233618   3.818   3.888   4.874 -2.1551 -1.1428  0.1337
 7329SOL     OW33619   1.455   1.954  10.531 -0.0026 -0.0961  0.6597
 7329SOL    HW133620   1.373   1.960  10.482 -0.0400  0.5179  0.7895
 7329SOL    HW233621   1.468   1.860  10.527  1.4966  0.1543 -0.3928
 7330SOL     OW33622   4.480   3.973  16.203  0.0142 -0.0437  0.5726
 7330SOL    HW133623   4.556   3.953  16.258  0.2080  0.5006  0.4956
 7330SOL    HW233624   4.425   3.904  16.240  0.8455 -1.2816 -0.4819
 7331SOL     OW33625   3.910   4.425  17.667  0.2487  0.1958 -0.3288
 7331SOL    HW133626   3.878   4.515  17.658  0.0553  0.2920  1.2801
 7331SOL    HW233627   3.867   4.381  17.595  1.7178 -0.5500 -0.7409
 7332SOL     OW33628   1.562   1.733   8.845  0.0518  0.3056 -0.3305
 7332SOL    HW133629   1.548   1.828   8.849  0.0728  0.2559  0.9673
 7332SOL    HW233630   1.658   1.729   8.844  0.1105  1.7003 -1.0331
 7333SOL     OW33631   3.441   3.735  16.196 -0.3426 -0.1110  0.3262
 7333SOL    HW133632   3.519   3.718  16.250 -0.8663  1.0321  1.4362
 7333SOL    HW233633   3.393   3.785  16.262 -0.7369 -0.4154  0.2662
 7334SOL     OW33634   4.479   4.359   0.240 -0.1361 -0.2873  0.2941
 7334SOL    HW133635   4.440   4.366   0.327  1.1984  2.5790  0.6927
 7334SOL    HW233636   4.406   4.334   0.183 -1.2397  1.4944  0.9126
 7335SOL     OW33637   0.697   3.706   4.371  0.1727  0.3230 -0.8459
 7335SOL    HW133638   0.784   3.668   4.359  0.1408  0.6224 -2.0340
 7335SOL    HW233639   0.728   3.788   4.409 -0.2997 -0.1670  0.6188
 7336SOL     OW33640   0.429   4.454   7.649  0.0403 -0.7735 -0.0485
 7336SOL    HW133641   0.431   4.434   7.556 -0.1110  0.8354 -0.3944
 7336SOL    HW233642   0.456   4.375   7.696  0.5952 -0.0664  0.8167
 7337SOL     OW33643   4.538   2.954  16.758 -0.4174 -0.1720 -0.2026
 7337SOL    HW133644   4.511   2.879  16.704  4.3619 -1.9701 -0.0969
 7337SOL    HW233645   4.550   2.903  16.838 -1.7837 -0.5424 -0.2226
 7338SOL     OW33646   1.837   2.279   2.626 -0.1015 -0.1721  0.3963
 7338SOL    HW133647   1.778   2.221   2.578  2.6456 -0.3945 -2.6994
 7338SOL    HW233648   1.775   2.351   2.639 -0.5013 -0.4790  0.1709
 7339SOL     OW33649   3.905   3.757   5.908  0.8449 -0.1663 -0.1263
 7339SOL    HW133650   3.928   3.680   5.960  1.7066  1.2373  1.5944
 7339SOL    HW233651   3.876   3.814   5.980  0.1782 -0.7761  0.0821
 7340SOL     OW33652   1.631   2.938  16.810 -0.0447  0.1290  0.2508
 7340SOL    HW133653   1.565   2.870  16.798  1.3027 -1.1454  0.0850
 7340SOL    HW233654   1.587   3.001  16.868 -1.0704  0.1407 -0.5510
 7341SOL     OW33655   3.521   4.473   8.547 -0.0209  0.6766 -0.6014
 7341SOL    HW133656   3.468   4.548   8.522 -2.8270 -1.1314 -0.1365
 7341SOL    HW233657   3.560   4.455   8.462 -1.4701 -0.4295 -1.0312
 7342SOL     OW33658   0.124   3.971   8.449 -0.1394 -0.0156  0.3899
 7342SOL    HW133659   0.054   4.018   8.403 -0.1213 -1.5945 -1.2481
 7342SOL    HW233660   0.082   3.916   8.515 -0.1627 -0.1341  0.2766
 7343SOL     OW33661   4.363   1.290   6.683 -0.2431  0.4033 -0.0553
 7343SOL    HW133662   4.451   1.278   6.649  0.1265 -0.3982  1.1907
 7343SOL    HW233663   4.393   1.308   6.772 -1.1175  2.2734 -0.1501
 7344SOL     OW33664   1.373   3.212   4.064  0.2373 -0.7910 -0.1811
 7344SOL    HW133665   1.293   3.178   4.102  1.0113  0.8311  2.8782
 7344SOL    HW233666   1.375   3.296   4.110 -0.1634 -1.0380  0.2845
 7345SOL     OW33667   1.582   3.327   4.524  0.4533  0.4655  0.0715
 7345SOL    HW133668   1.499   3.365   4.555  0.4692  1.2254 -0.8156
 7345SOL    HW233669   1.551   3.241   4.496  1.8691  0.9478 -2.9521
 7346SOL     OW33670   2.630   1.384   9.375 -0.1485  0.6621 -0.0797
 7346SOL    HW133671   2.542   1.419   9.387 -0.4580 -0.3127  0.4975
 7346SOL    HW233672   2.627   1.335   9.293 -2.6166 -1.7706  1.4691
 7347SOL     OW33673   1.125   0.683   3.637 -0.7937 -0.0337  0.8078
 7347SOL    HW133674   1.148   0.759   3.583 -0.8594 -1.1621 -0.7997
 7347SOL    HW233675   1.182   0.618   3.596 -0.1296  0.3212  1.1777
 7348SOL     OW33676   3.394   2.942   1.258 -0.3585 -0.1852 -0.1188
 7348SOL    HW133677   3.429   2.993   1.184  2.6664 -0.9844  0.7676
 7348SOL    HW233678   3.477   2.904   1.286 -0.9890 -0.0717  1.8581
 7349SOL     OW33679   1.380   2.185   9.064 -0.2953  0.2343 -0.9688
 7349SOL    HW133680   1.407   2.223   9.147 -0.2187 -1.3191 -0.2886
 7349SOL    HW233681   1.313   2.122   9.090 -0.9675  0.2960 -2.5403
 7350SOL     OW33682   4.332   0.055   8.035  0.3638  0.3749  0.5335
 7350SOL    HW133683   4.319   0.033   8.128 -2.8073  2.2642  0.5023
 7350SOL    HW233684   4.299   0.144   8.026  1.4160  0.5128 -1.9209
 7351SOL     OW33685   3.787   1.867   8.273 -0.1486 -0.3544 -0.7376
 7351SOL    HW133686   3.866   1.901   8.315  0.1495 -0.9864 -0.8015
 7351SOL    HW233687   3.825   1.866   8.185  2.1995  3.1230  0.2231
 7352SOL     OW33688   1.922   2.124   3.713 -0.7766  0.4682  0.5005
 7352SOL    HW133689   1.902   2.035   3.744  0.6179 -0.7775 -2.1890
 7352SOL    HW233690   1.956   2.171   3.789 -2.5469  1.7923  0.4614
 7353SOL     OW33691   0.853   2.491   5.043 -0.5114  0.1548 -0.8724
 7353SOL    HW133692   0.934   2.441   5.031  1.0335  2.2011  0.9727
 7353SOL    HW233693   0.818   2.495   4.954 -3.2452  2.2790  0.2903
 7354SOL     OW33694   0.168   2.469   3.164  0.7251 -0.3877 -0.2431
 7354SOL    HW133695   0.084   2.514   3.156  0.7448 -0.5395 -1.2589
 7354SOL    HW233696   0.142   2.379   3.142  0.9591  0.3285 -3.4679
 7355SOL     OW33697   3.217   2.623   6.534 -0.2917  0.4494  0.5219
 7355SOL    HW133698   3.263   2.600   6.615 -0.4272  1.2515  0.8298
 7355SOL    HW233699   3.139   2.664   6.570 -0.1161 -0.3059  1.7337
 7356SOL     OW33700   4.205   0.681  13.898  0.1230 -0.1865 -0.2734
 7356SOL    HW133701   4.249   0.765  13.913  1.4169 -0.9427  0.2255
 7356SOL    HW233702   4.261   0.643  13.831  0.8540 -1.1102  0.8447
 7357SOL     OW33703   2.688   3.227   2.206  0.4116 -0.7696 -0.1833
 7357SOL    HW133704   2.614   3.183   2.164  0.8474 -2.2839  0.6430
 7357SOL    HW233705   2.640   3.296   2.251  1.7208 -0.3607  0.5796
 7358SOL     OW33706   1.238   2.397   3.943  0.5795 -0.9092  0.0906
 7358SOL    HW133707   1.253   2.309   3.910  0.8026 -1.2676  1.1373
 7358SOL    HW233708   1.255   2.443   3.861  1.1641 -0.5395  0.4197
 7359SOL     OW33709   2.475   2.627   5.824 -0.0151 -0.6923 -0.1695
 7359SOL    HW133710   2.452   2.703   5.771 -1.1767 -0.3127  0.8650
 7359SOL    HW233711   2.565   2.647   5.850  0.3226 -2.4088 -0.0437
 7360SOL     OW33712   2.329   1.343   8.658  1.0478  0.2149 -0.9203
 7360SOL    HW133713   2.377   1.362   8.738  2.8454 -2.2521 -1.4441
 7360SOL    HW233714   2.317   1.428   8.616 -1.5937  0.5938  0.5697
 7361SOL     OW33715   2.172   4.481   4.182  0.2665  0.3164  0.0593
 7361SOL    HW133716   2.255   4.490   4.134 -0.0846  0.9985 -0.4195
 7361SOL    HW233717   2.109   4.490   4.110 -0.4973  0.2075  0.7255
 7362SOL     OW33718   2.161   0.958  13.783  0.4040  0.1418  0.1326
 7362SOL    HW133719   2.081   0.914  13.753  0.8098 -0.3849 -0.1582
 7362SOL    HW233720   2.235   0.901  13.762  0.1204  1.0813 -3.4668
 7363SOL     OW33721   0.693   2.195   1.780 -0.7185  0.0589 -0.2130
 7363SOL    HW133722   0.709   2.122   1.720 -1.2068 -0.5344  0.3855
 7363SOL    HW233723   0.608   2.229   1.754 -1.5724 -1.4713  0.6111
 7364SOL     OW33724   1.291   4.295   7.911 -0.1917 -0.0135  0.0776
 7364SOL    HW133725   1.344   4.286   7.990  0.0522  0.1020 -0.0729
 7364SOL    HW233726   1.237   4.217   7.910 -1.4255  0.8628 -2.2191
 7365SOL     OW33727   0.570   3.179   1.529 -0.2392 -0.2195  0.1170
 7365SOL    HW133728   0.583   3.269   1.497  0.3225 -0.5539 -0.5843
 7365SOL    HW233729   0.646   3.140   1.488  1.6496  2.3353  1.1453
 7366SOL     OW33730   4.580   3.779   7.699  0.3349  0.1356 -0.0482
 7366SOL    HW133731   4.614   3.700   7.741  2.8324  0.4469 -1.4884
 7366SOL    HW233732   4.650   3.844   7.701  0.8875 -0.4389 -0.8498
 7367SOL     OW33733   4.387   4.172  11.116  0.4793  0.0113  0.5460
 7367SOL    HW133734   4.470   4.195  11.075  0.6047 -1.8876 -0.2553
 7367SOL    HW233735   4.352   4.261  11.116  1.0185  0.2220  0.3260
 7368SOL     OW33736   4.476   2.198  14.506  0.6489 -0.0659 -0.4909
 7368SOL    HW133737   4.513   2.286  14.509 -0.0346  0.2234 -0.7422
 7368SOL    HW233738   4.516   2.151  14.579  0.2131 -1.3478 -1.0691
 7369SOL     OW33739   1.580   2.245   1.786 -0.0899 -0.5443  1.0704
 7369SOL    HW133740   1.626   2.252   1.702  0.0722 -1.0837  1.1202
 7369SOL    HW233741   1.622   2.170   1.827  0.5463 -1.0761 -0.5541
 7370SOL     OW33742   1.439   1.870   4.597 -0.2543  0.1349 -0.3244
 7370SOL    HW133743   1.346   1.892   4.591 -0.6596 -2.2522 -2.7051
 7370SOL    HW233744   1.485   1.921   4.530 -2.1362  0.5350 -1.3096
 7371SOL     OW33745   2.906   2.049   5.518 -0.1926 -0.0532  0.0271
 7371SOL    HW133746   2.866   2.112   5.577 -0.2630 -1.2903  1.2895
 7371SOL    HW233747   2.990   2.091   5.498  0.1604 -1.9070 -2.3911
 7372SOL     OW33748   4.304   0.657   1.389  0.6341 -0.8316  0.1408
 7372SOL    HW133749   4.298   0.632   1.481 -2.3398 -0.6069 -0.0072
 7372SOL    HW233750   4.302   0.572   1.345 -1.4364 -1.0060  0.5870
 7373SOL     OW33751   1.145   0.018   6.272 -0.3421  0.1322  0.2247
 7373SOL    HW133752   1.051   0.010   6.291 -0.3930 -0.5472 -0.2839
 7373SOL    HW233753   1.148   4.740   6.178  0.6231 -0.1463  0.3093
 7374SOL     OW33754   2.792   0.110   0.807  0.0584 -0.3749 -0.5551
 7374SOL    HW133755   2.715   0.131   0.755  0.1213  2.5603  0.5701
 7374SOL    HW233756   2.861   0.164   0.768  2.1042 -1.5841  1.3490
 7375SOL     OW33757   4.621   1.270   4.299 -0.2622  0.1329  0.1715
 7375SOL    HW133758   4.667   1.251   4.381 -0.6075  1.1228  0.5972
 7375SOL    HW233759   4.687   1.254   4.232  1.1983  1.7953  1.2136
 7376SOL     OW33760   2.323   0.966   6.733 -0.2315  0.2442 -0.2319
 7376SOL    HW133761   2.370   1.049   6.738 -1.8813  1.0723  1.3941
 7376SOL    HW233762   2.285   0.968   6.821  2.3011  2.6275  0.8070
 7377SOL     OW33763   2.707   0.276   3.077 -0.3672  0.3391  0.2662
 7377SOL    HW133764   2.636   0.222   3.041  2.3524 -2.5061 -0.8479
 7377SOL    HW233765   2.733   0.328   3.002  1.0127 -1.0967 -0.2595
 7378SOL     OW33766   1.290   3.568  16.382  0.1373  0.2606  0.3320
 7378SOL    HW133767   1.369   3.514  16.376  0.2763  0.5643 -0.4652
 7378SOL    HW233768   1.216   3.510  16.360 -1.5056  1.7945  1.7930
 7379SOL     OW33769   1.998   0.607   3.806 -0.0683 -0.7044 -0.5255
 7379SOL    HW133770   1.988   0.695   3.768 -0.6436 -1.4459 -2.0957
 7379SOL    HW233771   2.076   0.581   3.757 -1.0613 -0.1628 -2.4213
 7380SOL     OW33772   2.629   1.459  17.109  0.0227 -0.1908 -0.2451
 7380SOL    HW133773   2.569   1.407  17.056 -0.9096  1.3691 -0.7034
 7380SOL    HW233774   2.663   1.395  17.171 -0.4286  1.5950  1.8165
 7381SOL     OW33775   1.808   2.320   3.973 -0.2267  0.1045 -0.0104
 7381SOL    HW133776   1.724   2.325   3.928 -0.0320 -0.3439 -0.4272
 7381SOL    HW233777   1.793   2.231   4.006  0.5424 -1.0179 -2.6913
 7382SOL     OW33778   3.674   4.228  17.125 -0.4354  0.1846 -0.2630
 7382SOL    HW133779   3.720   4.311  17.138 -2.5179  1.4427 -0.9946
 7382SOL    HW233780   3.582   4.251  17.138 -0.7799 -1.5966  0.4377
 7383SOL     OW33781   4.016   0.533   8.761 -0.3146 -0.5911 -0.1854
 7383SOL    HW133782   4.051   0.619   8.738 -1.6536 -0.3092 -1.1428
 7383SOL    HW233783   4.049   0.474   8.693 -0.2851  0.2811 -0.9270
 7384SOL     OW33784   2.019   4.150   6.605  0.4252  0.2547  0.1740
 7384SOL    HW133785   2.107   4.188   6.596  0.8854 -1.0300 -0.7971
 7384SOL    HW233786   1.996   4.177   6.694 -2.4592 -1.1762 -0.1683
 7385SOL     OW33787   1.944   0.560   5.096 -0.6283 -0.2105  0.5313
 7385SOL    HW133788   1.912   0.496   5.033 -2.8647 -0.7992  2.2463
 7385SOL    HW233789   2.014   0.508   5.136 -0.6910  0.4106  1.4607
 7386SOL     OW33790   3.534   4.149  14.348 -0.0822 -0.1987 -0.1478
 7386SOL    HW133791   3.586   4.203  14.408 -0.8693  0.1026  0.2639
 7386SOL    HW233792   3.591   4.134  14.273 -1.2129  0.9588 -1.2487
 7387SOL     OW33793   3.373   0.582   1.216  0.0477  0.2938 -0.7701
 7387SOL    HW133794   3.345   0.548   1.301 -1.6083  2.2828 -0.5344
 7387SOL    HW233795   3.299   0.641   1.200 -0.5062 -0.2140 -0.0897
 7388SOL     OW33796   1.553   1.413  15.501  0.1472  0.0286 -0.2174
 7388SOL    HW133797   1.587   1.452  15.582 -0.0191 -1.4061  0.5538
 7388SOL    HW233798   1.540   1.488  15.444  0.5154  1.0394  1.0283
 7389SOL     OW33799   2.383   4.700   9.080  0.1866 -0.1082 -0.1119
 7389SOL    HW133800   2.400   0.045   9.122  0.7717 -0.3617  0.1775
 7389SOL    HW233801   2.337   4.740   9.006  0.3436 -0.1161 -0.2144
 7390SOL     OW33802   2.424   2.036  12.324  0.0389  0.0939  0.1141
 7390SOL    HW133803   2.359   2.030  12.394  1.0336 -2.2884  0.8206
 7390SOL    HW233804   2.434   1.947  12.291 -0.1017 -0.4417  1.4831
 7391SOL     OW33805   2.282   1.825   4.651 -0.3137  0.5639  0.6536
 7391SOL    HW133806   2.364   1.780   4.632 -0.4009  0.9084 -0.5505
 7391SOL    HW233807   2.320   1.913   4.658  0.5588  0.2633 -0.2852
 7392SOL     OW33808   4.096   1.872   4.870  0.1283  0.5290  0.5777
 7392SOL    HW133809   4.144   1.884   4.952  0.4532  0.3797  0.4092
 7392SOL    HW233810   4.111   1.780   4.848 -0.0849  0.2643  1.4972
 7393SOL     OW33811   3.607   3.174   7.212  0.0577 -0.2491  0.0969
 7393SOL    HW133812   3.701   3.171   7.228 -0.0083 -1.4142  0.3120
 7393SOL    HW233813   3.591   3.268   7.208  0.0064 -0.4075 -3.5860
 7394SOL     OW33814   0.571   3.266   5.206  0.2994 -0.1170 -0.1833
 7394SOL    HW133815   0.586   3.189   5.260  1.5238  2.1813  2.7781
 7394SOL    HW233816   0.618   3.242   5.126  0.7851 -0.2461  0.1368
 7395SOL     OW33817   0.819   4.389   6.199  0.8060  0.0898  0.2876
 7395SOL    HW133818   0.903   4.375   6.242  0.8706 -2.6386 -0.7501
 7395SOL    HW233819   0.777   4.456   6.254  1.0151  0.3554  0.1256
 7396SOL     OW33820   3.101   1.546   1.868 -0.1983  0.1415 -0.5197
 7396SOL    HW133821   3.186   1.503   1.880  0.4993  1.3461 -1.1508
 7396SOL    HW233822   3.087   1.560   1.962  0.2632 -2.8192 -0.0095
 7397SOL     OW33823   1.876   2.613   3.450  0.1578  0.3443  0.4781
 7397SOL    HW133824   1.783   2.623   3.432  0.1956 -0.8065 -0.3906
 7397SOL    HW233825   1.906   2.575   3.367 -1.5694  1.1435 -0.5081
 7398SOL     OW33826   4.167   0.048   1.057  0.4934 -0.0852  0.2375
 7398SOL    HW133827   4.121   0.131   1.040 -0.4951 -0.6951 -0.1284
 7398SOL    HW233828   4.090   4.732   1.065  0.3972 -0.0166 -0.2010
 7399SOL     OW33829   2.911   1.211  15.469 -0.5727 -0.3948 -0.5889
 7399SOL    HW133830   2.887   1.303  15.462  0.8044  0.1143  1.5453
 7399SOL    HW233831   2.994   1.225  15.515 -0.8947  2.5789 -0.9424
 7400SOL     OW33832   3.445   0.483  15.487 -0.3781  0.0193 -0.4566
 7400SOL    HW133833   3.391   0.408  15.511  1.3570 -0.6349  1.4284
 7400SOL    HW233834   3.374   0.541  15.459 -0.7294 -0.4158 -0.4603
 7401SOL     OW33835   3.296   3.757   3.795 -0.7312  0.2615  0.0797
 7401SOL    HW133836   3.381   3.796   3.815  0.9239 -2.8452 -0.8243
 7401SOL    HW233837   3.323   3.672   3.761  0.1843 -0.8227  3.4284
 7402SOL     OW33838   1.513   2.594  13.665  0.1922 -0.7946  0.3792
 7402SOL    HW133839   1.477   2.630  13.746 -0.7190  0.4537 -0.5927
 7402SOL    HW233840   1.434   2.584  13.613  0.3027  0.7362 -0.0764
 7403SOL     OW33841   0.851   3.704  15.234 -0.1364 -0.0936 -0.5835
 7403SOL    HW133842   0.852   3.609  15.245  1.0446 -0.1800 -1.3788
 7403SOL    HW233843   0.848   3.729  15.326 -3.7645  0.9894 -1.0040
 7404SOL     OW33844   3.087   1.187  17.527 -0.0275  0.1907  0.0564
 7404SOL    HW133845   3.125   1.136  17.455 -1.8390  0.8976 -1.4224
 7404SOL    HW233846   3.112   1.274  17.496 -0.8266 -0.1081 -1.4689
 7405SOL     OW33847   4.275   0.471   3.696  0.3670  0.0585  0.2055
 7405SOL    HW133848   4.312   0.412   3.630 -1.0544 -0.9836  0.3153
 7405SOL    HW233849   4.212   0.514   3.638  1.4907  0.0690 -1.0033
 7406SOL     OW33850   0.192   4.620   6.531 -0.4557  0.1229 -0.0718
 7406SOL    HW133851   0.168   4.707   6.564  1.7470 -0.0329  1.8964
 7406SOL    HW233852   0.153   4.625   6.443 -0.7009  0.5502  0.0625
 7407SOL     OW33853   4.256   2.799   7.753  0.0488  0.0620  0.1997
 7407SOL    HW133854   4.226   2.854   7.680 -2.2546 -0.4166  0.7864
 7407SOL    HW233855   4.172   2.769   7.786 -0.8504 -0.2182 -2.3157
 7408SOL     OW33856   2.766   4.472   8.870 -0.3974  0.8524 -0.1032
 7408SOL    HW133857   2.819   4.394   8.885 -0.7146  0.7761  0.6255
 7408SOL    HW233858   2.727   4.489   8.956  0.3765 -1.4858  0.6856
 7409SOL     OW33859   0.542   2.034  12.601 -0.4242  0.1040  0.6208
 7409SOL    HW133860   0.557   2.119  12.641 -0.5746  0.7795 -0.7438
 7409SOL    HW233861   0.623   1.991  12.629  0.0924  0.2232 -0.6916
 7410SOL     OW33862   0.437   2.936  16.687 -0.0081  0.1832  0.2003
 7410SOL    HW133863   0.411   3.013  16.637 -1.4248 -1.6375 -1.9087
 7410SOL    HW233864   0.524   2.961  16.719  0.5925 -0.6939 -0.7458
 7411SOL     OW33865   1.632   4.016   3.815  0.0446  0.4127  0.9920
 7411SOL    HW133866   1.722   4.049   3.810 -0.1696  1.0607  1.4024
 7411SOL    HW233867   1.648   3.940   3.759 -0.9978  0.7429  0.2541
 7412SOL     OW33868   0.860   3.619  11.533 -0.2684 -0.2795  0.5668
 7412SOL    HW133869   0.931   3.556  11.526 -0.5537 -0.6053  0.6358
 7412SOL    HW233870   0.803   3.597  11.459  1.1626 -0.6794 -0.4145
 7413SOL     OW33871   4.097   1.492   9.053 -0.4360 -0.6023 -0.3783
 7413SOL    HW133872   4.177   1.525   9.092 -1.4899  0.7472  0.6355
 7413SOL    HW233873   4.105   1.539   8.970  0.5564 -0.8166 -0.4023
 7414SOL     OW33874   4.724   2.306   5.508 -0.1053  0.3141 -0.1124
 7414SOL    HW133875   4.693   2.388   5.546 -1.4759 -1.1806  2.0532
 7414SOL    HW233876   0.048   2.277   5.572 -1.0008  0.3866  0.8203
 7415SOL     OW33877   3.581   3.911  11.567 -0.3964  0.1296  0.3700
 7415SOL    HW133878   3.592   3.966  11.644  0.2139  0.4189  0.0827
 7415SOL    HW233879   3.607   3.831  11.612 -1.7740 -0.3398  0.3168
 7416SOL     OW33880   1.291   1.830   3.453  0.1695 -0.0704  0.6018
 7416SOL    HW133881   1.206   1.795   3.480 -0.6108  2.1358  0.9981
 7416SOL    HW233882   1.273   1.868   3.367 -0.4027 -1.9026 -0.0844
 7417SOL     OW33883   1.989   4.703   7.839  0.0736 -0.0463  0.3690
 7417SOL    HW133884   1.988   4.635   7.907 -0.2362 -0.0857  0.3223
 7417SOL    HW233885   1.984   0.043   7.891  0.5583 -0.6527  1.3501
 7418SOL     OW33886   0.014   3.532  15.759  0.1289 -0.0437 -0.1096
 7418SOL    HW133887   0.104   3.564  15.754 -0.5673  2.1156  0.7883
 7418SOL    HW233888   4.714   3.612  15.725 -1.8662  0.4728  3.4619
 7419SOL     OW33889   4.329   2.359   6.945  0.2766  0.4330 -0.0307
 7419SOL    HW133890   4.400   2.304   6.978  1.3315  2.2857  0.7946
 7419SOL    HW233891   4.353   2.447   6.974 -0.2662  0.4252  0.4320
 7420SOL     OW33892   1.309   0.913   9.478  0.5167  0.1350  0.4698
 7420SOL    HW133893   1.319   0.962   9.396  0.6775  0.3090  0.5939
 7420SOL    HW233894   1.353   0.973   9.538  0.5174 -0.3902  0.9917
 7421SOL     OW33895   2.661   4.403   5.013 -0.6627  0.6493 -0.2011
 7421SOL    HW133896   2.574   4.434   4.990 -0.7188  1.0210  0.5346
 7421SOL    HW233897   2.638   4.352   5.090 -1.6475 -0.3366 -1.1596
 7422SOL     OW33898   0.626   2.945  16.423  0.1480 -0.2766  0.3628
 7422SOL    HW133899   0.674   2.918  16.501 -1.4669 -0.5987  1.2483
 7422SOL    HW233900   0.583   3.026  16.448  0.2176 -0.5044  1.2077
 7423SOL     OW33901   1.811   1.845   1.110 -0.3534  0.2541 -0.4090
 7423SOL    HW133902   1.776   1.934   1.100  1.0623  0.7849 -0.7751
 7423SOL    HW233903   1.865   1.835   1.031  0.9196  1.1248  0.3384
 7424SOL     OW33904   3.668   1.461  13.203 -0.1772  0.1620  0.0454
 7424SOL    HW133905   3.726   1.397  13.161 -1.2227 -1.7472  1.5138
 7424SOL    HW233906   3.592   1.408  13.228 -0.3775 -0.4977 -1.9954
 7425SOL     OW33907   3.402   3.152   5.142 -0.2653  0.4851 -0.0049
 7425SOL    HW133908   3.396   3.235   5.094 -2.8225  0.7156  0.7162
 7425SOL    HW233909   3.424   3.089   5.073  0.1747 -1.1936  1.6812
 7426SOL     OW33910   0.394   1.853   3.674 -0.1607 -0.0421 -0.3914
 7426SOL    HW133911   0.312   1.902   3.680 -0.5537 -0.5807 -1.3873
 7426SOL    HW233912   0.445   1.915   3.726 -0.0666  0.1682 -0.7364
 7427SOL     OW33913   1.411   3.928   9.153 -0.5897 -0.3673 -0.2886
 7427SOL    HW133914   1.418   3.916   9.058 -0.9006 -2.0477 -0.0953
 7427SOL    HW233915   1.350   4.001   9.164  0.6865  0.5303  0.9595
 7428SOL     OW33916   4.709   3.714   5.726  0.4581 -0.2454  0.0159
 7428SOL    HW133917   4.658   3.795   5.724  1.6613  0.5116 -0.8747
 7428SOL    HW233918   4.700   3.687   5.817 -2.7176  0.9564  0.0442
 7429SOL     OW33919   4.105   1.047   9.878 -0.2812  0.4967  0.7187
 7429SOL    HW133920   4.136   0.964   9.841  1.8480  0.7631  1.9153
 7429SOL    HW233921   4.164   1.057   9.953  0.3797  1.7551  0.0281
 7430SOL     OW33922   1.350   0.920   2.555  0.1699 -0.2272  0.4056
 7430SOL    HW133923   1.382   0.881   2.636 -0.7960  0.0244  0.9089
 7430SOL    HW233924   1.257   0.901   2.543  0.2644  0.8563 -2.2109
 7431SOL     OW33925   2.922   3.490  10.609  0.4001 -0.1178 -0.2936
 7431SOL    HW133926   2.950   3.515  10.696  0.1801  0.6622 -0.4484
 7431SOL    HW233927   2.932   3.395  10.617 -0.5732 -0.3058 -1.2953
 7432SOL     OW33928   3.491   3.668  11.888  0.2249  0.2885 -0.3739
 7432SOL    HW133929   3.414   3.613  11.898  0.8143 -0.1029  1.9747
 7432SOL    HW233930   3.535   3.635  11.810 -0.2488 -0.5454 -0.2797
 7433SOL     OW33931   3.518   2.892   8.425  0.6833  0.3394  0.3121
 7433SOL    HW133932   3.605   2.855   8.438  0.3568  0.1490  1.8779
 7433SOL    HW233933   3.497   2.915   8.515  1.0044  0.4574  0.3582
 7434SOL     OW33934   0.326   1.976   7.864  0.1928  0.1442  0.0132
 7434SOL    HW133935   0.317   2.015   7.952  0.8545 -1.4826  0.7988
 7434SOL    HW233936   0.358   2.055   7.822  1.0566 -0.3761 -0.3040
 7435SOL     OW33937   4.360   1.395  17.251  0.6954 -0.3218  0.2490
 7435SOL    HW133938   4.372   1.302  17.268 -0.7049 -0.6084 -0.3034
 7435SOL    HW233939   4.426   1.435  17.308 -0.2824 -0.4552  1.4704
 7436SOL     OW33940   0.693   3.741   1.431 -0.6758 -0.3370 -0.4457
 7436SOL    HW133941   0.654   3.749   1.344 -0.6220 -1.9220 -0.6018
 7436SOL    HW233942   0.733   3.655   1.419 -0.0494  0.3278 -3.2087
 7437SOL     OW33943   1.226   3.266  15.174  0.3205 -0.1593  0.0799
 7437SOL    HW133944   1.204   3.226  15.090 -2.3608 -0.1980  0.8113
 7437SOL    HW233945   1.180   3.205  15.233 -1.3874  2.5286  1.5428
 7438SOL     OW33946   0.334   2.972   5.922 -0.0102 -0.0233 -0.3210
 7438SOL    HW133947   0.246   3.007   5.938 -0.2140 -0.8081  0.3200
 7438SOL    HW233948   0.327   2.899   5.984 -1.0141 -0.4427 -0.9323
 7439SOL     OW33949   2.293   2.299   1.940 -0.0922  0.3063  0.3311
 7439SOL    HW133950   2.209   2.305   1.895 -0.3981  0.2119  0.9019
 7439SOL    HW233951   2.331   2.225   1.892  1.0058  1.1050 -0.0412
 7440SOL     OW33952   0.434   1.612  15.565 -0.4363  0.2050  0.3031
 7440SOL    HW133953   0.504   1.584  15.625  0.6386  0.5166 -0.8037
 7440SOL    HW233954   0.409   1.526  15.531 -1.7065  0.6491  0.1174
 7441SOL     OW33955   2.315   1.392   4.415  0.3654  0.3449  0.5764
 7441SOL    HW133956   2.342   1.370   4.326 -2.6968 -1.7689  0.1723
 7441SOL    HW233957   2.377   1.337   4.462 -0.3822 -0.4442  0.6460
 7442SOL     OW33958   0.968   1.026  16.892 -0.3333 -0.8237  0.4229
 7442SOL    HW133959   0.918   1.106  16.910  0.7298  0.0539 -0.5716
 7442SOL    HW233960   0.998   1.039  16.802 -0.1278  4.4254  1.2544
 7443SOL     OW33961   1.929   2.817  14.520 -0.2121 -0.8403 -0.2338
 7443SOL    HW133962   1.997   2.750  14.515 -1.3901 -2.1305  1.0861
 7443SOL    HW233963   1.849   2.768  14.501 -0.1435 -0.0999 -2.4694
 7444SOL     OW33964   0.986   2.503   2.435  0.5645  0.4117 -0.2841
 7444SOL    HW133965   0.911   2.561   2.445  0.8459  0.6872  0.2550
 7444SOL    HW233966   0.973   2.435   2.500 -0.8057  0.9799  0.0442
 7445SOL     OW33967   3.237   3.242   9.122  0.2057  0.0132  0.3963
 7445SOL    HW133968   3.214   3.266   9.212 -1.3775 -0.7837  0.1999
 7445SOL    HW233969   3.176   3.172   9.099 -0.3345 -0.3889  3.0877
 7446SOL     OW33970   1.762   1.093   3.803  0.0689  0.1663  0.3206
 7446SOL    HW133971   1.838   1.041   3.829  0.5232 -0.0728 -1.5127
 7446SOL    HW233972   1.689   1.034   3.785  1.9150 -1.5911 -1.3952
 7447SOL     OW33973   0.743   3.393  14.120  0.2678 -0.1772 -0.1426
 7447SOL    HW133974   0.731   3.383  14.026 -0.1946  0.6896 -0.1795
 7447SOL    HW233975   0.680   3.464  14.128 -1.7069 -2.3626  3.6120
 7448SOL     OW33976   3.468   4.627   8.324  0.2575 -0.2553 -0.2037
 7448SOL    HW133977   3.522   4.705   8.329  1.6553 -1.2163 -0.2385
 7448SOL    HW233978   3.410   4.658   8.255 -0.8882 -0.6783  0.5704
 7449SOL     OW33979   3.386   2.835   4.288  0.4879  0.0296 -0.3380
 7449SOL    HW133980   3.414   2.927   4.288  2.3661 -0.5305 -1.6145
 7449SOL    HW233981   3.460   2.790   4.247  0.0631  0.1896 -1.2971
 7450SOL     OW33982   2.469   2.624   5.269 -0.2066  0.4154  0.5690
 7450SOL    HW133983   2.427   2.561   5.210  3.1234 -0.6661 -0.6759
 7450SOL    HW233984   2.483   2.567   5.345  3.6866 -0.5636 -0.8621
 7451SOL     OW33985   1.341   2.848   2.909 -0.1035 -0.1763  0.3018
 7451SOL    HW133986   1.413   2.911   2.912 -0.9069  0.7368  0.4284
 7451SOL    HW233987   1.272   2.914   2.904 -0.3069 -0.2582  2.0040
 7452SOL     OW33988   1.668   4.070  15.972 -0.0026  0.7996  0.2300
 7452SOL    HW133989   1.678   4.107  15.884 -4.0724 -1.1804 -1.0470
 7452SOL    HW233990   1.580   4.035  15.959  0.3555  0.0740 -0.1738
 7453SOL     OW33991   2.054   0.583  10.045 -0.3895 -0.6865 -0.0397
 7453SOL    HW133992   2.040   0.492  10.072  0.2961 -1.2498 -1.6095
 7453SOL    HW233993   1.962   0.607  10.036 -0.6362 -0.8832  1.8859
 7454SOL     OW33994   3.728   3.090   2.922 -0.3794  0.2293 -0.5756
 7454SOL    HW133995   3.708   3.102   3.015  1.2209 -1.0781 -0.0674
 7454SOL    HW233996   3.731   2.995   2.919  1.2538  0.2612 -0.0569
 7455SOL     OW33997   1.320   4.624   5.397 -0.1799 -0.0337 -0.0186
 7455SOL    HW133998   1.379   4.554   5.425  0.4657  0.1948 -0.8235
 7455SOL    HW233999   1.377   4.701   5.401 -0.3884  0.3222 -3.6663
 7456SOL     OW34000   1.421   0.941   3.950 -0.4254 -0.0383 -0.0479
 7456SOL    HW134001   1.421   1.036   3.934 -1.9703 -0.0499 -0.1091
 7456SOL    HW234002   1.341   0.922   3.998  0.8776 -0.6108  1.8711
 7457SOL     OW34003   0.270   2.847   5.287  0.7081  0.3939 -0.3116
 7457SOL    HW134004   0.225   2.762   5.280  3.0111 -0.8482 -0.2486
 7457SOL    HW234005   0.335   2.842   5.216  0.1943 -1.8618 -0.6512
 7458SOL     OW34006   3.517   0.349  13.938  0.3131 -0.2894  0.0988
 7458SOL    HW134007   3.483   0.400  14.011 -1.8450 -1.6261  0.0212
 7458SOL    HW234008   3.447   0.284  13.929  0.2225 -0.1078 -0.5123
 7459SOL     OW34009   0.010   1.537   3.822 -0.1924  0.5015 -0.4587
 7459SOL    HW134010   4.726   1.589   3.898  0.1763 -1.7285  1.1774
 7459SOL    HW234011   4.698   1.458   3.837  2.8691 -1.6935 -1.2843
 7460SOL     OW34012   2.720   2.474   4.999 -0.1762 -0.1101 -1.0328
 7460SOL    HW134013   2.791   2.536   4.978  1.6436 -1.7734  0.1564
 7460SOL    HW234014   2.713   2.434   4.912  3.8070 -0.6125 -1.1575
 7461SOL     OW34015   0.797   3.898   4.958 -1.0485  0.1291  0.0019
 7461SOL    HW134016   0.777   3.902   4.865 -1.2594  0.2965  0.0532
 7461SOL    HW234017   0.815   3.805   4.973  0.5774  0.4168 -0.0875
 7462SOL     OW34018   1.395   1.635  10.400  0.8034  0.0454  0.4376
 7462SOL    HW134019   1.367   1.545  10.386  0.5024  0.4422 -1.4559
 7462SOL    HW234020   1.319   1.665  10.449 -1.5492 -0.9117 -2.6248
 7463SOL     OW34021   2.577   4.337  15.311 -0.1507  0.6018  0.4807
 7463SOL    HW134022   2.582   4.241  15.311 -3.0902  0.4475 -0.5872
 7463SOL    HW234023   2.624   4.358  15.392 -1.2029  0.5962  1.0957
 7464SOL     OW34024   0.140   3.315   3.894 -0.5609 -0.0626 -0.2054
 7464SOL    HW134025   0.147   3.220   3.899  1.6178  0.1840  1.2707
 7464SOL    HW234026   0.220   3.345   3.938  0.0199 -2.1203  0.1567
 7465SOL     OW34027   1.712   4.515  14.570 -0.0955 -0.2796 -0.1094
 7465SOL    HW134028   1.758   4.432  14.583  0.1074  0.0419  1.1616
 7465SOL    HW234029   1.776   4.560  14.515 -0.6565 -0.3290 -0.8009
 7466SOL     OW34030   3.089   0.171   1.571 -0.2484 -0.1302  0.2392
 7466SOL    HW134031   3.068   0.263   1.556  0.8397  0.3307  1.5612
 7466SOL    HW234032   3.009   0.131   1.535  0.0109 -1.5632  1.2701
 7467SOL     OW34033   3.541   3.216   8.342  0.2235 -0.4862  0.1217
 7467SOL    HW134034   3.575   3.220   8.253  1.8890 -0.8949  0.7396
 7467SOL    HW234035   3.510   3.126   8.348 -0.1204 -0.4480 -1.2400
 7468SOL     OW34036   4.515   2.613   3.490  0.1814 -0.0311 -0.7354
 7468SOL    HW134037   4.588   2.663   3.526 -2.5889  2.5331  1.4026
 7468SOL    HW234038   4.553   2.560   3.420 -1.2479 -0.8038 -0.9284
 7469SOL     OW34039   0.116   4.566   7.002  0.2924  0.0218  0.2367
 7469SOL    HW134040   0.024   4.585   6.985  1.2815  0.9352 -4.0462
 7469SOL    HW234041   0.123   4.489   6.946 -1.9842  0.1418 -0.1838
 7470SOL     OW34042   3.525   0.394   3.471 -0.3367  0.1979 -0.1032
 7470SOL    HW134043   3.457   0.441   3.519  0.3548  0.9935  0.0841
 7470SOL    HW234044   3.465   0.342   3.417 -0.9283  2.0840 -1.2304
 7471SOL     OW34045   0.800   2.154   6.484 -0.1417  0.5085  0.7253
 7471SOL    HW134046   0.860   2.190   6.550  2.2224 -3.9518  1.0296
 7471SOL    HW234047   0.853   2.078   6.461 -1.3465 -0.3142  0.6826
 7472SOL     OW34048   2.271   4.049   5.790  0.0562 -0.3353 -0.6717
 7472SOL    HW134049   2.346   4.050   5.850  0.0122  1.4147 -0.6602
 7472SOL    HW234050   2.306   4.037   5.702  2.5374 -0.9929  0.3980
 7473SOL     OW34051   2.643   2.006   9.013  0.1135 -0.0371  0.1906
 7473SOL    HW134052   2.631   2.012   9.108  0.7517 -0.8059  0.3136
 7473SOL    HW234053   2.579   2.063   8.970 -1.1319 -2.9868 -1.8174
 7474SOL     OW34054   2.118   1.919   3.511 -0.1203  0.0170 -0.6776
 7474SOL    HW134055   2.141   1.992   3.569 -2.0894  0.5275 -0.5546
 7474SOL    HW234056   2.108   1.850   3.577 -3.6031 -0.4041 -1.6739
 7475SOL     OW34057   4.728   4.248   1.438 -0.2252  0.2727 -0.5047
 7475SOL    HW134058   0.073   4.263   1.479 -0.2148 -1.6471  0.1935
 7475SOL    HW234059   4.734   4.296   1.355 -0.8116 -2.1311 -1.9415
 7476SOL     OW34060   0.164   2.464   4.295  0.1708  0.3775  0.5447
 7476SOL    HW134061   0.171   2.402   4.223  2.4729  0.0778  1.0319
 7476SOL    HW234062   0.150   2.408   4.371  0.4586 -0.3770  0.0299
 7477SOL     OW34063   3.323   0.392   7.696 -0.8848  0.6046 -0.4307
 7477SOL    HW134064   3.260   0.400   7.767 -1.9804 -0.2548 -1.3144
 7477SOL    HW234065   3.345   0.485   7.688  0.4478  0.3054 -0.3405
 7478SOL     OW34066   1.034   4.384   5.859 -0.1934  0.1269 -0.1847
 7478SOL    HW134067   1.001   4.392   5.769 -2.1841 -1.2827  0.4099
 7478SOL    HW234068   1.125   4.408   5.838 -0.6970  0.3260 -2.1788
 7479SOL     OW34069   2.638   0.352  11.564 -0.2806  0.0957 -0.1560
 7479SOL    HW134070   2.664   0.419  11.627  2.8231 -0.7555 -0.5552
 7479SOL    HW234071   2.723   0.335  11.524  0.4074  1.3975  0.7693
 7480SOL     OW34072   0.500   0.773   3.434  0.2870  0.2548  0.3703
 7480SOL    HW134073   0.480   0.842   3.497 -1.0893 -0.3174  0.5769
 7480SOL    HW234074   0.426   0.712   3.435  1.1375 -0.7325  1.8360
 7481SOL     OW34075   4.462   1.855   9.762 -0.1507  0.7245  0.0798
 7481SOL    HW134076   4.506   1.790   9.816 -1.3976 -0.4728 -0.3582
 7481SOL    HW234077   4.510   1.838   9.680  1.0269 -0.9879  1.1232
 7482SOL     OW34078   2.899   2.316  13.660  0.9158  0.1448 -0.6368
 7482SOL    HW134079   2.960   2.380  13.623  0.5005  0.9934  0.1478
 7482SOL    HW234080   2.839   2.321  13.585 -0.4158 -2.0280  0.2709
 7483SOL     OW34081   3.632   1.426  16.350 -0.7000 -0.2392  0.8205
 7483SOL    HW134082   3.637   1.351  16.291  0.0658 -0.5991  1.3435
 7483SOL    HW234083   3.717   1.412  16.393  0.5868  0.8849 -1.4169
 7484SOL     OW34084   1.003   4.192   9.599  0.1532 -0.6977 -0.0200
 7484SOL    HW134085   1.029   4.200   9.507  0.5435 -3.4730 -0.1743
 7484SOL    HW234086   0.921   4.147   9.581  0.1280 -1.3449  1.7510
 7485SOL     OW34087   1.972   2.066   1.865 -0.3778 -0.0690 -0.4339
 7485SOL    HW134088   1.881   2.072   1.892 -0.6859 -1.5430 -1.1395
 7485SOL    HW234089   2.016   2.031   1.943 -1.2051 -0.1195  0.0099
 7486SOL     OW34090   4.436   2.746  14.474  0.0233 -0.0753  0.4687
 7486SOL    HW134091   4.525   2.729  14.441  0.2158 -0.2779  1.1046
 7486SOL    HW234092   4.412   2.824  14.423 -2.2238 -2.1159 -1.5776
 7487SOL     OW34093   2.376   0.641  10.217  0.5255 -0.0492 -0.3659
 7487SOL    HW134094   2.448   0.588  10.185  0.6272 -0.4499  0.5087
 7487SOL    HW234095   2.428   0.714  10.249 -0.8508  1.1346 -0.8509
 7488SOL     OW34096   1.741   2.547   6.259  0.7004 -0.1929  0.3599
 7488SOL    HW134097   1.727   2.640   6.240 -0.4044  0.2204  3.1949
 7488SOL    HW234098   1.834   2.538   6.235  0.4976 -0.0186 -0.4745
 7489SOL     OW34099   1.097   1.524  10.313  0.0192  0.3640 -0.5111
 7489SOL    HW134100   1.147   1.531  10.232 -0.0862  0.8656 -0.5316
 7489SOL    HW234101   1.124   1.599  10.367 -0.5734  0.4050 -0.2663
 7490SOL     OW34102   4.411   3.587   9.369  0.4479 -0.4796  0.3490
 7490SOL    HW134103   4.355   3.620   9.439  0.8902  1.9780 -0.4659
 7490SOL    HW234104   4.461   3.536   9.432 -1.5922 -1.5115  1.1413
 7491SOL     OW34105   3.784   2.213   5.084  0.6048 -0.0978 -0.2281
 7491SOL    HW134106   3.853   2.148   5.071  0.5940 -0.0660 -0.4398
 7491SOL    HW234107   3.801   2.270   5.009  0.8766  0.7362  0.4682
 7492SOL     OW34108   4.650   1.490   8.159 -0.1346 -0.4040  0.0711
 7492SOL    HW134109   4.645   1.473   8.065 -2.5737 -1.6230  0.4382
 7492SOL    HW234110   4.722   1.553   8.154 -1.5884  1.2439 -0.1440
 7493SOL     OW34111   4.111   3.981   8.592  0.5502  0.0252 -0.1057
 7493SOL    HW134112   4.091   4.001   8.683 -1.1135  2.0142 -0.8765
 7493SOL    HW234113   4.089   3.888   8.589 -0.8050  0.3585 -0.3806
 7494SOL     OW34114   0.703   3.163   0.064  0.3826 -0.4275 -0.2760
 7494SOL    HW134115   0.769   3.205   0.119  0.0649 -2.6285  1.7982
 7494SOL    HW234116   0.617   3.158   0.106 -0.3341 -0.2663 -1.7326
 7495SOL     OW34117   0.913   1.309   1.451  0.0313  0.2374  0.0882
 7495SOL    HW134118   0.929   1.403   1.458 -2.7015  0.6421  0.7812
 7495SOL    HW234119   0.825   1.299   1.414  0.2579 -0.7465 -0.1987
 7496SOL     OW34120   1.653   2.895   1.805 -0.0542 -0.5596 -0.1713
 7496SOL    HW134121   1.746   2.902   1.783 -0.2741  0.1870 -0.9043
 7496SOL    HW234122   1.612   2.981   1.792  1.0848 -0.0694 -0.5134
 7497SOL     OW34123   2.697   0.428   4.403  0.4910 -0.0479  0.4119
 7497SOL    HW134124   2.774   0.373   4.387 -0.3951 -0.8800 -0.9517
 7497SOL    HW234125   2.731   0.515   4.384 -0.9010  0.4077  0.0566
 7498SOL     OW34126   2.578   4.387  11.128  0.3694  0.0807 -0.2089
 7498SOL    HW134127   2.633   4.464  11.123  0.4001  0.0894  0.3038
 7498SOL    HW234128   2.522   4.406  11.203 -1.2980 -1.9605 -0.9027
 7499SOL     OW34129   3.667   4.268  10.074  0.0454  0.3330  0.2428
 7499SOL    HW134130   3.594   4.298  10.128 -1.3168 -3.6023  0.5924
 7499SOL    HW234131   3.621   4.244   9.994 -0.5802 -0.7353  0.9166
 7500SOL     OW34132   0.493   3.565   4.217  0.4434  0.4845 -0.8212
 7500SOL    HW134133   0.465   3.500   4.281  2.4265  0.2083 -0.2556
 7500SOL    HW234134   0.559   3.612   4.267  0.3178  0.8379 -0.9871
 7501SOL     OW34135   0.601   0.654   3.043  0.2488  0.7458  0.4017
 7501SOL    HW134136   0.526   0.612   3.001  1.0610  2.0542 -2.3585
 7501SOL    HW234137   0.669   0.610   2.993  1.1803  0.1227  2.2120
 7502SOL     OW34138   2.408   4.723   4.871  0.2082 -0.3747 -0.2251
 7502SOL    HW134139   2.371   0.033   4.943 -0.1264  0.0142 -0.6658
 7502SOL    HW234140   2.335   4.719   4.810  0.5411  0.1354 -0.6581
 7503SOL     OW34141   2.061   0.975   4.814 -0.8340 -0.9566  0.0516
 7503SOL    HW134142   2.092   1.034   4.883  0.6958  0.0927 -1.5389
 7503SOL    HW234143   2.000   0.920   4.863 -2.1550  0.0185 -0.5259
 7504SOL     OW34144   1.281   0.686   6.210 -0.2491  0.1147  0.2614
 7504SOL    HW134145   1.303   0.634   6.133 -2.0473  0.7542 -0.6801
 7504SOL    HW234146   1.255   0.610   6.262  1.1774 -0.7483 -0.2939
 7505SOL     OW34147   1.665   0.318   6.044 -0.5169 -0.1289 -0.2702
 7505SOL    HW134148   1.596   0.371   6.084 -1.9604 -1.6803 -0.6885
 7505SOL    HW234149   1.722   0.302   6.119 -1.9580  0.6741  0.9971
 7506SOL     OW34150   1.888   1.416   8.990  0.7296  0.1944 -0.1003
 7506SOL    HW134151   1.815   1.404   8.930 -0.3481  1.1681  1.0200
 7506SOL    HW234152   1.961   1.365   8.957  0.1919 -0.2729 -0.5589
 7507SOL     OW34153   4.683   3.713   7.382 -0.0080 -0.0230  0.0241
 7507SOL    HW134154   4.588   3.704   7.383  0.2183 -2.3739  2.7321
 7507SOL    HW234155   4.691   3.803   7.414  1.5641 -0.8982  2.1048
 7508SOL     OW34156   2.700   3.952   6.958  0.8154  0.0651 -0.3891
 7508SOL    HW134157   2.763   3.913   6.897  1.4620 -0.0526  0.3603
 7508SOL    HW234158   2.666   3.876   7.004 -0.2251 -0.9805 -2.8768
 7509SOL     OW34159   1.823   3.200   5.925  0.2136 -0.4137 -0.0136
 7509SOL    HW134160   1.861   3.197   5.837 -0.4025 -0.9432 -0.2582
 7509SOL    HW234161   1.736   3.230   5.898 -0.1984 -1.3247  0.3057
 7510SOL     OW34162   2.781   4.606   8.288  0.2172 -0.4876  0.1606
 7510SOL    HW134163   2.798   4.567   8.373  3.1060  0.3373 -0.0428
 7510SOL    HW234164   2.833   4.686   8.286  1.8933 -1.6023 -0.6561
 7511SOL     OW34165   2.736   4.123   2.729 -0.0577 -0.3197  0.1144
 7511SOL    HW134166   2.701   4.165   2.650  0.2917 -2.4684 -1.2080
 7511SOL    HW234167   2.704   4.033   2.716  0.3505 -0.6379  1.3247
 7512SOL     OW34168   1.775   0.384  11.126 -0.2638  0.5009  0.3491
 7512SOL    HW134169   1.856   0.335  11.112 -0.0673  1.2593 -1.1797
 7512SOL    HW234170   1.714   0.311  11.137  0.5570 -0.3651 -0.8103
 7513SOL     OW34171   4.059   1.312   8.820 -0.4653 -0.6205  0.6384
 7513SOL    HW134172   4.153   1.330   8.829 -0.9104  1.6776  0.6483
 7513SOL    HW234173   4.049   1.220   8.795 -0.4573 -0.6799  0.8564
 7514SOL     OW34174   2.499   1.829   8.385  0.7684  0.2572  0.1340
 7514SOL    HW134175   2.480   1.916   8.350 -0.1529  0.8430  2.0984
 7514SOL    HW234176   2.463   1.770   8.319 -0.7586 -0.8452  1.9643
 7515SOL     OW34177   2.261   1.853   5.615 -0.6311  0.3295  0.3688
 7515SOL    HW134178   2.215   1.848   5.699 -0.5190  0.4345  0.4379
 7515SOL    HW234179   2.349   1.842   5.653 -1.8148 -0.2534  2.9490
 7516SOL     OW34180   1.415   2.067   7.705  0.2002 -0.5494 -0.5400
 7516SOL    HW134181   1.371   1.983   7.696  0.9883 -1.0525  0.3018
 7516SOL    HW234182   1.350   2.128   7.670  1.2085  0.0835 -1.3058
 7517SOL     OW34183   2.932   3.700   5.516  0.1384  0.4256 -0.6207
 7517SOL    HW134184   2.993   3.671   5.583 -1.2410  0.1049  0.5003
 7517SOL    HW234185   2.855   3.665   5.560 -0.4102  1.5583 -0.6780
 7518SOL     OW34186   2.109   2.255   5.427 -0.0124  0.4539 -0.1472
 7518SOL    HW134187   2.191   2.219   5.460 -0.1343  0.6162  0.3295
 7518SOL    HW234188   2.114   2.345   5.459  1.5704  0.8251 -1.4376
 7519SOL     OW34189   2.156   0.871  15.433 -0.1843 -0.1322  0.9310
 7519SOL    HW134190   2.164   0.889  15.339  1.3320  0.9405  1.2652
 7519SOL    HW234191   2.250   0.869  15.448  0.0542  1.3913 -0.2987
 7520SOL     OW34192   3.963   3.429   9.604 -0.1304 -0.4418 -0.1325
 7520SOL    HW134193   3.973   3.513   9.649  2.4131 -0.4655 -0.6328
 7520SOL    HW234194   3.895   3.394   9.663  1.7941  0.8150  2.8339
 7521SOL     OW34195   1.698   0.103  14.826  0.3547  0.2680 -0.2690
 7521SOL    HW134196   1.788   0.132  14.846 -0.4531  2.4776  0.2490
 7521SOL    HW234197   1.712   0.011  14.805 -0.9473 -0.4382  1.8849
 7522SOL     OW34198   1.524   1.457   9.369  0.0425 -0.0407  0.6673
 7522SOL    HW134199   1.543   1.373   9.327  4.1079  1.2641 -0.1130
 7522SOL    HW234200   1.512   1.517   9.296 -0.9073 -1.3294 -0.2485
 7523SOL     OW34201   2.896   2.640  16.521  0.2534  1.1104  0.4908
 7523SOL    HW134202   2.923   2.624  16.612 -1.2165 -2.0111  0.3776
 7523SOL    HW234203   2.801   2.649  16.531  0.2457  0.8275  0.6586
 7524SOL     OW34204   3.756   1.288   6.837  0.1560  0.3040  0.0750
 7524SOL    HW134205   3.739   1.257   6.926 -2.2573  0.6393 -0.2695
 7524SOL    HW234206   3.843   1.321   6.856 -0.3991  1.7029  0.1584
 7525SOL     OW34207   3.439   3.535  10.122 -0.5744  0.2984 -0.4404
 7525SOL    HW134208   3.343   3.542  10.121 -0.5037  1.2640 -0.3324
 7525SOL    HW234209   3.458   3.498  10.036  2.0392  1.0009 -0.1589
 7526SOL     OW34210   4.084   4.665  15.099  0.4620  0.2187 -0.0884
 7526SOL    HW134211   4.081   4.692  15.191  0.2701  1.0629 -0.3417
 7526SOL    HW234212   4.144   4.591  15.097 -1.4518 -1.2827 -1.7361
 7527SOL     OW34213   1.110   0.114  14.150 -0.4424  0.1895 -0.3943
 7527SOL    HW134214   1.160   0.103  14.231 -2.2387  1.7556  0.9237
 7527SOL    HW234215   1.071   0.026  14.152  0.4789 -0.2449 -1.1466
 7528SOL     OW34216   1.282   4.089  12.410 -0.1058 -0.5149 -0.4525
 7528SOL    HW134217   1.279   4.146  12.333  1.5309 -0.4320 -0.4633
 7528SOL    HW234218   1.373   4.058  12.405  0.2147  0.4024 -0.2600
 7529SOL     OW34219   2.000   4.128   7.153  0.6455  0.2533  0.0032
 7529SOL    HW134220   2.078   4.182   7.144 -0.0491  1.3536  0.6119
 7529SOL    HW234221   2.025   4.062   7.217 -0.4346 -0.8783 -0.7366
 7530SOL     OW34222   0.089   0.023   1.874 -0.3138 -0.1362  0.3306
 7530SOL    HW134223   0.041   0.074   1.809  0.3118  3.0597  2.3325
 7530SOL    HW234224   0.061   4.673   1.860  1.1682 -0.3768 -1.0270
 7531SOL     OW34225   0.826   0.379   2.508  0.9861  0.0851 -0.5545
 7531SOL    HW134226   0.796   0.423   2.429  0.8063 -1.1278 -1.1622
 7531SOL    HW234227   0.848   0.293   2.470  1.1671 -0.2046  0.2003
 7532SOL     OW34228   0.414   0.974   9.110 -0.5958  0.2001 -0.5301
 7532SOL    HW134229   0.503   0.967   9.144 -0.7216 -0.6421 -0.3853
 7532SOL    HW234230   0.431   0.990   9.017  2.2715  2.4178  0.3975
 7533SOL     OW34231   3.968   0.715   3.901  0.1627 -0.0633  0.1204
 7533SOL    HW134232   4.053   0.677   3.879 -0.5198 -0.5449 -1.7160
 7533SOL    HW234233   3.952   0.675   3.987 -0.3285  1.4682  0.7404
 7534SOL     OW34234   2.593   1.822   1.519 -0.0609  0.0724  0.1306
 7534SOL    HW134235   2.587   1.895   1.580  0.3079  2.9112 -3.2391
 7534SOL    HW234236   2.501   1.803   1.503  0.3029 -1.2083 -0.4320
 7535SOL     OW34237   3.594   0.495   8.581 -0.3370  0.5812  0.5133
 7535SOL    HW134238   3.684   0.525   8.579  0.5351 -1.9366  2.4350
 7535SOL    HW234239   3.580   0.478   8.488  0.4196 -2.8777  1.0522
 7536SOL     OW34240   1.928   1.812   6.292  0.5066 -0.5104 -0.1757
 7536SOL    HW134241   1.912   1.860   6.373  0.5193 -1.8770  0.6425
 7536SOL    HW234242   1.980   1.736   6.318 -0.3093 -1.3659 -1.0207
 7537SOL     OW34243   0.314   2.278   8.750 -0.1288  0.4325  0.3611
 7537SOL    HW134244   0.229   2.240   8.773 -1.0224  2.1662 -0.0811
 7537SOL    HW234245   0.298   2.370   8.727 -1.1361  0.9525  3.1269
 7538SOL     OW34246   0.546   1.248   4.223 -0.1053 -0.2116  0.0383
 7538SOL    HW134247   0.529   1.171   4.170 -1.3813 -1.3012  2.0135
 7538SOL    HW234248   0.537   1.220   4.314  1.5047 -1.3908 -0.1539
 7539SOL     OW34249   4.407   2.884  10.418  0.5273  0.3201  0.2977
 7539SOL    HW134250   4.498   2.909  10.407  0.2124  2.9474  3.9015
 7539SOL    HW234251   4.411   2.789  10.403 -0.3409  0.6377 -1.9393
 7540SOL     OW34252   2.659   4.123   3.339 -0.1610 -0.5367 -0.3412
 7540SOL    HW134253   2.608   4.196   3.305 -0.8137 -0.6302  0.4380
 7540SOL    HW234254   2.704   4.096   3.259 -0.9195 -1.6689 -0.3862
 7541SOL     OW34255   3.638   1.483   4.019  0.0354 -0.0489  0.5803
 7541SOL    HW134256   3.634   1.423   4.094  1.2450 -1.4161 -0.4490
 7541SOL    HW234257   3.731   1.465   4.003 -0.1930 -0.7149  0.0062
 7542SOL     OW34258   4.111   0.154   7.746 -0.0641 -0.5248  0.4686
 7542SOL    HW134259   4.056   0.129   7.820 -0.1667  0.0448  0.5850
 7542SOL    HW234260   4.067   0.100   7.681 -0.0750  0.1458 -0.0847
 7543SOL     OW34261   4.137   3.047   5.303 -0.0670 -0.0481 -0.4838
 7543SOL    HW134262   4.209   3.020   5.360  0.4272  0.0509 -1.0715
 7543SOL    HW234263   4.188   3.112   5.255  0.1847  0.9394  1.0869
 7544SOL     OW34264   2.162   2.203   8.884 -0.0463 -0.4352  0.1116
 7544SOL    HW134265   2.090   2.263   8.902 -0.3439 -1.1967  1.4013
 7544SOL    HW234266   2.126   2.119   8.856  1.8197 -1.0771 -0.3910
 7545SOL     OW34267   4.297   4.659   5.901 -0.7515  0.7731  0.1543
 7545SOL    HW134268   4.212   4.625   5.875 -1.1291 -0.0800  2.4600
 7545SOL    HW234269   4.323   4.694   5.816  0.9924 -0.2893  0.2402
 7546SOL     OW34270   3.623   0.736  11.841  0.4254 -0.4481 -0.1318
 7546SOL    HW134271   3.648   0.695  11.924  0.1856 -0.9834 -0.3261
 7546SOL    HW234272   3.597   0.823  11.872  2.7034  0.1785  0.0094
 7547SOL     OW34273   0.561   1.567   1.188  0.8197  0.1061 -0.3020
 7547SOL    HW134274   0.528   1.512   1.117  0.5801  0.4881 -0.4890
 7547SOL    HW234275   0.616   1.636   1.150  1.3604  0.5977  1.3715
 7548SOL     OW34276   4.121   1.045   2.747  0.5975  0.1260 -0.1117
 7548SOL    HW134277   4.120   0.951   2.764  1.5528  0.0120 -0.6708
 7548SOL    HW234278   4.029   1.071   2.733  0.6104  0.6886  0.8343
 7549SOL     OW34279   4.429   1.491   6.407  0.3041 -0.4328 -0.3384
 7549SOL    HW134280   4.440   1.537   6.490  2.3233  0.7195 -1.2489
 7549SOL    HW234281   4.376   1.413   6.428 -0.0405  1.0974  4.2978
 7550SOL     OW34282   4.445   1.242   9.916  0.3790 -0.4204 -0.2385
 7550SOL    HW134283   4.363   1.217   9.959  0.8951 -0.2864  0.8299
 7550SOL    HW234284   4.404   1.289   9.843 -0.7960 -1.0014  0.0559
 7551SOL     OW34285   1.066   1.056   3.507  0.0118 -0.5384  0.3857
 7551SOL    HW134286   1.052   0.999   3.432  0.9582 -1.2167  0.7207
 7551SOL    HW234287   0.974   1.069   3.532 -0.7807  0.5926 -3.1908
 7552SOL     OW34288   3.267   0.006   8.170  0.1917  0.0904 -0.3758
 7552SOL    HW134289   3.248   0.018   8.263 -1.3527 -1.7654 -0.4616
 7552SOL    HW234290   3.197   0.056   8.129 -0.2345  1.1778  1.6565
 7553SOL     OW34291   2.236   1.531   9.042  0.0719 -0.1794  0.2842
 7553SOL    HW134292   2.205   1.530   9.132  0.4528 -1.5043  0.3956
 7553SOL    HW234293   2.309   1.473   9.060 -0.0686 -0.0858  1.1605
 7554SOL     OW34294   4.409   0.071  12.124 -0.6019 -0.2907  0.4026
 7554SOL    HW134295   4.326   0.035  12.093 -0.5044 -0.0844 -0.1034
 7554SOL    HW234296   4.375   0.111  12.204 -0.3884 -0.5539  0.6244
 7555SOL     OW34297   2.483   2.957  16.876  0.2784 -0.2335 -0.3783
 7555SOL    HW134298   2.453   2.867  16.892 -0.7166 -0.4708 -3.6097
 7555SOL    HW234299   2.578   2.963  16.886  0.3246 -0.8528 -0.4606
 7556SOL     OW34300   0.267   2.275   3.575  0.5911  0.0810  0.0287
 7556SOL    HW134301   0.174   2.296   3.571  1.5539  4.5875  0.3004
 7556SOL    HW234302   0.295   2.269   3.484  0.6654 -3.6687  0.3268
 7557SOL     OW34303   1.680   4.521   6.825 -0.1563 -0.1526 -0.4192
 7557SOL    HW134304   1.673   4.614   6.848  1.2378 -0.4553  1.2099
 7557SOL    HW234305   1.636   4.526   6.740 -1.4454  0.4428  0.2921
 7558SOL     OW34306   0.927   1.352   9.785 -0.3546  0.5349  0.0638
 7558SOL    HW134307   0.832   1.361   9.795 -0.7326 -0.6184 -2.5056
 7558SOL    HW234308   0.946   1.435   9.742 -0.1198  0.3068 -0.2744
 7559SOL     OW34309   2.585   3.397   6.096  0.0305 -0.3429 -0.8891
 7559SOL    HW134310   2.519   3.331   6.117 -0.0886 -0.3974 -1.4367
 7559SOL    HW234311   2.531   3.476   6.098  2.1796  1.0285  2.5519
 7560SOL     OW34312   3.437   2.304   8.719  0.7040  0.2561 -0.0184
 7560SOL    HW134313   3.397   2.304   8.632  0.2877  1.5979  0.1622
 7560SOL    HW234314   3.454   2.211   8.733  1.5198  0.3854 -0.1946
 7561SOL     OW34315   1.020   2.375  14.905  0.1423  0.4411 -0.2356
 7561SOL    HW134316   1.031   2.454  14.852 -3.3432  2.4784  2.0615
 7561SOL    HW234317   1.106   2.366  14.947  0.3903  0.3295 -0.7700
 7562SOL     OW34318   1.904   1.420   7.144 -0.5742 -0.5815  0.4269
 7562SOL    HW134319   1.817   1.383   7.161 -1.4286  1.2327 -0.0394
 7562SOL    HW234320   1.931   1.404   7.234  2.5522 -2.7259 -0.8960
 7563SOL     OW34321   0.768   4.604   5.187 -0.5443 -0.7423 -0.2274
 7563SOL    HW134322   0.695   4.666   5.194  1.0841  1.0221  1.1086
 7563SOL    HW234323   0.837   4.664   5.218 -3.0933  2.7204 -1.2239
 7564SOL     OW34324   4.480   1.106  17.271 -0.2549  0.4708  0.4438
 7564SOL    HW134325   4.474   1.088  17.364 -3.5923  3.0678  0.7160
 7564SOL    HW234326   4.455   1.023  17.230 -2.3255  1.4912 -0.3428
 7565SOL     OW34327   2.283   4.001   2.303 -0.1154  0.3328 -0.3373
 7565SOL    HW134328   2.376   4.002   2.327 -0.6502 -1.1320  1.8350
 7565SOL    HW234329   2.240   4.040   2.379 -1.1207  0.8889 -1.1987
 7566SOL     OW34330   3.284   0.289  15.586 -0.1315 -0.1576 -0.0777
 7566SOL    HW134331   3.211   0.273  15.646 -0.6575 -2.0796 -1.2392
 7566SOL    HW234332   3.286   0.201  15.548 -1.2807 -0.3900  0.4192
 7567SOL     OW34333   4.165   1.591   1.830  0.2402 -0.2543 -0.0343
 7567SOL    HW134334   4.259   1.608   1.840  0.5135 -2.4449  1.1500
 7567SOL    HW234335   4.167   1.522   1.763 -0.4849  1.4211 -1.7627
 7568SOL     OW34336   0.894   2.129   4.285  0.3986 -0.5254 -0.7252
 7568SOL    HW134337   0.836   2.081   4.345  0.9806  2.4956  2.2451
 7568SOL    HW234338   0.977   2.111   4.329  0.6918 -0.9114 -1.4329
 7569SOL     OW34339   0.970   4.629  14.118 -0.0169  0.5436 -0.4182
 7569SOL    HW134340   0.993   4.555  14.174 -2.8255 -1.0275 -1.3668
 7569SOL    HW234341   0.909   4.587  14.058  0.3506 -1.2709  0.4749
 7570SOL     OW34342   2.007   4.656   9.811 -0.8251  0.5285  0.1718
 7570SOL    HW134343   2.081   4.648   9.872 -1.7994  0.3850  1.3459
 7570SOL    HW234344   2.014   4.574   9.762 -0.1196 -1.2533  3.1955
 7571SOL     OW34345   2.628   3.167   6.374 -0.2973  0.6189 -0.2399
 7571SOL    HW134346   2.558   3.225   6.404  0.7108  2.7868 -2.0747
 7571SOL    HW234347   2.581   3.110   6.312 -1.0695 -1.8217  2.5939
 7572SOL     OW34348   3.610   0.817  13.607 -0.3314 -0.4108 -0.0041
 7572SOL    HW134349   3.611   0.865  13.689  0.6140 -1.3559  0.5319
 7572SOL    HW234350   3.557   0.739  13.622  0.1315 -0.3226  1.9961
 7573SOL     OW34351   3.609   0.906   1.099 -0.0964  0.0642  0.4898
 7573SOL    HW134352   3.593   0.832   1.040  2.2158 -1.7695  2.1232
 7573SOL    HW234353   3.532   0.893   1.155 -0.3920 -0.3215 -0.0130
 7574SOL     OW34354   2.227   0.880   6.982  0.0742  0.0180 -0.1148
 7574SOL    HW134355   2.157   0.853   7.042  1.2517 -0.0160  1.2386
 7574SOL    HW234356   2.289   0.926   7.039 -0.7901  1.3373 -0.2502
 7575SOL     OW34357   2.161   2.952   7.701  0.1554  0.0934  0.4218
 7575SOL    HW134358   2.128   2.883   7.758  0.4661 -0.1044  0.3567
 7575SOL    HW234359   2.109   2.958   7.621  0.5229 -0.7733  0.1249
 7576SOL     OW34360   4.070   0.068   6.743 -0.4341 -0.2877 -0.0319
 7576SOL    HW134361   4.149   0.022   6.771  0.5928  0.8734 -1.0282
 7576SOL    HW234362   4.107   0.121   6.672 -1.0350  2.0286  1.3646
 7577SOL     OW34363   1.950   0.131   1.548  0.2720  0.5832  0.1798
 7577SOL    HW134364   1.921   0.180   1.471  0.2854 -0.5218 -0.5191
 7577SOL    HW234365   1.984   0.048   1.516  1.9906  1.5298 -0.4314
 7578SOL     OW34366   4.734   4.014   3.072  0.4608  0.1276  0.6664
 7578SOL    HW134367   4.700   4.083   3.128 -1.9592  0.3919 -1.1211
 7578SOL    HW234368   0.066   4.061   3.031  0.1548  0.0547  0.0296
 7579SOL     OW34369   0.039   1.629  16.612 -0.1473 -0.0200 -0.1195
 7579SOL    HW134370   4.711   1.629  16.545  0.5738 -4.0287 -0.8346
 7579SOL    HW234371   0.047   1.536  16.632 -1.6580  0.2604  1.7926
 7580SOL     OW34372   0.516   0.776  13.970  0.3462 -0.0469  0.4970
 7580SOL    HW134373   0.577   0.850  13.974  0.8530 -0.4824  0.9108
 7580SOL    HW234374   0.447   0.798  14.033 -1.1792 -1.9350 -0.5138
 7581SOL     OW34375   4.459   3.559   9.046  1.0370  0.0868 -0.0049
 7581SOL    HW134376   4.447   3.486   9.107  0.7567 -0.8136 -1.1269
 7581SOL    HW234377   4.422   3.528   8.963  0.0543 -0.0853  0.5017
 7582SOL     OW34378   1.589   2.650   5.482 -0.0285 -0.2086  0.2100
 7582SOL    HW134379   1.534   2.603   5.545  0.8501  0.0408  1.1682
 7582SOL    HW234380   1.678   2.657   5.515 -0.8990 -1.0424  2.7378
 7583SOL     OW34381   4.476   3.749   3.841  0.5851  0.3721  0.7501
 7583SOL    HW134382   4.546   3.788   3.787  0.2471  1.9746  1.4788
 7583SOL    HW234383   4.512   3.664   3.866 -0.3896 -0.5865 -1.0542
 7584SOL     OW34384   0.368   2.446  17.229  0.4791  0.6723 -0.0978
 7584SOL    HW134385   0.418   2.500  17.290 -2.4731 -1.3191  4.0353
 7584SOL    HW234386   0.350   2.363  17.273 -1.3674 -0.2848 -2.6533
 7585SOL     OW34387   1.268   0.299   6.582  0.3227  0.4683 -0.2813
 7585SOL    HW134388   1.337   0.305   6.648  1.2200 -1.5470 -1.0263
 7585SOL    HW234389   1.192   0.302   6.640  0.0140  1.2230 -0.7203
 7586SOL     OW34390   0.780   3.687   6.273  0.3293 -0.2765  0.1526
 7586SOL    HW134391   0.842   3.758   6.252 -1.5704  1.5324  0.6799
 7586SOL    HW234392   0.699   3.732   6.249  0.3452  0.2051  0.9989
 7587SOL     OW34393   1.092   1.695   5.574 -0.7838  0.5587 -0.1285
 7587SOL    HW134394   1.082   1.748   5.495 -0.3540  1.9145  0.7138
 7587SOL    HW234395   1.039   1.617   5.558 -0.3797 -0.0943  1.6838
 7588SOL     OW34396   0.598   1.774  17.597 -0.3069  0.3500  0.3430
 7588SOL    HW134397   0.590   1.703  17.533  1.2638 -0.3214  0.8840
 7588SOL    HW234398   0.651   1.840  17.553 -0.6811 -0.1621 -0.8991
 7589SOL     OW34399   2.798   2.583   9.270  0.4416  0.4039 -0.0614
 7589SOL    HW134400   2.773   2.663   9.316  1.6501  0.9859 -0.4092
 7589SOL    HW234401   2.713   2.539   9.269  0.8773 -0.4526  1.3410
 7590SOL     OW34402   3.143   4.689   3.222 -0.5951  0.0879  0.1077
 7590SOL    HW134403   3.069   4.629   3.219 -1.7282  1.4991 -0.0249
 7590SOL    HW234404   3.116   4.736   3.301 -1.7395 -0.0412 -0.2115
 7591SOL     OW34405   0.767   0.783   2.703 -0.2982  0.3295  0.2480
 7591SOL    HW134406   0.772   0.820   2.615  1.2289  1.9843  1.0067
 7591SOL    HW234407   0.734   0.856   2.755  0.1037 -0.3883  1.5070
 7592SOL     OW34408   0.859   4.370   7.147 -0.0013 -0.6185 -0.2066
 7592SOL    HW134409   0.882   4.418   7.227 -0.5071 -0.0198 -0.4218
 7592SOL    HW234410   0.937   4.385   7.092 -0.1929  2.4453  0.3109
 7593SOL     OW34411   2.104   3.758   3.023 -0.1251  0.3233 -0.6574
 7593SOL    HW134412   2.193   3.787   3.042 -0.5919  1.4417 -0.1651
 7593SOL    HW234413   2.086   3.722   3.110 -2.9656  4.2329  0.3689
 7594SOL     OW34414   2.949   2.104  16.720 -0.6293  0.3020 -0.0485
 7594SOL    HW134415   2.865   2.095  16.765 -0.1323 -0.4338  0.7485
 7594SOL    HW234416   2.941   2.186  16.672  3.4575  0.1775 -0.9131
 7595SOL     OW34417   3.940   4.046   9.460  0.1965 -0.2200  0.8841
 7595SOL    HW134418   3.921   3.988   9.386  1.5012  0.6117 -0.0836
 7595SOL    HW234419   3.848   4.072   9.469  0.1863  0.8122 -2.4002
 7596SOL     OW34420   4.628   4.061   9.101  0.0239  0.5265 -0.4644
 7596SOL    HW134421   4.576   3.988   9.135  1.2900 -1.1637 -2.1404
 7596SOL    HW234422   4.594   4.142   9.140 -0.8548  0.0989 -0.3475
 7597SOL     OW34423   4.227   0.123  16.930 -0.1669  0.0049 -0.0827
 7597SOL    HW134424   4.267   0.140  17.016 -0.5188  1.2464 -0.1651
 7597SOL    HW234425   4.173   0.199  16.910 -2.3004 -1.6771 -0.6926
 7598SOL     OW34426   2.083   4.623  14.602 -0.0057 -0.4684  0.1428
 7598SOL    HW134427   2.043   4.690  14.658  1.5978 -1.2789  2.2560
 7598SOL    HW234428   2.022   4.620  14.528 -1.1774 -1.7409  1.1758
 7599SOL     OW34429   4.381   3.423   5.055  0.2302 -0.1998 -0.4834
 7599SOL    HW134430   4.450   3.489   5.055 -1.8602  1.9715  2.8572
 7599SOL    HW234431   4.358   3.437   4.963  1.1543 -1.1208 -0.8571
 7600SOL     OW34432   2.461   4.288   1.406  0.8409 -0.2823  0.0049
 7600SOL    HW134433   2.556   4.276   1.398  0.8056 -0.8247  0.3428
 7600SOL    HW234434   2.440   4.227   1.477  2.0422  1.3615  1.7894
 7601SOL     OW34435   0.609   3.430   6.498  0.8435  0.0445 -0.1887
 7601SOL    HW134436   0.600   3.525   6.501  1.3492  0.1503 -1.7524
 7601SOL    HW234437   0.523   3.398   6.525  0.1261  1.0105 -1.3086
 7602SOL     OW34438   4.152   0.069   5.310 -0.2250 -0.5369 -0.2852
 7602SOL    HW134439   4.151   0.031   5.398 -1.2762  0.4379  0.1208
 7602SOL    HW234440   4.177   0.158   5.335 -1.3431  0.5255 -2.9915
 7603SOL     OW34441   1.306   3.593   7.346  0.4353  0.0627  0.3052
 7603SOL    HW134442   1.391   3.550   7.352  0.0446 -0.8296 -0.7296
 7603SOL    HW234443   1.305   3.641   7.429 -0.2509  1.1827 -0.3384
 7604SOL     OW34444   2.167   2.033   0.557 -0.4019  0.0912  0.4036
 7604SOL    HW134445   2.118   1.956   0.529  0.5170 -0.2599 -0.2456
 7604SOL    HW234446   2.255   1.998   0.541 -0.8095 -1.7609  2.2626
 7605SOL     OW34447   4.453   3.313  11.606 -0.0354 -0.6034 -0.1469
 7605SOL    HW134448   4.432   3.257  11.680  0.3277  1.1547  1.3032
 7605SOL    HW234449   4.547   3.296  11.610  0.3245  1.3854 -0.2069
 7606SOL     OW34450   4.271   3.570   6.728 -0.4154  0.1834  0.5918
 7606SOL    HW134451   4.266   3.486   6.774 -0.5420 -0.1356 -0.0040
 7606SOL    HW234452   4.203   3.548   6.664 -0.4432  2.4343 -0.1306
 7607SOL     OW34453   1.510   3.729   4.095 -0.2434  0.4607  0.0145
 7607SOL    HW134454   1.458   3.667   4.043 -0.7118  1.5904 -0.8681
 7607SOL    HW234455   1.591   3.703   4.051 -0.8640 -2.5021  0.6271
 7608SOL     OW34456   2.967   0.251   0.664 -0.2836  0.3890 -0.2201
 7608SOL    HW134457   2.994   0.250   0.572  0.8416  0.5416  0.1005
 7608SOL    HW234458   3.051   0.215   0.695 -0.0663  1.8005  0.8228
 7609SOL     OW34459   2.108   4.530  10.078  0.1232 -0.2337  0.0103
 7609SOL    HW134460   2.157   4.612  10.078 -0.4903  0.1271  1.6816
 7609SOL    HW234461   2.168   4.473  10.127  0.0512  1.2158  1.7914
 7610SOL     OW34462   2.350   0.886   8.214 -0.5634 -0.2207 -0.9990
 7610SOL    HW134463   2.268   0.872   8.166 -0.5905 -0.9568 -0.7338
 7610SOL    HW234464   2.354   0.831   8.292 -2.3554 -0.5180 -1.1130
 7611SOL     OW34465   4.455   2.321   4.152 -0.0836  0.5954  0.5605
 7611SOL    HW134466   4.367   2.342   4.121 -0.1278  1.3269  1.1857
 7611SOL    HW234467   4.453   2.392   4.217 -2.8046  2.7246 -1.8045
 7612SOL     OW34468   2.414   3.364   7.796  0.4558 -0.4246 -0.4846
 7612SOL    HW134469   2.351   3.300   7.828 -0.3395  0.7459  0.2720
 7612SOL    HW234470   2.381   3.447   7.831  0.7523 -0.1770 -0.7897
 7613SOL     OW34471   1.307   1.930   7.050  0.2217 -0.0651 -0.4527
 7613SOL    HW134472   1.239   1.977   7.002  1.0824  0.2524 -1.3546
 7613SOL    HW234473   1.285   1.953   7.141 -1.4794 -0.6378 -0.7281
 7614SOL     OW34474   2.661   3.442   2.815 -0.9052  0.1988 -0.2296
 7614SOL    HW134475   2.634   3.369   2.760 -4.2476  1.6830 -0.5301
 7614SOL    HW234476   2.582   3.495   2.815 -0.5408  0.7478 -0.1819
 7615SOL     OW34477   1.597   3.061   9.282 -0.0265 -0.1219  0.5541
 7615SOL    HW134478   1.593   3.066   9.378  0.4526  0.2921  0.5508
 7615SOL    HW234479   1.598   3.147   9.240  0.6774 -0.2805  0.2578
 7616SOL     OW34480   4.126   3.563   4.316  0.0425  0.4973 -0.3650
 7616SOL    HW134481   4.137   3.497   4.384 -1.5581  0.2203 -0.3712
 7616SOL    HW234482   4.125   3.644   4.365  0.2872  0.9948 -1.1751
 7617SOL     OW34483   2.673   3.245  12.546 -0.1633 -0.1745 -0.2916
 7617SOL    HW134484   2.712   3.275  12.464  0.7277 -3.1263 -0.9488
 7617SOL    HW234485   2.747   3.250  12.606  1.1643 -0.5042 -1.8907
 7618SOL     OW34486   2.258   1.180   3.963  0.2227  0.9721  0.5493
 7618SOL    HW134487   2.216   1.145   4.042 -1.3573 -2.2691 -1.7364
 7618SOL    HW234488   2.180   1.185   3.908  0.3774 -0.7974  0.1500
 7619SOL     OW34489   3.994   2.586   5.865  0.1283  0.3842 -0.0685
 7619SOL    HW134490   3.916   2.580   5.921 -0.2601  0.4652 -0.6088
 7619SOL    HW234491   3.978   2.519   5.799 -0.4350  0.6900 -0.2360
 7620SOL     OW34492   3.905   2.655  13.292 -0.3128  1.1857 -0.2143
 7620SOL    HW134493   3.931   2.578  13.342 -0.0732  1.5234  0.1832
 7620SOL    HW234494   3.868   2.702  13.366 -1.6764 -2.7314  1.5859
 7621SOL     OW34495   3.214   1.534   3.349 -0.2452 -0.0756 -0.4414
 7621SOL    HW134496   3.184   1.556   3.261 -2.8429 -2.2976 -0.1192
 7621SOL    HW234497   3.307   1.526   3.328  0.3409 -1.4399  2.6149
 7622SOL     OW34498   3.848   3.332  10.816 -0.0678 -0.2789  0.6608
 7622SOL    HW134499   3.753   3.326  10.809 -0.2546 -0.5493  3.1498
 7622SOL    HW234500   3.857   3.341  10.911  0.3209 -3.1957  0.8818
 7623SOL     OW34501   0.084   2.338   8.146  0.3142 -0.1022 -0.1898
 7623SOL    HW134502   0.086   2.345   8.051 -2.3021  0.3909 -0.1896
 7623SOL    HW234503   0.170   2.300   8.164 -0.6888 -2.1700  0.2753
 7624SOL     OW34504   4.693   0.458  14.058  0.1579  0.5465 -0.7783
 7624SOL    HW134505   4.623   0.434  14.118 -0.5071  0.5209 -1.5603
 7624SOL    HW234506   0.029   0.408  14.084  0.2801  1.1437  0.0413
 7625SOL     OW34507   3.841   4.157   2.722  0.0032  0.1054  0.4052
 7625SOL    HW134508   3.890   4.145   2.804 -0.0856  0.8165  0.5644
 7625SOL    HW234509   3.888   4.233   2.686 -0.7716 -0.0962 -0.9939
 7626SOL     OW34510   4.309   2.087   2.571 -0.0683 -0.0385  0.8148
 7626SOL    HW134511   4.312   2.081   2.667 -1.8935  0.2369  0.8728
 7626SOL    HW234512   4.333   1.996   2.554 -0.0606 -0.1656  1.5002
 7627SOL     OW34513   3.060   2.354   4.989 -0.4014 -0.5544  0.0180
 7627SOL    HW134514   3.025   2.317   5.069  0.5742  0.5893  0.9853
 7627SOL    HW234515   3.002   2.429   4.972 -0.8390 -0.8318  0.3092
 7628SOL     OW34516   0.405   4.707   7.735 -0.1934 -0.5044 -0.0901
 7628SOL    HW134517   0.403   4.622   7.692 -0.7683 -0.6666  0.2533
 7628SOL    HW234518   0.500   4.713   7.746 -0.2297 -0.3821  0.1584
 7629SOL     OW34519   2.662   1.695  16.265 -0.0047 -0.5513  0.2522
 7629SOL    HW134520   2.720   1.674  16.192 -1.1653 -0.5391 -0.6562
 7629SOL    HW234521   2.703   1.647  16.338 -0.1128 -1.4131 -0.2621
 7630SOL     OW34522   1.566   1.110  10.224  0.2532  0.6545 -0.0008
 7630SOL    HW134523   1.571   1.102  10.319 -0.7076 -0.4331 -0.0350
 7630SOL    HW234524   1.542   1.202  10.217  0.3406  0.6590 -0.2388
 7631SOL     OW34525   3.155   0.917   3.161 -0.4414  0.0933  0.7300
 7631SOL    HW134526   3.144   0.922   3.066  0.0331 -0.7578  0.6287
 7631SOL    HW234527   3.090   0.850   3.183  0.1830 -0.8600 -0.3178
 7632SOL     OW34528   1.443   0.111   8.110  0.0443 -0.1408 -0.0230
 7632SOL    HW134529   1.519   0.166   8.130 -1.2940  1.7900 -0.2143
 7632SOL    HW234530   1.472   0.086   8.022 -2.6561 -0.7835 -0.7455
 7633SOL     OW34531   2.071   1.182   9.155 -0.4288 -0.2295  0.8214
 7633SOL    HW134532   2.005   1.211   9.219 -1.0605 -0.3591  0.2251
 7633SOL    HW234533   2.134   1.139   9.214  0.5208 -2.0829 -1.5718
 7634SOL     OW34534   2.120   0.785   8.124 -0.0133  1.5053  0.0053
 7634SOL    HW134535   2.030   0.776   8.155  1.3709 -0.1665  3.5725
 7634SOL    HW234536   2.122   0.692   8.099  3.0027  1.4025  0.5107
 7635SOL     OW34537   0.618   4.634   7.022  0.1434 -0.5535  0.1279
 7635SOL    HW134538   0.523   4.637   7.013  0.3157  0.2195 -1.4638
 7635SOL    HW234539   0.627   4.599   7.111 -1.1687 -0.6181  0.2303
 7636SOL     OW34540   0.174   4.735  10.995  0.1271  0.2509  0.6077
 7636SOL    HW134541   0.225   0.031  11.067  0.6307  0.5441  0.1006
 7636SOL    HW234542   0.195   0.056  10.925 -1.6796 -0.1261 -0.2737
 7637SOL     OW34543   2.471   1.326   7.607 -1.0429 -0.2253  0.5757
 7637SOL    HW134544   2.530   1.306   7.535 -0.3274  2.3035  0.4730
 7637SOL    HW234545   2.520   1.281   7.677  1.7687  2.0160  0.0763
 7638SOL     OW34546   3.708   2.638   3.354 -0.4917  0.1833 -0.0174
 7638SOL    HW134547   3.747   2.667   3.271 -0.5247  1.4775  0.4128
 7638SOL    HW234548   3.782   2.597   3.397  0.2653  1.4278 -0.1357
 7639SOL     OW34549   2.619   1.523  12.187 -0.4831  0.2966  0.1155
 7639SOL    HW134550   2.652   1.533  12.098  1.0279 -0.2443  0.6234
 7639SOL    HW234551   2.691   1.502  12.246 -0.1328  2.3491  0.4308
 7640SOL     OW34552   0.242   2.188  17.342 -0.1526  0.6021 -0.0961
 7640SOL    HW134553   0.236   2.235  17.426 -1.2914 -0.0786  0.2079
 7640SOL    HW234554   0.149   2.191  17.320  0.1673 -0.5952 -1.5542
 7641SOL     OW34555   3.105   0.589   4.900  0.2746  0.1400 -0.0634
 7641SOL    HW134556   3.146   0.536   4.832  0.4990 -1.1635  1.0857
 7641SOL    HW234557   3.016   0.555   4.899 -0.2182  1.3659  1.3421
 7642SOL     OW34558   2.282   1.055   6.136  0.9805  0.1227  0.2763
 7642SOL    HW134559   2.238   1.002   6.069  2.7825 -0.6754 -0.2817
 7642SOL    HW234560   2.218   1.057   6.207  1.0408 -1.7027  0.3948
 7643SOL     OW34561   4.513   0.999   9.489 -0.2438 -0.5152  0.0645
 7643SOL    HW134562   4.550   0.948   9.561  0.9279  0.8204  0.4045
 7643SOL    HW234563   4.426   0.964   9.472 -0.8693  1.2851 -0.4500
 7644SOL     OW34564   3.150   1.681  13.122 -0.4282 -0.3591 -0.2043
 7644SOL    HW134565   3.144   1.762  13.072  2.8718 -0.2061 -0.3512
 7644SOL    HW234566   3.061   1.646  13.125 -0.1727 -1.1144 -1.3710
 7645SOL     OW34567   4.374   0.958   6.628 -0.1517  0.0658  0.2993
 7645SOL    HW134568   4.295   1.003   6.659  0.0979 -0.2681  1.4400
 7645SOL    HW234569   4.408   0.921   6.710  0.1986  0.4948  0.3501
 7646SOL     OW34570   3.038   0.648   1.509 -0.0738 -0.1347 -0.5553
 7646SOL    HW134571   3.063   0.738   1.488  0.8541 -0.1408  0.5137
 7646SOL    HW234572   2.969   0.674   1.570  0.1097 -1.8881  0.4065
 7647SOL     OW34573   4.027   3.121   8.234 -0.0350  0.2932 -0.0085
 7647SOL    HW134574   3.947   3.111   8.287  1.0848 -2.7723  1.0967
 7647SOL    HW234575   4.077   3.049   8.274  2.1228  0.1084 -3.0654
 7648SOL     OW34576   2.631   2.978  12.617 -0.8353  0.1239 -0.5749
 7648SOL    HW134577   2.642   3.071  12.599  0.4606 -0.0452 -0.6138
 7648SOL    HW234578   2.611   2.949  12.528 -1.5333 -0.8635 -0.1025
 7649SOL     OW34579   0.719   2.538   7.882  0.0687  0.4728  0.0342
 7649SOL    HW134580   0.792   2.528   7.943  0.3844  1.3140 -0.2064
 7649SOL    HW234581   0.713   2.634   7.883  1.5748  0.5642 -0.3629
 7650SOL     OW34582   0.571   4.414   5.252  0.3246  0.0897 -0.2661
 7650SOL    HW134583   0.645   4.467   5.223  0.3775 -0.4823 -1.2014
 7650SOL    HW234584   0.504   4.481   5.243  0.4141  0.3104  0.7853
 7651SOL     OW34585   2.898   1.996   8.935 -0.0883 -0.5938  0.1737
 7651SOL    HW134586   2.807   2.023   8.945 -1.0660 -4.0128  0.5156
 7651SOL    HW234587   2.920   1.970   9.025 -0.8978  4.3114  1.7938
 7652SOL     OW34588   1.909   0.975   2.010  0.3803  0.5281  0.5409
 7652SOL    HW134589   1.948   1.057   2.040  0.8628 -0.1467  1.7481
 7652SOL    HW234590   1.980   0.948   1.952 -0.8984 -1.3441 -0.1466
 7653SOL     OW34591   2.323   3.204  15.500  0.4550  0.7368  0.6295
 7653SOL    HW134592   2.303   3.273  15.437  0.4917 -1.1688 -1.4788
 7653SOL    HW234593   2.276   3.239  15.575 -2.0342  1.2128 -1.1513
 7654SOL     OW34594   0.962   2.593   2.844  0.5371 -0.5155 -0.2788
 7654SOL    HW134595   0.898   2.664   2.853 -0.4977 -1.5049  0.2333
 7654SOL    HW234596   1.013   2.593   2.925 -0.7562 -2.0727  0.5492
 7655SOL     OW34597   1.614   1.696   7.195 -0.2405  0.2925 -0.3328
 7655SOL    HW134598   1.565   1.758   7.248 -1.0407  0.6984 -1.5495
 7655SOL    HW234599   1.574   1.712   7.110 -3.2349 -1.5228  0.7173
 7656SOL     OW34600   3.968   2.435   8.003  0.4355 -0.2887  0.4393
 7656SOL    HW134601   3.892   2.486   8.030 -0.7902 -2.8089  1.7481
 7656SOL    HW234602   3.961   2.376   8.078 -0.4254  0.6906  1.1262
 7657SOL     OW34603   4.574   1.948   5.610  0.6401  0.4278 -0.4396
 7657SOL    HW134604   4.590   2.022   5.552  0.1866 -0.5631 -1.8470
 7657SOL    HW234605   4.561   1.985   5.697  0.0665  1.4043 -0.9459
 7658SOL     OW34606   4.083   4.090   4.419 -0.5366 -0.3920 -0.5178
 7658SOL    HW134607   4.070   4.020   4.483 -1.1184 -2.0277 -2.4546
 7658SOL    HW234608   4.082   4.027   4.347 -1.1538 -1.6146  0.5592
 7659SOL     OW34609   4.103   1.380   4.330 -0.4864  0.2638  0.0899
 7659SOL    HW134610   4.130   1.329   4.254 -1.6974  2.1091 -1.5838
 7659SOL    HW234611   4.011   1.400   4.314 -0.4914 -0.8099 -1.1858
 7660SOL     OW34612   0.942   3.169   9.456 -0.2760 -0.4005  0.5262
 7660SOL    HW134613   0.855   3.200   9.481  0.2843  0.6300  1.1829
 7660SOL    HW234614   0.972   3.126   9.537  1.2367  1.0722  0.7531
 7661SOL     OW34615   3.799   2.791   6.967  0.9293 -0.5597 -0.3688
 7661SOL    HW134616   3.849   2.871   6.950 -1.9808  1.1197 -1.0857
 7661SOL    HW234617   3.741   2.787   6.892  0.2010 -3.5274  0.3599
 7662SOL     OW34618   1.072   2.599  14.750  0.2145  0.7622  0.0542
 7662SOL    HW134619   1.114   2.681  14.725 -1.2308  1.3102 -0.6332
 7662SOL    HW234620   1.082   2.556  14.666 -2.9583 -0.0012  0.0347
 7663SOL     OW34621   0.812   1.139   3.484 -0.3610 -0.1026 -0.3753
 7663SOL    HW134622   0.804   1.054   3.440  1.4595 -1.1129  1.2343
 7663SOL    HW234623   0.819   1.199   3.410  1.0777 -0.8919 -0.8993
 7664SOL     OW34624   4.089   1.609   8.303 -0.8119 -0.1669  0.4325
 7664SOL    HW134625   4.119   1.528   8.261 -0.5511  1.2099 -2.0076
 7664SOL    HW234626   4.134   1.665   8.240 -3.6051  3.0701  1.3028
 7665SOL     OW34627   1.538   2.828   9.898  0.1813  0.2310 -0.2402
 7665SOL    HW134628   1.527   2.812   9.991  0.7897  4.4879  0.5704
 7665SOL    HW234629   1.581   2.913   9.904 -1.7074  1.2623 -1.2036
 7666SOL     OW34630   4.347   0.578   8.213  0.4021 -0.8629  0.0776
 7666SOL    HW134631   4.400   0.656   8.193 -0.4051 -0.2671  0.2576
 7666SOL    HW234632   4.317   0.606   8.299  0.9517 -1.1196  0.3492
 7667SOL     OW34633   4.175   2.146   8.915 -0.2165 -0.2939  0.0651
 7667SOL    HW134634   4.236   2.174   8.983 -0.4524 -1.5305  0.7694
 7667SOL    HW234635   4.101   2.107   8.961  0.3558 -1.4990 -0.0530
 7668SOL     OW34636   3.577   3.228   4.806 -0.0745 -1.2622  0.3673
 7668SOL    HW134637   3.671   3.235   4.790 -0.5125  0.2364 -1.5919
 7668SOL    HW234638   3.542   3.195   4.723  0.9338 -2.0567  0.2676
 7669SOL     OW34639   0.534   2.706   2.599  0.8716 -0.0377  0.3965
 7669SOL    HW134640   0.448   2.739   2.625 -0.7947 -2.0486 -2.4844
 7669SOL    HW234641   0.539   2.633   2.660 -0.7598 -0.9966 -0.6101
 7670SOL     OW34642   2.907   4.684  17.462  0.3133 -0.3693 -0.1504
 7670SOL    HW134643   2.916   4.593  17.434 -1.8667 -0.4064 -0.7219
 7670SOL    HW234644   2.997   4.716  17.470 -0.0795  0.9320 -1.0370
 7671SOL     OW34645   0.297   1.211   2.200  0.0914 -0.2431  0.3652
 7671SOL    HW134646   0.271   1.152   2.129 -0.3048 -2.0916  2.0237
 7671SOL    HW234647   0.368   1.159   2.239 -0.5011 -1.1527  0.2386
 7672SOL     OW34648   0.605   2.726   9.741 -0.0277  0.7077 -0.7903
 7672SOL    HW134649   0.670   2.794   9.720  0.0746  1.1491  0.9820
 7672SOL    HW234650   0.586   2.685   9.657 -1.9282 -1.1427  0.5657
 7673SOL     OW34651   2.259   2.672   6.445  0.0935  0.4184  0.5279
 7673SOL    HW134652   2.332   2.615   6.469 -0.9533 -1.9538 -1.9535
 7673SOL    HW234653   2.252   2.722   6.526  0.0539  0.1223  0.7076
 7674SOL     OW34654   3.938   1.827  17.052 -0.4302 -0.0579  0.2743
 7674SOL    HW134655   3.985   1.849  16.972  0.2763  1.9832  1.2249
 7674SOL    HW234656   3.904   1.738  17.049  2.9882 -1.2227 -3.8026
 7675SOL     OW34657   4.405   0.341   0.190  0.4026 -0.7826  0.3654
 7675SOL    HW134658   4.314   0.370   0.181  0.7106 -0.4507 -1.7524
 7675SOL    HW234659   4.449   0.414   0.234 -0.2728  0.1439 -0.4914
 7676SOL     OW34660   1.209   0.807  12.239 -0.1891 -0.4516 -0.1831
 7676SOL    HW134661   1.260   0.815  12.159  0.1924 -0.5629  0.0521
 7676SOL    HW234662   1.274   0.809  12.309 -0.9315  2.6045  0.4169
 7677SOL     OW34663   1.939   1.646  17.013 -0.2512 -0.3874  0.1289
 7677SOL    HW134664   2.003   1.635  16.943 -1.1609  1.1815 -0.9425
 7677SOL    HW234665   1.886   1.707  16.963 -0.8986 -0.6125  0.5412
 7678SOL     OW34666   0.684   1.470   4.644 -0.0414  0.0074  0.2608
 7678SOL    HW134667   0.777   1.455   4.627 -0.2671 -0.0960 -0.8906
 7678SOL    HW234668   0.683   1.565   4.643 -1.8773  0.0191  2.0924
 7679SOL     OW34669   4.157   1.851   3.464  0.2751  0.1431 -0.2937
 7679SOL    HW134670   4.124   1.781   3.521 -1.6467 -0.1230 -1.7344
 7679SOL    HW234671   4.243   1.813   3.450  0.7176  0.0461  2.6855
 7680SOL     OW34672   1.883   3.497   4.888  0.0532 -0.7295 -0.5556
 7680SOL    HW134673   1.849   3.414   4.923 -5.1657  1.0359 -1.4707
 7680SOL    HW234674   1.977   3.480   4.884  0.7183  2.3403  1.7951
 7681SOL     OW34675   2.455   3.957   6.511 -0.6700  0.3968  0.0263
 7681SOL    HW134676   2.507   3.892   6.559 -0.5923  0.1865 -0.3495
 7681SOL    HW234677   2.364   3.927   6.521 -0.3430 -0.6109 -0.0217
 7682SOL     OW34678   1.676   1.136   8.801  0.6986 -0.1365 -0.3191
 7682SOL    HW134679   1.600   1.084   8.826  0.5868  0.7688  1.2662
 7682SOL    HW234680   1.705   1.076   8.733  0.8866  0.2198 -0.5561
 7683SOL     OW34681   4.077   0.187  15.578  0.3282  0.1764  0.1004
 7683SOL    HW134682   3.996   0.230  15.607 -0.3252 -0.8223 -0.2451
 7683SOL    HW234683   4.123   0.268  15.556 -0.4185  0.1563 -1.5122
 7684SOL     OW34684   1.166   4.148  10.827  0.3831 -0.0079  0.7354
 7684SOL    HW134685   1.099   4.118  10.888 -0.6803  0.6038 -0.1395
 7684SOL    HW234686   1.212   4.214  10.880  0.6552  0.8504 -0.5732
 7685SOL     OW34687   0.189   1.265   3.474  0.2433 -0.6152  0.9431
 7685SOL    HW134688   0.207   1.229   3.387  0.9338  0.3256  0.6961
 7685SOL    HW234689   0.214   1.202   3.541  1.6575  0.7540  1.6965
 7686SOL     OW34690   0.515   3.740   3.541 -0.2893 -0.1237 -0.2860
 7686SOL    HW134691   0.495   3.648   3.520 -0.7908 -0.1633  0.3517
 7686SOL    HW234692   0.609   3.739   3.558 -1.1177 -0.1558  4.2993
 7687SOL     OW34693   3.429   2.234  12.913  0.1409 -0.5751  0.1789
 7687SOL    HW134694   3.394   2.151  12.943  0.5294  0.2888  3.0260
 7687SOL    HW234695   3.521   2.212  12.928  0.3932  0.7744  0.5998
 7688SOL     OW34696   1.661   1.681   1.251 -0.0967  0.1824  0.5342
 7688SOL    HW134697   1.715   1.753   1.219  0.0680  0.3279  1.1472
 7688SOL    HW234698   1.728   1.614   1.238  0.1807  0.8213 -1.4203
 7689SOL     OW34699   0.770   4.123   3.406 -0.3379  1.2051  0.0006
 7689SOL    HW134700   0.789   4.169   3.488  1.8439 -1.2363  0.8594
 7689SOL    HW234701   0.856   4.129   3.365 -0.1775 -2.2041 -0.1372
 7690SOL     OW34702   2.632   0.820   7.748  0.2317  0.3141 -0.2142
 7690SOL    HW134703   2.666   0.809   7.837  0.8544  0.1671 -0.4678
 7690SOL    HW234704   2.713   0.835   7.700 -0.9741  1.8360 -1.7523
 7691SOL     OW34705   0.377   1.408   7.325 -0.3749 -0.4926  0.5867
 7691SOL    HW134706   0.372   1.503   7.342 -0.4866 -0.1455 -1.3963
 7691SOL    HW234707   0.461   1.400   7.279 -0.9443 -2.2360 -0.1336
 7692SOL     OW34708   2.122   2.420   4.387 -0.4367 -0.1182 -0.1303
 7692SOL    HW134709   2.173   2.343   4.411  1.7882  2.1581  2.5072
 7692SOL    HW234710   2.054   2.382   4.332 -0.3123 -0.3111 -0.1514
 7693SOL     OW34711   2.784   2.580   9.585 -0.0369 -0.3439  0.2037
 7693SOL    HW134712   2.770   2.624   9.669 -0.5287  1.3014 -0.7533
 7693SOL    HW234713   2.798   2.655   9.527  0.0606 -0.9845 -0.6001
 7694SOL     OW34714   3.512   3.916   4.964 -0.1485  0.4540  0.3551
 7694SOL    HW134715   3.514   3.826   4.932  3.3553  0.6245  0.0930
 7694SOL    HW234716   3.423   3.935   4.933  0.3746 -1.1801 -2.1379
 7695SOL     OW34717   3.461   0.000   7.854  0.0889 -0.2461 -0.7834
 7695SOL    HW134718   3.526   4.714   7.918 -1.0275 -1.5884 -0.2229
 7695SOL    HW234719   3.437   4.660   7.809  2.0481 -0.1981 -1.8980
 7696SOL     OW34720   0.729   2.145  12.955  0.2675 -0.2590 -0.5265
 7696SOL    HW134721   0.710   2.108  13.041  1.2866  1.1148  0.2798
 7696SOL    HW234722   0.804   2.093  12.925 -2.1389 -3.2601 -1.3066
 7697SOL     OW34723   0.758   3.878  11.797  0.0246  0.4304  0.1001
 7697SOL    HW134724   0.765   3.793  11.842  2.5030  0.5056 -0.1709
 7697SOL    HW234725   0.666   3.885  11.772 -0.2303  1.6234  1.3983
 7698SOL     OW34726   0.037   1.482  10.478  0.1405  0.5408 -0.3667
 7698SOL    HW134727   0.101   1.524  10.422  3.1505 -2.8412  0.4681
 7698SOL    HW234728   0.008   1.557  10.529 -0.9050  1.1383 -1.8434
 7699SOL     OW34729   2.366   0.043  16.098 -0.6033 -0.1795  0.2392
 7699SOL    HW134730   2.386   0.120  16.149 -1.2159 -0.8051  1.4315
 7699SOL    HW234731   2.337   0.087  16.018 -0.7582 -1.0852 -0.2074
 7700SOL     OW34732   1.092   1.598   4.317  0.6215 -0.1212  0.2427
 7700SOL    HW134733   1.117   1.626   4.229 -0.2499 -0.4370 -0.1033
 7700SOL    HW234734   1.155   1.527   4.327 -1.3208 -1.7446  1.0831
 7701SOL     OW34735   1.163   1.552  12.227 -0.5620 -0.3988 -0.0256
 7701SOL    HW134736   1.079   1.589  12.253 -1.2653 -2.0614  0.0200
 7701SOL    HW234737   1.153   1.459  12.245  0.7714  0.0703  3.2219
 7702SOL     OW34738   3.325   3.775   6.036 -0.3985 -0.2983 -0.1472
 7702SOL    HW134739   3.272   3.710   6.084 -3.1509  0.5498 -2.0337
 7702SOL    HW234740   3.376   3.716   5.981 -0.0741  0.9892 -1.2349
 7703SOL     OW34741   3.468   0.611  13.700  0.7256 -0.0734  0.1928
 7703SOL    HW134742   3.405   0.597  13.771 -0.0015  0.0287 -0.4361
 7703SOL    HW234743   3.536   0.556  13.740 -1.2601 -2.4208  0.3036
 7704SOL     OW34744   4.534   4.356   7.940 -0.0328  0.1303 -0.2756
 7704SOL    HW134745   4.619   4.398   7.929 -1.0893  2.7786  1.8059
 7704SOL    HW234746   4.480   4.434   7.927  1.3609  0.6942 -2.5845
 7705SOL     OW34747   3.744   0.047   7.197  0.3240  0.0274 -0.3013
 7705SOL    HW134748   3.758   0.025   7.289  0.5384 -1.3375 -0.6595
 7705SOL    HW234749   3.652   0.068   7.188  0.5287  1.3781  0.8727
 7706SOL     OW34750   3.253   1.527   8.177 -0.4786  0.2712 -0.1054
 7706SOL    HW134751   3.249   1.568   8.090 -0.1893 -1.2485 -0.8350
 7706SOL    HW234752   3.346   1.542   8.198 -1.0744 -0.4430  3.0227
 7707SOL     OW34753   2.224   0.186  11.897 -0.1118 -0.1852  0.0200
 7707SOL    HW134754   2.199   0.162  11.808  0.5456 -0.3493 -0.1246
 7707SOL    HW234755   2.139   0.216  11.929 -0.2786  0.7228 -1.3182
 7708SOL     OW34756   3.225   0.670  10.509  0.4662  0.5598  0.2862
 7708SOL    HW134757   3.269   0.756  10.511 -1.8189  1.7725 -2.1955
 7708SOL    HW234758   3.293   0.627  10.458  0.3294 -0.1482  0.6984
 7709SOL     OW34759   4.071   0.030  14.587 -0.1616 -0.3605 -0.3566
 7709SOL    HW134760   4.133   0.056  14.519  1.8927 -1.8615  0.9176
 7709SOL    HW234761   4.127   0.025  14.665  0.5982  0.5816 -0.8457
 7710SOL     OW34762   4.544   2.314  12.986  0.0229  0.4682  0.0984
 7710SOL    HW134763   4.555   2.409  12.994  0.5457  0.5169 -1.1536
 7710SOL    HW234764   4.631   2.274  12.985 -0.5922 -0.9735  2.6421
 7711SOL     OW34765   0.644   3.701   8.715  0.2485  0.2936  0.4056
 7711SOL    HW134766   0.734   3.678   8.691 -0.3029 -0.7481 -0.6795
 7711SOL    HW234767   0.605   3.708   8.628 -0.0794  2.1912  0.7068
 7712SOL     OW34768   1.199   4.022  10.111  0.0529  0.0808 -0.1044
 7712SOL    HW134769   1.103   4.024  10.113  0.1036  1.7500  1.0791
 7712SOL    HW234770   1.215   4.047  10.020 -1.2058  0.8299 -0.1186
 7713SOL     OW34771   3.108   0.920   1.560 -0.1640 -0.3250 -0.1187
 7713SOL    HW134772   3.114   0.945   1.652  1.4937 -0.3054 -0.2395
 7713SOL    HW234773   3.106   1.009   1.526  1.5956 -1.2456 -2.6464
 7714SOL     OW34774   1.585   2.916   2.112 -0.7182  0.3025  0.3168
 7714SOL    HW134775   1.526   2.883   2.044 -2.4014  0.5237  1.6698
 7714SOL    HW234776   1.617   2.997   2.072 -2.4024 -0.2596 -2.2228
 7715SOL     OW34777   2.216   3.723   4.454 -0.6144 -0.2505 -0.0917
 7715SOL    HW134778   2.236   3.774   4.533 -1.2591 -0.5371  0.2568
 7715SOL    HW234779   2.257   3.781   4.390  0.1297  0.9856  1.4783
 7716SOL     OW34780   0.244   0.853   1.208  0.5532  0.4985  0.4731
 7716SOL    HW134781   0.314   0.837   1.145  0.5087  2.7167 -0.1371
 7716SOL    HW234782   0.289   0.933   1.237  2.3224  0.0123 -0.9707
 7717SOL     OW34783   2.346   0.240   7.458  0.3605 -0.7286  0.1007
 7717SOL    HW134784   2.404   0.217   7.386  1.7840  2.6419  0.1580
 7717SOL    HW234785   2.406   0.305   7.496  1.0311 -0.8554 -0.7635
 7718SOL     OW34786   2.450   2.913   8.716  0.4855 -0.2236  0.1398
 7718SOL    HW134787   2.501   2.876   8.644 -2.0833 -2.6324 -0.4471
 7718SOL    HW234788   2.514   2.905   8.787 -0.2839  0.1103  0.8722
 7719SOL     OW34789   4.234   0.732  13.345  0.3775  0.0992  0.2528
 7719SOL    HW134790   4.217   0.659  13.404 -2.3999  0.9036  0.4623
 7719SOL    HW234791   4.229   0.692  13.258 -1.8590 -1.4585  1.0917
 7720SOL     OW34792   1.579   2.179   7.320 -0.3618  0.7106  0.3833
 7720SOL    HW134793   1.656   2.143   7.365 -0.2269  1.0046  0.3866
 7720SOL    HW234794   1.606   2.171   7.229 -0.8118  2.0948  0.1289
 7721SOL     OW34795   0.225   1.237  14.219 -0.1422 -0.0726  0.5264
 7721SOL    HW134796   0.170   1.235  14.140  1.3130  0.5466 -0.5029
 7721SOL    HW234797   0.181   1.162  14.258  0.4788 -1.2119 -0.9742
 7722SOL     OW34798   2.491   1.238   1.235  0.3664  0.4973  0.2834
 7722SOL    HW134799   2.444   1.160   1.263 -0.2225  0.0998 -1.7669
 7722SOL    HW234800   2.467   1.299   1.304  0.7483  1.4583 -0.4237
 7723SOL     OW34801   4.662   2.266   7.866 -0.6046  0.1687 -0.3305
 7723SOL    HW134802   4.582   2.276   7.814  0.1495  1.8698 -1.1206
 7723SOL    HW234803   4.649   2.180   7.906 -0.1272  0.3125  0.1327
 7724SOL     OW34804   3.220   0.946   4.928 -0.3932 -0.5365 -0.1427
 7724SOL    HW134805   3.283   1.018   4.935  2.9084 -3.2610 -1.8742
 7724SOL    HW234806   3.256   0.884   4.864  2.5224  2.6631 -1.6094
 7725SOL     OW34807   4.114   0.513   9.900 -0.7893  0.3227  0.3979
 7725SOL    HW134808   4.075   0.473   9.978 -0.6494  0.1232  0.3643
 7725SOL    HW234809   4.033   0.541   9.856 -1.3899 -1.2199  0.5360
 7726SOL     OW34810   2.065   0.886  14.105  0.3241 -0.2154 -0.0124
 7726SOL    HW134811   2.038   0.837  14.183  0.0005 -1.3646 -0.8452
 7726SOL    HW234812   2.069   0.977  14.134 -2.5191  0.2011 -0.9298
 7727SOL     OW34813   3.303   3.534   5.327  0.2991  0.2832 -0.2461
 7727SOL    HW134814   3.312   3.465   5.393 -2.0964 -0.0205 -0.2317
 7727SOL    HW234815   3.390   3.573   5.323 -0.0818  1.2117  0.7514
 7728SOL     OW34816   1.970   3.447  17.354 -0.5569 -0.1806 -0.6151
 7728SOL    HW134817   1.972   3.384  17.426 -2.4102 -0.5497 -0.8780
 7728SOL    HW234818   2.009   3.391  17.287 -1.7928 -0.9838 -0.6543
 7729SOL     OW34819   3.034   2.373  11.552  0.4773  0.5213 -0.7702
 7729SOL    HW134820   2.954   2.396  11.505 -0.4076 -1.0831 -0.0617
 7729SOL    HW234821   3.008   2.381  11.643 -2.5363 -0.8674 -1.5045
 7730SOL     OW34822   3.299   3.064   7.414  0.3034  0.3385  0.0159
 7730SOL    HW134823   3.372   3.127   7.418 -0.6382  1.4503 -0.3863
 7730SOL    HW234824   3.316   3.008   7.489  0.8516  0.3895 -0.0644
 7731SOL     OW34825   4.509   2.882  11.748  0.3271  0.4780  0.6741
 7731SOL    HW134826   4.564   2.810  11.779 -1.1969 -1.4923 -1.1494
 7731SOL    HW234827   4.543   2.896  11.659  0.1741  1.7704  0.8185
 7732SOL     OW34828   2.211   0.794   3.909 -0.2088 -0.5039  0.0769
 7732SOL    HW134829   2.279   0.856   3.938 -0.3879  0.7777 -2.2472
 7732SOL    HW234830   2.137   0.819   3.965 -0.9148 -1.0924 -0.5988
 7733SOL     OW34831   2.557   1.058   1.953  0.6578  0.4514  0.5502
 7733SOL    HW134832   2.609   1.122   2.001  2.9907  1.1942 -3.0245
 7733SOL    HW234833   2.484   1.053   2.015 -0.3521  3.4058 -0.4370
 7734SOL     OW34834   3.165   1.011  17.343 -0.3301 -0.0232  0.8296
 7734SOL    HW134835   3.261   1.019  17.344 -0.2582 -0.7550 -0.5525
 7734SOL    HW234836   3.150   1.028  17.250 -2.5900 -3.8677  0.5005
 7735SOL     OW34837   2.793   0.584   4.883 -0.1412 -0.1961  0.2184
 7735SOL    HW134838   2.710   0.540   4.899  1.3308 -2.6430  1.1565
 7735SOL    HW234839   2.836   0.516   4.830  3.0626  1.2502  0.9314
 7736SOL     OW34840   0.850   0.061  14.334  0.3972  0.0871  0.2088
 7736SOL    HW134841   0.918   0.127  14.321 -0.7797  1.9601  3.5525
 7736SOL    HW234842   0.884   4.740  14.268 -0.3674 -1.4678  1.2567
 7737SOL     OW34843   4.657   0.696   3.085  0.6546 -0.1187 -0.5634
 7737SOL    HW134844   4.562   0.699   3.094  0.6263 -0.9368 -0.5789
 7737SOL    HW234845   4.687   0.787   3.096 -0.3940 -0.1173  2.5393
 7738SOL     OW34846   3.298   3.838   9.220 -0.0371  0.6285  0.1177
 7738SOL    HW134847   3.362   3.768   9.208  1.3555  1.9927 -0.3488
 7738SOL    HW234848   3.257   3.810   9.302 -0.1584 -1.3390 -0.6319
 7739SOL     OW34849   0.254   0.687   7.748  0.5816  0.0844  0.1601
 7739SOL    HW134850   0.205   0.645   7.819  1.8407  0.5645  1.3299
 7739SOL    HW234851   0.276   0.764   7.801 -0.8109 -0.3516  1.3732
 7740SOL     OW34852   1.548   3.120  15.277 -0.2879 -0.3395 -0.6429
 7740SOL    HW134853   1.630   3.096  15.233 -0.2699 -0.9765 -0.2728
 7740SOL    HW234854   1.542   3.045  15.337 -1.1231  0.3107  0.0922
 7741SOL     OW34855   3.820   2.530   6.085  0.0067 -0.3920  0.0702
 7741SOL    HW134856   3.755   2.576   6.137 -0.3766 -1.6181  0.6758
 7741SOL    HW234857   3.862   2.483   6.157 -2.2333  2.2155  3.0196
 7742SOL     OW34858   0.727   2.984   8.897  0.0682  0.2527 -0.0983
 7742SOL    HW134859   0.672   2.961   8.971  1.4446 -2.3965  0.1242
 7742SOL    HW234860   0.733   3.078   8.910  4.8626  0.1227 -1.2529
 7743SOL     OW34861   3.546   3.543  11.372  0.5528 -0.4588  0.1810
 7743SOL    HW134862   3.536   3.560  11.278 -0.4457  1.3178  0.5914
 7743SOL    HW234863   3.631   3.499  11.371  0.3692 -0.6959 -2.8549
 7744SOL     OW34864   2.949   4.512   9.130 -0.4853 -0.5003  0.1448
 7744SOL    HW134865   2.857   4.529   9.110  0.2735 -1.4656 -4.2130
 7744SOL    HW234866   2.961   4.424   9.094  0.7997 -0.4205  0.3788
 7745SOL     OW34867   2.945   2.469  14.723  0.4858  0.3712 -0.1956
 7745SOL    HW134868   2.923   2.501  14.635  0.2522 -0.0386 -0.2871
 7745SOL    HW234869   2.876   2.517  14.769 -0.4057  0.0924 -1.2278
 7746SOL     OW34870   1.733   0.052   2.780  0.6908  0.2114 -0.1021
 7746SOL    HW134871   1.691   0.138   2.774 -0.3862 -0.2476  0.8000
 7746SOL    HW234872   1.757   0.040   2.872 -0.7173 -1.4637  0.0425
 7747SOL     OW34873   3.422   1.549   6.944 -0.1464  0.0908  0.1493
 7747SOL    HW134874   3.487   1.586   6.884 -1.1081  2.8618  0.7780
 7747SOL    HW234875   3.384   1.622   6.994  0.1594 -0.6861  1.5245
 7748SOL     OW34876   3.968   0.038   3.516 -0.1352 -0.1480  0.0802
 7748SOL    HW134877   3.896   0.092   3.482  0.9437  0.5974 -1.0366
 7748SOL    HW234878   3.984   4.724   3.438 -0.7093 -0.4229  0.1591
 7749SOL     OW34879   1.181   1.036  16.264  0.0807  0.4138 -0.1405
 7749SOL    HW134880   1.105   1.084  16.231 -0.7133  1.2130  2.8627
 7749SOL    HW234881   1.250   1.059  16.202 -0.2721  2.0074  0.0623
 7750SOL     OW34882   1.424   1.264   0.729 -0.1918  0.0803 -0.6078
 7750SOL    HW134883   1.414   1.265   0.825  2.8512 -0.4372 -0.2752
 7750SOL    HW234884   1.466   1.178   0.717 -0.5165 -0.0600 -0.7217
 7751SOL     OW34885   3.472   3.954  17.280  0.4453 -0.1690 -0.2575
 7751SOL    HW134886   3.481   4.014  17.354  0.9723 -1.2943  0.5910
 7751SOL    HW234887   3.381   3.971  17.255  0.5491 -1.4999 -1.5801
 7752SOL     OW34888   3.141   0.216  17.360  0.0044  0.2149 -0.0084
 7752SOL    HW134889   3.109   0.203  17.271  0.1828  0.0780 -0.0527
 7752SOL    HW234890   3.222   0.265  17.341  0.4843 -0.2315  0.8969
 7753SOL     OW34891   1.953   4.683   0.087 -0.4938  0.1341  0.0535
 7753SOL    HW134892   1.952   4.713   0.178  1.9969  2.0151 -0.5186
 7753SOL    HW234893   2.047   4.683   0.072 -0.7695 -0.6124 -1.6559
 7754SOL     OW34894   3.996   2.680  17.441  0.9488  0.6478  0.3855
 7754SOL    HW134895   3.970   2.710  17.354  1.4490  0.5333  0.1970
 7754SOL    HW234896   4.062   2.742  17.471 -1.5756  2.6220  1.8606
 7755SOL     OW34897   0.407   1.432   8.965  0.4213 -0.2761 -0.0155
 7755SOL    HW134898   0.321   1.424   8.925  0.1263  0.4842  0.4548
 7755SOL    HW234899   0.432   1.341   8.984  0.3086 -0.0883  1.0612
 7756SOL     OW34900   0.784   4.265   3.671 -0.3836 -0.3128  0.0880
 7756SOL    HW134901   0.855   4.324   3.695 -0.7521  0.2791 -0.2657
 7756SOL    HW234902   0.717   4.322   3.633  0.4015  0.1932 -0.5358
 7757SOL     OW34903   3.879   2.528  17.615  0.0355 -0.2129  0.3662
 7757SOL    HW134904   3.921   2.582  17.548  2.1975 -1.0120  1.0697
 7757SOL    HW234905   3.857   2.444  17.574 -1.8779  0.2581  0.4156
 7758SOL     OW34906   4.290   4.022   2.169 -0.1867 -0.0091  0.9525
 7758SOL    HW134907   4.312   3.962   2.240  4.0638 -3.0741 -2.9999
 7758SOL    HW234908   4.208   3.975   2.153  0.0873 -0.7130  1.6207
 7759SOL     OW34909   4.501   0.592   6.523  0.0034 -0.4808 -0.5209
 7759SOL    HW134910   4.477   0.506   6.490  0.8444 -0.4542 -1.2214
 7759SOL    HW234911   4.427   0.612   6.580  0.8250 -0.3022  0.4740
 7760SOL     OW34912   0.035   2.966   3.005  0.4792  0.1793 -0.0270
 7760SOL    HW134913   4.710   3.019   3.050 -0.2045 -0.0896 -0.7000
 7760SOL    HW234914   0.112   2.965   3.063 -0.7666 -0.9990  1.5967
 7761SOL     OW34915   1.349   1.988  13.139 -0.2725  0.5528  0.4536
 7761SOL    HW134916   1.416   1.955  13.079 -0.9158  1.9179 -1.0136
 7761SOL    HW234917   1.274   1.961  13.086 -1.3665  3.0190  0.7543
 7762SOL     OW34918   1.259   3.539   1.287  0.2932  0.0178  0.6159
 7762SOL    HW134919   1.237   3.503   1.372 -2.9305  1.5794  0.4564
 7762SOL    HW234920   1.177   3.585   1.268  2.2930  3.3337 -0.1364
 7763SOL     OW34921   1.845   0.531  14.689 -0.2330 -0.1690  0.3079
 7763SOL    HW134922   1.756   0.495  14.697 -1.1769  1.9954 -0.5539
 7763SOL    HW234923   1.863   0.524  14.783  1.1526  1.7912  0.1781
 7764SOL     OW34924   4.275   4.703   4.123  0.8579 -0.5348 -0.3468
 7764SOL    HW134925   4.243   4.680   4.210  1.2667  0.4448  0.0616
 7764SOL    HW234926   4.200   4.671   4.072  0.8506 -1.7422  0.4372
 7765SOL     OW34927   1.913   2.271   1.350 -0.1516  0.2406 -0.1710
 7765SOL    HW134928   2.002   2.282   1.317  0.0064 -0.8037 -0.0948
 7765SOL    HW234929   1.911   2.349   1.405  0.3912 -0.3581  0.7119
 7766SOL     OW34930   1.105   2.306   6.867 -0.0631  0.5810  0.4287
 7766SOL    HW134931   1.089   2.352   6.950 -2.2755  1.9581 -0.7704
 7766SOL    HW234932   1.166   2.365   6.824  0.3149 -1.1252 -1.3609
 7767SOL     OW34933   0.761   1.469   9.551  0.4183  0.0748 -0.6325
 7767SOL    HW134934   0.745   1.563   9.556  0.9136  0.1520 -0.4778
 7767SOL    HW234935   0.712   1.431   9.624  2.0244 -1.6726 -0.4642
 7768SOL     OW34936   0.432   0.574   6.897  0.0571 -0.5291  0.3786
 7768SOL    HW134937   0.383   0.492   6.907 -0.9752 -0.1448 -1.4365
 7768SOL    HW234938   0.389   0.610   6.819 -0.1611  1.6006  1.4767
 7769SOL     OW34939   0.086   2.569  15.647  0.5282  0.8154  0.3134
 7769SOL    HW134940   0.126   2.655  15.638  0.9521  0.7274  1.4349
 7769SOL    HW234941   0.117   2.512  15.576 -0.5663 -0.3461  0.7574
 7770SOL     OW34942   2.612   0.304   6.616  0.0960  0.1881 -0.3366
 7770SOL    HW134943   2.577   0.381   6.659  0.0051  0.8466 -1.5870
 7770SOL    HW234944   2.667   0.259   6.681 -0.5843  0.0031  0.1164
 7771SOL     OW34945   1.075   3.079   1.171  0.0271 -0.3129 -0.2485
 7771SOL    HW134946   1.164   3.115   1.170  0.2419 -0.8718 -0.8195
 7771SOL    HW234947   1.028   3.155   1.134  2.5021  1.3720  0.0587
 7772SOL     OW34948   4.378   4.054   5.876 -0.0070  0.5348  0.3182
 7772SOL    HW134949   4.286   4.029   5.880  0.7534 -2.2295  0.5693
 7772SOL    HW234950   4.384   4.143   5.910 -2.4972  0.0452  2.0292
 7773SOL     OW34951   0.928   1.935   0.047  0.1487  0.9819 -0.0818
 7773SOL    HW134952   0.938   1.861   0.107  1.9975  0.9507 -0.4346
 7773SOL    HW234953   0.929   1.883  17.726 -3.1281 -0.5827  0.9173
 7774SOL     OW34954   3.961   1.182  10.770  0.0032  0.0195 -0.3898
 7774SOL    HW134955   3.901   1.116  10.805  1.4135 -0.9067  0.2990
 7774SOL    HW234956   4.043   1.152  10.810 -0.6873  0.1783  1.1361
 7775SOL     OW34957   3.836   3.656  14.566 -0.1593  0.5909 -0.5061
 7775SOL    HW134958   3.762   3.715  14.562 -0.7548 -0.2137 -1.3460
 7775SOL    HW234959   3.787   3.582  14.602  1.0848 -0.5961 -1.2223
 7776SOL     OW34960   3.417   0.297   3.132  0.0324  0.5856  0.6819
 7776SOL    HW134961   3.385   0.256   3.212 -0.0785  1.8701  1.2904
 7776SOL    HW234962   3.339   0.310   3.078 -0.8084 -1.6878  1.3788
 7777SOL     OW34963   3.543   1.178  13.981  0.3441  0.0942  0.2036
 7777SOL    HW134964   3.473   1.146  14.037 -1.7786  0.1390 -2.4094
 7777SOL    HW234965   3.551   1.266  14.018 -0.4205  0.0334  0.5148
 7778SOL     OW34966   4.070   2.344   6.506  0.7403 -0.6126  0.2415
 7778SOL    HW134967   4.112   2.266   6.543 -1.3216 -0.7048  2.3968
 7778SOL    HW234968   4.147   2.395   6.480  0.8832 -0.8174  0.2628
 7779SOL     OW34969   0.067   1.701   8.153  0.0179 -0.3153 -0.1112
 7779SOL    HW134970   0.052   1.761   8.225  1.9619 -0.2312  0.2130
 7779SOL    HW234971   0.019   1.750   8.086  2.2184  1.1388 -0.5875
 7780SOL     OW34972   0.104   0.351   7.337  0.0785 -0.6185 -0.1209
 7780SOL    HW134973   0.146   0.273   7.374 -1.6279 -0.7985  1.4573
 7780SOL    HW234974   0.164   0.424   7.348 -0.8534 -0.0400  1.1783
 7781SOL     OW34975   1.413   3.519   4.649 -0.1713  0.4928 -0.0104
 7781SOL    HW134976   1.466   3.572   4.708  0.4575 -0.2707  0.1090
 7781SOL    HW234977   1.357   3.468   4.708 -0.7902 -0.1120 -1.1093
 7782SOL     OW34978   3.697   2.557   7.798 -0.2891 -0.0335  0.1441
 7782SOL    HW134979   3.708   2.521   7.886  2.2452 -0.8565 -0.5150
 7782SOL    HW234980   3.668   2.480   7.749  0.4640 -0.0954 -0.1934
 7783SOL     OW34981   1.297   0.368   2.990  0.0527 -0.2522 -0.6809
 7783SOL    HW134982   1.283   0.443   2.932 -2.3455 -0.1901 -0.0302
 7783SOL    HW234983   1.377   0.388   3.038 -0.6621 -0.2368  0.5047
 7784SOL     OW34984   4.292   0.219   2.752  0.4567  0.1033  0.2566
 7784SOL    HW134985   4.353   0.145   2.745 -0.7270 -1.0195  2.1059
 7784SOL    HW234986   4.299   0.253   2.841 -2.7244 -0.3884  0.6765
 7785SOL     OW34987   0.045   2.170  12.992  0.3720  0.1441  0.5290
 7785SOL    HW134988   0.136   2.195  12.976  0.4158  0.7264  1.6454
 7785SOL    HW234989   0.041   2.091  12.938 -0.5148  0.2409  0.4541
 7786SOL     OW34990   3.172   3.064  13.000  0.6326  0.0664  0.1232
 7786SOL    HW134991   3.114   3.019  13.061 -0.3192  0.7220 -0.2942
 7786SOL    HW234992   3.252   3.073  13.052  0.1398  0.6014  0.7941
 7787SOL     OW34993   2.359   0.615   4.189  0.2922  0.2557 -0.7987
 7787SOL    HW134994   2.318   0.553   4.128  2.6777 -0.0804 -2.0591
 7787SOL    HW234995   2.447   0.578   4.194 -0.3804 -1.0010  1.4831
 7788SOL     OW34996   2.155   0.353   3.033  0.3144 -0.2181 -0.2786
 7788SOL    HW134997   2.110   0.342   2.950  2.4157  0.4256 -1.4912
 7788SOL    HW234998   2.207   0.433   3.026 -4.2831  2.7387 -0.3181
 7789SOL     OW34999   2.371   3.612  10.149  0.2169  0.0280  0.0224
 7789SOL    HW135000   2.447   3.603  10.207 -0.2957 -1.0494  0.5255
 7789SOL    HW235001   2.394   3.689  10.097  0.0187 -2.1786 -3.2803
 7790SOL     OW35002   1.552   0.962   6.499  1.3201 -0.1928 -0.1417
 7790SOL    HW135003   1.623   0.916   6.543  2.4858  1.4079 -0.3864
 7790SOL    HW235004   1.520   1.026   6.562  1.1368 -0.9429  0.5226
 7791SOL     OW35005   2.953   3.727   3.295  0.2682 -0.7065  0.2630
 7791SOL    HW135006   2.986   3.732   3.205  3.4224  0.5842  1.4906
 7791SOL    HW235007   2.927   3.816   3.320  1.7636 -0.0163 -0.5857
 7792SOL     OW35008   4.417   3.348   5.922  0.6559 -0.1839  0.1893
 7792SOL    HW135009   4.377   3.419   5.972 -1.3357 -1.8377  0.9011
 7792SOL    HW235010   4.503   3.340   5.965  1.5963  0.1289 -1.6316
 7793SOL     OW35011   3.471   2.605   8.228 -0.4558  0.0395  0.2683
 7793SOL    HW135012   3.435   2.535   8.282  1.0473  0.0430  1.2614
 7793SOL    HW235013   3.555   2.623   8.268 -0.3281 -0.6609  0.3063
 7794SOL     OW35014   1.338   3.210   9.221  0.3336  0.5520  0.2044
 7794SOL    HW135015   1.313   3.287   9.272 -1.2770 -0.6714  1.2624
 7794SOL    HW235016   1.282   3.150   9.270 -0.9277  0.5993 -1.1784
 7795SOL     OW35017   4.655   0.614   0.487 -0.1556  0.0520  0.5799
 7795SOL    HW135018   4.640   0.594   0.395 -0.1604  0.4726  0.4915
 7795SOL    HW235019   4.563   0.624   0.512 -1.3081 -1.4759 -2.9694
 7796SOL     OW35020   1.567   0.739  12.248  0.4155 -0.2589  0.3780
 7796SOL    HW135021   1.534   0.765  12.334  1.8586  0.1130  0.8289
 7796SOL    HW235022   1.523   0.797  12.187 -2.2775 -1.1501  1.4858
 7797SOL     OW35023   1.077   2.377   4.431 -0.0595 -0.2303  0.2134
 7797SOL    HW135024   1.070   2.351   4.523  0.1699 -2.4207 -0.3862
 7797SOL    HW235025   0.986   2.368   4.401 -0.1226 -0.4446  0.4693
 7798SOL     OW35026   2.572   0.939  10.187  0.8930 -0.0775 -0.3853
 7798SOL    HW135027   2.500   0.939  10.250  1.1064 -0.8015 -0.1460
 7798SOL    HW235028   2.604   0.849  10.190  0.7108 -0.0991  0.9379
 7799SOL     OW35029   4.472   4.110  14.813  0.1200 -0.6626  0.8781
 7799SOL    HW135030   4.382   4.131  14.787  0.6958 -0.3418 -0.8397
 7799SOL    HW235031   4.517   4.087  14.732 -0.6401  1.7754 -0.2407
 7800SOL     OW35032   2.394   1.306   3.586 -0.0420  0.4564  0.0592
 7800SOL    HW135033   2.437   1.353   3.515  0.6691 -1.5261 -0.8268
 7800SOL    HW235034   2.467   1.257   3.625  1.5745  1.5790 -1.5635
 7801SOL     OW35035   2.106   1.813   1.430 -0.0117  0.4602  0.2102
 7801SOL    HW135036   2.134   1.898   1.395  2.5643 -0.4635  0.0082
 7801SOL    HW235037   2.040   1.830   1.497 -0.0130  3.3974 -0.5435
 7802SOL     OW35038   4.342   1.439   9.717  0.0036 -0.3629  0.2581
 7802SOL    HW135039   4.432   1.414   9.698  0.1550 -0.6491  1.3560
 7802SOL    HW235040   4.312   1.471   9.632 -3.6193 -1.1340  1.2264
 7803SOL     OW35041   2.973   1.973   4.987  0.5046 -0.1637 -0.4725
 7803SOL    HW135042   2.910   1.958   5.058 -0.8046  1.9200 -1.2035
 7803SOL    HW235043   3.057   1.959   5.030  0.5084  1.1680 -0.0500
 7804SOL     OW35044   0.128   1.582   9.018 -0.8372  0.2158  0.2932
 7804SOL    HW135045   0.160   1.672   9.018 -1.8610  0.5885  1.9669
 7804SOL    HW235046   0.188   1.542   9.081 -0.4407  0.8108  0.2892
 7805SOL     OW35047   0.938   4.307   0.890 -0.1564  0.1691 -0.3588
 7805SOL    HW135048   0.893   4.386   0.920  1.2315  0.3787  1.2023
 7805SOL    HW235049   0.863   4.250   0.875  0.7945 -1.1446 -0.1645
 7806SOL     OW35050   3.375   3.659   9.796  0.3502 -0.3461  0.0105
 7806SOL    HW135051   3.420   3.578   9.817  1.0152  0.0631  0.1470
 7806SOL    HW235052   3.300   3.662   9.856 -0.9947 -0.1685 -1.6782
 7807SOL     OW35053   0.088   4.000   7.681 -0.4623  0.9976 -0.4214
 7807SOL    HW135054   0.147   4.001   7.756 -1.1159  0.0855  0.1054
 7807SOL    HW235055   0.028   4.067   7.714 -0.0432  1.2224 -0.1176
 7808SOL     OW35056   0.473   0.601   7.160 -0.6723  0.5360  0.1973
 7808SOL    HW135057   0.466   0.611   7.065  3.1730 -1.0287 -0.2607
 7808SOL    HW235058   0.556   0.552   7.165 -0.5387  0.7006 -0.4230
 7809SOL     OW35059   1.848   2.143   2.928  0.3249  0.4354 -0.0436
 7809SOL    HW135060   1.871   2.192   2.848  1.8560  0.1511  0.2174
 7809SOL    HW235061   1.916   2.076   2.934  1.1384  1.3302  0.8762
 7810SOL     OW35062   0.982   1.101   9.809 -0.1251  0.1401  0.3793
 7810SOL    HW135063   0.955   1.193   9.805 -0.7807 -0.0703 -0.1340
 7810SOL    HW235064   0.898   1.055   9.817 -1.7681  2.7551 -1.3165
 7811SOL     OW35065   3.278   1.035  14.147 -0.2507  0.0902  0.5755
 7811SOL    HW135066   3.334   1.027  14.224  1.1238  0.0915 -0.4044
 7811SOL    HW235067   3.275   0.946  14.111 -1.4847  0.0539  0.7734
 7812SOL     OW35068   2.446   0.637   1.240  0.0478 -0.3465  0.4825
 7812SOL    HW135069   2.447   0.733   1.233  4.0127 -0.3683  0.6105
 7812SOL    HW235070   2.521   0.622   1.299  1.1939  0.5578 -0.7248
 7813SOL     OW35071   4.179   1.293   7.033  0.6372  0.3031  0.2500
 7813SOL    HW135072   4.270   1.295   7.002  0.7190  1.3111  0.5745
 7813SOL    HW235073   4.198   1.286   7.126 -2.4105 -0.4619  0.8118
 7814SOL     OW35074   4.293   3.324  16.336 -0.1788  0.0115 -0.2771
 7814SOL    HW135075   4.379   3.331  16.295 -0.1596  0.8434 -0.0993
 7814SOL    HW235076   4.313   3.367  16.419 -2.4809 -0.4188  0.5163
 7815SOL     OW35077   2.724   4.673  17.743  0.4213 -0.1867  0.0759
 7815SOL    HW135078   2.652   4.654  17.683  0.2498  2.1928 -0.4769
 7815SOL    HW235079   2.793   4.613  17.713  0.4544 -0.7945  1.3964
 7816SOL     OW35080   4.053   1.067   0.927  0.3339 -0.3211  0.1022
 7816SOL    HW135081   4.058   0.984   0.881 -0.3552  0.4811 -1.4082
 7816SOL    HW235082   4.005   1.046   1.007  1.4378 -0.1198  0.8133
 7817SOL     OW35083   0.097   4.455   2.440  0.0625 -0.6161 -0.2132
 7817SOL    HW135084   0.103   4.464   2.345  1.1708  0.0344 -0.0800
 7817SOL    HW235085   0.058   4.536   2.473  2.3558  0.1688  0.6080
 7818SOL     OW35086   0.527   0.480   4.372 -0.3430  0.0340  0.3845
 7818SOL    HW135087   0.475   0.499   4.450 -3.5446  0.6006 -1.8732
 7818SOL    HW235088   0.614   0.465   4.409 -0.6399 -1.0216  0.6696
 7819SOL     OW35089   1.666   4.343   7.886 -0.0037  0.0120 -0.3362
 7819SOL    HW135090   1.648   4.267   7.940  0.5279 -0.2114 -0.4809
 7819SOL    HW235091   1.757   4.325   7.864 -0.2503  0.2519 -1.5564
 7820SOL     OW35092   0.976   4.398   2.537 -0.1008 -0.1396  0.1845
 7820SOL    HW135093   1.048   4.338   2.557 -0.2839 -0.6613 -0.7470
 7820SOL    HW235094   0.996   4.473   2.594  2.2966  0.5283 -1.5511
 7821SOL     OW35095   4.366   1.559   7.972  0.1801  0.0223 -0.3177
 7821SOL    HW135096   4.299   1.591   7.911  0.1581  2.5845  1.0227
 7821SOL    HW235097   4.351   1.466   7.958 -0.1215 -0.5061  3.6660
 7822SOL     OW35098   4.220   1.198   2.487  0.2972 -0.3281 -0.0810
 7822SOL    HW135099   4.198   1.178   2.578 -2.1484  0.2157 -0.5475
 7822SOL    HW235100   4.252   1.112   2.461  1.9825  0.6383 -1.1760
 7823SOL     OW35101   2.483   1.959   9.681 -0.3593  0.3765  0.0611
 7823SOL    HW135102   2.422   2.016   9.728 -0.2200 -0.0017  0.6945
 7823SOL    HW235103   2.472   1.874   9.723 -1.4969  0.1347 -0.7087
 7824SOL     OW35104   1.356   1.355  10.496 -0.2050  0.1803 -0.6843
 7824SOL    HW135105   1.283   1.314  10.542  1.2755 -0.9161  0.7208
 7824SOL    HW235106   1.427   1.303  10.533 -0.2282  0.7922  0.2354
 7825SOL     OW35107   0.189   0.269  12.461  0.6909 -0.0561 -0.4919
 7825SOL    HW135108   0.234   0.259  12.377 -0.2463  0.9667 -1.1078
 7825SOL    HW235109   0.100   0.243  12.437  0.8866 -1.3432  0.1866
 7826SOL     OW35110   2.109   2.521   5.128 -0.0115  0.3142 -0.2722
 7826SOL    HW135111   2.148   2.608   5.139  2.7036 -0.8916 -0.4576
 7826SOL    HW235112   2.029   2.536   5.179  0.2701 -2.2603  0.9415
 7827SOL     OW35113   0.514   2.472   7.721  0.4469 -0.4647 -0.8735
 7827SOL    HW135114   0.540   2.556   7.683 -1.8258  2.0571  3.0941
 7827SOL    HW235115   0.584   2.453   7.784  0.9776  0.4858 -1.1793
 7828SOL     OW35116   4.363   0.969   8.779  0.4741 -0.0280 -0.1980
 7828SOL    HW135117   4.380   0.965   8.873 -2.3006 -2.5336  0.1849
 7828SOL    HW235118   4.451   0.967   8.741  1.3530 -1.4115  1.9555
 7829SOL     OW35119   2.399   1.369   4.145 -0.0559 -0.0785  0.0898
 7829SOL    HW135120   2.449   1.428   4.087 -0.0381  1.2937  1.4928
 7829SOL    HW235121   2.364   1.312   4.077  0.2737 -0.0547 -0.1040
 7830SOL     OW35122   3.323   1.921   9.809  0.1148  0.0516  0.3787
 7830SOL    HW135123   3.319   1.870   9.728  2.4036 -0.4138  0.5612
 7830SOL    HW235124   3.372   1.995   9.773 -1.5830  1.9670  1.9939
 7831SOL     OW35125   1.000   1.390   5.908  0.2734 -0.2398 -0.3135
 7831SOL    HW135126   1.087   1.429   5.909 -1.3075  3.1434  3.7797
 7831SOL    HW235127   0.988   1.364   5.817  0.5031  0.6988 -0.6064
 7832SOL     OW35128   3.114   0.906  17.032 -0.3056  0.3382 -0.0539
 7832SOL    HW135129   3.031   0.904  17.079  0.5600  2.2887  1.5287
 7832SOL    HW235130   3.077   0.904  16.944 -0.4518  1.1561 -0.0134
 7833SOL     OW35131   0.663   1.399   7.516 -0.0750 -0.0548  0.8055
 7833SOL    HW135132   0.693   1.486   7.489 -0.2748 -0.0331  0.6516
 7833SOL    HW235133   0.572   1.423   7.535 -1.2893 -3.2910 -0.9696
 7834SOL     OW35134   4.686   2.675   5.891  0.4487  0.3976 -0.1064
 7834SOL    HW135135   4.651   2.749   5.843 -2.4673 -0.9472 -0.0284
 7834SOL    HW235136   4.625   2.675   5.965  0.6841 -0.9338  0.1006
 7835SOL     OW35137   4.313   4.626   3.160 -0.3163  0.0532  0.7048
 7835SOL    HW135138   4.289   4.718   3.158 -1.2618 -0.2280 -1.1503
 7835SOL    HW235139   4.396   4.635   3.206  0.7915 -1.6615 -0.9327
 7836SOL     OW35140   1.986   3.575   4.544 -0.4897 -0.0220 -0.0101
 7836SOL    HW135141   1.987   3.492   4.591  0.1534  0.4668  0.8446
 7836SOL    HW235142   2.077   3.604   4.538 -0.3031 -0.8024 -0.8486
 7837SOL     OW35143   4.343   3.249   2.009 -0.1743  0.4231  0.1446
 7837SOL    HW135144   4.292   3.327   1.988 -1.3303 -0.7125 -1.2781
 7837SOL    HW235145   4.297   3.202   2.078 -2.3090  1.5069 -0.5451
 7838SOL     OW35146   2.848   1.559   5.519  0.1081  0.9139  0.0039
 7838SOL    HW135147   2.878   1.612   5.444  1.1449 -2.2012 -1.7817
 7838SOL    HW235148   2.781   1.617   5.555 -2.0232 -1.3032 -0.4040
 7839SOL     OW35149   0.829   1.302   6.520 -0.0005 -0.8555 -0.5565
 7839SOL    HW135150   0.739   1.307   6.487 -0.0271  0.7168 -0.2509
 7839SOL    HW235151   0.829   1.342   6.607 -0.1196 -0.5931 -0.6803
 7840SOL     OW35152   2.037   0.781   1.204 -0.3073 -0.4347  0.1915
 7840SOL    HW135153   1.958   0.836   1.211 -1.7656 -2.4987 -0.1751
 7840SOL    HW235154   1.989   0.704   1.233 -0.3789 -0.1441  0.8524
 7841SOL     OW35155   2.508   3.144  11.033  0.6367 -0.0010  0.5094
 7841SOL    HW135156   2.503   3.068  10.976 -0.0308 -0.2445  0.8959
 7841SOL    HW235157   2.572   3.200  10.988 -0.6519  0.3187 -0.9056
 7842SOL     OW35158   2.188   0.799  13.030  0.0195 -0.2833 -0.3223
 7842SOL    HW135159   2.243   0.835  13.100 -1.5396  1.0104  0.2405
 7842SOL    HW235160   2.210   0.706  13.037  0.1359 -0.1408  1.2143
 7843SOL     OW35161   0.925   4.452   4.475  0.8834  0.3212  0.3245
 7843SOL    HW135162   0.945   4.380   4.415  2.5093 -0.1534  1.4066
 7843SOL    HW235163   1.005   4.504   4.476  0.4750  0.9523 -0.6039
 7844SOL     OW35164   2.984   0.060   4.301  0.5339  0.3216 -0.1406
 7844SOL    HW135165   2.975   4.722   4.355  2.5118 -0.3175 -0.7602
 7844SOL    HW235166   3.079   0.068   4.306  0.6297  0.0726 -1.8377
 7845SOL     OW35167   1.439   4.471   7.588 -0.1877 -0.6291 -0.2152
 7845SOL    HW135168   1.420   4.384   7.622  0.2727 -0.2751  0.9511
 7845SOL    HW235169   1.354   4.512   7.574 -0.2712 -0.7255  0.0191
 7846SOL     OW35170   1.903   1.652   5.040 -0.1701  0.0916  0.1773
 7846SOL    HW135171   1.861   1.736   5.057  0.8404  0.9579 -1.6063
 7846SOL    HW235172   1.854   1.625   4.963 -1.4122 -3.0910  2.0695
 7847SOL     OW35173   4.406   3.339   1.747  0.1605  0.7513 -0.4322
 7847SOL    HW135174   4.345   3.412   1.757 -1.1328 -0.1455 -1.7465
 7847SOL    HW235175   4.406   3.294   1.831  1.0584 -1.4653 -1.6313
 7848SOL     OW35176   3.299   3.998   2.578 -0.0519  0.2565  0.1753
 7848SOL    HW135177   3.306   3.904   2.559 -0.2500  0.5206 -1.2716
 7848SOL    HW235178   3.285   4.005   2.672 -3.9580 -0.9286 -0.3059
 7849SOL     OW35179   1.371   3.408   3.353  0.1770 -0.6183  0.1042
 7849SOL    HW135180   1.293   3.456   3.325  2.6298  2.4175 -1.4922
 7849SOL    HW235181   1.324   3.331   3.385 -1.4625 -0.3474 -1.6502
 7850SOL     OW35182   3.914   2.131   7.324 -0.2491  0.1017  0.2474
 7850SOL    HW135183   3.916   2.198   7.256  1.7023 -1.5174 -1.2923
 7850SOL    HW235184   3.856   2.064   7.287  0.5199 -0.2157 -0.3924
 7851SOL     OW35185   4.417   3.388   8.467  0.3526  0.0487  0.2915
 7851SOL    HW135186   4.333   3.380   8.422  0.0196 -1.1775  1.1515
 7851SOL    HW235187   4.477   3.342   8.409  0.9734 -0.2118  1.1288
 7852SOL     OW35188   1.629   1.536   6.912 -0.4865  0.0860 -0.6085
 7852SOL    HW135189   1.580   1.618   6.917 -3.6943 -1.7512 -2.5802
 7852SOL    HW235190   1.571   1.465   6.939  0.7960 -0.9564 -0.5983
 7853SOL     OW35191   1.520   3.875   5.161  0.2400 -0.2769  0.3542
 7853SOL    HW135192   1.496   3.930   5.087  0.4762 -0.3389  0.2331
 7853SOL    HW235193   1.583   3.933   5.205  0.4498  0.5611 -1.0400
 7854SOL     OW35194   2.763   0.842   5.801 -0.0353  0.1139  0.4558
 7854SOL    HW135195   2.723   0.856   5.887  1.2352 -0.4463  1.1368
 7854SOL    HW235196   2.853   0.874   5.810  0.1200 -0.1758 -0.0635
 7855SOL     OW35197   4.340   2.693   4.775  0.5267  0.1349  0.2817
 7855SOL    HW135198   4.266   2.748   4.802  1.5122  0.7142  1.7887
 7855SOL    HW235199   4.304   2.666   4.690  2.2004 -1.7436  0.1703
 7856SOL     OW35200   3.664   3.864   8.548 -0.0851 -0.0992 -0.0857
 7856SOL    HW135201   3.577   3.894   8.523 -0.3301 -0.7145  0.0262
 7856SOL    HW235202   3.685   3.951   8.583  0.6618  0.2475 -1.4202
 7857SOL     OW35203   1.883   3.899   5.246  0.1264  0.1822 -0.3203
 7857SOL    HW135204   1.854   3.832   5.184 -1.2315 -0.2765  0.8221
 7857SOL    HW235205   1.797   3.925   5.279 -0.0384 -0.5684 -0.1559
 7858SOL     OW35206   4.071   4.495   7.741  0.3307 -0.1652 -0.0099
 7858SOL    HW135207   3.984   4.471   7.708  0.9036 -0.4792 -1.3006
 7858SOL    HW235208   4.101   4.536   7.660  2.1336 -2.3806 -0.4601
 7859SOL     OW35209   1.389   2.023   6.599 -0.8298  0.0525  0.1348
 7859SOL    HW135210   1.302   1.986   6.616  0.0165 -1.5290  1.0479
 7859SOL    HW235211   1.360   2.095   6.543  0.3541  0.4848  0.0799
 7860SOL     OW35212   1.795   2.118   4.563  0.1930 -0.2304  0.3941
 7860SOL    HW135213   1.810   2.203   4.604  1.0176 -0.9799  1.6254
 7860SOL    HW235214   1.714   2.136   4.515 -1.0348  1.6084  3.1476
 7861SOL     OW35215   0.598   1.829   8.061  0.2436  0.4851  0.6856
 7861SOL    HW135216   0.634   1.755   8.109  1.6931 -0.6189 -2.1331
 7861SOL    HW235217   0.677   1.879   8.039 -1.5398  3.4965  1.1260
 7862SOL     OW35218   1.856   2.559   8.237 -0.3212  0.7317  0.2143
 7862SOL    HW135219   1.769   2.556   8.198  0.0494 -0.2526 -0.5529
 7862SOL    HW235220   1.833   2.477   8.281 -0.1099  0.4751 -0.1545
 7863SOL     OW35221   4.086   0.487  14.420 -0.3127  0.5341 -0.0476
 7863SOL    HW135222   4.100   0.532  14.336  0.5234 -1.1140 -0.7974
 7863SOL    HW235223   4.003   0.447  14.393 -0.7317 -0.0632  2.1720
 7864SOL     OW35224   0.729   0.635  15.891  0.4017  0.0189 -0.4141
 7864SOL    HW135225   0.640   0.623  15.926  1.4415 -0.3131  2.0850
 7864SOL    HW235226   0.782   0.623  15.969  0.2323  1.1359 -0.1371
 7865SOL     OW35227   1.147   3.806  16.463  0.0015 -0.0214 -0.1498
 7865SOL    HW135228   1.111   3.759  16.539  0.9023 -1.6970 -0.7785
 7865SOL    HW235229   1.192   3.736  16.416 -1.1907 -1.5768  0.9999
 7866SOL     OW35230   1.336   1.358   1.736  0.2365  0.7811  0.1745
 7866SOL    HW135231   1.307   1.342   1.646  0.4521 -1.7817  0.5854
 7866SOL    HW235232   1.288   1.435   1.766 -0.9762 -0.1433  0.5971
 7867SOL     OW35233   0.035   0.763   1.436  0.5028  0.3122 -0.2996
 7867SOL    HW135234   0.055   0.688   1.492  0.1636 -1.0693 -2.0069
 7867SOL    HW235235   0.073   0.734   1.352 -1.4379  0.3703 -1.1904
 7868SOL     OW35236   3.314   0.036   9.194  0.2329  0.6841  0.0248
 7868SOL    HW135237   3.407   0.059   9.200  0.6903 -0.9752 -0.6306
 7868SOL    HW235238   3.323   4.687   9.161 -1.3310  2.1074 -4.1772
 7869SOL     OW35239   4.571   4.248  10.941  0.5897 -0.1820 -0.5252
 7869SOL    HW135240   4.660   4.271  10.915  1.2263 -0.6469  1.2821
 7869SOL    HW235241   4.520   4.310  10.889  1.0035 -0.9150 -1.7974
 7870SOL     OW35242   2.162   1.031   1.084 -0.5647 -0.1485  0.4313
 7870SOL    HW135243   2.208   0.981   1.152  0.6448  0.5997  0.1647
 7870SOL    HW235244   2.080   1.027   1.132 -1.0503  0.5036 -0.3531
 7871SOL     OW35245   1.411   4.725   4.243  0.1844 -0.1196  0.0693
 7871SOL    HW135246   1.359   0.024   4.172 -0.5640  0.1448  0.7628
 7871SOL    HW235247   1.386   0.036   4.320  1.0985 -1.7196  1.4197
 7872SOL     OW35248   1.169   0.718   5.649  0.3226  0.1763 -0.7214
 7872SOL    HW135249   1.238   0.757   5.595 -0.9807  1.7872 -1.2153
 7872SOL    HW235250   1.132   0.665   5.578  1.3308 -0.6334 -0.6420
 7873SOL     OW35251   3.093   1.553   5.146  0.0320  0.7743 -0.1762
 7873SOL    HW135252   3.012   1.569   5.097 -1.6749  1.5510  2.8621
 7873SOL    HW235253   3.153   1.593   5.083 -2.3125  2.2057 -1.4988
 7874SOL     OW35254   3.036   3.417   0.833  0.0375 -0.2864 -0.5231
 7874SOL    HW135255   3.059   3.354   0.765 -0.4847 -0.7121 -0.3067
 7874SOL    HW235256   3.061   3.501   0.795 -1.6549  0.8603  0.9050
 7875SOL     OW35257   0.094   1.125   7.285  0.1830 -0.2263  0.0676
 7875SOL    HW135258   0.015   1.074   7.300 -1.9239  3.2216  0.4897
 7875SOL    HW235259   0.079   1.159   7.197 -0.4643  2.1230  1.1082
 7876SOL     OW35260   2.540   0.384   4.125  0.1038  0.1775 -0.4614
 7876SOL    HW135261   2.618   0.332   4.142 -1.8416 -1.5708  3.1839
 7876SOL    HW235262   2.469   0.330   4.162 -0.3404  1.1831  0.1656
 7877SOL     OW35263   3.141   1.491  11.337 -0.1736  0.1277 -0.3590
 7877SOL    HW135264   3.174   1.557  11.276  1.0534  0.5359  0.7501
 7877SOL    HW235265   3.106   1.551  11.404  1.5318 -1.2430  1.7568
 7878SOL     OW35266   1.785   0.181   6.947  0.0417 -0.5025 -0.4415
 7878SOL    HW135267   1.758   0.218   7.031  2.4336 -4.2786  1.9831
 7878SOL    HW235268   1.881   0.176   6.955 -0.1336  0.9086  2.5239
 7879SOL     OW35269   0.582   3.851   3.969  0.2230  0.3840  0.1843
 7879SOL    HW135270   0.670   3.864   3.934  0.5082  0.5447  0.9640
 7879SOL    HW235271   0.551   3.938   3.992 -4.3448 -1.5476  1.4221
 7880SOL     OW35272   4.481   3.234   8.070 -0.4271  0.8607  0.3892
 7880SOL    HW135273   4.541   3.307   8.085 -1.4353  1.2916  2.2845
 7880SOL    HW235274   4.461   3.240   7.977 -0.4524  0.5293  0.3702
 7881SOL     OW35275   3.944   3.164   4.415  0.0936 -0.0794  0.0808
 7881SOL    HW135276   3.856   3.187   4.385  0.1425 -0.9914 -0.7585
 7881SOL    HW235277   3.997   3.166   4.335  0.7550  2.5957  0.5809
 7882SOL     OW35278   2.580   2.232   6.020  0.2291  0.3903 -0.2633
 7882SOL    HW135279   2.486   2.224   6.006  0.3327  0.5964 -1.0578
 7882SOL    HW235280   2.600   2.139   6.017  1.0764  0.5482  0.4939
 7883SOL     OW35281   1.639   0.114   1.776 -0.2850 -0.1367 -0.7799
 7883SOL    HW135282   1.702   0.183   1.795 -0.4318 -0.1868 -0.1089
 7883SOL    HW235283   1.679   0.045   1.828 -1.7822  0.1516  0.7535
 7884SOL     OW35284   4.297   3.148   6.423 -0.5622  0.5799  0.5171
 7884SOL    HW135285   4.324   3.231   6.385  0.7035  0.3396  0.8903
 7884SOL    HW235286   4.223   3.174   6.478 -0.1827  0.6180  1.0040
 7885SOL     OW35287   3.620   3.862   2.451  0.2023 -0.0456  0.2424
 7885SOL    HW135288   3.680   3.869   2.525  4.0683  0.1033 -2.9041
 7885SOL    HW235289   3.535   3.839   2.489  0.7491 -0.9083  0.9249
 7886SOL     OW35290   3.310   0.228  16.622  0.0477 -0.1015  0.2557
 7886SOL    HW135291   3.261   0.309  16.614  0.7583  0.3298  0.3029
 7886SOL    HW235292   3.239   0.171  16.593 -1.1020  0.7816  1.3738
 7887SOL     OW35293   0.457   2.136   3.793 -0.2777  0.1926 -0.5837
 7887SOL    HW135294   0.368   2.170   3.801 -0.3306 -0.4577  1.5527
 7887SOL    HW235295   0.495   2.181   3.717 -1.5185  1.1876 -0.6185
 7888SOL     OW35296   0.102   4.348   4.410  0.3577  0.0592  0.3951
 7888SOL    HW135297   0.168   4.415   4.392 -1.5328  2.1287  1.1745
 7888SOL    HW235298   0.023   4.373   4.363  0.0240 -1.0019  0.3992
 7889SOL     OW35299   4.175   1.553   4.907  0.4623  0.1693 -0.2913
 7889SOL    HW135300   4.160   1.535   5.000 -1.3058 -0.0687 -0.6154
 7889SOL    HW235301   4.270   1.546   4.912  0.2181 -1.9163  1.6929
 7890SOL     OW35302   2.065   2.499   9.130  0.2489 -0.2869  0.4633
 7890SOL    HW135303   2.088   2.498   9.223  1.6357  1.2381  0.1418
 7890SOL    HW235304   1.972   2.479   9.137 -0.1889  0.8230 -2.0415
 7891SOL     OW35305   0.960   3.412   1.679  0.5559 -0.0576 -0.4138
 7891SOL    HW135306   0.880   3.447   1.640  1.1448 -0.5185 -2.0399
 7891SOL    HW235307   0.934   3.328   1.716 -0.3592 -0.0098 -0.9482
 7892SOL     OW35308   1.171   4.553   6.669  0.2889 -0.4614  0.1075
 7892SOL    HW135309   1.212   4.561   6.755 -1.3113 -0.8915  0.8926
 7892SOL    HW235310   1.204   4.473   6.627 -2.5160 -2.1456  1.1525
 7893SOL     OW35311   2.945   3.358   4.286  0.4221  0.7503  0.1591
 7893SOL    HW135312   2.876   3.313   4.335 -1.4324  2.2043 -1.1276
 7893SOL    HW235313   2.915   3.333   4.199  0.7887 -2.4853  0.9613
 7894SOL     OW35314   3.995   0.594  12.632 -0.2392  0.7347 -0.1188
 7894SOL    HW135315   4.045   0.668  12.665 -0.5501  1.4344 -1.2165
 7894SOL    HW235316   4.045   0.530  12.683 -3.4192 -0.0901  1.9868
 7895SOL     OW35317   2.175   4.446   4.610 -0.3769 -0.2708  0.2978
 7895SOL    HW135318   2.163   4.354   4.586  0.2355  0.5282 -3.1135
 7895SOL    HW235319   2.150   4.442   4.702 -4.0872  0.7188 -0.6618
 7896SOL     OW35320   3.250   2.031   2.512 -0.1684  0.1607 -0.1998
 7896SOL    HW135321   3.278   2.027   2.421  0.4278  1.3319 -0.0684
 7896SOL    HW235322   3.299   2.108   2.541 -1.8281  0.4951  1.7065
 7897SOL     OW35323   2.543   4.140   7.171 -0.3918 -0.4368  0.0826
 7897SOL    HW135324   2.615   4.171   7.117 -1.1773  2.9172  0.9325
 7897SOL    HW235325   2.578   4.054   7.196  2.3442  1.2235  2.0247
 7898SOL     OW35326   2.924   3.747  13.695 -0.1995 -0.2752 -0.1760
 7898SOL    HW135327   2.844   3.694  13.696 -0.6007  0.3670  1.1093
 7898SOL    HW235328   2.956   3.734  13.784 -0.3680 -3.1154 -0.5162
 7899SOL     OW35329   3.750   0.908   7.764 -0.4971 -0.1150  0.2434
 7899SOL    HW135330   3.776   0.820   7.737  0.6367 -0.0921  1.2560
 7899SOL    HW235331   3.832   0.940   7.801  0.4867 -0.7656 -1.3666
 7900SOL     OW35332   4.375   1.792   4.145  0.2191 -0.1582 -0.6439
 7900SOL    HW135333   4.330   1.726   4.197  1.6070 -0.0839  0.6281
 7900SOL    HW235334   4.363   1.869   4.200  0.1153  1.1937 -2.5655
 7901SOL     OW35335   3.152   2.124   5.400  0.0535  0.4810 -0.0783
 7901SOL    HW135336   3.223   2.061   5.414  0.7089  1.4311  0.9144
 7901SOL    HW235337   3.203   2.203   5.380 -0.0321 -0.0681 -2.4263
 7902SOL     OW35338   2.997   0.301   4.467  0.0950 -0.3884 -0.1385
 7902SOL    HW135339   3.005   0.212   4.432 -0.4814 -0.6845  0.4699
 7902SOL    HW235340   3.034   0.353   4.396  0.5113 -0.7086 -0.1586
 7903SOL     OW35341   0.556   1.754  11.852 -0.3521 -0.0463  0.5604
 7903SOL    HW135342   0.643   1.764  11.812  0.8156  2.9309  3.8775
 7903SOL    HW235343   0.562   1.800  11.936  0.1718 -0.8683  0.9719
 7904SOL     OW35344   4.616   3.701  17.103  0.4180 -0.8404 -0.0714
 7904SOL    HW135345   4.662   3.646  17.039 -0.0970 -1.7191  0.3177
 7904SOL    HW235346   4.655   3.789  17.096 -1.1028 -0.0772  1.2305
 7905SOL     OW35347   4.642   0.685  11.170 -0.0908 -0.0083 -0.1063
 7905SOL    HW135348   4.601   0.670  11.085 -0.6388  1.5215 -0.1166
 7905SOL    HW235349   4.641   0.606  11.223 -0.0232  1.5482  2.2101
 7906SOL     OW35350   4.499   1.234   2.293  0.2157  0.4220  0.0367
 7906SOL    HW135351   4.554   1.285   2.233 -0.6148  2.3429  0.9008
 7906SOL    HW235352   4.470   1.300   2.356 -0.0429  0.5987 -0.2684
 7907SOL     OW35353   0.911   2.351   2.703 -0.5757 -0.5536  0.0300
 7907SOL    HW135354   0.878   2.437   2.731  0.1239 -0.2538 -0.0499
 7907SOL    HW235355   0.995   2.350   2.749 -0.9918 -0.9238  0.7868
 7908SOL     OW35356   2.925   2.672   3.430 -0.2455 -0.8053 -0.4110
 7908SOL    HW135357   2.934   2.743   3.493 -1.9153 -1.1086  0.1728
 7908SOL    HW235358   2.956   2.592   3.472 -1.2723 -0.6577  0.6115
 7909SOL     OW35359   4.141   1.841   0.410  0.2564 -0.4281  0.8893
 7909SOL    HW135360   4.235   1.823   0.407  0.0593 -1.6356  1.6049
 7909SOL    HW235361   4.115   1.778   0.478  0.2020 -0.8792  0.4527
 7910SOL     OW35362   3.004   4.371   7.222  0.2002  0.6879 -0.2933
 7910SOL    HW135363   2.986   4.278   7.206 -0.3056  0.6768  0.3446
 7910SOL    HW235364   3.098   4.378   7.208  0.1751  1.6880  0.0433
 7911SOL     OW35365   4.381   2.890  16.421  0.0005  0.0744 -0.1142
 7911SOL    HW135366   4.338   2.919  16.340 -0.9390  0.5684  0.5651
 7911SOL    HW235367   4.455   2.949  16.432 -1.1760  2.0011 -2.4056
 7912SOL     OW35368   2.118   2.658   2.523  0.7304  0.5850  0.3002
 7912SOL    HW135369   2.090   2.567   2.512  0.8659  0.6767 -0.7990
 7912SOL    HW235370   2.173   2.668   2.445  0.0353  0.0241 -0.2669
 7913SOL     OW35371   2.377   1.706   6.286 -0.6136 -0.1248  0.9364
 7913SOL    HW135372   2.342   1.622   6.317 -0.7089 -0.2071  0.6078
 7913SOL    HW235373   2.441   1.682   6.219 -1.2480 -2.2301  1.0838
 7914SOL     OW35374   3.174   0.977   4.420  0.2876  0.2093 -0.0721
 7914SOL    HW135375   3.119   0.939   4.488  0.8996  0.1857  0.4072
 7914SOL    HW235376   3.107   1.026   4.372 -0.1819 -0.2649  0.0991
 7915SOL     OW35377   4.350   3.992   6.531 -0.1082 -0.7997 -0.7752
 7915SOL    HW135378   4.435   3.947   6.524  0.5512  0.4800 -1.0197
 7915SOL    HW235379   4.300   3.942   6.596 -1.5330  1.9225  0.2326
 7916SOL     OW35380   4.247   1.200   0.788  0.1199  0.7126 -0.3357
 7916SOL    HW135381   4.173   1.151   0.826  1.7765 -0.9190  0.8035
 7916SOL    HW235382   4.269   1.138   0.718 -1.7957  1.3613 -1.5095
 7917SOL     OW35383   0.680   2.470   2.212 -0.0208  0.7194  0.6710
 7917SOL    HW135384   0.750   2.406   2.227 -1.1078 -1.1932 -2.4211
 7917SOL    HW235385   0.699   2.543   2.271 -1.0641  0.0266  1.8676
 7918SOL     OW35386   1.388   2.518  14.796  0.4023 -0.3276  0.3183
 7918SOL    HW135387   1.307   2.521  14.847 -0.1334  1.8912 -0.6905
 7918SOL    HW235388   1.365   2.446  14.737 -1.7179 -0.9172  1.8568
 7919SOL     OW35389   2.991   0.747   1.009 -0.0199  0.3004  0.0866
 7919SOL    HW135390   2.933   0.671   1.001 -2.0618  1.7124  1.2737
 7919SOL    HW235391   2.932   0.811   1.050  1.0311  1.0747  0.3846
 7920SOL     OW35392   4.015   2.674   7.827  0.5189 -0.2029 -0.5426
 7920SOL    HW135393   3.948   2.699   7.890  1.0175 -3.1292  1.1401
 7920SOL    HW235394   4.043   2.589   7.861 -0.6167 -0.7912 -1.0943
 7921SOL     OW35395   1.727   3.562   0.879 -0.1267 -0.2054 -0.2021
 7921SOL    HW135396   1.810   3.519   0.898 -1.5635 -3.0833 -0.3574
 7921SOL    HW235397   1.727   3.526   0.790 -0.1057  3.3136 -1.6368
 7922SOL     OW35398   2.121   0.277   7.294 -0.0981 -0.0869 -0.7033
 7922SOL    HW135399   2.200   0.268   7.347 -0.9014  0.7835  0.6040
 7922SOL    HW235400   2.099   0.369   7.302  0.1179  0.0972 -2.2683
 7923SOL     OW35401   1.592   3.254  12.133  0.5773 -0.1835 -0.0327
 7923SOL    HW135402   1.621   3.312  12.203 -0.6024  0.4538 -0.0681
 7923SOL    HW235403   1.528   3.308  12.086 -0.1929 -0.7456  0.3571
 7924SOL     OW35404   4.277   1.574   9.489 -0.0098  0.2252  0.1310
 7924SOL    HW135405   4.186   1.558   9.465  0.2104 -0.4660 -0.2582
 7924SOL    HW235406   4.297   1.633   9.417 -0.9026  2.1346  1.4427
 7925SOL     OW35407   3.152   3.763   4.023 -0.2671  0.3068 -0.4293
 7925SOL    HW135408   3.148   3.667   4.021 -1.1887  0.3499 -0.7821
 7925SOL    HW235409   3.199   3.780   3.942 -0.2409  0.5481 -0.3628
 7926SOL     OW35410   4.706   2.337   3.919  0.3488 -0.7085  0.6137
 7926SOL    HW135411   4.684   2.295   3.836  1.7455  1.6894 -0.9797
 7926SOL    HW235412   4.635   2.305   3.974  0.1956  0.5957  1.1597
 7927SOL     OW35413   3.839   0.521  11.890 -0.3351  0.2124  0.0960
 7927SOL    HW135414   3.887   0.591  11.934  1.6965 -0.7089 -0.6388
 7927SOL    HW235415   3.850   0.443  11.945  2.0169  2.0559  2.2587
 7928SOL     OW35416   0.591   1.654   9.285  0.3718 -0.1411 -0.5634
 7928SOL    HW135417   0.548   1.571   9.305  0.0694  0.0681 -0.3404
 7928SOL    HW235418   0.613   1.676   9.375  0.7916 -0.3992 -0.6072
 7929SOL     OW35419   2.823   0.048   2.453 -0.0220 -0.1327  0.2286
 7929SOL    HW135420   2.827   4.726   2.380 -0.1100  0.4232 -0.2493
 7929SOL    HW235421   2.872   0.002   2.522 -0.7579 -0.7379  0.3441
 7930SOL     OW35422   1.999   0.402   1.478  0.1456  0.1714 -0.1845
 7930SOL    HW135423   1.940   0.371   1.547  0.1487  0.6214  0.0195
 7930SOL    HW235424   2.067   0.443   1.532  1.2005 -4.1138  1.7151
 7931SOL     OW35425   3.473   4.450   3.387 -0.2022  0.0290 -0.1524
 7931SOL    HW135426   3.468   4.546   3.398 -0.3555  0.0149 -0.0880
 7931SOL    HW235427   3.421   4.413   3.459 -0.9002 -1.9313 -1.6745
 7932SOL     OW35428   0.258   0.410   3.928 -0.0273  0.3135  0.3695
 7932SOL    HW135429   0.318   0.421   4.001  1.7754 -1.5416 -0.8404
 7932SOL    HW235430   0.314   0.375   3.859 -1.8685 -3.8166  0.9401
 7933SOL     OW35431   2.305   4.692  10.841  0.3020  0.0748  0.0544
 7933SOL    HW135432   2.364   4.660  10.772  3.4392  1.9547  1.8677
 7933SOL    HW235433   2.348   0.035  10.863 -0.4944 -0.0621  2.1037
 7934SOL     OW35434   2.428   3.347  12.185 -0.2038  0.5434  0.7234
 7934SOL    HW135435   2.466   3.325  12.100 -0.4267 -0.2539  0.8238
 7934SOL    HW235436   2.415   3.439  12.162 -0.4749  0.2564 -0.3018
 7935SOL     OW35437   4.695   3.168  11.644 -0.2800 -0.1615  0.6146
 7935SOL    HW135438   4.734   3.178  11.731 -2.1940 -2.3646  1.7070
 7935SOL    HW235439   0.023   3.213  11.594  0.6059 -0.0776  1.8994
 7936SOL     OW35440   1.453   0.326   3.924 -0.4205  0.3521  0.3717
 7936SOL    HW135441   1.466   0.321   4.018 -3.0562  1.6071  0.7907
 7936SOL    HW235442   1.416   0.412   3.903 -1.6599  0.0928  1.4919
 7937SOL     OW35443   0.662   2.391   3.911  0.1186 -0.3459 -0.5734
 7937SOL    HW135444   0.673   2.463   3.850  2.9785 -0.3530 -0.0448
 7937SOL    HW235445   0.750   2.354   3.918  0.2666 -0.3155 -2.3714
 7938SOL     OW35446   1.862   4.674  15.094  0.2557 -0.6512  0.4164
 7938SOL    HW135447   1.800   4.664  15.021 -0.3418 -2.1883  1.1378
 7938SOL    HW235448   1.854   0.028  15.108  0.7608 -0.3673 -1.1983
 7939SOL     OW35449   3.876   1.179   2.740  0.1893 -0.0197  0.1498
 7939SOL    HW135450   3.817   1.120   2.694 -1.2240 -0.0302  1.9615
 7939SOL    HW235451   3.821   1.219   2.808  1.5477  1.5102  0.3555
 7940SOL     OW35452   0.058   4.437  13.404  0.5412 -1.1968 -0.1471
 7940SOL    HW135453   0.027   4.465  13.318  0.6902  1.6906  0.7536
 7940SOL    HW235454   0.108   4.366  13.364  1.7852 -0.2876 -0.2173
 7941SOL     OW35455   2.246   1.105   3.439 -0.2698  0.2783  0.2395
 7941SOL    HW135456   2.264   1.098   3.345  3.8334  1.0290  0.9680
 7941SOL    HW235457   2.323   1.140   3.483  1.3691 -3.9095  0.7388
 7942SOL     OW35458   2.866   0.174   3.833 -0.6626 -0.1309  0.2748
 7942SOL    HW135459   2.819   0.115   3.774  0.6254  0.3582 -1.2373
 7942SOL    HW235460   2.947   0.126   3.847 -0.0607  1.7940  3.4506
 7943SOL     OW35461   2.475   3.020   4.544  0.5840  0.3788 -0.2761
 7943SOL    HW135462   2.475   3.097   4.601 -0.1594  0.0609  0.1684
 7943SOL    HW235463   2.391   3.040   4.502 -0.1608  1.3732  1.6834
 7944SOL     OW35464   0.004   2.684  12.781 -0.4955 -0.3298 -0.3192
 7944SOL    HW135465   4.709   2.597  12.799  0.4073 -0.5139  0.4849
 7944SOL    HW235466   0.078   2.669  12.722  1.3358 -0.8325  2.1593
 7945SOL     OW35467   2.107   1.777   3.771 -0.0571 -0.1779  0.3096
 7945SOL    HW135468   2.118   1.726   3.851  2.2865  1.1371  0.8654
 7945SOL    HW235469   2.166   1.733   3.710  0.6992  0.8567  0.2923
 7946SOL     OW35470   1.591   1.523  16.982  0.3713 -0.0401 -0.1419
 7946SOL    HW135471   1.673   1.481  17.010  0.1974 -0.5701 -0.4363
 7946SOL    HW235472   1.600   1.497  16.891 -0.0697  1.8247 -0.7214
 7947SOL     OW35473   3.637   2.464  16.333  0.1685 -0.0417 -0.3057
 7947SOL    HW135474   3.551   2.490  16.302  0.1803 -2.5022 -2.4043
 7947SOL    HW235475   3.643   2.530  16.402 -1.4115  0.7463 -0.9355
 7948SOL     OW35476   0.389   3.540  15.509 -0.3579 -0.2657  0.7667
 7948SOL    HW135477   0.394   3.454  15.468 -1.9010 -0.0285  0.0678
 7948SOL    HW235478   0.480   3.551  15.536 -0.8998 -0.2009  2.5486
 7949SOL     OW35479   4.188   1.022   5.553 -0.1065  0.3155 -0.4177
 7949SOL    HW135480   4.199   1.084   5.626 -3.0606 -0.6694  0.8705
 7949SOL    HW235481   4.272   0.979   5.537 -0.3663  0.6744 -2.6781
 7950SOL     OW35482   4.128   3.075   6.741  0.4490 -0.1988  0.3253
 7950SOL    HW135483   4.084   3.071   6.657 -2.2235  2.2392  1.6201
 7950SOL    HW235484   4.064   3.043   6.805  0.3778 -1.2644 -0.2742
 7951SOL     OW35485   1.647   4.422  12.903  0.4705 -0.1014 -0.2158
 7951SOL    HW135486   1.639   4.458  12.991  1.4404 -0.3019 -0.0459
 7951SOL    HW235487   1.742   4.417  12.909  0.4303  0.7179  1.1459
 7952SOL     OW35488   4.387   0.627  17.113  0.3566  0.1967 -0.3914
 7952SOL    HW135489   4.321   0.654  17.049  0.8076 -0.2977 -1.0663
 7952SOL    HW235490   4.399   0.533  17.102  1.7493  0.4960 -1.4371
 7953SOL     OW35491   3.721   3.231   4.280  0.2352 -0.3867 -0.1707
 7953SOL    HW135492   3.639   3.268   4.249 -0.1269  0.8793  2.2658
 7953SOL    HW235493   3.758   3.199   4.198 -1.7127 -0.5234 -0.9700
 7954SOL     OW35494   1.847   1.311   0.870  0.4608  0.4848  0.1051
 7954SOL    HW135495   1.942   1.296   0.866 -0.0023 -2.4819  0.2444
 7954SOL    HW235496   1.809   1.225   0.888  1.3085  0.3447  1.2753
 7955SOL     OW35497   4.247   0.607  16.882  0.3374  0.1068  0.7688
 7955SOL    HW135498   4.317   0.662  16.847 -0.3334 -0.1292 -0.9437
 7955SOL    HW235499   4.182   0.616  16.813 -0.1822 -2.2314  0.9397
 7956SOL     OW35500   1.022   3.039   4.707  0.0184  0.4175 -0.0084
 7956SOL    HW135501   0.931   3.063   4.722 -0.4171 -0.3780 -1.3465
 7956SOL    HW235502   1.028   2.959   4.758 -2.1472  0.9797  1.1194
 7957SOL     OW35503   1.633   0.849   6.219 -0.1247 -0.2129  0.0240
 7957SOL    HW135504   1.637   0.935   6.259  0.7194 -0.2384  0.0060
 7957SOL    HW235505   1.539   0.851   6.207 -0.1934  0.0053  0.6171
 7958SOL     OW35506   2.660   1.826  15.828 -0.0649 -0.4440  0.6318
 7958SOL    HW135507   2.581   1.773  15.818  0.2605 -1.0955  1.4899
 7958SOL    HW235508   2.693   1.847  15.740 -0.3795  0.0059  0.6228
 7959SOL     OW35509   1.726   2.160  10.072  0.7739  0.4803 -0.4049
 7959SOL    HW135510   1.720   2.108  10.152 -1.4329  0.6323 -0.4657
 7959SOL    HW235511   1.785   2.109  10.016  0.2305 -0.0519 -0.4892
 7960SOL     OW35512   0.274   3.288   6.224 -0.6206 -0.2835  0.3527
 7960SOL    HW135513   0.328   3.324   6.153 -1.9431 -1.6416 -1.3419
 7960SOL    HW235514   0.199   3.244   6.184 -1.4135 -1.3390  3.0293
 7961SOL     OW35515   3.464   1.055   6.469  0.0145 -0.7212 -0.7029
 7961SOL    HW135516   3.541   1.090   6.515 -1.7099  0.1590  1.5219
 7961SOL    HW235517   3.429   0.988   6.529  0.3441  0.4652  0.8227
 7962SOL     OW35518   4.379   1.074   2.833 -0.1154 -0.7981  0.1412
 7962SOL    HW135519   4.290   1.040   2.819 -1.2770  2.4172 -0.3644
 7962SOL    HW235520   4.389   1.028   2.916 -2.1881 -2.0297 -0.2863
 7963SOL     OW35521   1.185   2.798   8.371  0.3998  0.2536  0.2147
 7963SOL    HW135522   1.149   2.814   8.459  0.9488 -2.6760  0.9912
 7963SOL    HW235523   1.198   2.703   8.371  0.0677  0.2069  0.9399
 7964SOL     OW35524   4.509   2.519  13.850  0.1286 -0.2097  0.3657
 7964SOL    HW135525   4.517   2.480  13.763  1.1963 -1.9406  1.2380
 7964SOL    HW235526   4.590   2.485  13.888 -0.2571 -0.4970  0.9384
 7965SOL     OW35527   0.285   4.323  17.127 -0.2693 -0.3709 -0.0309
 7965SOL    HW135528   0.217   4.353  17.068  0.0989 -1.0484 -0.7972
 7965SOL    HW235529   0.358   4.346  17.070  1.6121 -0.6452  2.2357
 7966SOL     OW35530   3.646   3.559   7.626  0.3933 -0.1239  0.9193
 7966SOL    HW135531   3.615   3.649   7.637 -0.2853 -0.1720 -0.6263
 7966SOL    HW235532   3.633   3.523   7.714 -2.5558  1.2458  1.0378
 7967SOL     OW35533   4.471   0.080   2.055  0.2461  0.3379 -0.2092
 7967SOL    HW135534   4.394   0.104   2.107  0.3493 -2.1160  1.0793
 7967SOL    HW235535   4.450   4.738   2.011  0.7727  1.0119 -1.7312
 7968SOL     OW35536   2.219   3.173   7.882  0.4215  0.6164 -0.8135
 7968SOL    HW135537   2.169   3.112   7.827  2.2769  0.5251 -2.3665
 7968SOL    HW235538   2.200   3.150   7.973  1.6235  1.9587 -0.2251
 7969SOL     OW35539   1.475   2.496   1.777  0.2144 -0.7415  0.1220
 7969SOL    HW135540   1.547   2.451   1.733  1.2330  0.6563  0.3343
 7969SOL    HW235541   1.509   2.506   1.866  2.4315 -1.2702 -0.6765
 7970SOL     OW35542   0.542   0.140   0.562 -0.0069 -0.1268  0.2444
 7970SOL    HW135543   0.621   0.137   0.615  0.1298  0.6469  0.0947
 7970SOL    HW235544   0.472   0.115   0.622 -0.6841 -1.2064 -1.0170
 7971SOL     OW35545   3.842   0.521   8.433 -0.0671 -0.2084 -0.6124
 7971SOL    HW135546   3.886   0.606   8.425 -0.5397  0.0653 -0.2903
 7971SOL    HW235547   3.896   0.474   8.370  2.1668  2.8004 -0.9543
 7972SOL     OW35548   1.257   0.968  10.554  0.1016 -0.1790  0.8040
 7972SOL    HW135549   1.234   1.001  10.467 -2.5183 -3.2926  0.3270
 7972SOL    HW235550   1.229   1.039  10.613 -1.1662 -0.1605  0.1739
 7973SOL     OW35551   4.033   3.657   8.242 -0.3910 -0.4515  0.1627
 7973SOL    HW135552   4.058   3.616   8.325  0.9614 -1.2469 -0.6362
 7973SOL    HW235553   3.939   3.675   8.246 -0.3061  0.2915 -1.0255
 7974SOL     OW35554   3.116   3.768  13.949  0.2046 -0.0164 -0.3835
 7974SOL    HW135555   3.070   3.731  14.025  2.5230 -1.7888  0.1606
 7974SOL    HW235556   3.175   3.694  13.937  0.2984 -0.2921  1.7145
 7975SOL     OW35557   3.154   3.392  10.929  0.1389 -0.2673 -0.3824
 7975SOL    HW135558   3.214   3.456  10.891 -1.1019  1.3007  0.3115
 7975SOL    HW235559   3.167   3.392  11.024 -0.4383  0.4579 -0.3047
 7976SOL     OW35560   3.828   2.916   4.615  0.1306  0.1159  0.2091
 7976SOL    HW135561   3.850   2.829   4.581  0.2859  0.0874  0.3788
 7976SOL    HW235562   3.901   2.937   4.675 -0.0015 -0.1766  0.4737
 7977SOL     OW35563   1.080   2.736   1.677 -0.2919  0.3087  0.1635
 7977SOL    HW135564   1.160   2.788   1.673 -0.4662  0.4067 -1.8758
 7977SOL    HW235565   1.102   2.682   1.753 -1.3780 -0.5482 -0.1330
 7978SOL     OW35566   2.657   0.286  12.857  0.7317  0.1960 -0.1031
 7978SOL    HW135567   2.696   0.358  12.806  2.2402  0.6962  1.7650
 7978SOL    HW235568   2.573   0.279  12.813 -0.1799  2.1965  1.3652
 7979SOL     OW35569   2.900   1.539   4.631 -0.4660 -0.1758 -0.3324
 7979SOL    HW135570   2.983   1.492   4.626  0.0683  0.6710  0.4980
 7979SOL    HW235571   2.862   1.502   4.710  0.6098 -0.5001  0.0421
 7980SOL     OW35572   1.718   1.879   4.988  0.1990 -0.1759 -0.3057
 7980SOL    HW135573   1.736   1.965   5.025  2.1205  0.1130 -1.9146
 7980SOL    HW235574   1.638   1.855   5.036  0.0568  3.3002  1.2130
 7981SOL     OW35575   0.664   4.029   6.439 -0.2750  0.1984  0.0280
 7981SOL    HW135576   0.714   3.993   6.366 -0.5892  1.5742 -0.8794
 7981SOL    HW235577   0.709   3.995   6.517 -0.7134 -1.3280 -0.3899
 7982SOL     OW35578   2.938   3.530   9.593  0.3197  0.1408  0.1227
 7982SOL    HW135579   2.933   3.442   9.631  0.7190 -0.7116 -1.8176
 7982SOL    HW235580   3.029   3.552   9.614  0.4523 -1.4273  1.2204
 7983SOL     OW35581   0.571   3.784  15.558 -0.2836  0.6265  0.3831
 7983SOL    HW135582   0.524   3.788  15.474 -2.1940 -0.6245  1.3805
 7983SOL    HW235583   0.655   3.826  15.544 -0.7513  1.3246 -0.3456
 7984SOL     OW35584   1.965   0.474   1.987  0.2788 -0.0571  0.2707
 7984SOL    HW135585   1.948   0.537   2.057 -1.3996  1.9154 -1.9220
 7984SOL    HW235586   2.034   0.421   2.029 -0.5831 -2.3658 -1.2331
 7985SOL     OW35587   2.775   4.636  16.845 -0.3995 -0.2581  0.0591
 7985SOL    HW135588   2.868   4.640  16.867 -0.2656 -0.4901 -0.4670
 7985SOL    HW235589   2.783   4.590  16.761  0.4795  1.7546 -0.9488
 7986SOL     OW35590   2.699   3.283  13.469  0.4914 -0.0565 -0.1648
 7986SOL    HW135591   2.675   3.373  13.490  0.2759 -0.6123  1.9784
 7986SOL    HW235592   2.749   3.264  13.548  1.3250  0.5213 -0.5466
 7987SOL     OW35593   4.536   1.628   6.655 -0.4042 -0.1146 -0.1025
 7987SOL    HW135594   4.553   1.623   6.749  2.5012 -0.9069 -0.6655
 7987SOL    HW235595   4.553   1.720   6.638 -0.1768  0.1448  1.5816
 7988SOL     OW35596   4.027   2.101   5.056  0.2223 -0.1999 -0.4075
 7988SOL    HW135597   4.057   2.113   5.146  0.8020 -2.0948 -0.3467
 7988SOL    HW235598   4.075   2.170   5.012  1.5009 -1.8603 -1.6292
 7989SOL     OW35599   4.728   4.129   6.776  0.3247  0.0853  0.5216
 7989SOL    HW135600   0.016   4.220   6.782  1.2946 -0.1678 -0.1616
 7989SOL    HW235601   4.673   4.138   6.699 -1.3373  0.2961  1.7420
 7990SOL     OW35602   3.513   2.951   6.160  0.7185  0.1470  0.5716
 7990SOL    HW135603   3.536   3.012   6.090  1.7324 -1.0027 -0.0902
 7990SOL    HW235604   3.428   2.924   6.127  1.0808  0.4466 -0.5988
 7991SOL     OW35605   1.642   2.403  13.534  0.1595 -0.2210  0.6679
 7991SOL    HW135606   1.605   2.431  13.450  0.3852  0.1125  0.6784
 7991SOL    HW235607   1.628   2.494  13.563 -0.8137 -0.0728 -0.2851
 7992SOL     OW35608   1.149   2.401   9.093  0.3473  0.0167  0.1257
 7992SOL    HW135609   1.068   2.389   9.044 -0.5608 -1.5372  1.9791
 7992SOL    HW235610   1.154   2.322   9.148  1.1262 -0.8925 -1.2662
 7993SOL     OW35611   2.066   3.795  12.404  0.1722  0.1378 -0.6407
 7993SOL    HW135612   2.130   3.727  12.425 -2.6174 -2.4088 -0.2946
 7993SOL    HW235613   2.124   3.869  12.386 -1.0262  0.5411 -2.8626
 7994SOL     OW35614   0.469   3.402  12.685 -0.1006 -0.6237 -0.2347
 7994SOL    HW135615   0.520   3.399  12.766 -1.2496  0.5694  0.5503
 7994SOL    HW235616   0.378   3.403  12.717  0.0656  1.4835  0.1869
 7995SOL     OW35617   3.893   4.558   3.151  0.2261 -0.1821  0.5439
 7995SOL    HW135618   3.893   4.597   3.239 -1.7533  1.2585 -0.0778
 7995SOL    HW235619   3.855   4.471   3.170 -0.9905  0.3719  0.6734
 7996SOL     OW35620   2.396   2.736   0.241  0.2731  0.0885 -0.2801
 7996SOL    HW135621   2.369   2.647   0.263  0.7347  0.0329  0.0512
 7996SOL    HW235622   2.401   2.785   0.323  0.6702  0.2338 -0.3899
 7997SOL     OW35623   2.790   0.525   1.082  0.2291 -0.5948 -0.0064
 7997SOL    HW135624   2.786   0.552   1.173  1.2804  1.5665 -0.6056
 7997SOL    HW235625   2.755   0.436   1.091 -1.4723  0.0729 -0.0124
 7998SOL     OW35626   4.311   1.567   2.944  0.1537 -0.1106  0.1317
 7998SOL    HW135627   4.368   1.643   2.931  0.5822 -0.4673 -0.0969
 7998SOL    HW235628   4.230   1.612   2.917  0.4525 -0.0669 -0.6999
 7999SOL     OW35629   1.499   4.425   4.739  0.5763  0.4371  0.5097
 7999SOL    HW135630   1.510   4.376   4.658  0.3918  0.7419  0.3023
 7999SOL    HW235631   1.418   4.472   4.721  0.0401 -0.9124 -0.6024
 8000SOL     OW35632   0.369   3.058   2.720 -0.4425  0.1842  0.2268
 8000SOL    HW135633   0.338   3.134   2.671  1.7113  0.9399  0.0535
 8000SOL    HW235634   0.285   3.030   2.754  0.1080  0.5859  1.9026
 8001SOL     OW35635   2.099   0.653   6.138 -0.7840 -0.3438 -0.0086
 8001SOL    HW135636   2.156   0.674   6.212  0.6275 -1.4261 -0.7962
 8001SOL    HW235637   2.023   0.705   6.166  0.4651  0.8459  1.1769
 8002SOL     OW35638   2.818   1.611   1.743  0.0377 -0.6361 -0.2734
 8002SOL    HW135639   2.855   1.540   1.795 -1.7337 -0.7110  0.8653
 8002SOL    HW235640   2.861   1.691   1.774 -1.3922  0.0361 -0.0414
 8003SOL     OW35641   3.481   4.145   6.456 -0.9568 -0.3949  0.1181
 8003SOL    HW135642   3.391   4.173   6.434 -0.8628  0.7929  1.2273
 8003SOL    HW235643   3.534   4.179   6.384  0.1201  1.9036  1.9704
 8004SOL     OW35644   2.873   0.987  15.321  0.5802 -0.1098 -0.5398
 8004SOL    HW135645   2.860   1.073  15.359 -0.3197 -0.5647  0.1912
 8004SOL    HW235646   2.931   1.015  15.250  0.8323 -1.3355 -0.8181
 8005SOL     OW35647   0.525   1.522  16.122 -0.3930  0.4750  0.1648
 8005SOL    HW135648   0.558   1.466  16.052 -2.0399 -1.1313  0.6463
 8005SOL    HW235649   0.569   1.492  16.202 -1.6193 -2.9701 -0.4454
 8006SOL     OW35650   2.787   4.360   1.110 -0.2791  0.1477  0.7652
 8006SOL    HW135651   2.808   4.273   1.075 -1.8376 -0.6648  1.8853
 8006SOL    HW235652   2.824   4.355   1.198  0.4534 -0.4050  0.4355
 8007SOL     OW35653   4.698   3.328   1.734 -0.7883 -0.4157  0.0072
 8007SOL    HW135654   4.609   3.330   1.701 -0.0314  2.8880 -1.8453
 8007SOL    HW235655   4.681   3.369   1.820  0.9793  0.4576 -0.0453
 8008SOL     OW35656   4.518   2.171   7.058 -0.2140  0.1287 -0.1591
 8008SOL    HW135657   4.602   2.216   7.062 -1.6746  2.8349  0.2292
 8008SOL    HW235658   4.522   2.111   7.132  0.6041  1.0255  0.5253
 8009SOL     OW35659   3.563   0.739   8.830  0.0762  0.7915 -0.2617
 8009SOL    HW135660   3.622   0.669   8.858  1.8246  2.0750 -0.6713
 8009SOL    HW235661   3.531   0.773   8.914  1.8583 -0.7421  1.0376
 8010SOL     OW35662   1.585   4.156   5.043  0.4678  0.2769  0.2673
 8010SOL    HW135663   1.677   4.168   5.068  1.4043 -1.8938 -2.2503
 8010SOL    HW235664   1.589   4.115   4.957 -0.7196 -0.6854  0.6769
 8011SOL     OW35665   2.282   2.194   2.285 -0.2383 -0.2484  0.1414
 8011SOL    HW135666   2.329   2.265   2.241 -0.0486 -0.1576  0.4884
 8011SOL    HW235667   2.346   2.124   2.295  0.1561 -0.0087 -0.7773
 8012SOL     OW35668   2.817   2.817   9.441 -0.0774 -0.8805 -0.8080
 8012SOL    HW135669   2.891   2.876   9.421  0.1727 -1.6319 -2.1108
 8012SOL    HW235670   2.739   2.859   9.404 -2.1425 -2.6384  1.6082
 8013SOL     OW35671   0.067   2.954   6.030 -0.0643  0.4912  0.6014
 8013SOL    HW135672   0.105   2.867   6.016 -0.0392  0.8366 -1.4609
 8013SOL    HW235673   0.024   2.942   6.115  1.2058 -1.6134  0.9645
 8014SOL     OW35674   3.092   3.615  16.851  0.2567 -0.0728  0.0620
 8014SOL    HW135675   3.134   3.532  16.873 -0.7336 -1.0092 -1.6215
 8014SOL    HW235676   3.115   3.625  16.759 -0.0944  0.7029  0.0580
 8015SOL     OW35677   1.803   0.795  16.854  0.5924 -0.4755 -0.1856
 8015SOL    HW135678   1.765   0.752  16.930  0.8655  0.2493  0.3569
 8015SOL    HW235679   1.891   0.757  16.863  1.1951  0.5064 -1.8726
 8016SOL     OW35680   0.878   4.014   4.136 -0.4500 -0.1871  0.4394
 8016SOL    HW135681   0.791   3.974   4.146 -0.4283 -0.5978 -1.0107
 8016SOL    HW235682   0.900   3.975   4.052 -0.1105 -0.5362  0.6921
 8017SOL     OW35683   0.142   3.990  10.474 -0.9487  0.3442 -0.3512
 8017SOL    HW135684   0.047   3.975  10.466 -0.5378 -1.0424 -2.5566
 8017SOL    HW235685   0.174   3.904  10.448  0.3712  1.3387 -1.9728
 8018SOL     OW35686   0.756   2.820   7.974 -0.0074 -0.3071  0.0602
 8018SOL    HW135687   0.669   2.851   7.998  0.9176  0.7382  2.0584
 8018SOL    HW235688   0.797   2.818   8.060 -2.4695  0.2734  1.2298
 8019SOL     OW35689   0.715   4.497   6.427  0.4529 -0.0566 -0.9830
 8019SOL    HW135690   0.695   4.407   6.453 -0.5527 -0.2523 -2.4405
 8019SOL    HW235691   0.779   4.509   6.498 -0.1747 -1.3434 -0.2024
 8020SOL     OW35692   4.538   2.007   2.271 -0.1794  0.4056 -0.3605
 8020SOL    HW135693   4.479   2.074   2.306 -1.1978 -0.3490 -0.6446
 8020SOL    HW235694   4.507   2.013   2.181  1.3371  0.5332 -0.8705
 8021SOL     OW35695   0.664   0.036   7.731  0.7402 -0.0292 -0.2345
 8021SOL    HW135696   0.739   4.722   7.707  1.5397  0.8117  0.3693
 8021SOL    HW235697   0.700   0.105   7.787 -0.8848 -0.9575  1.9209
 8022SOL     OW35698   2.555   3.562   8.305  0.1797  0.4035 -0.8490
 8022SOL    HW135699   2.555   3.655   8.327 -0.4773  0.1309  0.2807
 8022SOL    HW235700   2.650   3.549   8.299  0.0284 -0.6595 -1.0194
 8023SOL     OW35701   1.136   0.096   2.205  0.8540  0.3640  0.0799
 8023SOL    HW135702   1.141   0.011   2.162 -1.0815  0.6738 -0.7554
 8023SOL    HW235703   1.225   0.128   2.192  0.8898  0.4623  0.5444
 8024SOL     OW35704   1.355   4.042   4.893 -0.3595  0.3343  0.1937
 8024SOL    HW135705   1.311   4.113   4.845  2.2102  0.7955 -1.4924
 8024SOL    HW235706   1.427   4.029   4.831  0.7178  0.9907  1.3280
 8025SOL     OW35707   4.657   3.399   3.526 -0.2361 -0.6881  0.0452
 8025SOL    HW135708   4.608   3.323   3.556 -0.0547  0.0481  2.1979
 8025SOL    HW235709   4.671   3.439   3.611  3.9178 -1.1347 -0.4565
 8026SOL     OW35710   2.170   0.133   3.949  0.2563 -0.5396  0.4431
 8026SOL    HW135711   2.145   0.177   3.868  0.0673 -2.7651 -0.6853
 8026SOL    HW235712   2.183   0.043   3.921 -0.8478  0.0685 -1.9970
 8027SOL     OW35713   3.675   0.938  12.633  0.0743  0.3743  0.1472
 8027SOL    HW135714   3.748   0.974  12.582 -0.3596 -1.0286 -1.4717
 8027SOL    HW235715   3.632   1.011  12.678  0.3377  0.4404  0.2956
 8028SOL     OW35716   0.854   2.539   6.883 -0.6313  0.5328  0.5885
 8028SOL    HW135717   0.929   2.576   6.931  1.4885 -1.0363 -1.5539
 8028SOL    HW235718   0.790   2.609   6.898  0.2485  2.1978 -3.4747
 8029SOL     OW35719   4.301   3.740   2.926  0.7184  0.0601 -0.2074
 8029SOL    HW135720   4.256   3.785   2.854  1.8968  1.2481 -0.2066
 8029SOL    HW235721   4.360   3.810   2.953  1.4364 -0.1347 -1.2396
 8030SOL     OW35722   4.080   2.407  15.857 -0.1052 -0.2378 -0.1911
 8030SOL    HW135723   4.012   2.461  15.816  0.1527 -0.0641 -0.3917
 8030SOL    HW235724   4.162   2.454  15.841 -0.6655  0.8178 -0.0128
 8031SOL     OW35725   2.717   3.212  14.057 -0.0748 -0.4266  0.4632
 8031SOL    HW135726   2.642   3.219  14.115 -2.0529 -0.2286 -2.1472
 8031SOL    HW235727   2.674   3.164  13.986 -0.2689  0.9162 -0.3293
 8032SOL     OW35728   2.839   1.369   7.727 -0.0309  0.0074 -0.4499
 8032SOL    HW135729   2.899   1.348   7.798 -2.7548 -0.7523  1.6433
 8032SOL    HW235730   2.801   1.285   7.703 -0.4774  0.4245 -1.2347
 8033SOL     OW35731   4.468   1.632   8.893  0.1308 -0.4706 -0.0971
 8033SOL    HW135732   4.550   1.653   8.850 -0.4104  1.7329 -0.0394
 8033SOL    HW235733   4.498   1.647   8.983 -1.0494  1.3556 -0.0029
 8034SOL     OW35734   2.813   2.558   7.744 -0.4057  0.4088 -0.2111
 8034SOL    HW135735   2.762   2.522   7.817  1.7787 -0.8041  0.7254
 8034SOL    HW235736   2.904   2.554   7.774 -0.3804  1.7909 -0.1058
 8035SOL     OW35737   1.373   3.107  17.519  0.1929  0.2169  0.0643
 8035SOL    HW135738   1.401   3.198  17.533 -1.5588  0.7502  0.0728
 8035SOL    HW235739   1.278   3.112  17.507 -0.0297 -0.1133  1.6531
 8036SOL     OW35740   1.875   0.880  15.299  0.5083 -0.1852 -0.0776
 8036SOL    HW135741   1.848   0.788  15.300  0.6143 -0.2191 -0.4279
 8036SOL    HW235742   1.969   0.870  15.313  0.6079  1.3073  0.3051
 8037SOL     OW35743   4.495   1.581   7.665  0.3173  0.5038 -0.1920
 8037SOL    HW135744   4.471   1.659   7.615  1.2898  0.5740 -0.5313
 8037SOL    HW235745   4.479   1.600   7.757 -1.1480  0.4705 -0.4344
 8038SOL     OW35746   3.906   0.983   3.908 -1.3315 -0.2834  0.1361
 8038SOL    HW135747   3.837   0.956   3.969 -0.0554 -0.8336  1.3402
 8038SOL    HW235748   3.932   0.894   3.887  0.6956  0.0740  1.1279
 8039SOL     OW35749   0.998   2.210   0.096  0.0834 -0.3300  0.0250
 8039SOL    HW135750   0.975   2.118   0.088  0.5145 -0.4085 -0.2981
 8039SOL    HW235751   0.929   2.250   0.043 -1.4194 -0.2954  1.9843
 8040SOL     OW35752   1.638   3.087   8.879  0.0334  0.0611  0.3207
 8040SOL    HW135753   1.566   3.025   8.869 -0.7331  0.8164  1.0756
 8040SOL    HW235754   1.701   3.052   8.817 -1.5786 -1.2686 -0.5892
 8041SOL     OW35755   1.783   1.085  16.844 -0.0712  0.1272  0.0200
 8041SOL    HW135756   1.782   0.989  16.853 -1.2583  0.1719  0.4844
 8041SOL    HW235757   1.871   1.098  16.811 -0.9391  2.5316 -1.3566
 8042SOL     OW35758   3.984   3.985   3.427  0.5140  0.1301  0.0404
 8042SOL    HW135759   3.991   4.077   3.450  0.1603 -0.2515  1.6790
 8042SOL    HW235760   4.046   3.944   3.488 -0.1060 -0.3450  0.3485
 8043SOL     OW35761   0.988   3.945  14.064 -0.5932  0.3536  0.6905
 8043SOL    HW135762   0.892   3.955  14.063 -0.8682 -2.1169  0.9000
 8043SOL    HW235763   1.018   3.969  13.976  1.1772 -2.6353  0.4673
 8044SOL     OW35764   1.647   2.813   6.348  0.7345 -0.2212 -0.1293
 8044SOL    HW135765   1.709   2.862   6.294 -1.8201  0.2292 -2.7047
 8044SOL    HW235766   1.584   2.882   6.373 -2.3866 -2.9172 -0.5182
 8045SOL     OW35767   3.645   1.427   1.182  0.5935 -0.5685  0.2245
 8045SOL    HW135768   3.616   1.361   1.120 -1.7829  1.2326 -0.6002
 8045SOL    HW235769   3.728   1.386   1.205  0.9178  1.6080  2.9054
 8046SOL     OW35770   4.714   0.590   4.598  0.3992  0.1342 -0.0800
 8046SOL    HW135771   0.056   0.631   4.569  0.7939 -2.0275 -2.0461
 8046SOL    HW235772   4.647   0.643   4.557  0.0109  0.2763  0.7490
 8047SOL     OW35773   0.742   1.728   6.178  0.4341 -0.0874  0.0638
 8047SOL    HW135774   0.772   1.696   6.093 -0.5325 -0.1150 -0.2623
 8047SOL    HW235775   0.648   1.739   6.167 -0.1256 -2.4709  2.2436
 8048SOL     OW35776   0.281   1.637   7.452  0.6672  0.0378  0.9723
 8048SOL    HW135777   0.205   1.598   7.495 -0.0705  0.7456  0.3017
 8048SOL    HW235778   0.249   1.726   7.442 -0.0467 -0.1385  1.7173
 8049SOL     OW35779   3.955   3.443  16.445 -0.0525  0.4329 -0.2960
 8049SOL    HW135780   4.037   3.452  16.495 -0.9888  1.1247  1.1312
 8049SOL    HW235781   3.918   3.383  16.510 -0.2216  0.5376 -0.2959
 8050SOL     OW35782   4.390   4.140   8.028  0.3305  0.1682 -0.4420
 8050SOL    HW135783   4.430   4.218   7.989  2.0747 -1.1140 -1.2276
 8050SOL    HW235784   4.342   4.176   8.103  0.8913 -0.4436  0.2080
 8051SOL     OW35785   3.427   0.479  15.791 -0.0392  0.2114 -0.0302
 8051SOL    HW135786   3.464   0.481  15.703 -1.9774 -1.8653 -0.8779
 8051SOL    HW235787   3.408   0.385  15.786  0.9148  0.0333 -0.3660
 8052SOL     OW35788   1.555   4.595  11.017 -0.0089  0.3117 -0.1261
 8052SOL    HW135789   1.512   4.524  11.065  2.8515 -0.5267  1.2271
 8052SOL    HW235790   1.592   4.551  10.941  0.1243 -0.1229  0.1853
 8053SOL     OW35791   1.635   0.765   1.182 -0.1557 -0.2191  0.2119
 8053SOL    HW135792   1.623   0.854   1.150 -0.9363 -0.4677 -0.1766
 8053SOL    HW235793   1.654   0.779   1.275  1.1755 -1.6570  0.1561
 8054SOL     OW35794   0.052   4.389   4.069  0.7544  0.3829  0.0174
 8054SOL    HW135795   0.011   4.460   4.020 -0.2389  0.5509  1.1023
 8054SOL    HW235796   4.714   4.354   4.110 -0.1787  1.5550 -0.7737
 8055SOL     OW35797   3.217   2.894   1.485  0.0429  0.7969  0.1341
 8055SOL    HW135798   3.245   2.809   1.452 -0.2101  0.9728 -0.5441
 8055SOL    HW235799   3.276   2.954   1.438 -1.4664  3.9219  2.1924
 8056SOL     OW35800   4.225   0.084  14.375  0.1466  0.3631 -0.3149
 8056SOL    HW135801   4.309   0.124  14.396  0.3235 -0.4633  0.5596
 8056SOL    HW235802   4.185   0.137  14.306  0.8392  3.0206  1.3455
 8057SOL     OW35803   1.432   0.309  13.014 -0.1029 -0.0899 -0.1998
 8057SOL    HW135804   1.467   0.247  12.949  2.5014  0.0825  1.0496
 8057SOL    HW235805   1.360   0.338  12.957 -0.7958 -2.8086 -0.7581
 8058SOL     OW35806   2.754   0.904   3.077  0.6183  0.1966  0.6290
 8058SOL    HW135807   2.835   0.871   3.114 -0.2250 -2.4625  0.1112
 8058SOL    HW235808   2.695   0.924   3.150 -0.1309 -1.7007  0.5455
 8059SOL     OW35809   2.415   1.000   4.446 -0.4078  0.5264 -0.0498
 8059SOL    HW135810   2.421   1.096   4.450  0.8207  0.5536 -2.3280
 8059SOL    HW235811   2.358   0.973   4.518 -1.6530  2.0898 -0.4278
 8060SOL     OW35812   4.414   4.341   4.477 -0.1225 -0.2159 -0.2033
 8060SOL    HW135813   4.364   4.390   4.411  2.1609 -0.5392 -2.1668
 8060SOL    HW235814   4.485   4.403   4.492 -1.1330  1.3784 -2.0475
 8061SOL     OW35815   0.558   3.073   4.201 -0.1219  0.4672  0.2430
 8061SOL    HW135816   0.505   3.147   4.173 -2.3893 -0.2138  2.6744
 8061SOL    HW235817   0.490   3.010   4.228 -0.2072  1.2319  1.8042
 8062SOL     OW35818   2.343   0.394   0.024  0.1145 -0.1942 -0.4278
 8062SOL    HW135819   2.418   0.386  17.724  0.5001  2.1714 -0.2541
 8062SOL    HW235820   2.381   0.357   0.103  0.0152 -1.2047 -0.8590
 8063SOL     OW35821   2.603   0.035  14.516 -0.1622 -0.3370  0.0823
 8063SOL    HW135822   2.601   0.054  14.422 -0.0829 -0.2927  0.0896
 8063SOL    HW235823   2.514   0.007  14.537  1.1785 -1.9508  3.4030
 8064SOL     OW35824   4.651   0.545   7.724  0.5137 -0.5543  0.5454
 8064SOL    HW135825   4.716   0.476   7.711  1.3686 -0.0011  1.9322
 8064SOL    HW235826   4.678   0.588   7.805  0.6553 -1.3595  0.9347
 8065SOL     OW35827   0.088   2.859   4.589  0.0412  0.1031 -0.1350
 8065SOL    HW135828   0.169   2.824   4.625 -1.4032 -2.8188  0.2681
 8065SOL    HW235829   0.055   2.908   4.664  2.3875 -0.4300  1.2594
 8066SOL     OW35830   2.782   3.567   4.921  0.1455  0.1528 -0.2146
 8066SOL    HW135831   2.802   3.651   4.962 -0.1701 -1.3012  2.9444
 8066SOL    HW235832   2.715   3.596   4.860  2.7371 -0.9167 -3.5719
 8067SOL     OW35833   1.779   3.422   3.868  0.3007 -0.1972 -0.1180
 8067SOL    HW135834   1.848   3.369   3.828 -1.0168 -1.3613 -0.8523
 8067SOL    HW235835   1.762   3.367   3.945 -1.3272 -1.3162 -1.2742
 8068SOL     OW35836   4.507   3.573   6.573  0.9961 -0.0402  0.6663
 8068SOL    HW135837   4.432   3.571   6.632  0.2221 -0.2947 -0.3287
 8068SOL    HW235838   4.575   3.588   6.639  0.1085  2.0287  1.0968
 8069SOL     OW35839   3.715   0.036   7.469 -0.3558  0.0816  0.2503
 8069SOL    HW135840   3.625   0.003   7.475 -0.2817 -0.0865  0.4559
 8069SOL    HW235841   3.736   0.061   7.559  1.3115  0.4680 -0.2401
 8070SOL     OW35842   3.220   0.451   3.305  0.2861 -0.1027 -0.0716
 8070SOL    HW135843   3.194   0.513   3.373  0.3616  1.9090 -1.8610
 8070SOL    HW235844   3.132   0.426   3.278  0.3867  0.6270 -1.0542
 8071SOL     OW35845   0.658   3.382  17.659  0.1142 -0.0167  0.6256
 8071SOL    HW135846   0.626   3.419  17.742  0.1787 -0.2192  0.7424
 8071SOL    HW235847   0.664   3.294  17.697 -0.1822 -1.6395 -3.1839
 8072SOL     OW35848   4.632   2.716  11.936 -0.0497  0.3256  0.6577
 8072SOL    HW135849   4.657   2.788  11.994 -0.9955  0.0322  1.4440
 8072SOL    HW235850   4.651   2.642  11.994  2.4516  0.5683  0.1213
 8073SOL     OW35851   1.500   3.043   4.520 -0.7241 -0.4154  0.1749
 8073SOL    HW135852   1.423   2.991   4.494  0.2999 -1.4354 -0.8231
 8073SOL    HW235853   1.577   3.019   4.469 -0.2737 -1.2863  1.2459
 8074SOL     OW35854   1.491   1.193  10.679 -0.3790 -0.2921 -0.9659
 8074SOL    HW135855   1.583   1.188  10.707 -1.4541 -0.6647  2.5071
 8074SOL    HW235856   1.453   1.235  10.756  1.5442  3.6885 -2.1864
 8075SOL     OW35857   4.402   1.372   7.479  0.2680  0.1794  0.2664
 8075SOL    HW135858   4.403   1.307   7.549 -0.2289 -0.3556 -0.2303
 8075SOL    HW235859   4.440   1.444   7.529 -1.1927  0.9063  0.3356
 8076SOL     OW35860   1.533   2.445   6.127  0.1330 -0.1964  0.3614
 8076SOL    HW135861   1.617   2.482   6.153 -0.0360 -0.7480  1.6946
 8076SOL    HW235862   1.506   2.404   6.209 -3.3305 -0.0323 -0.6826
 8077SOL     OW35863   0.025   4.469  13.687 -0.1199  0.3232  0.4887
 8077SOL    HW135864   0.037   4.470  13.592 -0.0782  1.9295  0.5053
 8077SOL    HW235865   4.671   4.454  13.683 -0.2128  0.7461  1.1430
 8078SOL     OW35866   1.019   0.450   7.028  0.3982  0.3173  0.7356
 8078SOL    HW135867   0.991   0.541   7.042  0.7924  0.4303  0.7899
 8078SOL    HW235868   0.977   0.407   7.103  0.9486 -1.7421 -0.1477
 8079SOL     OW35869   0.359   1.083   6.905 -0.4349  0.2951 -0.3337
 8079SOL    HW135870   0.360   1.173   6.874  0.8186  0.5850  0.5483
 8079SOL    HW235871   0.332   1.044   6.822 -0.7685 -0.1385 -0.0259
 8080SOL     OW35872   0.669   1.636   3.115 -0.6167  0.1418 -0.3603
 8080SOL    HW135873   0.688   1.632   3.209  0.4482  3.1974 -0.4657
 8080SOL    HW235874   0.746   1.677   3.077  0.8558 -2.4640 -0.2414
 8081SOL     OW35875   0.074   2.812   3.287  0.5225 -0.1993  0.2736
 8081SOL    HW135876   0.057   2.793   3.380  0.8907 -3.3798 -0.2987
 8081SOL    HW235877   0.099   2.904   3.295  3.4020 -0.9289 -0.3174
 8082SOL     OW35878   3.036   2.762   5.779 -0.0022 -0.6514 -0.5181
 8082SOL    HW135879   3.125   2.767   5.816  0.5426 -2.4103 -1.6146
 8082SOL    HW235880   3.027   2.856   5.763 -0.6536 -1.0703 -2.5137
 8083SOL     OW35881   2.782   2.491   2.241  0.1011 -0.2433  0.9063
 8083SOL    HW135882   2.735   2.448   2.170 -0.1823 -1.0608  1.5815
 8083SOL    HW235883   2.872   2.471   2.215 -0.4829 -1.4609 -0.1603
 8084SOL     OW35884   1.105   3.940   4.360 -0.1576  0.0018  0.1049
 8084SOL    HW135885   1.163   3.908   4.290  0.8921  1.5605  0.2529
 8084SOL    HW235886   1.144   3.917   4.444  0.3894 -1.2270 -0.4770
 8085SOL     OW35887   0.106   1.333   4.162  0.1386  0.0281  0.4002
 8085SOL    HW135888   0.181   1.320   4.105  0.2477  2.1283  0.0763
 8085SOL    HW235889   0.139   1.398   4.224 -1.8105  1.0521  0.3849
 8086SOL     OW35890   3.671   3.441   8.320 -0.8021  0.2549  0.4018
 8086SOL    HW135891   3.613   3.368   8.341 -0.5593 -0.6168 -1.9667
 8086SOL    HW235892   3.605   3.506   8.297 -0.0139  0.7233 -0.5249
 8087SOL     OW35893   1.427   2.801   3.691 -0.4084 -0.0090  0.1652
 8087SOL    HW135894   1.487   2.865   3.653 -1.3166  0.8574  0.2019
 8087SOL    HW235895   1.353   2.851   3.725 -0.6415 -1.2712  1.5261
 8088SOL     OW35896   4.384   3.278   9.191 -0.0594 -0.0051 -0.0850
 8088SOL    HW135897   4.428   3.322   9.264  0.1068 -1.2662  0.5690
 8088SOL    HW235898   4.448   3.207   9.185  1.4752  1.3006  1.0996
 8089SOL     OW35899   0.457   1.033  11.361  0.1237  0.7010  0.2650
 8089SOL    HW135900   0.367   1.065  11.351 -1.3959 -3.1038  1.5728
 8089SOL    HW235901   0.451   1.012  11.454 -0.2662 -0.5279 -0.0335
 8090SOL     OW35902   3.090   0.645   7.573  0.0410 -0.2031 -0.0639
 8090SOL    HW135903   3.185   0.632   7.567  0.1481  1.2754 -1.7659
 8090SOL    HW235904   3.038   0.571   7.541  0.9983 -0.5554 -0.8053
 8091SOL     OW35905   0.115   4.408   7.385  0.5455 -0.2286  0.7169
 8091SOL    HW135906   0.024   4.437   7.377  0.0196 -1.9062  0.6897
 8091SOL    HW235907   0.162   4.489   7.362  0.8247  0.3341  3.2792
 8092SOL     OW35908   0.819   3.894  16.480 -0.0058  0.9719  0.3765
 8092SOL    HW135909   0.889   3.893  16.414 -2.0644 -0.4503 -1.7681
 8092SOL    HW235910   0.777   3.808  16.477 -3.0312  2.4476  0.9403
 8093SOL     OW35911   1.264   0.841   6.431 -0.9955 -0.3204 -0.2217
 8093SOL    HW135912   1.281   0.786   6.355 -1.0750  0.1201 -0.5545
 8093SOL    HW235913   1.350   0.843   6.474 -1.0418  2.0867 -0.2691
 8094SOL     OW35914   3.245   1.555   7.804  0.4959 -0.1994  0.2338
 8094SOL    HW135915   3.214   1.626   7.861  1.3891 -0.5117  1.1115
 8094SOL    HW235916   3.167   1.529   7.754 -0.5728  0.7692  1.4035
 8095SOL     OW35917   3.992   0.412   8.225  0.4883 -0.1997  0.4412
 8095SOL    HW135918   4.001   0.417   8.130  2.8277 -1.2944  0.6112
 8095SOL    HW235919   4.070   0.357   8.234  1.7470  1.4373 -0.3454
 8096SOL     OW35920   3.799   2.782  13.504 -0.7447  0.1121  0.5578
 8096SOL    HW135921   3.764   2.845  13.567 -2.2795  2.4371 -2.5944
 8096SOL    HW235922   3.888   2.761  13.535  0.4865  2.8770 -1.1093
 8097SOL     OW35923   2.910   3.036  10.428  0.1879 -0.1678 -0.0690
 8097SOL    HW135924   2.829   3.067  10.387  0.9569 -0.2286 -1.6472
 8097SOL    HW235925   2.889   2.947  10.455 -1.7558 -0.0681 -1.2734
 8098SOL     OW35926   0.524   1.896   1.787 -0.2063  0.2549  0.1184
 8098SOL    HW135927   0.471   1.933   1.857 -1.2224 -1.3334  0.1879
 8098SOL    HW235928   0.488   1.935   1.707  1.4072  0.7848 -0.3621
 8099SOL     OW35929   1.134   3.414   6.937 -0.7035 -0.4226 -0.3502
 8099SOL    HW135930   1.166   3.324   6.929 -0.1783 -0.3924  1.3328
 8099SOL    HW235931   1.111   3.419   7.030  1.0368 -0.5042  0.0841
 8100SOL     OW35932   3.527   1.621   2.962 -1.0509  0.6209  0.2262
 8100SOL    HW135933   3.551   1.675   3.037  0.4871 -1.4817  1.2344
 8100SOL    HW235934   3.579   1.545   2.987  0.0043  1.4039  0.3781
 8101SOL     OW35935   0.185   3.517   3.405  0.1633 -0.0687 -0.0609
 8101SOL    HW135936   0.155   3.533   3.495  2.4549  1.1322  0.4899
 8101SOL    HW235937   0.270   3.476   3.423  0.4905  0.9920  0.8067
 8102SOL     OW35938   2.056   3.429   7.556 -0.0289 -0.2985  0.4663
 8102SOL    HW135939   2.130   3.370   7.540  0.0170  0.1775 -1.1119
 8102SOL    HW235940   2.069   3.485   7.479 -0.6419 -3.0374 -1.6334
 8103SOL     OW35941   0.883   0.942   1.208  1.2356  0.1247  0.3263
 8103SOL    HW135942   0.811   1.006   1.203  1.4910  0.4325  0.6270
 8103SOL    HW235943   0.915   0.960   1.296  1.5575  2.0019 -0.1887
 8104SOL     OW35944   1.875   1.418   0.201 -0.0577 -0.0078 -0.2665
 8104SOL    HW135945   1.825   1.453   0.274  0.2863  1.1470 -0.5909
 8104SOL    HW235946   1.951   1.389   0.252 -0.2114 -1.1585 -0.6965
 8105SOL     OW35947   3.844   3.571   4.748 -0.7241 -0.0555 -0.4798
 8105SOL    HW135948   3.773   3.634   4.734  1.4959  1.9145 -2.7833
 8105SOL    HW235949   3.828   3.519   4.669  0.2262 -0.1200 -0.6329
 8106SOL     OW35950   0.099   0.723   1.872  0.1739 -0.7176  0.1943
 8106SOL    HW135951   0.068   0.641   1.911 -2.9882  0.8756  0.9767
 8106SOL    HW235952   0.148   0.771   1.938  0.0953 -0.2726 -0.0753
 8107SOL     OW35953   2.960   0.478   0.846  0.6724 -0.3666 -0.0789
 8107SOL    HW135954   2.930   0.405   0.792  0.6471 -1.0763  0.8900
 8107SOL    HW235955   2.897   0.482   0.918  1.0598  2.0232  0.1082
 8108SOL     OW35956   0.958   0.895   5.136 -0.7033 -0.1777  0.6626
 8108SOL    HW135957   1.044   0.879   5.097 -0.1951  0.7869  1.3926
 8108SOL    HW235958   0.937   0.805   5.162 -1.5014 -0.1640  0.0547
 8109SOL     OW35959   4.101   2.551  12.886  0.1956  0.9782  0.4052
 8109SOL    HW135960   4.139   2.468  12.914  0.2245  1.5138  1.9676
 8109SOL    HW235961   4.008   2.551  12.912 -0.2485  1.2002 -1.1437
 8110SOL     OW35962   2.876   3.924   6.725 -0.7600  0.3285  0.1013
 8110SOL    HW135963   2.922   3.842   6.708 -2.0900 -0.4236  0.1066
 8110SOL    HW235964   2.844   3.948   6.638 -1.4231  2.6645  0.9631
 8111SOL     OW35965   0.203   3.004   8.856 -0.2411  0.3832  0.1765
 8111SOL    HW135966   0.191   2.915   8.890  0.8508  0.4215  0.6351
 8111SOL    HW235967   0.219   2.982   8.764 -0.6244  0.2400  0.1429
 8112SOL     OW35968   1.118   3.361  16.315 -0.1090 -0.3203 -0.3166
 8112SOL    HW135969   1.180   3.314  16.260 -2.1784 -2.4141 -0.8900
 8112SOL    HW235970   1.035   3.326  16.280  0.4420 -0.5322 -1.4134
 8113SOL     OW35971   1.570   0.758   4.123  0.4254  0.3354  0.5880
 8113SOL    HW135972   1.502   0.813   4.083  0.2766 -0.3269 -0.0553
 8113SOL    HW235973   1.601   0.715   4.044  0.8927  1.9966 -0.1413
 8114SOL     OW35974   2.805   4.713   5.221 -0.9319 -0.5610 -0.1993
 8114SOL    HW135975   2.733   0.032   5.201 -1.5950 -1.3235 -0.0411
 8114SOL    HW235976   2.754   4.640   5.254 -1.1467 -1.0232 -1.5670
 8115SOL     OW35977   4.128   1.715   0.116  0.2394 -0.2493 -0.3175
 8115SOL    HW135978   4.065   1.661   0.070 -0.3506 -0.7206  1.0394
 8115SOL    HW235979   4.208   1.681   0.077  0.2485  0.7456 -1.1720
 8116SOL     OW35980   4.401   3.083  14.710 -0.4779 -0.2134  0.0566
 8116SOL    HW135981   4.493   3.090  14.688 -0.1791 -0.1547  1.2963
 8116SOL    HW235982   4.381   2.990  14.721  1.2311 -0.3825  1.7394
 8117SOL     OW35983   0.731   2.109   9.724  0.6979  0.3500  0.2586
 8117SOL    HW135984   0.795   2.178   9.708 -0.8422  1.5311 -0.7113
 8117SOL    HW235985   0.705   2.119   9.815  1.5564  2.5960  0.2600
 8118SOL     OW35986   2.976   3.806   2.538 -0.1582  0.3923 -0.1144
 8118SOL    HW135987   2.999   3.713   2.541  2.5839  1.0311 -1.4389
 8118SOL    HW235988   3.060   3.844   2.513 -0.8206  1.6172 -0.4768
 8119SOL     OW35989   1.405   3.595  16.674 -0.0065  0.4509 -0.0679
 8119SOL    HW135990   1.317   3.609  16.638 -0.9062 -0.1928  1.9303
 8119SOL    HW235991   1.462   3.661  16.633 -1.4926  0.2785 -2.4349
 8120SOL     OW35992   3.340   1.104  13.429  0.5155  0.2781 -0.3293
 8120SOL    HW135993   3.342   1.045  13.505 -1.3034  0.3630 -0.2222
 8120SOL    HW235994   3.367   1.046  13.357 -0.1846  0.1627 -0.4972
 8121SOL     OW35995   0.680   4.019   7.313  0.1596 -0.2816 -0.7394
 8121SOL    HW135996   0.679   4.019   7.217  1.8743 -0.8904 -0.7675
 8121SOL    HW235997   0.700   3.928   7.338  0.8300  0.1634  0.3545
 8122SOL     OW35998   3.620   1.394   8.373  0.1182 -0.4871 -0.3707
 8122SOL    HW135999   3.659   1.314   8.409  0.8319 -0.1237 -0.3328
 8122SOL    HW236000   3.702   1.443   8.379 -1.5325  2.6310 -3.9036
 8123SOL     OW36001   0.256   3.963   5.053  0.1264 -0.2527  0.0124
 8123SOL    HW136002   0.352   3.970   5.053  0.1167 -0.1207 -0.5089
 8123SOL    HW236003   0.238   4.045   5.100  0.0506  0.4331 -1.2233
 8124SOL     OW36004   0.035   2.578   8.271  0.2114 -0.2110  0.2834
 8124SOL    HW136005   4.693   2.559   8.317  1.6055 -0.6825  2.6309
 8124SOL    HW236006   0.054   2.498   8.222  1.2153 -1.1187  2.1217
 8125SOL     OW36007   1.052   4.414   6.944  0.1071 -0.0075 -0.2253
 8125SOL    HW136008   1.140   4.428   6.908  0.7851 -1.2531  0.9348
 8125SOL    HW236009   1.011   4.490   6.903 -2.3466 -0.2461  1.7937
 8126SOL     OW36010   1.069   4.716   5.423 -0.1277  0.4378  0.9383
 8126SOL    HW136011   1.158   4.691   5.399 -0.5241  0.4652 -0.5312
 8126SOL    HW236012   1.069   0.048   5.486  0.3447 -0.6163  2.1607
 8127SOL     OW36013   0.773   1.823   1.736  0.2430  0.5445  0.0208
 8127SOL    HW136014   0.689   1.863   1.755 -0.6457 -0.4650 -1.7376
 8127SOL    HW236015   0.798   1.864   1.653  0.8650  0.2861  0.0809
 8128SOL     OW36016   0.497   0.747   0.528 -0.3399  0.0907  0.5290
 8128SOL    HW136017   0.418   0.722   0.480  0.2067 -1.7063  0.5945
 8128SOL    HW236018   0.531   0.670   0.572 -0.9800 -0.1840  0.5289
 8129SOL     OW36019   1.949   1.192   8.273 -0.4078  0.5568  0.0955
 8129SOL    HW136020   1.927   1.282   8.299 -1.0880  0.0035  1.4789
 8129SOL    HW236021   2.015   1.200   8.205 -0.3908  1.3433  0.1959
 8130SOL     OW36022   3.013   1.885  17.576 -0.2092  0.1054  0.0284
 8130SOL    HW136023   2.984   1.906  17.487  0.0447 -0.8533 -0.2898
 8130SOL    HW236024   3.021   1.971  17.617 -0.7025  0.4328 -0.5641
 8131SOL     OW36025   2.878   2.720   3.149 -0.4031 -0.0869  0.1469
 8131SOL    HW136026   2.955   2.769   3.121 -3.0846  2.9456 -1.9757
 8131SOL    HW236027   2.903   2.700   3.239  2.7995 -0.3039 -0.8015
 8132SOL     OW36028   1.647   3.483  12.291 -0.2208  0.1415  0.2308
 8132SOL    HW136029   1.727   3.536  12.291 -1.5390  2.1369  1.9259
 8132SOL    HW236030   1.595   3.537  12.350 -1.6706 -0.1272 -0.7888
 8133SOL     OW36031   1.579   4.000   7.436  0.1570 -0.3618  0.1584
 8133SOL    HW136032   1.594   4.082   7.390 -0.1361  0.2479  1.1561
 8133SOL    HW236033   1.540   3.946   7.367  1.2028 -0.6305 -0.2244
 8134SOL     OW36034   2.617   1.091   4.760 -0.9097 -0.0903 -0.0208
 8134SOL    HW136035   2.615   1.001   4.791 -0.1165 -0.2086 -0.3269
 8134SOL    HW236036   2.711   1.111   4.761 -1.0643  0.6281  0.0750
 8135SOL     OW36037   2.211   0.699   3.242 -0.2423 -0.0470  0.0237
 8135SOL    HW136038   2.224   0.608   3.216  2.6824 -0.1383  1.7882
 8135SOL    HW236039   2.272   0.737   3.179  0.9986 -0.2738  1.0911
 8136SOL     OW36040   3.247   3.653   8.095  0.2151 -0.1445  0.4301
 8136SOL    HW136041   3.178   3.719   8.106  0.0200 -0.1739 -0.6145
 8136SOL    HW236042   3.203   3.568   8.094 -0.0384 -0.0151  1.1982
 8137SOL     OW36043   2.211   0.113   0.781  0.5093  0.2664 -1.0672
 8137SOL    HW136044   2.241   0.102   0.690 -0.0406  1.1674 -1.3605
 8137SOL    HW236045   2.274   0.175   0.817 -0.0792 -0.9316  1.9488
 8138SOL     OW36046   2.296   1.610   5.984 -0.2536  0.0880 -0.5364
 8138SOL    HW136047   2.231   1.585   5.918  0.5711  0.5635 -1.5214
 8138SOL    HW236048   2.235   1.623   6.057 -0.1389 -1.4335 -0.1733
 8139SOL     OW36049   0.228   4.472  13.074  0.7581  0.0363  0.7223
 8139SOL    HW136050   0.149   4.522  13.052  0.6358 -0.5969 -0.2883
 8139SOL    HW236051   0.293   4.541  13.087  2.0300 -0.9876 -0.1578
 8140SOL     OW36052   0.666   1.767  16.002  1.1412  0.2907 -0.0171
 8140SOL    HW136053   0.669   1.697  15.937 -0.4065  1.1051 -0.9748
 8140SOL    HW236054   0.627   1.727  16.080  2.7484  0.9357  1.1205
 8141SOL     OW36055   0.609   4.498   3.657  0.1097 -0.3469  0.1455
 8141SOL    HW136056   0.518   4.467   3.649  1.0177 -2.6625 -1.4590
 8141SOL    HW236057   0.600   4.556   3.732  1.7422 -0.2453  0.2525
 8142SOL     OW36058   4.114   4.344   1.537 -0.2862  0.0924 -0.1084
 8142SOL    HW136059   4.057   4.380   1.469 -0.9609  1.1053  1.0082
 8142SOL    HW236060   4.062   4.320   1.614 -0.4157  0.8780  0.0435
 8143SOL     OW36061   3.769   1.903  14.633  0.5184 -0.8257  0.3999
 8143SOL    HW136062   3.865   1.906  14.638  0.5272  0.7885 -0.8401
 8143SOL    HW236063   3.759   1.853  14.552  0.4491  0.7266 -0.5457
 8144SOL     OW36064   0.997   4.625   2.950 -0.7910 -0.0489 -0.3307
 8144SOL    HW136065   1.032   4.542   2.983 -4.4392 -0.9501  1.3080
 8144SOL    HW236066   0.907   4.625   2.983 -0.5343  1.7289  0.3931
 8145SOL     OW36067   4.531   4.085   4.149  0.4231 -0.8677 -0.4751
 8145SOL    HW136068   4.449   4.036   4.149 -0.1240  0.0307 -0.9567
 8145SOL    HW236069   4.538   4.105   4.056 -0.3202 -0.2680 -0.4120
 8146SOL     OW36070   0.081   2.400   4.580 -0.3013 -0.0449 -0.1258
 8146SOL    HW136071   0.075   2.455   4.659  0.8450 -1.9177  1.2740
 8146SOL    HW236072   0.067   2.320   4.630  1.2705 -1.5384 -2.1199
 8147SOL     OW36073   3.048   1.814   4.755  0.2620 -0.1634 -0.0915
 8147SOL    HW136074   3.033   1.825   4.848 -1.9999 -0.8353 -0.3631
 8147SOL    HW236075   3.032   1.720   4.742  2.4345 -0.3173 -1.5385
 8148SOL     OW36076   2.497   3.709   8.864 -0.0597 -0.0259  0.0229
 8148SOL    HW136077   2.476   3.634   8.919  0.5998 -1.3957 -1.5817
 8148SOL    HW236078   2.461   3.778   8.920 -0.7459  0.4261 -0.9758
 8149SOL     OW36079   2.499   3.058   2.027  0.2657  0.6930  0.1501
 8149SOL    HW136080   2.554   2.986   2.060  0.4506  0.3708 -0.8581
 8149SOL    HW236081   2.417   3.017   2.001  0.7835  0.4568 -1.1026
 8150SOL     OW36082   4.691   2.471   8.607  0.1085 -0.6778 -0.5102
 8150SOL    HW136083   4.616   2.479   8.665  0.2284  0.1177 -0.4668
 8150SOL    HW236084   4.640   2.450   8.528 -0.4451 -2.2480  0.2762
 8151SOL     OW36085   2.526   0.042   4.027  0.0410  0.2334 -0.5930
 8151SOL    HW136086   2.584   0.084   4.091 -0.0821 -1.0102  0.3232
 8151SOL    HW236087   2.446   0.073   4.071  0.7300 -0.6146  1.2746
 8152SOL     OW36088   1.778   1.556   0.851  0.3638  0.0561 -0.0583
 8152SOL    HW136089   1.806   1.470   0.881  2.0109  0.8416  0.6342
 8152SOL    HW236090   1.688   1.541   0.881  0.0748  0.0768 -0.9269
 8153SOL     OW36091   0.209   1.117   2.947 -0.3311  0.0017 -0.0322
 8153SOL    HW136092   0.276   1.182   2.924  0.3809 -0.7522 -0.0671
 8153SOL    HW236093   0.205   1.064   2.868  0.7583  1.6145 -1.1670
 8154SOL     OW36094   1.417   1.288   2.199 -0.0780  0.2585 -0.1511
 8154SOL    HW136095   1.402   1.266   2.108  0.5886 -1.7029  0.2220
 8154SOL    HW236096   1.509   1.269   2.217  0.2800 -0.1776 -2.4884
 8155SOL     OW36097   0.531   0.651   5.921  0.3438  0.5074  0.1908
 8155SOL    HW136098   0.523   0.651   5.826  0.3955  1.6889  0.1885
 8155SOL    HW236099   0.603   0.713   5.927  0.1192  0.7684  0.2137
 8156SOL     OW36100   0.647   1.392   9.783 -0.3300  0.0399  0.2279
 8156SOL    HW136101   0.630   1.365   9.873  1.4184  1.2474  0.9350
 8156SOL    HW236102   0.565   1.358   9.749  0.1572  0.8688 -1.7924
 8157SOL     OW36103   4.720   3.582   6.767 -0.4839  0.1140 -0.1201
 8157SOL    HW136104   0.005   3.674   6.774  0.1782  0.0148 -1.4021
 8157SOL    HW236105   0.038   3.558   6.696 -1.5885  0.8711 -1.2890
 8158SOL     OW36106   3.882   1.320   8.206  0.1320  0.1623 -0.6867
 8158SOL    HW136107   3.972   1.354   8.208  0.4350 -0.8073  2.3690
 8158SOL    HW236108   3.858   1.330   8.114 -2.0640  0.3333 -0.0788
 8159SOL     OW36109   3.485   3.637   2.790 -0.3172 -0.1822 -0.0974
 8159SOL    HW136110   3.561   3.683   2.827 -0.8671  0.1900  0.5767
 8159SOL    HW236111   3.506   3.544   2.801 -0.3701 -0.2574 -0.6224
 8160SOL     OW36112   0.741   4.546   4.278 -0.2003 -0.2608 -0.1370
 8160SOL    HW136113   0.652   4.515   4.297  0.3494 -0.7681  1.6399
 8160SOL    HW236114   0.799   4.487   4.327 -0.6111  0.5134  1.2816
 8161SOL     OW36115   2.206   2.825   1.937  0.1633  0.1345 -0.3478
 8161SOL    HW136116   2.294   2.802   1.908  0.4503 -0.0126  0.6142
 8161SOL    HW236117   2.212   2.919   1.951  0.5997 -0.2272  1.9439
 8162SOL     OW36118   1.073   1.952  16.004  0.3974 -0.7515  0.1092
 8162SOL    HW136119   1.152   1.942  16.056  0.0549  1.7156  1.1059
 8162SOL    HW236120   1.010   1.965  16.075 -1.0041  0.4974 -1.3739
 8163SOL     OW36121   1.573   3.650   9.677  0.1967 -0.8219 -0.2983
 8163SOL    HW136122   1.506   3.695   9.728  1.1377  1.6748 -1.2540
 8163SOL    HW236123   1.643   3.667   9.739  0.1562 -1.4393 -0.0774
 8164SOL     OW36124   4.592   1.896   6.610  0.1438  0.3597  0.1328
 8164SOL    HW136125   4.688   1.898   6.609  0.0919  2.4041 -0.0460
 8164SOL    HW236126   4.575   1.930   6.698  2.8266  1.7174  0.1171
 8165SOL     OW36127   0.283   0.632   3.361 -0.3545  0.0320 -0.1720
 8165SOL    HW136128   0.271   0.592   3.274  0.5590 -2.4367  0.8347
 8165SOL    HW236129   0.293   0.558   3.420  0.0148  1.5123  1.6142
 8166SOL     OW36130   3.012   2.995   9.306 -0.0626  0.6681  0.2786
 8166SOL    HW136131   2.977   3.044   9.231 -0.3072 -0.0471 -0.0806
 8166SOL    HW236132   3.087   2.957   9.261 -0.6680 -0.7666  0.4898
 8167SOL     OW36133   0.191   4.694   8.706 -0.6625  0.0177 -0.2284
 8167SOL    HW136134   0.276   4.667   8.742 -1.7986 -2.4485  0.5814
 8167SOL    HW236135   0.128   4.622   8.713  0.1680 -0.8178 -1.3064
 8168SOL     OW36136   2.830   4.595   1.840  0.3051 -0.7574 -0.4467
 8168SOL    HW136137   2.917   4.561   1.860  0.8544  0.7349 -0.2542
 8168SOL    HW236138   2.845   4.690   1.845  0.5980 -0.8125 -0.2184
 8169SOL     OW36139   1.546   2.327   3.895  0.3373  0.0458  0.6990
 8169SOL    HW136140   1.487   2.267   3.850 -0.4400  0.4040  1.2370
 8169SOL    HW236141   1.525   2.414   3.862  2.5289 -0.2264 -1.4183
 8170SOL     OW36142   2.976   0.609  17.357 -0.0813 -0.0548 -0.1474
 8170SOL    HW136143   3.034   0.542  17.393 -2.5524 -2.3898 -0.4814
 8170SOL    HW236144   2.889   0.576  17.380  0.2871 -0.1480  1.0693
 8171SOL     OW36145   0.312   4.594   5.467 -0.1419  0.2543  0.5778
 8171SOL    HW136146   0.258   4.547   5.531 -1.0694 -0.9282 -1.0750
 8171SOL    HW236147   0.402   4.593   5.499  0.4538  1.0204 -1.0913
 8172SOL     OW36148   1.203   0.140   8.536  0.2752 -0.0290 -1.2053
 8172SOL    HW136149   1.274   0.172   8.479  1.8589 -1.1692  0.1233
 8172SOL    HW236150   1.128   0.137   8.477 -0.5891 -1.4917 -0.0284
 8173SOL     OW36151   0.881   4.487   7.467 -0.1746  0.9123 -0.5628
 8173SOL    HW136152   0.948   4.452   7.526 -0.5946 -0.6174 -1.0193
 8173SOL    HW236153   0.812   4.422   7.466  1.1631 -0.4970 -2.4041
 8174SOL     OW36154   1.295   3.789   0.983 -0.3981  0.0823 -0.3380
 8174SOL    HW136155   1.385   3.786   0.950 -0.9919 -1.3634 -1.8161
 8174SOL    HW236156   1.318   3.812   1.073 -1.0998  0.5515 -0.2847
 8175SOL     OW36157   2.839   3.239  10.600  0.0618  0.1424  0.1389
 8175SOL    HW136158   2.885   3.168  10.555 -1.3278  1.0275 -2.7314
 8175SOL    HW236159   2.748   3.211  10.591 -0.5029  1.3563  2.0357
 8176SOL     OW36160   2.827   0.780   3.797 -0.1312 -0.3564  0.3925
 8176SOL    HW136161   2.794   0.772   3.887 -0.1105 -0.2711  0.4079
 8176SOL    HW236162   2.778   0.707   3.759 -0.2264  0.4266 -0.9839
 8177SOL     OW36163   0.883   3.266   7.015 -0.1410 -0.7190  0.2213
 8177SOL    HW136164   0.824   3.314   6.957 -0.9330 -1.8905  0.0588
 8177SOL    HW236165   0.963   3.259   6.962 -1.3637  1.8146 -1.9706
 8178SOL     OW36166   3.984   4.378   3.839  0.6771 -0.6397 -0.1748
 8178SOL    HW136167   4.058   4.361   3.897 -0.0145  0.2251  0.9527
 8178SOL    HW236168   4.012   4.465   3.811  1.2647 -1.5203 -2.3624
 8179SOL     OW36169   1.588   1.794   4.018  0.0083 -0.1073 -0.7898
 8179SOL    HW136170   1.499   1.824   4.000  0.9496  2.9146 -0.3709
 8179SOL    HW236171   1.592   1.722   3.955 -2.7168 -1.4914  0.6031
 8180SOL     OW36172   3.897   3.728   7.765 -0.1449 -0.6828 -0.3815
 8180SOL    HW136173   3.918   3.657   7.825  4.0815  0.8963 -0.0113
 8180SOL    HW236174   3.984   3.765   7.753 -0.7667  1.3821  1.5648
 8181SOL     OW36175   4.684   4.269  17.171 -0.1068 -0.0460  0.4628
 8181SOL    HW136176   0.036   4.292  17.170  0.2702 -1.5706 -0.1765
 8181SOL    HW236177   4.678   4.265  17.266  1.3813 -1.4505  0.5070
 8182SOL     OW36178   0.750   3.533   9.263  0.2428  0.0373  0.4409
 8182SOL    HW136179   0.796   3.528   9.347 -0.0871 -0.9860  0.5650
 8182SOL    HW236180   0.737   3.627   9.253 -0.3581  0.1268  2.0044
 8183SOL     OW36181   1.117   3.990   0.983  0.2838 -0.2318 -0.2932
 8183SOL    HW136182   1.183   3.928   0.950  0.5472 -0.6628  1.0483
 8183SOL    HW236183   1.119   4.052   0.910 -1.4497  2.2831  1.8364
 8184SOL     OW36184   2.379   1.375  12.637  0.0937 -0.1833 -0.4561
 8184SOL    HW136185   2.292   1.336  12.638  0.2580 -0.5334  0.1577
 8184SOL    HW236186   2.431   1.295  12.637 -0.0363 -0.2735 -1.9657
 8185SOL     OW36187   4.332   0.401   2.967 -0.2657  0.3120  0.2337
 8185SOL    HW136188   4.410   0.448   2.936  0.2171 -0.2579  0.5806
 8185SOL    HW236189   4.327   0.432   3.058 -1.5439  2.8069 -0.6782
 8186SOL     OW36190   2.938   3.321   3.573 -0.0140 -0.1264 -0.1932
 8186SOL    HW136191   3.014   3.293   3.522  0.2084 -1.2705  0.7720
 8186SOL    HW236192   2.880   3.357   3.507  1.4990  1.0569 -0.9014
 8187SOL     OW36193   0.003   1.017   4.944 -0.1754  0.2062  0.0177
 8187SOL    HW136194   4.650   1.041   4.952  0.1471  1.3705  0.3763
 8187SOL    HW236195   0.047   1.102   4.942  0.4159 -0.0818  1.0951
 8188SOL     OW36196   1.918   2.265   4.271 -0.5687 -0.3998  0.0358
 8188SOL    HW136197   1.844   2.272   4.212 -1.7020 -0.9720  1.3855
 8188SOL    HW236198   1.912   2.173   4.299  3.7488 -0.2339  1.6530
 8189SOL     OW36199   0.979   3.232   3.812  0.6756 -0.6592 -0.6184
 8189SOL    HW136200   0.978   3.154   3.868  0.3222  0.2101  0.5773
 8189SOL    HW236201   0.889   3.232   3.779 -0.5602 -0.5390  2.7332
 8190SOL     OW36202   2.274   0.575   3.737 -0.1708  0.6822  0.5671
 8190SOL    HW136203   2.350   0.538   3.781 -2.4792 -1.3905  2.8385
 8190SOL    HW236204   2.255   0.653   3.790 -2.6146  1.3683 -1.3484
 8191SOL     OW36205   1.926   0.427   3.411 -0.6223  0.3145 -0.2456
 8191SOL    HW136206   1.973   0.396   3.489 -1.7090  1.4478  0.8659
 8191SOL    HW236207   1.971   0.375   3.344 -0.3726 -0.8266  0.7967
 8192SOL     OW36208   3.335   0.440  13.283 -0.2855 -0.1582 -0.4104
 8192SOL    HW136209   3.422   0.406  13.302 -0.9339 -1.2141  0.6722
 8192SOL    HW236210   3.296   0.372  13.227  1.0327 -0.3811 -1.0558
 8193SOL     OW36211   1.024   4.640   7.983  0.0975 -0.0046 -0.7658
 8193SOL    HW136212   0.954   4.705   7.983 -0.3910 -0.5290  0.7512
 8193SOL    HW236213   0.993   4.563   7.933 -1.0568 -0.0341 -0.0102
 8194SOL     OW36214   1.183   3.962   9.489  0.1019  0.2334 -0.0865
 8194SOL    HW136215   1.122   3.918   9.548  0.2887 -0.4769 -0.4267
 8194SOL    HW236216   1.119   3.977   9.420 -2.0189 -0.8580  1.6176
 8195SOL     OW36217   3.212   0.495   6.873 -0.1184 -0.6469 -0.1388
 8195SOL    HW136218   3.120   0.520   6.864 -0.3504 -1.7860 -0.9112
 8195SOL    HW236219   3.197   0.404   6.848  0.0706 -1.1756  1.7455
 8196SOL     OW36220   3.593   2.058   3.823  0.6341 -0.9294 -0.2691
 8196SOL    HW136221   3.553   2.102   3.748  0.3339  1.3153  1.2115
 8196SOL    HW236222   3.518   2.062   3.882  1.9748  0.3397  1.3606
 8197SOL     OW36223   1.669   3.581   1.906 -0.1087 -0.4698  0.5657
 8197SOL    HW136224   1.691   3.490   1.886  0.6615  0.0101 -0.7969
 8197SOL    HW236225   1.612   3.573   1.982 -0.0120 -0.2622  0.6583
 8198SOL     OW36226   3.389   3.822   7.557 -0.2947  0.2931 -0.6256
 8198SOL    HW136227   3.483   3.820   7.572 -0.3057  0.5570 -0.5158
 8198SOL    HW236228   3.354   3.769   7.628  1.9353 -1.3121 -0.7537
 8199SOL     OW36229   1.024   1.896   7.539  0.2004  0.0823  0.3526
 8199SOL    HW136230   0.966   1.835   7.586  0.5087 -0.0037  0.6287
 8199SOL    HW236231   0.983   1.977   7.567 -0.7667 -0.3311  0.1376
 8200SOL     OW36232   2.775   3.827   6.467  0.1593  0.1749  0.0456
 8200SOL    HW136233   2.813   3.739   6.474  1.1131  0.5597 -0.3159
 8200SOL    HW236234   2.688   3.800   6.498 -1.1135  1.8372 -2.0339
 8201SOL     OW36235   4.683   4.701   2.487  0.2889 -0.4069  0.0803
 8201SOL    HW136236   4.674   0.055   2.472  0.7783 -0.1643  1.3875
 8201SOL    HW236237   4.621   4.662   2.426 -1.0136  1.1149  0.4379
 8202SOL     OW36238   2.070   4.198   5.669 -0.1180 -0.4011  0.2852
 8202SOL    HW136239   2.140   4.164   5.726  0.9781  0.6502 -0.4146
 8202SOL    HW236240   2.079   4.293   5.675 -0.6018 -0.2378 -1.8071
 8203SOL     OW36241   3.853   0.170   2.782 -0.7152 -0.2682 -0.1511
 8203SOL    HW136242   3.872   0.105   2.850 -3.2313  1.0619  1.8288
 8203SOL    HW236243   3.797   0.233   2.829  1.3304 -0.6850  2.8491
 8204SOL     OW36244   3.573   3.812   9.874  0.1981 -0.1025  0.0002
 8204SOL    HW136245   3.487   3.776   9.856  0.3616 -0.5320  0.0857
 8204SOL    HW236246   3.553   3.876   9.942 -1.2419 -1.5622  0.9329
 8205SOL     OW36247   3.866   4.487   7.147  0.2669  0.2443 -0.1678
 8205SOL    HW136248   3.815   4.455   7.072  0.4700 -1.6871  0.5227
 8205SOL    HW236249   3.837   4.578   7.156 -0.4928 -0.0967  0.8507
 8206SOL     OW36250   2.768   1.118   6.031 -0.3944  0.0916  0.2238
 8206SOL    HW136251   2.850   1.169   6.039 -0.7070  0.8655 -1.4751
 8206SOL    HW236252   2.709   1.187   6.000 -2.0327 -0.4791  2.0686
 8207SOL     OW36253   3.398   0.936   1.269  0.0905  0.3951 -0.7776
 8207SOL    HW136254   3.414   0.950   1.362  0.0683 -0.4387 -0.6451
 8207SOL    HW236255   3.308   0.907   1.253 -0.3028  0.4174  1.4936
 8208SOL     OW36256   3.312   1.112  16.170  0.3390  0.1117  0.1481
 8208SOL    HW136257   3.268   1.115  16.255 -0.2556 -1.4077 -0.1085
 8208SOL    HW236258   3.237   1.115  16.110  1.9583  0.0909 -1.8859
 8209SOL     OW36259   0.994   2.147   1.824  0.1809  0.3616 -0.1646
 8209SOL    HW136260   0.997   2.055   1.848 -0.0982  0.1319 -1.0193
 8209SOL    HW236261   1.088   2.165   1.821  0.2501 -0.1934 -1.1126
 8210SOL     OW36262   1.751   3.736   2.766 -0.3322 -0.4883  0.3605
 8210SOL    HW136263   1.674   3.713   2.714 -0.4770  0.5195  0.1329
 8210SOL    HW236264   1.754   3.659   2.824  0.1188 -0.0228  0.9553
 8211SOL     OW36265   1.402   2.298   2.639  0.4722 -0.1997 -0.2757
 8211SOL    HW136266   1.335   2.245   2.596  0.0238 -0.4968  0.7792
 8211SOL    HW236267   1.431   2.234   2.704  0.0328 -0.1896 -0.0757
 8212SOL     OW36268   4.264   1.745   9.262  0.4128  0.6120 -0.0440
 8212SOL    HW136269   4.242   1.765   9.171 -0.6990  2.3250  0.6093
 8212SOL    HW236270   4.291   1.829   9.298  0.4990 -0.7307  3.0590
 8213SOL     OW36271   0.544   1.368   5.449 -0.7970 -0.0918  0.4805
 8213SOL    HW136272   0.516   1.316   5.374  1.0628 -1.4567  0.7464
 8213SOL    HW236273   0.626   1.401   5.411 -1.5801  0.7630 -0.4536
 8214SOL     OW36274   3.407   0.267   1.368  1.0028  0.2944  0.3764
 8214SOL    HW136275   3.446   0.240   1.451 -0.5949 -1.1642  0.6664
 8214SOL    HW236276   3.336   0.320   1.403 -1.7149 -0.8900 -3.3495
 8215SOL     OW36277   0.661   2.925  12.736  0.7626 -0.0820 -0.9471
 8215SOL    HW136278   0.585   2.968  12.776  0.5589 -3.1227  1.8758
 8215SOL    HW236279   0.718   2.948  12.809  2.1502 -0.1089 -2.0301
 8216SOL     OW36280   2.882   4.072  12.670 -0.2123 -0.1033  0.6155
 8216SOL    HW136281   2.962   4.068  12.723  0.5820 -1.3961 -0.6777
 8216SOL    HW236282   2.830   4.083  12.749 -0.7487 -0.3492  0.2894
 8217SOL     OW36283   1.132   2.194   2.878  0.0541 -0.3074  0.6396
 8217SOL    HW136284   1.181   2.112   2.879  0.4001 -0.0868  1.2492
 8217SOL    HW236285   1.177   2.250   2.940 -1.0250  0.1385  1.0235
 8218SOL     OW36286   3.067   4.056   5.446  0.1558 -0.3663  0.6787
 8218SOL    HW136287   3.125   4.012   5.384 -0.6139  0.5772 -0.7263
 8218SOL    HW236288   3.120   4.042   5.524 -1.1909  1.2473  1.8795
 8219SOL     OW36289   2.585   0.215   1.773 -0.0501 -0.5434 -0.3449
 8219SOL    HW136290   2.609   0.280   1.707  1.4897 -0.2581  0.5016
 8219SOL    HW236291   2.521   0.166   1.722 -1.5921 -0.0236  1.1020
 8220SOL     OW36292   1.294   3.986   5.378  0.7524 -0.1265 -0.0647
 8220SOL    HW136293   1.313   4.053   5.312  1.7721 -2.8465 -2.5863
 8220SOL    HW236294   1.351   3.912   5.355  0.9684 -0.1023  0.4102
 8221SOL     OW36295   1.004   4.050  12.349 -0.4125  0.6528  0.2776
 8221SOL    HW136296   1.016   3.995  12.271 -1.8883 -0.0909  0.5731
 8221SOL    HW236297   1.089   4.074  12.385  0.5775 -2.2016 -0.1808
 8222SOL     OW36298   0.828   1.912   2.345  0.5726  0.4022  0.6329
 8222SOL    HW136299   0.901   1.879   2.397 -0.8882 -0.0637  2.3860
 8222SOL    HW236300   0.865   1.945   2.262 -0.1958  2.8422  1.2511
 8223SOL     OW36301   3.873   2.881   8.235 -0.0772  0.0711 -0.5291
 8223SOL    HW136302   3.856   2.961   8.284 -0.1678  0.4705 -1.2085
 8223SOL    HW236303   3.968   2.873   8.248 -0.1749 -0.3105 -0.0449
 8224SOL     OW36304   3.810   4.618   5.114  0.2023 -0.0086 -0.4572
 8224SOL    HW136305   3.803   4.678   5.039 -0.9110  1.5461  0.8961
 8224SOL    HW236306   3.751   4.548   5.086 -0.4784  0.2895  0.2466
 8225SOL     OW36307   4.319   1.054   5.816 -0.5856  0.0013  0.3569
 8225SOL    HW136308   4.293   0.997   5.888  0.3643  0.9451  1.4493
 8225SOL    HW236309   4.309   1.132   5.871 -1.8433  1.7722 -2.3942
 8226SOL     OW36310   2.425   2.042   4.713 -0.5165  0.9565  0.5575
 8226SOL    HW136311   2.416   2.131   4.747 -2.7627  0.3809  1.4467
 8226SOL    HW236312   2.520   2.033   4.717 -0.8165 -2.4978  0.5435
 8227SOL     OW36313   1.007   2.281   8.859 -0.6900 -0.5780  0.2229
 8227SOL    HW136314   0.918   2.284   8.894 -1.3285 -0.9200 -1.3653
 8227SOL    HW236315   1.003   2.355   8.799 -0.2059  0.8288  1.9246
 8228SOL     OW36316   4.387   3.228  16.633 -0.3392  0.4687  0.4209
 8228SOL    HW136317   4.461   3.196  16.685  0.7308  0.0631 -1.3606
 8228SOL    HW236318   4.323   3.157  16.631 -1.5120  1.5934 -1.6844
 8229SOL     OW36319   3.846   1.483   4.301 -0.2274 -0.0624 -0.2326
 8229SOL    HW136320   3.823   1.396   4.334 -0.9461  0.3270  0.2857
 8229SOL    HW236321   3.799   1.537   4.364 -0.4337 -0.0321 -0.4097
 8230SOL     OW36322   1.087   2.051   7.900 -0.3348 -0.4459  0.1552
 8230SOL    HW136323   1.136   2.078   7.977  1.0653 -2.4155 -0.0519
 8230SOL    HW236324   1.145   2.083   7.831 -1.1627  0.7323 -0.0018
 8231SOL     OW36325   0.476   3.675   7.078 -0.4105 -0.4924 -0.3778
 8231SOL    HW136326   0.399   3.698   7.129  0.0693 -0.9554  0.5541
 8231SOL    HW236327   0.526   3.621   7.139 -0.2227  2.2201  1.8657
 8232SOL     OW36328   4.216   1.451  17.512 -0.0605 -0.1982 -0.2223
 8232SOL    HW136329   4.157   1.377  17.497  1.0884 -1.7714  2.7871
 8232SOL    HW236330   4.289   1.419  17.458  0.2248 -0.7580  0.4767
 8233SOL     OW36331   2.192   1.880   5.081  0.5391 -0.2266 -0.4728
 8233SOL    HW136332   2.259   1.939   5.047  1.1329 -0.0975  0.9430
 8233SOL    HW236333   2.129   1.882   5.009  1.2045 -1.9524 -1.1168
 8234SOL     OW36334   4.577   0.937   1.392 -0.6052 -0.2176 -0.0682
 8234SOL    HW136335   4.631   0.863   1.418 -1.1480 -0.4061  0.5258
 8234SOL    HW236336   4.642   1.005   1.374 -0.0032 -0.2422  2.0370
 8235SOL     OW36337   0.766   1.414   2.677 -0.3611 -0.2401 -0.1779
 8235SOL    HW136338   0.828   1.408   2.750  0.7959  0.8790 -1.0516
 8235SOL    HW236339   0.691   1.455   2.719  0.3636  1.4593 -0.5359
 8236SOL     OW36340   4.237   1.600   5.690  0.0574 -0.3235  0.4660
 8236SOL    HW136341   4.149   1.571   5.667  0.7225 -0.9592 -1.3328
 8236SOL    HW236342   4.294   1.523   5.686 -0.0314 -0.3608 -0.1592
 8237SOL     OW36343   1.431   2.755   2.338  0.0560 -0.0446 -0.4668
 8237SOL    HW136344   1.509   2.734   2.390  0.2383  1.6228 -0.0485
 8237SOL    HW236345   1.475   2.784   2.258 -0.3213  0.8039 -0.3712
 8238SOL     OW36346   2.654   1.943  13.101  0.1851  0.3993 -0.4258
 8238SOL    HW136347   2.611   1.857  13.098  3.9386 -1.5410  0.3744
 8238SOL    HW236348   2.701   1.945  13.017 -0.6609  0.3283 -0.8968
 8239SOL     OW36349   1.118   3.007   7.093  0.3943 -0.0402 -0.0509
 8239SOL    HW136350   1.106   3.077   7.029 -0.6304 -0.9378 -0.8529
 8239SOL    HW236351   1.036   2.958   7.082 -1.2206  2.5006  0.5401
 8240SOL     OW36352   1.472   2.256   4.143  0.1025  0.0651 -0.0985
 8240SOL    HW136353   1.382   2.280   4.161  0.4924  0.4739  1.2914
 8240SOL    HW236354   1.490   2.314   4.068 -0.2739 -1.5146 -1.4122
 8241SOL     OW36355   2.389   0.670   0.674  0.4238  0.0153  0.3876
 8241SOL    HW136356   2.309   0.627   0.703  0.0209  0.9570  0.6562
 8241SOL    HW236357   2.429   0.605   0.616 -0.8165 -1.6361  1.3796
 8242SOL     OW36358   0.990   2.988  12.719  0.2035  0.0982 -0.5088
 8242SOL    HW136359   1.084   3.001  12.707  0.2366  1.9072  1.6590
 8242SOL    HW236360   0.960   3.058  12.661 -1.5142  1.0159  1.4710
 8243SOL     OW36361   0.005   2.271  11.393 -0.3297 -0.5572  0.6096
 8243SOL    HW136362   0.084   2.242  11.348  0.3855 -1.0922  2.1713
 8243SOL    HW236363   4.725   2.354  11.350 -0.1530 -1.1857 -0.6879
 8244SOL     OW36364   4.102   0.260   5.979  0.2205 -0.2837  0.3427
 8244SOL    HW136365   4.090   0.314   5.900 -0.1304 -0.7140  0.0973
 8244SOL    HW236366   4.083   0.329   6.042 -0.5681 -2.0103  1.9949
 8245SOL     OW36367   4.234   1.335   0.501  0.0791  0.7992  0.0891
 8245SOL    HW136368   4.228   1.411   0.444 -0.7247  1.2924  0.8218
 8245SOL    HW236369   4.328   1.334   0.518 -0.1195 -2.4840  0.9320
 8246SOL     OW36370   1.370   4.739   9.943  0.2518 -0.3623  0.6786
 8246SOL    HW136371   1.317   0.037   9.872  0.8894  0.4329  0.6304
 8246SOL    HW236372   1.317   4.660   9.955 -0.3300 -0.2199 -0.8487
 8247SOL     OW36373   3.568   4.544   3.715  0.6582  0.1236 -0.1601
 8247SOL    HW136374   3.557   4.637   3.739 -2.5638 -0.4336  0.6299
 8247SOL    HW236375   3.655   4.531   3.752  1.5517 -1.0456 -2.6962
 8248SOL     OW36376   4.269   2.467  14.499 -0.6143 -0.3495  0.1789
 8248SOL    HW136377   4.220   2.499  14.575  0.3810 -0.1900  0.7592
 8248SOL    HW236378   4.354   2.510  14.503 -2.1466  2.4972  1.9394
 8249SOL     OW36379   1.249   3.879   8.446 -0.6157 -0.2793 -0.5386
 8249SOL    HW136380   1.321   3.821   8.472 -0.4002  0.0018 -0.5086
 8249SOL    HW236381   1.299   3.960   8.459 -0.1431 -0.4747 -1.1196
 8250SOL     OW36382   0.191   0.617  14.740 -0.9330  0.1817  0.4210
 8250SOL    HW136383   0.229   0.540  14.698 -2.8679  0.4959 -1.8740
 8250SOL    HW236384   0.249   0.641  14.812 -1.6015 -1.0050  1.3413
 8251SOL     OW36385   2.338   2.696   8.030 -0.3028  0.1401 -0.4121
 8251SOL    HW136386   2.265   2.663   8.082 -0.9194  0.8463 -0.8358
 8251SOL    HW236387   2.387   2.739   8.101  1.8767 -1.0336 -1.2130
 8252SOL     OW36388   0.661   1.957   3.767  0.1153 -0.3908  0.0535
 8252SOL    HW136389   0.601   1.982   3.837  0.7287  1.5513 -0.1077
 8252SOL    HW236390   0.650   2.025   3.700  1.2328  1.2381  1.5076
 8253SOL     OW36391   0.288   0.186   7.629  0.5374 -0.4256  0.4714
 8253SOL    HW136392   0.296   0.191   7.534 -2.0566 -1.2051  0.2166
 8253SOL    HW236393   0.326   0.103   7.658  0.5725 -0.3702  0.5859
 8254SOL     OW36394   4.406   1.516   8.285  1.0517  0.0225  0.0106
 8254SOL    HW136395   4.497   1.502   8.258  0.7608 -0.1925 -0.8632
 8254SOL    HW236396   4.392   1.593   8.229  1.3248 -0.7131 -1.0757
 8255SOL     OW36397   2.432   1.242   6.967 -0.0663  0.4145 -0.1867
 8255SOL    HW136398   2.368   1.195   7.020  1.8983 -1.8382  0.1555
 8255SOL    HW236399   2.432   1.329   7.007 -2.4530  0.6094 -0.6200
 8256SOL     OW36400   3.817   1.028   7.444  0.0907 -0.3608 -0.1452
 8256SOL    HW136401   3.766   0.947   7.431 -1.1666  0.5868 -1.1639
 8256SOL    HW236402   3.774   1.084   7.379 -1.0803 -0.1430  0.8245
 8257SOL     OW36403   0.138   3.227   2.572  0.5495 -0.1502  0.3214
 8257SOL    HW136404   0.079   3.281   2.624  0.1287 -0.6630  0.3872
 8257SOL    HW236405   0.090   3.144   2.562  0.7898 -0.1383 -0.9022
 8258SOL     OW36406   3.615   3.537  17.194 -0.1679  0.9151  0.2819
 8258SOL    HW136407   3.699   3.563  17.231  0.5194 -0.0673 -0.5515
 8258SOL    HW236408   3.554   3.528  17.267 -0.7353  3.3766  0.1148
 8259SOL     OW36409   3.498   2.442  13.192  0.0878  0.1752  0.5213
 8259SOL    HW136410   3.593   2.427  13.199 -0.1709 -0.1720  3.0751
 8259SOL    HW236411   3.482   2.507  13.260 -1.4914 -0.1508  0.4468
 8260SOL     OW36412   3.343   0.418   2.558 -0.2005  0.1255  0.0438
 8260SOL    HW136413   3.415   0.390   2.502  0.6475 -0.8562  1.6074
 8260SOL    HW236414   3.361   0.365   2.636  3.2993 -0.0958 -0.9462
 8261SOL     OW36415   1.459   2.620   2.064 -0.0727  0.1596 -0.4530
 8261SOL    HW136416   1.384   2.622   2.006 -1.0784 -1.2820  0.7900
 8261SOL    HW236417   1.409   2.602   2.144  0.6360  0.3155  0.0315
 8262SOL     OW36418   4.043   4.526  13.633  0.2201 -0.2457 -0.5314
 8262SOL    HW136419   4.012   4.498  13.719  0.2152 -0.8740 -0.7403
 8262SOL    HW236420   4.134   4.550  13.655  0.8401 -0.8496 -2.4312
 8263SOL     OW36421   0.643   2.703   6.956  0.4170  0.4823 -0.4102
 8263SOL    HW136422   0.628   2.773   7.020 -1.3558  0.9532 -1.3551
 8263SOL    HW236423   0.568   2.644   6.956 -0.3244  1.3880  2.1081
 8264SOL     OW36424   0.821   0.489   4.095  0.5303  0.2825  0.0353
 8264SOL    HW136425   0.885   0.554   4.124  0.4571  0.8496 -1.0489
 8264SOL    HW236426   0.872   0.446   4.026  0.5846 -1.6549  1.2869
 8265SOL     OW36427   0.420   2.580   5.595 -0.2473 -0.2611 -0.0382
 8265SOL    HW136428   0.406   2.500   5.545 -0.7989 -0.5209  0.5467
 8265SOL    HW236429   0.461   2.539   5.671 -0.9252 -0.0346  0.4526
 8266SOL     OW36430   4.269   4.222   6.185 -0.4070 -0.2196 -0.3532
 8266SOL    HW136431   4.321   4.245   6.108  1.7058 -2.2851  0.4386
 8266SOL    HW236432   4.243   4.310   6.209 -0.7892 -0.6976  0.9858
 8267SOL     OW36433   1.779   3.319   2.196  0.2335 -0.1229  0.0208
 8267SOL    HW136434   1.750   3.274   2.275  1.2212  1.1838  1.1087
 8267SOL    HW236435   1.730   3.402   2.196 -2.2883 -1.6118  1.3161
 8268SOL     OW36436   2.877   3.048   2.363  0.3764 -0.1960 -0.1728
 8268SOL    HW136437   2.817   3.099   2.309  0.4905  0.0097 -0.1051
 8268SOL    HW236438   2.897   3.114   2.429  0.0679 -1.2218  0.9361
 8269SOL     OW36439   0.897   1.804  17.347 -0.0162 -0.3507  0.0496
 8269SOL    HW136440   0.830   1.742  17.378  2.4222 -2.8671  0.2993
 8269SOL    HW236441   0.978   1.763  17.378  0.1896 -0.3604 -0.5088
 8270SOL     OW36442   1.980   4.029   4.333  0.0429 -0.8462 -0.0862
 8270SOL    HW136443   1.915   3.976   4.379  2.1270 -0.6342  3.1502
 8270SOL    HW236444   1.999   4.097   4.398  0.3270 -0.1297 -0.9138
 8271SOL     OW36445   4.514   2.712  15.146  0.3811 -0.2348  0.1825
 8271SOL    HW136446   4.527   2.623  15.181  0.0935 -0.9202 -1.4245
 8271SOL    HW236447   4.507   2.686  15.054 -1.4336  0.2512  0.1838
 8272SOL     OW36448   4.710   0.942   6.178  0.4084  0.0354 -0.1026
 8272SOL    HW136449   4.713   0.963   6.271  2.4019  0.4036 -0.2505
 8272SOL    HW236450   0.063   0.923   6.168  0.7753  0.6694  2.2462
 8273SOL     OW36451   3.768   4.714   5.373 -0.3229 -0.1013  0.1702
 8273SOL    HW136452   3.776   4.701   5.278 -1.0119 -0.9435  0.2246
 8273SOL    HW236453   3.737   4.624   5.383 -1.2622  0.4495  2.2047
 8274SOL     OW36454   2.677   0.744   6.901 -0.2540 -0.0270 -0.8258
 8274SOL    HW136455   2.727   0.747   6.820  3.1517 -0.4090  1.2494
 8274SOL    HW236456   2.680   0.837   6.924 -1.3727 -0.7295  2.2008
 8275SOL     OW36457   4.343   1.058   1.608 -0.0357  0.2193  0.7763
 8275SOL    HW136458   4.389   0.983   1.644  0.5857 -0.4495 -1.3869
 8275SOL    HW236459   4.257   1.018   1.592  0.2184  0.6526 -1.7990
 8276SOL     OW36460   3.082   0.796   3.589 -0.1380 -0.5598  0.2584
 8276SOL    HW136461   3.164   0.834   3.556 -0.9896  1.6756  0.6823
 8276SOL    HW236462   3.016   0.859   3.560 -1.3548 -1.1257  1.7736
 8277SOL     OW36463   3.164   3.356   8.615  0.0144 -0.4648 -0.1350
 8277SOL    HW136464   3.116   3.436   8.594  2.6789  0.8232 -1.4447
 8277SOL    HW236465   3.245   3.397   8.645 -0.0217 -1.2624  1.0248
 8278SOL     OW36466   4.441   1.516   4.609  0.5217  0.2024 -0.1399
 8278SOL    HW136467   4.363   1.461   4.600  2.9549 -3.1639 -0.4954
 8278SOL    HW236468   4.441   1.513   4.705 -1.9496 -2.4823 -0.2203
 8279SOL     OW36469   4.148   0.872   1.570 -0.6369 -0.5913  0.6612
 8279SOL    HW136470   4.190   0.848   1.488 -1.5828  2.2897 -0.6688
 8279SOL    HW236471   4.100   0.794   1.598  1.0318 -2.1930 -0.9618
 8280SOL     OW36472   2.883   0.354  14.598 -0.2566  0.5957 -0.0177
 8280SOL    HW136473   2.884   0.259  14.596 -2.4910  0.5662  1.1195
 8280SOL    HW236474   2.821   0.366  14.670 -1.3292 -1.2015 -0.6514
 8281SOL     OW36475   4.027   1.932   8.971 -0.0942  0.3876  0.4298
 8281SOL    HW136476   4.055   1.841   8.962  1.4441  0.7819  1.1628
 8281SOL    HW236477   3.938   1.931   9.007 -0.1666  3.5782  0.3193
 8282SOL     OW36478   4.126   3.278   5.137  0.1928 -0.1278 -0.3431
 8282SOL    HW136479   4.110   3.335   5.062 -0.5731 -0.9539 -0.8134
 8282SOL    HW236480   4.222   3.280   5.132  0.1308 -1.5416 -2.0176
 8283SOL     OW36481   3.968   0.437   5.260  0.2996  0.4522  0.0196
 8283SOL    HW136482   3.934   0.354   5.293 -0.9453  1.4253  1.1807
 8283SOL    HW236483   3.890   0.492   5.257 -0.3819 -0.6143 -1.7760
 8284SOL     OW36484   3.586   2.774   2.544 -0.6008  0.1495  0.1554
 8284SOL    HW136485   3.551   2.686   2.536 -0.9129  0.2293  0.6905
 8284SOL    HW236486   3.632   2.785   2.627  0.2324 -0.6508 -0.1996
 8285SOL     OW36487   3.130   1.138   6.278 -0.4380  0.3245 -0.3528
 8285SOL    HW136488   3.220   1.126   6.307 -0.9823 -1.2295  0.7112
 8285SOL    HW236489   3.143   1.197   6.203  2.2772  0.1382 -0.0085
 8286SOL     OW36490   2.703   0.232   1.329 -0.5255 -0.2444 -0.0774
 8286SOL    HW136491   2.787   0.276   1.318  0.0657 -2.2883 -3.6624
 8286SOL    HW236492   2.664   0.229   1.242 -0.3148  0.2264 -0.1833
 8287SOL     OW36493   4.131   4.482   4.962 -0.4506 -0.3634  0.0205
 8287SOL    HW136494   4.210   4.473   4.910 -0.3786  1.4482 -0.1589
 8287SOL    HW236495   4.098   4.567   4.933 -0.9756 -0.4703  0.2979
 8288SOL     OW36496   4.563   1.870  16.234 -0.2380  0.5365  0.5807
 8288SOL    HW136497   4.515   1.918  16.301 -1.6351 -1.1942  0.8356
 8288SOL    HW236498   4.494   1.835  16.178  1.2036  0.3587 -1.0534
 8289SOL     OW36499   0.094   0.917   2.386  0.0719  0.2057  0.4819
 8289SOL    HW136500   0.087   0.890   2.294  1.7018 -0.9420  0.7060
 8289SOL    HW236501   0.177   0.877   2.412  0.6312  1.1820  0.2006
 8290SOL     OW36502   3.726   2.115   4.374  0.0491 -0.0801  0.3193
 8290SOL    HW136503   3.770   2.137   4.292  0.4003 -0.5009  0.3908
 8290SOL    HW236504   3.716   2.020   4.366 -1.7737  0.2610 -1.5158
 8291SOL     OW36505   1.425   0.251  13.276  0.5459  0.1768 -0.0124
 8291SOL    HW136506   1.517   0.251  13.300  0.4551  0.8673  0.3377
 8291SOL    HW236507   1.423   0.273  13.182  0.1461  0.0329 -0.0370
 8292SOL     OW36508   3.296   0.205   5.692 -0.1105 -0.2328  0.0286
 8292SOL    HW136509   3.312   0.113   5.673  0.3453  0.0113 -0.7853
 8292SOL    HW236510   3.259   0.202   5.780 -0.4512 -1.8799 -0.1861
 8293SOL     OW36511   0.925   0.827   8.150 -0.1820  0.1045  0.4739
 8293SOL    HW136512   0.886   0.849   8.065  0.0338 -0.7280  0.1536
 8293SOL    HW236513   0.951   0.738   8.128  0.7815  0.1343  1.4832
 8294SOL     OW36514   2.500   2.465  12.013 -0.8421 -0.0639 -0.1359
 8294SOL    HW136515   2.408   2.462  11.987 -1.4602  0.1905  2.0222
 8294SOL    HW236516   2.502   2.372  12.037 -0.3667 -0.3145 -1.1572
 8295SOL     OW36517   3.407   1.214   3.029  0.2674  0.2677  0.7228
 8295SOL    HW136518   3.324   1.210   3.077 -1.1323 -0.5661 -1.7866
 8295SOL    HW236519   3.403   1.135   2.975 -2.0296  1.3751 -0.6848
 8296SOL     OW36520   0.825   4.208   2.040  0.3497  0.4084  0.1007
 8296SOL    HW136521   0.901   4.189   2.096  0.4784  0.9256  0.1053
 8296SOL    HW236522   0.863   4.249   1.962 -0.1554 -0.2100 -0.4758
 8297SOL     OW36523   1.791   0.355   4.557  0.3064  0.0949  0.2469
 8297SOL    HW136524   1.830   0.428   4.606 -1.5328  1.3314 -0.1155
 8297SOL    HW236525   1.701   0.352   4.590  0.3380  0.7181  0.3904
 8298SOL     OW36526   0.383   1.436   2.059  0.2640  0.4497  0.1954
 8298SOL    HW136527   0.390   1.341   2.049 -0.6074  0.6146 -1.8896
 8298SOL    HW236528   0.369   1.436   2.154 -1.8279  0.0677 -0.1101
 8299SOL     OW36529   2.120   3.336   8.543 -0.8065  0.2172 -0.7352
 8299SOL    HW136530   2.031   3.304   8.536 -0.1926 -1.8846  1.1232
 8299SOL    HW236531   2.105   3.429   8.525  0.0967  0.4348 -0.3874
 8300SOL     OW36532   4.201   1.071   5.190  0.4247 -0.5674 -0.3704
 8300SOL    HW136533   4.181   1.162   5.210  1.2596 -0.2049 -1.2047
 8300SOL    HW236534   4.155   1.026   5.261  1.0365 -0.2676  0.2110
 8301SOL     OW36535   0.420   0.456   2.881 -0.2444  0.5163 -0.0915
 8301SOL    HW136536   0.435   0.366   2.909 -1.1982  0.4706  0.2772
 8301SOL    HW236537   0.497   0.467   2.825 -0.3339 -0.3568 -0.3939
 8302SOL     OW36538   2.895   0.637   5.411  0.1484 -0.0920 -0.1315
 8302SOL    HW136539   2.839   0.661   5.485 -0.6982  0.7529 -1.0458
 8302SOL    HW236540   2.844   0.623   5.331  0.7206  3.2448 -1.0820
 8303SOL     OW36541   3.966   1.932   1.953  0.3218 -0.0653  0.2580
 8303SOL    HW136542   3.948   1.913   1.861  0.8043 -1.7109  0.5005
 8303SOL    HW236543   3.881   1.938   1.996 -0.4780  2.4805 -1.6827
 8304SOL     OW36544   1.406   4.388   8.469 -0.1830  0.4403 -0.2215
 8304SOL    HW136545   1.467   4.432   8.409 -0.0758  0.6597  0.0453
 8304SOL    HW236546   1.371   4.459   8.522  1.0287  0.8754  0.0022
 8305SOL     OW36547   3.246   2.726   9.556  0.7983  0.0759  0.4503
 8305SOL    HW136548   3.317   2.682   9.510  0.4850  0.5586 -0.5041
 8305SOL    HW236549   3.177   2.706   9.493  0.4927 -0.4704  0.9544
 8306SOL     OW36550   2.297   3.598   4.955  0.2437  0.2258  0.1328
 8306SOL    HW136551   2.236   3.671   4.943  0.2964 -0.0547 -1.9072
 8306SOL    HW236552   2.370   3.623   5.011 -0.2052 -0.3010  0.9548
 8307SOL     OW36553   2.217   1.687  11.949 -0.0826  0.3638  0.4410
 8307SOL    HW136554   2.166   1.619  11.903 -0.4627  0.8838  0.0903
 8307SOL    HW236555   2.233   1.750  11.879 -1.1794 -1.1204 -1.1639
 8308SOL     OW36556   3.840   3.566   5.723  0.8660  0.1260  0.3082
 8308SOL    HW136557   3.898   3.532   5.655  0.9823 -0.5592  0.7487
 8308SOL    HW236558   3.896   3.637   5.754  0.3503  0.9936 -0.7419
 8309SOL     OW36559   3.590   0.707   3.596  0.1395 -0.0893  0.2722
 8309SOL    HW136560   3.575   0.638   3.661 -2.2486 -1.1473 -1.4054
 8309SOL    HW236561   3.685   0.722   3.599  0.1680  0.2782 -2.2015
 8310SOL     OW36562   3.951   3.948   2.579  0.5688  0.5096 -0.3146
 8310SOL    HW136563   3.964   3.983   2.490 -3.2359 -1.3723 -1.6072
 8310SOL    HW236564   3.907   4.022   2.620  0.7517  0.3673  0.1318
 8311SOL     OW36565   4.020   4.678   2.553  0.0624  0.2537  0.7848
 8311SOL    HW136566   4.068   4.706   2.631  0.9262  0.7217  0.0750
 8311SOL    HW236567   4.014   4.583   2.562  0.4308  0.0717 -0.8403
 8312SOL     OW36568   1.107   2.022   3.723 -0.1416 -0.0646  0.1323
 8312SOL    HW136569   1.045   2.066   3.665  0.5199  2.1221  1.0692
 8312SOL    HW236570   1.045   1.975   3.777 -1.8617  0.1027 -1.7115
 8313SOL     OW36571   2.630   0.094   6.051  0.0594 -0.0058  0.1729
 8313SOL    HW136572   2.690   0.092   5.976 -1.0185  1.3224 -0.7325
 8313SOL    HW236573   2.683   0.098   6.130  2.7227 -2.6230 -1.5012
 8314SOL     OW36574   2.349   3.322   9.699 -0.1432 -0.5635 -0.2344
 8314SOL    HW136575   2.335   3.235   9.737  1.6482 -1.4776 -1.6966
 8314SOL    HW236576   2.261   3.350   9.674 -0.3387 -0.7218  0.2711
 8315SOL     OW36577   3.382   1.724   4.602  0.5410  0.1457 -0.8380
 8315SOL    HW136578   3.311   1.752   4.660  1.2519  1.7823 -0.7604
 8315SOL    HW236579   3.457   1.750   4.655  0.8566 -0.7028 -0.8688
 8316SOL     OW36580   1.501   1.044   9.204  0.3499  0.1983  0.7048
 8316SOL    HW136581   1.555   1.122   9.193  2.2879 -1.0055  1.7264
 8316SOL    HW236582   1.481   1.068   9.294 -2.4900  1.6415 -0.2789
 8317SOL     OW36583   4.460   0.121  16.169 -0.0112  0.6862  0.1286
 8317SOL    HW136584   4.434   0.043  16.120 -1.0502  0.8173  0.4580
 8317SOL    HW236585   4.392   0.136  16.235  1.0054  0.1822  1.2892
 8318SOL     OW36586   0.392   2.164   3.345 -0.6533  0.2022  0.1259
 8318SOL    HW136587   0.439   2.083   3.367 -1.4195 -0.5108 -0.8293
 8318SOL    HW236588   0.447   2.196   3.274 -0.3859  0.2754  0.3649
 8319SOL     OW36589   4.348   2.114   7.468 -0.0063 -0.1592  0.0722
 8319SOL    HW136590   4.322   2.174   7.398  0.6222  2.2722  1.9047
 8319SOL    HW236591   4.264   2.069   7.469  0.0353 -0.2554 -0.7740
 8320SOL     OW36592   3.614   1.951  10.088  0.1175  0.6870 -0.4392
 8320SOL    HW136593   3.597   1.902  10.169  2.0246 -0.2223 -0.5947
 8320SOL    HW236594   3.559   2.029  10.097  2.3643  2.2859 -0.9263
 8321SOL     OW36595   0.888   2.096   2.628  0.3428  0.0041  0.4011
 8321SOL    HW136596   0.881   2.192   2.626 -0.0841 -0.0835 -2.6425
 8321SOL    HW236597   0.802   2.069   2.661 -0.3995  2.6714  0.6447
 8322SOL     OW36598   3.838   4.071   8.726  0.1165  0.0662 -0.2664
 8322SOL    HW136599   3.917   4.069   8.781 -1.1500 -3.5510  1.4194
 8322SOL    HW236600   3.830   4.166   8.713 -0.8275  0.4079  2.6415
 8323SOL     OW36601   1.192   0.326   4.187 -0.0999 -0.1809 -0.0492
 8323SOL    HW136602   1.285   0.350   4.187 -0.0796 -0.2345  1.1745
 8323SOL    HW236603   1.171   0.367   4.271 -0.0393  0.6826 -0.4501
 8324SOL     OW36604   4.293   1.529   2.156 -0.2506  0.5554 -0.8273
 8324SOL    HW136605   4.217   1.586   2.155 -0.7204 -0.0966 -2.7933
 8324SOL    HW236606   4.272   1.457   2.216  0.6592  0.6863 -0.3403
 8325SOL     OW36607   3.395   3.463   2.413  0.2038  0.4716 -0.2004
 8325SOL    HW136608   3.397   3.536   2.351 -0.5273  0.9506  0.3427
 8325SOL    HW236609   3.490   3.465   2.422  0.2971  1.1187 -1.3323
 8326SOL     OW36610   1.021   1.028  12.088 -0.3351  0.9612  0.4680
 8326SOL    HW136611   1.004   0.940  12.055 -0.3948  1.1285  0.0592
 8326SOL    HW236612   1.093   1.006  12.147  0.0082 -0.0003 -0.3155
 8327SOL     OW36613   2.920   3.818   7.192  0.0332 -0.2335 -0.0531
 8327SOL    HW136614   2.995   3.758   7.190  0.8273  0.7817 -0.5714
 8327SOL    HW236615   2.959   3.905   7.184  1.7998 -0.9934  0.2816
 8328SOL     OW36616   0.808   0.749   3.853  0.6805  0.5080 -0.3265
 8328SOL    HW136617   0.727   0.755   3.904  0.1414  0.0255 -1.1241
 8328SOL    HW236618   0.859   0.811   3.905  1.3753 -0.9024  0.6800
 8329SOL     OW36619   2.259   2.059  10.461 -0.6199  0.1533  0.0869
 8329SOL    HW136620   2.334   2.061  10.521  0.6957  0.6833 -1.5745
 8329SOL    HW236621   2.285   1.992  10.398  1.6705  1.3564 -0.2571
 8330SOL     OW36622   1.223   1.492   6.724 -0.5554  0.0527  0.1135
 8330SOL    HW136623   1.302   1.537   6.694  0.7683 -1.3476  1.5262
 8330SOL    HW236624   1.153   1.555   6.708 -0.6414 -0.5067 -1.8168
 8331SOL     OW36625   4.490   3.034  14.067  0.0077 -1.1248 -0.2555
 8331SOL    HW136626   4.397   3.016  14.052  0.2490 -2.1480 -0.5452
 8331SOL    HW236627   4.521   3.042  13.976  1.9106 -1.5821  0.3445
 8332SOL     OW36628   2.231   3.122  16.343 -0.2165 -0.2714 -0.1946
 8332SOL    HW136629   2.301   3.183  16.322 -0.7363  1.2423  2.3791
 8332SOL    HW236630   2.156   3.176  16.320 -0.7535 -0.5451  0.9184
 8333SOL     OW36631   2.410   1.142   1.663  0.2794 -0.3904 -0.9585
 8333SOL    HW136632   2.451   1.228   1.661  0.2815 -0.3733 -0.2397
 8333SOL    HW236633   2.387   1.114   1.752 -0.4588  1.2679 -0.6312
 8334SOL     OW36634   1.694   1.631   3.553  0.4273  0.6887 -0.1221
 8334SOL    HW136635   1.678   1.724   3.534  2.0829  1.2368  1.1233
 8334SOL    HW236636   1.653   1.620   3.639 -1.7852 -2.2226 -1.5592
 8335SOL     OW36637   2.994   3.910   7.721  0.2794 -0.3220  0.1252
 8335SOL    HW136638   2.910   3.907   7.767  0.0837 -0.4188 -0.2350
 8335SOL    HW236639   2.974   3.839   7.660  0.7299  0.3823 -0.8334
 8336SOL     OW36640   1.427   4.137  17.535  0.6237 -0.6262 -0.6922
 8336SOL    HW136641   1.416   4.046  17.563 -1.1217  0.0605  0.9031
 8336SOL    HW236642   1.474   4.133  17.452 -0.6763  1.0036 -1.5118
 8337SOL     OW36643   2.114   3.649   2.305 -0.5078  0.0841 -0.2662
 8337SOL    HW136644   2.158   3.715   2.359 -0.3465 -0.5464  0.3794
 8337SOL    HW236645   2.029   3.661   2.347 -0.9542  0.2720 -1.2347
 8338SOL     OW36646   4.709   1.880   7.062  0.4840  0.1330 -0.3624
 8338SOL    HW136647   4.648   1.885   7.135 -0.0191  0.0746 -0.7840
 8338SOL    HW236648   0.045   1.930   7.093  0.8111 -0.9141  0.5294
 8339SOL     OW36649   0.710   4.282   5.019  0.0464  0.3953 -0.8095
 8339SOL    HW136650   0.790   4.249   5.059  0.5240  4.1295  1.3180
 8339SOL    HW236651   0.665   4.323   5.093  0.9306  0.3263 -0.2324
 8340SOL     OW36652   2.704   1.860   5.437  0.1835  0.0107 -0.5523
 8340SOL    HW136653   2.685   1.796   5.506  0.7114  0.3738 -0.0731
 8340SOL    HW236654   2.776   1.920   5.458  2.2905 -2.8599  0.5586
 8341SOL     OW36655   1.553   2.689   3.048  0.5462 -0.0084 -0.2248
 8341SOL    HW136656   1.473   2.736   3.023  0.8991  1.7169  1.9162
 8341SOL    HW236657   1.619   2.737   2.999 -1.0891  2.0628 -0.3935
 8342SOL     OW36658   0.040   4.650   5.907 -0.5032 -0.2455  0.4402
 8342SOL    HW136659   0.006   4.736   5.930  2.1994  1.3891 -1.6633
 8342SOL    HW236660   0.131   4.681   5.912  0.2198 -1.8193 -2.2830
 8343SOL     OW36661   4.651   3.860   3.622  0.1871  0.2929 -0.6450
 8343SOL    HW136662   4.594   3.916   3.570 -0.6367 -0.9465 -1.0506
 8343SOL    HW236663   4.729   3.871   3.567  1.3216 -0.5562  0.7917
 8344SOL     OW36664   3.807   1.154   5.982 -0.4049  0.2403 -0.0768
 8344SOL    HW136665   3.791   1.153   6.077 -1.5736  1.4808 -0.2673
 8344SOL    HW236666   3.870   1.081   5.978  0.1417  0.7284 -0.4119
 8345SOL     OW36667   1.893   4.492   6.660 -0.0176 -1.1805 -0.0194
 8345SOL    HW136668   1.829   4.481   6.730  0.3079  1.3681  0.6718
 8345SOL    HW236669   1.868   4.581   6.634  0.6697 -1.7817 -2.7957
 8346SOL     OW36670   4.101   1.986   0.195  0.2277  0.1132 -0.1485
 8346SOL    HW136671   4.115   1.904   0.147 -0.6319 -0.6114  0.8549
 8346SOL    HW236672   4.095   1.944   0.280  0.7335 -1.1141 -0.7172
 8347SOL     OW36673   0.597   3.182   2.770 -0.1883  0.1150  0.2648
 8347SOL    HW136674   0.542   3.106   2.789 -1.0116  0.6073 -0.2131
 8347SOL    HW236675   0.555   3.209   2.689  1.3425  0.5824 -0.3867
 8348SOL     OW36676   4.409   0.253   9.282  0.3944  0.0777  0.2372
 8348SOL    HW136677   4.502   0.265   9.298  0.3890 -2.7655  2.4558
 8348SOL    HW236678   4.413   0.213   9.195 -3.0499  0.7089 -0.2057
 8349SOL     OW36679   2.663   1.731   2.394  0.5043 -0.4937 -0.5286
 8349SOL    HW136680   2.694   1.795   2.330  3.3640 -0.4471  0.9299
 8349SOL    HW236681   2.679   1.782   2.473  1.2572 -0.3297 -0.7886
 8350SOL     OW36682   0.369   1.750   6.897 -0.1049  0.4784 -0.5612
 8350SOL    HW136683   0.365   1.790   6.984 -0.3202 -2.0099  0.5773
 8350SOL    HW236684   0.453   1.707   6.910 -0.8471 -0.7824  0.0277
 8351SOL     OW36685   3.023   0.222  17.627  0.3204  0.1201  0.5723
 8351SOL    HW136686   3.089   0.271  17.577 -0.3021 -0.0494 -0.4188
 8351SOL    HW236687   2.944   0.223  17.573 -0.4032 -0.5248  1.6249
 8352SOL     OW36688   1.050   3.220  10.157 -0.0322 -0.1194  0.0410
 8352SOL    HW136689   0.984   3.234  10.088 -2.3875 -0.7991  2.1798
 8352SOL    HW236690   1.004   3.162  10.217  0.2108 -0.3880 -0.0340
 8353SOL     OW36691   0.991   3.282   0.482 -0.4192  0.3254 -0.2940
 8353SOL    HW136692   0.967   3.210   0.424 -2.6394  1.0168 -0.2238
 8353SOL    HW236693   0.908   3.323   0.504 -1.6616 -1.4424 -1.6893
 8354SOL     OW36694   3.139   2.240   3.455 -0.3703  0.2247  0.7687
 8354SOL    HW136695   3.098   2.162   3.416 -1.3907  0.7445  0.8028
 8354SOL    HW236696   3.061   2.291   3.475 -0.9056 -0.9231  1.6066
 8355SOL     OW36697   1.351   0.232  15.146  0.1983  0.2300  0.0453
 8355SOL    HW136698   1.374   0.141  15.159 -1.5496 -0.2141  0.0302
 8355SOL    HW236699   1.429   0.262  15.099 -0.6475  0.4110 -1.2299
 8356SOL     OW36700   2.389   3.481   6.693  0.2422  0.2263  0.3031
 8356SOL    HW136701   2.330   3.552   6.666 -1.3274 -0.6589  1.3840
 8356SOL    HW236702   2.335   3.444   6.764 -0.6756 -0.3153 -0.6735
 8357SOL     OW36703   3.671   3.892   5.163  0.2031  0.0412 -0.1024
 8357SOL    HW136704   3.695   3.803   5.138  1.8352  0.6667 -0.7865
 8357SOL    HW236705   3.611   3.927   5.097  0.4304  1.4392  0.4328
 8358SOL     OW36706   3.464   4.204   9.883 -0.5114  0.4036  0.2469
 8358SOL    HW136707   3.457   4.170   9.794 -1.3376  0.6319  0.2193
 8358SOL    HW236708   3.382   4.163   9.911 -0.1260 -1.0677 -0.8026
 8359SOL     OW36709   1.690   0.718   1.457 -0.1432  0.0145  0.1772
 8359SOL    HW136710   1.609   0.718   1.507  0.7219  2.0921  1.5693
 8359SOL    HW236711   1.722   0.806   1.476  0.7340 -0.1188 -0.6448
 8360SOL     OW36712   2.906   0.635   4.385  0.1189  0.1933 -0.0013
 8360SOL    HW136713   2.962   0.632   4.462 -0.2642 -1.0683  0.2163
 8360SOL    HW236714   2.974   0.616   4.320  0.0871  0.4981 -0.1238
 8361SOL     OW36715   3.321   0.033   0.561  0.8211  0.1842 -0.8026
 8361SOL    HW136716   3.289   0.093   0.494 -0.7693  1.0119  0.7041
 8361SOL    HW236717   3.279   0.069   0.639  1.5181 -1.4682  0.3527
 8362SOL     OW36718   4.718   2.545   7.631  0.2544 -0.5041 -0.3898
 8362SOL    HW136719   4.692   2.503   7.550  1.6529  0.7165 -1.4717
 8362SOL    HW236720   0.069   2.518   7.643  1.3203  3.2795  0.1172
 8363SOL     OW36721   1.478   2.424   5.616  0.2229  0.8147  0.1046
 8363SOL    HW136722   1.500   2.347   5.564 -1.2467  1.0912 -0.9321
 8363SOL    HW236723   1.472   2.383   5.702 -1.2666 -1.8010 -1.2746
 8364SOL     OW36724   1.818   1.819  13.122  0.7732  0.0923 -0.1706
 8364SOL    HW136725   1.798   1.866  13.203  2.2159 -1.1357  0.9125
 8364SOL    HW236726   1.727   1.813  13.094  0.5600  1.0194  0.3259
 8365SOL     OW36727   1.274   1.580  10.127  0.2337  0.4433  0.1719
 8365SOL    HW136728   1.355   1.615  10.090  1.2667 -0.6279  1.4247
 8365SOL    HW236729   1.229   1.568  10.043 -1.9305 -0.9293  1.5062
 8366SOL     OW36730   4.493   4.679  15.953  0.3513 -0.4314  0.1841
 8366SOL    HW136731   4.446   4.596  15.949 -3.2147  1.6019  0.0016
 8366SOL    HW236732   4.581   4.643  15.963  1.0843  1.0994 -0.7363
 8367SOL     OW36733   0.185   0.764   4.558  0.5515  0.2636  0.1575
 8367SOL    HW136734   0.247   0.825   4.519  0.4865  1.2927  1.6533
 8367SOL    HW236735   0.119   0.818   4.601 -0.4829 -0.6991 -0.2150
 8368SOL     OW36736   2.318   3.323   7.515  0.1838  0.7282 -0.3632
 8368SOL    HW136737   2.334   3.330   7.609  1.0327 -0.0798 -0.4474
 8368SOL    HW236738   2.329   3.230   7.495  0.8689  1.4107 -3.1053
 8369SOL     OW36739   2.056   0.730  14.642  0.1147 -0.4413 -0.4587
 8369SOL    HW136740   2.119   0.667  14.677  0.6017  0.9910  1.2760
 8369SOL    HW236741   1.979   0.675  14.631  0.7684 -1.3305 -0.6231
 8370SOL     OW36742   1.784   1.842   2.536  0.2305  0.1811 -0.3614
 8370SOL    HW136743   1.771   1.749   2.553  1.2473  0.4140  1.5913
 8370SOL    HW236744   1.847   1.868   2.603  2.3576  0.6578 -2.5373
 8371SOL     OW36745   0.657   4.382  15.693  0.2904 -0.8623 -0.2670
 8371SOL    HW136746   0.672   4.318  15.762 -0.1779 -1.4896 -0.7480
 8371SOL    HW236747   0.652   4.338  15.608 -2.2329 -1.5406  0.2283
 8372SOL     OW36748   0.520   3.994   5.019 -0.2397  0.1375  0.1865
 8372SOL    HW136749   0.515   4.015   5.112 -0.6540  0.8786 -0.0040
 8372SOL    HW236750   0.607   3.957   5.008  0.7905  2.5823 -0.0814
 8373SOL     OW36751   4.118   3.118   7.979 -0.2965 -0.0535  0.4415
 8373SOL    HW136752   4.198   3.070   8.001  0.0913  0.4604  0.1264
 8373SOL    HW236753   4.081   3.118   8.067 -0.5979  0.3763  0.3155
 8374SOL     OW36754   0.241   2.129   0.866 -0.2884 -0.3700 -0.4029
 8374SOL    HW136755   0.297   2.189   0.915  1.8850 -1.4220 -1.5746
 8374SOL    HW236756   0.277   2.138   0.778 -1.7242 -0.7504 -1.0118
 8375SOL     OW36757   0.613   4.109   2.216 -0.2584 -0.0057  0.0173
 8375SOL    HW136758   0.685   4.149   2.168  0.8492 -1.4556  0.4864
 8375SOL    HW236759   0.547   4.166   2.175  0.0975  0.8014  0.5717
 8376SOL     OW36760   0.529   4.028  15.305  0.8895  0.5956 -0.4546
 8376SOL    HW136761   0.532   4.045  15.211  0.7626 -5.0956 -1.4871
 8376SOL    HW236762   0.456   3.967  15.316  0.7475  1.0081  0.9379
 8377SOL     OW36763   4.237   1.092  10.880 -0.5005 -0.1996  0.1851
 8377SOL    HW136764   4.241   1.134  10.966 -0.8712 -2.7553  1.4472
 8377SOL    HW236765   4.304   1.149  10.843 -0.1448  0.2544  1.5344
 8378SOL     OW36766   4.102   0.666  15.596  0.2719 -0.0608 -0.8633
 8378SOL    HW136767   4.017   0.638  15.630  0.4036  1.9478  1.1434
 8378SOL    HW236768   4.070   0.728  15.531 -1.2553 -0.2855 -0.3151
 8379SOL     OW36769   4.107   3.579  12.457  0.1324 -0.3992  0.1285
 8379SOL    HW136770   4.182   3.553  12.510  0.7358 -1.7757 -1.4039
 8379SOL    HW236771   4.143   3.602  12.371 -2.8941  0.0962 -1.0168
 8380SOL     OW36772   1.295   1.682   7.199  0.7170  0.6158 -0.1448
 8380SOL    HW136773   1.283   1.752   7.263  1.4469  1.2265 -0.6720
 8380SOL    HW236774   1.262   1.728   7.121  0.4411  1.5986  0.5407
 8381SOL     OW36775   0.523   0.748   7.995  0.1047 -0.5935 -0.4518
 8381SOL    HW136776   0.558   0.741   8.084  2.2084  0.9161 -1.1584
 8381SOL    HW236777   0.580   0.814   7.955 -0.0835  0.4304  0.9563
 8382SOL     OW36778   0.465   1.742   6.133 -0.0326 -0.1651  0.6729
 8382SOL    HW136779   0.384   1.737   6.083 -0.2279  1.4116  0.8438
 8382SOL    HW236780   0.443   1.740   6.226 -0.5901  1.5785  0.5867
 8383SOL     OW36781   1.754   0.339   5.539 -0.0989 -0.0230  0.5127
 8383SOL    HW136782   1.829   0.391   5.567 -0.2327 -1.0920  2.8635
 8383SOL    HW236783   1.743   0.367   5.448  2.0031 -2.1632 -0.3923
 8384SOL     OW36784   2.638   4.403   4.261 -0.1735  0.5086 -0.0675
 8384SOL    HW136785   2.635   4.411   4.356 -1.4542 -0.8634  0.0152
 8384SOL    HW236786   2.689   4.322   4.254  0.8661  1.1255  0.4708
 8385SOL     OW36787   3.698   2.228  12.897 -0.2039 -0.6862  0.0856
 8385SOL    HW136788   3.734   2.303  12.850 -1.2783 -0.0003  0.3566
 8385SOL    HW236789   3.758   2.157  12.875  0.6302 -1.0973  3.6771
 8386SOL     OW36790   0.850   2.466  16.630  0.1958 -0.1849 -0.7660
 8386SOL    HW136791   0.871   2.409  16.704  0.1717  1.1303  0.2413
 8386SOL    HW236792   0.754   2.464  16.626  0.2332  1.3350 -2.4542
 8387SOL     OW36793   1.827   1.145   9.890 -0.0063  0.2572 -0.0344
 8387SOL    HW136794   1.877   1.125   9.811 -2.0112  0.5841 -1.4137
 8387SOL    HW236795   1.737   1.140   9.858 -0.6111  0.8137  1.5777
 8388SOL     OW36796   2.638   4.550   9.093  0.0782  0.3366 -1.1765
 8388SOL    HW136797   2.550   4.587   9.086 -0.1817 -0.2555 -1.0429
 8388SOL    HW236798   2.678   4.611   9.155 -0.2557  0.5970 -1.2231
 8389SOL     OW36799   1.567   2.344   1.261 -0.1817 -0.0797  0.3952
 8389SOL    HW136800   1.514   2.264   1.262 -1.5466  0.8123 -0.9384
 8389SOL    HW236801   1.492   2.403   1.250  1.1731  1.3663 -1.0892
 8390SOL     OW36802   4.011   4.336   2.645 -0.0885 -0.3629 -0.0379
 8390SOL    HW136803   4.105   4.326   2.657 -0.3592 -0.8331  1.7250
 8390SOL    HW236804   4.001   4.407   2.709  1.2824  0.4836 -0.7575
 8391SOL     OW36805   3.100   2.575   8.866 -0.0554  0.0743 -0.9145
 8391SOL    HW136806   3.148   2.494   8.847 -0.5855 -0.0068 -1.8845
 8391SOL    HW236807   3.014   2.539   8.849 -0.0306 -0.3057 -0.2488
 8392SOL     OW36808   1.389   4.473  12.067 -0.1600 -0.7363  0.1041
 8392SOL    HW136809   1.452   4.533  12.026 -1.8400  1.1087  0.2157
 8392SOL    HW236810   1.319   4.473  12.001  0.1951 -1.7908 -0.2659
 8393SOL     OW36811   4.290   3.819   2.340  0.1783 -0.4662 -0.2295
 8393SOL    HW136812   4.219   3.783   2.393 -0.2320  1.5134  0.5445
 8393SOL    HW236813   4.311   3.741   2.288  1.7077  1.3252 -2.2948
 8394SOL     OW36814   4.161   0.900   1.885 -0.0183 -0.1564  0.5546
 8394SOL    HW136815   4.088   0.938   1.835  1.0077 -0.4057 -1.1014
 8394SOL    HW236816   4.206   0.859   1.812 -2.0830 -0.5349 -0.5232
 8395SOL     OW36817   3.876   4.170   7.816 -0.4726  0.2329 -0.2527
 8395SOL    HW136818   3.837   4.084   7.827 -1.8398  0.8149 -0.4649
 8395SOL    HW236819   3.883   4.173   7.721 -0.0402  0.3927 -0.2182
 8396SOL     OW36820   0.326   4.497   8.885 -0.2130 -0.3262  0.5803
 8396SOL    HW136821   0.362   4.421   8.840 -0.9464 -0.4062  0.1296
 8396SOL    HW236822   0.232   4.487   8.869  0.1122 -0.8893 -0.9448
 8397SOL     OW36823   2.539   3.765   4.274  0.5482 -0.2182 -0.4765
 8397SOL    HW136824   2.593   3.766   4.352  0.1291  2.5166 -0.2230
 8397SOL    HW236825   2.501   3.852   4.288 -2.9941 -1.8461  0.1429
 8398SOL     OW36826   0.715   3.255   4.964 -0.1179 -0.0530 -0.7700
 8398SOL    HW136827   0.736   3.210   4.883  0.1691 -0.4271 -0.4826
 8398SOL    HW236828   0.705   3.346   4.935 -1.1026 -0.2624 -1.0876
 8399SOL     OW36829   3.866   4.260  12.481 -0.2348  0.4092  0.1068
 8399SOL    HW136830   3.859   4.328  12.549 -0.3002  0.9752 -0.4642
 8399SOL    HW236831   3.777   4.246  12.449 -0.6215  1.5912  0.6591
 8400SOL     OW36832   2.547   0.825   6.257  0.3985 -0.0692  0.3345
 8400SOL    HW136833   2.452   0.819   6.270  0.3244 -0.3098 -0.3267
 8400SOL    HW236834   2.578   0.799   6.344  0.1106 -0.8617  0.2047
 8401SOL     OW36835   1.762   1.222  10.763 -0.1591 -0.3342  0.0280
 8401SOL    HW136836   1.801   1.278  10.695  0.9600 -2.5043 -1.1219
 8401SOL    HW236837   1.836   1.207  10.821 -1.6916 -0.6776  1.8768
 8402SOL     OW36838   2.285   3.818   4.688 -0.4126  0.0340  0.2792
 8402SOL    HW136839   2.234   3.818   4.769 -0.1099  1.5014  0.4604
 8402SOL    HW236840   2.358   3.876   4.706  0.7488 -0.6452 -2.2038
 8403SOL     OW36841   1.555   3.682   8.820  0.1153  0.3333  0.1176
 8403SOL    HW136842   1.637   3.638   8.801 -0.0327  0.2927 -0.4222
 8403SOL    HW236843   1.550   3.671   8.915  0.9114 -0.4010  0.0787
 8404SOL     OW36844   0.824   4.143   5.406  0.1915  0.0608  0.1755
 8404SOL    HW136845   0.783   4.062   5.377  1.1900 -0.0637 -0.8695
 8404SOL    HW236846   0.877   4.154   5.327  0.2043  0.8123  0.2889
 8405SOL     OW36847   2.401   4.408   2.516  0.3634 -0.0527  0.3260
 8405SOL    HW136848   2.444   4.327   2.545 -3.0195 -1.1013  2.4270
 8405SOL    HW236849   2.449   4.419   2.434  1.1229  1.7690  1.0010
 8406SOL     OW36850   3.665   1.990   5.332  0.0042  0.1168 -0.8305
 8406SOL    HW136851   3.734   1.964   5.272  0.2256  0.0025 -0.5248
 8406SOL    HW236852   3.700   1.970   5.419 -2.2444  1.8921  0.4920
 8407SOL     OW36853   1.730   3.701   8.390  0.2177  0.1835 -0.1007
 8407SOL    HW136854   1.801   3.746   8.343  0.8568 -1.9675 -1.2078
 8407SOL    HW236855   1.658   3.753   8.354 -1.0504 -2.1709 -0.9688
 8408SOL     OW36856   4.274   0.485  14.120  0.2628 -0.0235 -0.0741
 8408SOL    HW136857   4.226   0.514  14.042  2.4688  1.4614 -0.8888
 8408SOL    HW236858   4.339   0.552  14.142 -0.4913  0.7831 -0.2700
 8409SOL     OW36859   2.316   4.414   7.326 -0.9929 -0.0183 -0.0673
 8409SOL    HW136860   2.263   4.493   7.317  1.2336  1.4703 -0.0307
 8409SOL    HW236861   2.379   4.427   7.396 -1.8867  1.5728  0.4430
 8410SOL     OW36862   1.253   0.159   4.491  0.2315  0.3189  0.1506
 8410SOL    HW136863   1.244   0.219   4.565  1.1735  0.0074  0.5166
 8410SOL    HW236864   1.162   0.171   4.461 -0.5213  1.6383  2.8814
 8411SOL     OW36865   4.303   2.748  13.717  0.2193  0.8574  0.1372
 8411SOL    HW136866   4.391   2.756  13.752  0.9092 -3.0833 -0.6954
 8411SOL    HW236867   4.267   2.691  13.786 -2.8251  0.2039 -1.9723
 8412SOL     OW36868   1.184   2.011   4.174  0.8985  0.1500  0.2491
 8412SOL    HW136869   1.130   2.004   4.253  0.1914  0.4841 -0.2075
 8412SOL    HW236870   1.212   2.102   4.182 -1.5528  0.8781  0.3518
 8413SOL     OW36871   3.973   1.239   5.493  0.0992 -0.0101  0.2409
 8413SOL    HW136872   3.929   1.256   5.576 -0.6440 -0.9569  0.0456
 8413SOL    HW236873   3.912   1.175   5.457 -0.6407  1.5680 -1.2652
 8414SOL     OW36874   3.246   3.795   3.179 -0.3157 -0.1305 -0.0328
 8414SOL    HW136875   3.206   3.854   3.242  3.0199 -0.5571  2.4662
 8414SOL    HW236876   3.330   3.782   3.223 -0.6857 -0.9848  0.4146
 8415SOL     OW36877   1.021   0.621   9.644  0.9659 -0.1249  0.0509
 8415SOL    HW136878   1.049   0.530   9.652  0.3095 -0.2119  1.3715
 8415SOL    HW236879   1.105   0.657   9.615  0.8690  0.6359  0.7299
 8416SOL     OW36880   4.600   2.814   7.663 -0.0776 -0.2078  0.4329
 8416SOL    HW136881   4.505   2.813   7.676 -0.2318 -1.6251 -0.8895
 8416SOL    HW236882   4.632   2.724   7.664  0.0422 -0.2018 -1.5586
 8417SOL     OW36883   3.008   2.688   4.700 -0.2261  0.0571  0.1969
 8417SOL    HW136884   3.059   2.752   4.750  0.5716 -0.4479  0.0147
 8417SOL    HW236885   2.992   2.739   4.620 -1.4050  0.4560  0.6834
 8418SOL     OW36886   4.015   0.778   5.061 -0.2294 -0.0670 -0.1520
 8418SOL    HW136887   3.947   0.725   5.020  0.9144 -1.9824  0.4271
 8418SOL    HW236888   4.014   0.855   5.004  0.7583 -0.3247 -0.5165
 8419SOL     OW36889   1.093   2.689   4.435 -0.4893 -0.5368 -0.3288
 8419SOL    HW136890   1.133   2.762   4.388 -1.4746  0.1744 -0.0699
 8419SOL    HW236891   1.024   2.668   4.372 -0.8514  0.3912 -0.2448
 8420SOL     OW36892   3.268   2.374   6.411  0.6968  0.2573  0.6523
 8420SOL    HW136893   3.215   2.441   6.454  0.7967 -0.2353  1.5442
 8420SOL    HW236894   3.219   2.294   6.432  0.8421 -0.5488 -2.0775
 8421SOL     OW36895   0.343   0.050   2.188  0.6728 -0.2110 -0.7066
 8421SOL    HW136896   0.284   4.716   2.179 -1.0691  1.1143 -0.3212
 8421SOL    HW236897   0.367   0.067   2.097  0.3854 -2.1242 -1.1323
 8422SOL     OW36898   2.664   4.191   9.168  0.4237  0.0584 -0.2582
 8422SOL    HW136899   2.739   4.132   9.169 -0.4892 -1.1037 -0.7025
 8422SOL    HW236900   2.707   4.264   9.213  2.1119 -0.2908 -1.3292
 8423SOL     OW36901   3.228   2.000   3.180  0.4222 -0.0366  0.4222
 8423SOL    HW136902   3.174   1.982   3.257 -0.0575  1.1524  0.3790
 8423SOL    HW236903   3.166   2.050   3.126 -0.4277 -0.3558  1.0925
 8424SOL     OW36904   0.215   3.642   2.317  0.3342 -0.1516  0.1062
 8424SOL    HW136905   0.134   3.657   2.267  1.3073 -1.4335 -1.8557
 8424SOL    HW236906   0.193   3.690   2.397  0.5187  1.5129 -0.8377
 8425SOL     OW36907   2.574   2.454  16.588 -0.2503  0.5287 -0.8125
 8425SOL    HW136908   2.612   2.538  16.564  3.1780 -0.9187 -0.4587
 8425SOL    HW236909   2.514   2.469  16.661 -0.7799  2.0599 -1.5641
 8426SOL     OW36910   2.777   1.190   1.282 -0.1868 -0.3661 -0.4763
 8426SOL    HW136911   2.687   1.200   1.248 -0.2762 -2.9784 -1.0196
 8426SOL    HW236912   2.795   1.283   1.267  0.4968 -1.0623 -4.0537
 8427SOL     OW36913   2.715   2.424   6.626  0.3642  0.7173  0.2776
 8427SOL    HW136914   2.742   2.340   6.662  0.7295  1.5915  2.0284
 8427SOL    HW236915   2.763   2.481   6.686  1.0357 -1.5844  1.8985
 8428SOL     OW36916   3.814   0.287   8.561 -0.5221 -0.1689  0.4486
 8428SOL    HW136917   3.834   0.378   8.536  0.5725 -1.0444 -1.8339
 8428SOL    HW236918   3.885   0.238   8.520 -1.0204  1.0617 -1.8955
 8429SOL     OW36919   3.852   4.643   6.038 -0.2714  0.2049 -0.1773
 8429SOL    HW136920   3.864   4.642   5.944  0.9684  0.3927 -0.0191
 8429SOL    HW236921   3.904   4.565   6.059 -2.6074 -1.9173 -2.1900
 8430SOL     OW36922   4.717   2.151  17.343 -0.1103 -0.4849 -0.1232
 8430SOL    HW136923   4.674   2.067  17.359 -1.2423  0.4883  2.0178
 8430SOL    HW236924   4.647   2.216  17.333  0.1674 -0.3440 -1.1692
 8431SOL     OW36925   3.737   4.053   5.387  0.6753  0.0691 -0.0765
 8431SOL    HW136926   3.728   4.053   5.292 -0.1262  0.5101 -0.0001
 8431SOL    HW236927   3.655   4.097   5.409  1.2602  1.2398 -0.2360
 8432SOL     OW36928   3.747   3.919  12.005  0.5522  0.0678  0.9787
 8432SOL    HW136929   3.755   3.865  12.084 -0.2609  0.0139  1.0184
 8432SOL    HW236930   3.823   3.896  11.951  0.2551  1.3779  0.0073
 8433SOL     OW36931   1.879   2.333   2.134 -0.5802  0.1627  0.4153
 8433SOL    HW136932   1.802   2.379   2.100 -1.9981 -2.0627  0.6212
 8433SOL    HW236933   1.923   2.293   2.059  2.4691 -1.2927  2.9975
 8434SOL     OW36934   0.656   3.534  15.576 -0.2091 -0.0020  0.1024
 8434SOL    HW136935   0.645   3.629  15.581  2.2638  0.2724  0.0868
 8434SOL    HW236936   0.674   3.512  15.668  0.0215 -2.3393 -0.4887
 8435SOL     OW36937   2.383   4.735   7.216  0.0885 -0.1903 -0.5643
 8435SOL    HW136938   2.374   4.722   7.310  0.7981 -2.1007 -0.7484
 8435SOL    HW236939   2.310   4.691   7.173  0.4185 -1.9527  0.6808
 8436SOL     OW36940   1.923   1.469   5.587  0.3850  0.7485  0.0299
 8436SOL    HW136941   1.829   1.485   5.577  0.7217  1.2027 -2.4878
 8436SOL    HW236942   1.951   1.494   5.499  0.6935 -1.6285 -0.5447
 8437SOL     OW36943   3.418   4.386   2.269  0.3456 -0.1229 -0.3647
 8437SOL    HW136944   3.326   4.390   2.242  0.2445  0.9481  0.1455
 8437SOL    HW236945   3.407   4.334   2.348  0.8741 -1.7714 -1.3700
 8438SOL     OW36946   1.203   1.298  12.261  0.0337  1.1338 -0.0649
 8438SOL    HW136947   1.297   1.310  12.273  0.7652 -1.6099 -2.8845
 8438SOL    HW236948   1.204   1.209  12.227 -0.9415  1.5707 -1.2232
 8439SOL     OW36949   1.157   2.011   8.350  0.4940  0.5175 -0.1729
 8439SOL    HW136950   1.067   2.023   8.379  0.6079 -0.5005  0.6362
 8439SOL    HW236951   1.188   1.973   8.433 -0.4019 -2.0246 -0.9950
 8440SOL     OW36952   4.701   4.600   3.897  0.8462  0.5362 -0.1603
 8440SOL    HW136953   0.042   4.649   3.893 -0.2370  2.1744 -2.3110
 8440SOL    HW236954   4.636   4.657   3.938  1.8471  1.9790 -0.5884
 8441SOL     OW36955   3.921   0.267   6.337  0.1738 -0.0112 -0.2834
 8441SOL    HW136956   3.905   0.263   6.243  0.6342 -0.6943 -0.3385
 8441SOL    HW236957   3.837   0.299   6.371  0.9409  0.9354  0.7353
 8442SOL     OW36958   2.787   2.034  10.812  0.2642  0.1425  0.3240
 8442SOL    HW136959   2.796   1.943  10.783 -0.3416 -0.3117  1.5627
 8442SOL    HW236960   2.870   2.076  10.792 -0.5867  0.7256 -1.9882
 8443SOL     OW36961   4.138   3.663  11.793  0.0986 -0.2604 -0.6455
 8443SOL    HW136962   4.163   3.637  11.704  1.4690 -0.3044 -0.2553
 8443SOL    HW236963   4.105   3.578  11.822 -0.5377 -0.0911 -0.8863
 8444SOL     OW36964   0.547   0.498   1.957 -0.5269 -0.3245 -0.1532
 8444SOL    HW136965   0.533   0.564   2.025  0.4563 -0.2025 -0.0642
 8444SOL    HW236966   0.477   0.441   1.987 -1.2834  1.5101  1.5477
 8445SOL     OW36967   3.181   2.383   7.613  0.0518 -0.4638 -0.1183
 8445SOL    HW136968   3.172   2.425   7.527 -0.9871 -2.4260 -0.9641
 8445SOL    HW236969   3.171   2.463   7.666 -0.1591  0.6746 -1.8826
 8446SOL     OW36970   4.580   3.064  10.676  0.2963  0.2454 -0.4566
 8446SOL    HW136971   4.527   3.059  10.756 -1.1173  1.3760 -1.3212
 8446SOL    HW236972   4.542   3.138  10.629 -1.1089 -0.2113 -0.0548
 8447SOL     OW36973   3.353   3.675  17.382 -0.1029  0.2111  0.1918
 8447SOL    HW136974   3.323   3.700  17.469  0.8325 -0.0477  0.5850
 8447SOL    HW236975   3.397   3.753  17.349  3.4306 -1.6018  0.5989
 8448SOL     OW36976   0.703   2.153   3.336 -0.3413 -0.3290 -0.0954
 8448SOL    HW136977   0.629   2.103   3.371  0.9234 -1.3792  1.0985
 8448SOL    HW236978   0.730   2.108   3.256  2.5427  0.7185  0.2892
 8449SOL     OW36979   1.300   0.230   8.789  0.1453 -0.0161  0.1925
 8449SOL    HW136980   1.238   0.300   8.772  1.0529  0.7454  0.0380
 8449SOL    HW236981   1.287   0.178   8.710  1.1534  2.8928 -1.8796
 8450SOL     OW36982   0.384   2.496   9.431 -0.1048 -0.5505  0.2613
 8450SOL    HW136983   0.290   2.480   9.438 -0.1305  1.4249  4.9936
 8450SOL    HW236984   0.430   2.431   9.484  0.8393 -1.1961 -1.3801
 8451SOL     OW36985   4.640   2.375   3.010 -0.1300 -0.0507 -0.0605
 8451SOL    HW136986   4.574   2.424   2.961  1.9806  2.5895 -0.2010
 8451SOL    HW236987   4.696   2.337   2.943 -1.7657  0.3887 -1.6609
 8452SOL     OW36988   0.875   4.455   2.214 -0.2998 -0.1120  0.3609
 8452SOL    HW136989   0.916   4.463   2.300 -1.3899 -1.1248  0.9871
 8452SOL    HW236990   0.947   4.427   2.157  0.2639  0.1793  0.9316
 8453SOL     OW36991   2.132   4.235   3.114  0.5762  0.0361  0.4208
 8453SOL    HW136992   2.168   4.239   3.026 -0.3457 -0.7927  0.0041
 8453SOL    HW236993   2.220   4.240   3.152  0.4476 -0.6197  0.8148
 8454SOL     OW36994   1.508   0.595   1.761 -0.1940  0.0418  0.5231
 8454SOL    HW136995   1.438   0.571   1.821 -0.8248  0.4996 -0.0319
 8454SOL    HW236996   1.467   0.655   1.699  0.2117  0.9262  1.1106
 8455SOL     OW36997   3.962   3.891   2.948  0.0938  0.1472  0.0269
 8455SOL    HW136998   4.021   3.825   2.911  1.5299  1.8993 -0.8245
 8455SOL    HW236999   3.954   3.861   3.038  0.5800 -0.1426 -0.0263
 8456SOL     OW37000   1.924   0.818   4.984  0.2017 -0.0221  0.1833
 8456SOL    HW137001   1.874   0.868   5.049  0.1526  0.4221 -0.1980
 8456SOL    HW237002   1.940   0.738   5.034  1.9312 -0.5417 -1.2223
 8457SOL     OW37003   1.525   0.600   4.343 -0.0071 -0.1449  0.4926
 8457SOL    HW137004   1.510   0.646   4.426  0.8506  0.6687  0.1846
 8457SOL    HW237005   1.527   0.669   4.278  2.0808 -0.9327 -0.2844
 8458SOL     OW37006   4.573   3.340   2.937 -0.2626 -0.4390  0.1363
 8458SOL    HW137007   4.534   3.405   2.995  0.8571  1.2411 -1.0205
 8458SOL    HW237008   4.495   3.327   2.883  0.9797  0.3949 -1.8509
 8459SOL     OW37009   1.600   0.893   3.671 -0.0047 -0.4508 -0.0777
 8459SOL    HW137010   1.578   0.815   3.722 -0.4740 -0.0163  0.3851
 8459SOL    HW237011   1.517   0.931   3.645 -0.0712 -2.1679 -2.3854
 8460SOL     OW37012   1.169   0.471   3.466  0.2832  0.1087  0.0668
 8460SOL    HW137013   1.239   0.500   3.407 -1.2967  0.3941 -1.6520
 8460SOL    HW237014   1.126   0.421   3.398 -0.0273 -0.5778  0.7716
 8461SOL     OW37015   2.610   2.327   3.379 -0.1203 -0.2686 -0.8800
 8461SOL    HW137016   2.557   2.338   3.300 -0.6302  0.4026 -0.4354
 8461SOL    HW237017   2.544   2.335   3.447 -0.3040  0.9356 -1.2134
 8462SOL     OW37018   1.668   2.963   6.702  0.7549 -0.0561  0.0715
 8462SOL    HW137019   1.726   3.033   6.672  0.6369  0.1568  0.3431
 8462SOL    HW237020   1.603   3.005   6.758  2.5544  2.0044  0.6256
 8463SOL     OW37021   4.588   2.457   3.300 -0.0530 -0.3783 -0.4037
 8463SOL    HW137022   4.566   2.379   3.247 -0.3518  0.1801 -1.1035
 8463SOL    HW237023   4.600   2.523   3.232 -2.2235  0.6875  0.2518
 8464SOL     OW37024   0.132   3.503  14.223 -0.0254 -0.6246 -0.2691
 8464SOL    HW137025   0.067   3.565  14.257  0.3401  0.0772 -0.8606
 8464SOL    HW237026   0.073   3.433  14.196 -1.6297  0.1783  1.1887
 8465SOL     OW37027   0.822   0.148   2.804 -0.1715  0.2151  0.1554
 8465SOL    HW137028   0.901   0.100   2.780  0.1846 -0.1282  2.0011
 8465SOL    HW237029   0.757   0.099   2.753  0.0999 -0.7669  0.7479
 8466SOL     OW37030   4.238   1.367   4.571  0.1899  0.1040  0.3130
 8466SOL    HW137031   4.193   1.331   4.494 -0.5526  1.3636  0.1657
 8466SOL    HW237032   4.170   1.431   4.592 -1.1003 -0.7355 -1.2566
 8467SOL     OW37033   0.285   2.114   8.505 -0.1097 -0.1740 -0.0892
 8467SOL    HW137034   0.341   2.166   8.562 -0.7683  0.8927 -0.4184
 8467SOL    HW237035   0.292   2.030   8.551 -1.8840  0.5125  1.4578
 8468SOL     OW37036   3.243   2.898   2.756  0.0980 -0.1210 -0.6540
 8468SOL    HW137037   3.169   2.855   2.799 -0.6747  1.0143 -0.8459
 8468SOL    HW237038   3.309   2.832   2.773 -1.0460 -1.0541  0.1973
 8469SOL     OW37039   1.295   4.626   8.568  0.0467 -0.0744  0.3323
 8469SOL    HW137040   1.204   4.599   8.583 -0.4222 -0.0585 -2.4130
 8469SOL    HW237041   1.279   4.720   8.562  0.5763  0.1336  2.4279
 8470SOL     OW37042   3.856   3.509   6.815 -0.1057 -0.4235  0.5623
 8470SOL    HW137043   3.903   3.590   6.797 -0.8768 -0.0907  0.0214
 8470SOL    HW237044   3.874   3.460   6.735  0.7852  0.8030  0.0284
 8471SOL     OW37045   3.010   3.938   2.243 -0.1803  0.2548 -0.8057
 8471SOL    HW137046   3.060   3.978   2.172  1.6534 -0.2620  0.1764
 8471SOL    HW237047   2.998   3.848   2.214  1.1152 -0.9442  2.3119
 8472SOL     OW37048   2.753   3.738   4.111 -0.5412 -0.7206  0.6314
 8472SOL    HW137049   2.669   3.751   4.155 -0.0876  1.3363  0.8732
 8472SOL    HW237050   2.748   3.657   4.060 -0.9846  1.0816 -2.1811
 8473SOL     OW37051   4.707   4.102   2.311  0.2982 -0.0383  0.0792
 8473SOL    HW137052   0.012   4.121   2.229 -1.2186  2.4090 -0.1743
 8473SOL    HW237053   4.626   4.153   2.306  0.0724 -0.2652  1.5171
 8474SOL     OW37054   3.947   0.402   1.483 -0.6139 -0.2784  0.7215
 8474SOL    HW137055   3.948   0.317   1.528 -4.1144  0.0242  1.4408
 8474SOL    HW237056   3.888   0.375   1.413  2.1591 -0.0072 -1.6683
 8475SOL     OW37057   4.418   2.626  14.895 -0.2137  0.1978 -0.5999
 8475SOL    HW137058   4.341   2.579  14.863 -0.9446  0.6536  0.4881
 8475SOL    HW237059   4.423   2.701  14.836 -0.0101  0.3324 -0.4098
 8476SOL     OW37060   0.062   1.612  10.101  0.0885  0.2446 -0.7791
 8476SOL    HW137061   0.106   1.609  10.186  0.6092  1.1205 -1.0239
 8476SOL    HW237062   0.057   1.520  10.075  1.6269  0.4619 -1.8094
 8477SOL     OW37063   2.021   1.548   8.063  0.1961  0.2704 -0.4150
 8477SOL    HW137064   2.089   1.590   8.010  0.4549 -0.9150 -1.0127
 8477SOL    HW237065   1.948   1.569   8.005  0.1810  2.2338  0.3255
 8478SOL     OW37066   1.738   3.998  14.315 -0.2793 -0.4544  0.0423
 8478SOL    HW137067   1.799   3.966  14.382  0.7599  1.4912  0.0235
 8478SOL    HW237068   1.736   3.942  14.238  2.6313  0.1189 -0.4261
 8479SOL     OW37069   2.971   0.205   2.134  0.2859  0.7152  0.7724
 8479SOL    HW137070   3.053   0.158   2.148  0.8727  1.0556 -1.3956
 8479SOL    HW237071   2.958   0.186   2.041  1.0454  2.1535  0.3676
 8480SOL     OW37072   0.004   0.524   4.874  0.1207  0.4482 -0.4033
 8480SOL    HW137073   0.095   0.507   4.852 -0.1217 -0.5885 -0.6079
 8480SOL    HW237074   4.712   0.527   4.784  0.7224  1.0943 -0.5937
 8481SOL     OW37075   1.264   2.872  14.960  0.0589  0.5030  0.3134
 8481SOL    HW137076   1.353   2.839  14.967 -0.5603 -1.4462 -0.9592
 8481SOL    HW237077   1.244   2.826  14.879  0.7410 -2.8107  2.0341
 8482SOL     OW37078   1.109   0.842   9.257  0.2994 -0.5325  0.3052
 8482SOL    HW137079   1.159   0.847   9.338  0.8646 -0.4745 -0.0492
 8482SOL    HW237080   1.177   0.807   9.199  1.3188  1.3750  0.3766
 8483SOL     OW37081   3.703   1.530  13.916  0.3403  0.6104 -0.6873
 8483SOL    HW137082   3.699   1.594  13.844 -1.9003 -0.5895 -1.6407
 8483SOL    HW237083   3.626   1.478  13.893  0.1924 -0.6797  2.7469
 8484SOL     OW37084   1.801   3.695   5.092 -0.2269 -0.3524 -0.1029
 8484SOL    HW137085   1.791   3.642   5.013 -0.9156 -2.0226  1.0984
 8484SOL    HW237086   1.781   3.625   5.154  0.5174  1.2039  1.8768
 8485SOL     OW37087   3.739   1.397   2.239  0.1828 -0.1821 -0.0106
 8485SOL    HW137088   3.756   1.386   2.332  3.8058 -2.2964 -0.9580
 8485SOL    HW237089   3.813   1.354   2.197  0.7194  1.0731 -0.3601
 8486SOL     OW37090   4.724   1.300   8.366  0.1620  0.6143  0.7596
 8486SOL    HW137091   4.677   1.221   8.341 -0.4905  0.5511  2.1836
 8486SOL    HW237092   4.729   1.347   8.283 -1.4009  2.1289  1.5062
 8487SOL     OW37093   0.192   1.218   4.891  0.1677  0.1561 -0.2645
 8487SOL    HW137094   0.123   1.283   4.878 -0.8309 -0.4157  2.1700
 8487SOL    HW237095   0.207   1.187   4.802 -3.0576 -0.3600 -0.6405
 8488SOL     OW37096   3.312   4.271  16.351 -0.0476 -0.3152 -0.2938
 8488SOL    HW137097   3.315   4.223  16.268 -0.5175  2.1661 -1.7351
 8488SOL    HW237098   3.374   4.226  16.409 -0.0278 -2.3659 -1.8709
 8489SOL     OW37099   2.617   1.296   3.132  0.0548  0.5754 -0.0301
 8489SOL    HW137100   2.549   1.316   3.067 -0.4296  0.8616  0.5667
 8489SOL    HW237101   2.660   1.380   3.119  2.2071 -0.7034 -1.1068
 8490SOL     OW37102   2.142   2.301  17.319  0.7444 -0.3654 -0.0406
 8490SOL    HW137103   2.099   2.233  17.266  2.5320  0.8838 -3.0774
 8490SOL    HW237104   2.109   2.382  17.279 -0.0776  0.0674  1.4962
 8491SOL     OW37105   3.617   2.557  13.600  0.1593 -0.0259 -0.0906
 8491SOL    HW137106   3.664   2.640  13.599  1.2690 -0.6478  3.1607
 8491SOL    HW237107   3.647   2.516  13.518 -0.5076 -1.6266  0.4644
 8492SOL     OW37108   0.188   3.802   9.000 -0.4395  0.0773 -0.2832
 8492SOL    HW137109   0.167   3.814   9.093  1.9600  2.9364 -0.0904
 8492SOL    HW237110   0.127   3.730   8.981  0.2010 -0.6129  0.2561
 8493SOL     OW37111   3.252   0.771  16.368  0.1775  0.2508  0.0444
 8493SOL    HW137112   3.236   0.687  16.411 -2.7359  1.0945  0.6009
 8493SOL    HW237113   3.329   0.817  16.402 -0.5086  1.4045  0.0520
 8494SOL     OW37114   3.210   0.924  11.906 -0.1517  0.4862 -0.3457
 8494SOL    HW137115   3.278   0.923  11.839  0.6459  0.0930  0.4728
 8494SOL    HW237116   3.186   1.017  11.904 -1.2702  0.2662  2.0887
 8495SOL     OW37117   0.723   2.038   7.814  0.2362 -0.2061  0.1221
 8495SOL    HW137118   0.788   1.992   7.866 -1.5793 -0.1691  2.4223
 8495SOL    HW237119   0.772   2.055   7.733 -2.0622 -1.0929 -1.4847
 8496SOL     OW37120   0.744   2.742   8.450  0.1143 -0.2414 -0.5288
 8496SOL    HW137121   0.673   2.773   8.393 -1.1838 -1.3130  0.5148
 8496SOL    HW237122   0.696   2.712   8.527  1.5717 -1.5977 -0.1324
 8497SOL     OW37123   2.502   1.847  12.004 -0.2158  0.2999  0.2025
 8497SOL    HW137124   2.597   1.854  12.011 -0.6040  1.5247  4.2014
 8497SOL    HW237125   2.497   1.821  11.912 -1.5622  0.4486  0.2287
 8498SOL     OW37126   0.073   2.569  13.847  0.1671  0.6012 -0.4642
 8498SOL    HW137127   0.087   2.483  13.806 -3.3790  0.1483 -0.7785
 8498SOL    HW237128   0.136   2.561  13.919 -0.5301 -2.2257 -0.1770
 8499SOL     OW37129   0.985   1.510  17.457 -0.9654  0.2470  0.3760
 8499SOL    HW137130   1.061   1.561  17.429 -0.7543  0.0417  0.5629
 8499SOL    HW237131   1.002   1.424  17.419  1.7200  1.2485 -0.7404
 8500SOL     OW37132   3.003   0.389   7.237  0.0033 -0.1714 -0.0542
 8500SOL    HW137133   2.971   0.413   7.324  2.1778  0.4706  0.5764
 8500SOL    HW237134   3.087   0.436   7.229 -0.2939  0.2223 -0.8341
 8501SOL     OW37135   0.247   4.386   7.835  0.5174 -0.0804 -0.3280
 8501SOL    HW137136   0.322   4.433   7.801  1.1562 -0.8319  0.0489
 8501SOL    HW237137   0.236   4.328   7.759  1.8678 -2.3288  1.2005
 8502SOL     OW37138   0.180   1.910   3.103  0.0790  0.2217  0.2461
 8502SOL    HW137139   0.268   1.875   3.112  0.2153  0.3189 -0.6892
 8502SOL    HW237140   0.154   1.926   3.194  1.5413  0.4749  0.6202
 8503SOL     OW37141   1.988   2.875  14.031  0.5314  0.0074 -0.1866
 8503SOL    HW137142   1.996   2.799  13.974 -0.2675 -0.3723  0.1976
 8503SOL    HW237143   1.911   2.864  14.087  0.3749 -0.5084 -0.5016
 8504SOL     OW37144   4.372   3.798   8.827 -0.3431 -0.1536  0.0334
 8504SOL    HW137145   4.431   3.855   8.877 -0.2310  0.6040 -0.9627
 8504SOL    HW237146   4.392   3.821   8.737 -1.1870  2.9814  0.6577
 8505SOL     OW37147   3.390   2.381   2.312 -0.3874  0.4519 -0.2109
 8505SOL    HW137148   3.359   2.391   2.222  1.4960 -0.1291 -0.9149
 8505SOL    HW237149   3.456   2.448   2.294  1.2866 -0.7945  1.2298
 8506SOL     OW37150   2.441   4.061   0.494  0.2733 -0.0018 -0.6516
 8506SOL    HW137151   2.481   4.040   0.410 -1.0365 -0.7061 -1.1088
 8506SOL    HW237152   2.352   4.090   0.472 -0.2597 -0.2903  1.0526
 8507SOL     OW37153   1.924   1.881   3.131  0.5561  0.0134 -0.2841
 8507SOL    HW137154   1.989   1.826   3.174  0.3260  0.3182  0.4679
 8507SOL    HW237155   1.941   1.965   3.174  0.1437 -0.7444  1.3529
 8508SOL     OW37156   2.803   1.652  16.978  0.5052 -0.3208  0.2188
 8508SOL    HW137157   2.759   1.618  17.056 -0.2966  2.5447  1.0391
 8508SOL    HW237158   2.743   1.617  16.912  0.1253  0.1673  0.2992
 8509SOL     OW37159   1.309   2.657  16.961  0.1480  0.1101  0.0231
 8509SOL    HW137160   1.258   2.583  16.928  0.0302 -0.9198  2.5293
 8509SOL    HW237161   1.369   2.673  16.888 -0.5310  0.0325 -0.5519
 8510SOL     OW37162   1.041   1.366   8.880  0.6501  0.3846 -0.5836
 8510SOL    HW137163   0.981   1.329   8.816  0.3938  1.0283 -0.7167
 8510SOL    HW237164   1.004   1.329   8.960  1.1965  1.4059  0.1353
 8511SOL     OW37165   1.033   0.272   8.951 -0.5903 -0.5300 -0.2310
 8511SOL    HW137166   1.057   0.324   8.874 -0.4417 -1.2956 -0.7056
 8511SOL    HW237167   1.104   0.295   9.011 -0.4035  0.1028 -0.6912
 8512SOL     OW37168   2.534   0.422  10.164  0.0903 -0.5581  0.0318
 8512SOL    HW137169   2.540   0.347  10.106  2.0216 -1.0012  0.8125
 8512SOL    HW237170   2.625   0.432  10.192 -1.1653  1.0374  3.6520
 8513SOL     OW37171   4.704   4.114   0.984  0.1092  0.2334  0.5241
 8513SOL    HW137172   0.049   4.121   1.027  0.4859 -3.1096  0.2944
 8513SOL    HW237173   4.651   4.151   1.055  0.0374  0.7700  0.1942
 8514SOL     OW37174   3.781   0.014   2.997  0.4158 -0.2806  0.0005
 8514SOL    HW137175   3.695   4.713   3.000 -0.1145  0.7276 -1.1114
 8514SOL    HW237176   3.825   4.696   3.059  0.9649  0.2531  0.1169
 8515SOL     OW37177   3.905   2.321   3.412 -0.1791 -0.0926  0.1095
 8515SOL    HW137178   3.822   2.274   3.403  0.2225 -1.1678  1.9999
 8515SOL    HW237179   3.975   2.258   3.399  0.0581  0.4514 -1.2480
 8516SOL     OW37180   3.740   0.635  12.614  0.1120 -0.3848  0.5542
 8516SOL    HW137181   3.835   0.637  12.617  0.0921 -1.8524  2.2321
 8516SOL    HW237182   3.701   0.723  12.613  1.8673  0.3874  0.1280
 8517SOL     OW37183   0.672   1.028   7.700 -0.2716  0.3177 -0.1744
 8517SOL    HW137184   0.675   0.960   7.633 -0.8978  0.8002 -0.6979
 8517SOL    HW237185   0.578   1.041   7.710 -0.5784 -1.8148 -0.4266
 8518SOL     OW37186   3.245   3.665  11.240  0.2688 -0.6356  0.0520
 8518SOL    HW137187   3.240   3.738  11.303  3.1572  0.5961 -1.1569
 8518SOL    HW237188   3.250   3.712  11.157 -0.8038 -1.7624 -0.6461
 8519SOL     OW37189   3.247   2.551  13.764 -0.0229 -0.0634 -0.2262
 8519SOL    HW137190   3.217   2.540  13.674 -2.8455  0.4611  0.6344
 8519SOL    HW237191   3.163   2.559  13.809 -0.0352  2.7013 -0.7363
 8520SOL     OW37192   3.461   4.245   8.660 -0.7478  0.2815  0.2462
 8520SOL    HW137193   3.489   4.329   8.621 -0.6621 -0.2640 -0.8735
 8520SOL    HW237194   3.373   4.272   8.683 -0.6245 -0.9912  2.1460
 8521SOL     OW37195   4.516   2.377   5.847 -0.3362  0.4904  0.1867
 8521SOL    HW137196   4.557   2.359   5.762 -3.3990 -0.6319 -1.0513
 8521SOL    HW237197   4.444   2.430   5.813 -0.3132  0.1501 -0.3880
 8522SOL     OW37198   4.488   1.245   3.284 -0.1014 -0.0788  0.0116
 8522SOL    HW137199   4.422   1.310   3.310 -1.4149 -0.3378 -2.6738
 8522SOL    HW237200   4.550   1.305   3.243  0.9402 -0.8141  0.5187
 8523SOL     OW37201   3.004   3.995   3.293  0.0842 -0.0211  0.3642
 8523SOL    HW137202   3.042   4.052   3.225  0.2294 -1.6397 -0.9244
 8523SOL    HW237203   3.010   4.044   3.374  0.4145 -0.1777  0.4337
 8524SOL     OW37204   0.062   1.091   3.881 -0.1972 -0.4449 -0.1053
 8524SOL    HW137205   4.723   1.076   3.934 -0.1295  1.5906  0.5914
 8524SOL    HW237206   0.046   1.177   3.842 -1.6672  0.3213  2.0965
 8525SOL     OW37207   0.185   2.338  12.148  0.1618 -0.1041  0.3463
 8525SOL    HW137208   0.200   2.324  12.054 -0.3002 -2.3887  0.6143
 8525SOL    HW237209   0.270   2.352  12.189 -0.6614  1.9557  1.3469
 8526SOL     OW37210   2.612   3.164   5.370 -0.1913 -0.4546 -0.0743
 8526SOL    HW137211   2.555   3.164   5.447 -2.1155  2.8146 -1.5065
 8526SOL    HW237212   2.670   3.094   5.401 -0.0931 -0.9130 -1.2935
 8527SOL     OW37213   1.356   1.574   8.972  0.3000  0.2728 -0.0274
 8527SOL    HW137214   1.289   1.587   8.905  0.8797  0.8035 -0.4957
 8527SOL    HW237215   1.427   1.632   8.944  0.5328 -0.4440 -0.8969
 8528SOL     OW37216   4.147   2.000   9.296 -0.4374 -0.0112  0.0395
 8528SOL    HW137217   4.110   1.989   9.384 -1.9972  1.9014 -0.3853
 8528SOL    HW237218   4.084   2.062   9.260  1.5342  0.9806 -1.6634
 8529SOL     OW37219   2.818   2.820   3.868 -0.1152 -0.6209  0.3365
 8529SOL    HW137220   2.724   2.834   3.868 -0.1833 -1.1072 -0.2154
 8529SOL    HW237221   2.813   2.736   3.823  0.2896  0.3167 -1.4780
 8530SOL     OW37222   1.725   2.174   0.678 -0.5498 -0.6670  0.8271
 8530SOL    HW137223   1.631   2.184   0.667 -0.7271  0.4688  3.3996
 8530SOL    HW237224   1.767   2.191   0.594  1.2421 -2.3973  1.3581
 8531SOL     OW37225   2.068   3.113   8.898  0.0308  0.3112 -0.2491
 8531SOL    HW137226   2.162   3.124   8.881  0.1243  0.2516  0.2207
 8531SOL    HW237227   2.069   3.026   8.937  3.2936  0.4980  0.1366
 8532SOL     OW37228   0.058   2.463  17.380  0.1785 -0.0874 -0.4911
 8532SOL    HW137229   0.007   2.410  17.442  0.1869 -0.6029 -0.9253
 8532SOL    HW237230   0.086   2.533  17.439 -2.0017  0.1062  0.3128
 8533SOL     OW37231   2.645   0.351   5.022  0.1569  0.0428 -0.0865
 8533SOL    HW137232   2.643   0.300   4.941  3.0741 -0.9916  0.4820
 8533SOL    HW237233   2.553   0.366   5.044  0.3088 -0.0790  0.6399
 8534SOL     OW37234   4.348   0.087  15.786  0.4458 -0.4060  0.2943
 8534SOL    HW137235   4.416   0.048  15.840  1.0911 -0.7033 -0.7288
 8534SOL    HW237236   4.345   0.175  15.823 -0.2235  0.6160 -2.1912
 8535SOL     OW37237   4.148   2.321  13.056  0.2131  0.3172  0.4668
 8535SOL    HW137238   4.206   2.268  13.002  0.7518 -0.1719  1.5447
 8535SOL    HW237239   4.181   2.289  13.139 -1.2171 -2.9215 -0.2046
 8536SOL     OW37240   0.923   4.113   7.110 -0.0817 -0.1615 -0.1361
 8536SOL    HW137241   0.969   4.088   7.190 -1.7728  1.6507  1.4186
 8536SOL    HW237242   0.895   4.202   7.130  1.3772  0.1151  0.6607
 8537SOL     OW37243   4.314   3.309   0.816  0.0754  0.3960  0.0575
 8537SOL    HW137244   4.269   3.353   0.744 -0.1428 -0.5120 -0.3654
 8537SOL    HW237245   4.276   3.222   0.810 -0.9799  0.8884 -0.2851
 8538SOL     OW37246   2.086   3.055   7.441 -0.2718 -0.4997  0.1659
 8538SOL    HW137247   2.056   3.085   7.356 -1.8019  1.0040  1.2290
 8538SOL    HW237248   2.171   3.014   7.423  1.0533  2.2206  0.1733
 8539SOL     OW37249   3.383   0.886  13.270  0.2402  0.0709 -0.0492
 8539SOL    HW137250   3.356   0.812  13.325 -0.8320  1.0898  0.7905
 8539SOL    HW237251   3.384   0.859  13.178 -0.2341  2.7896 -0.8295
 8540SOL     OW37252   4.349   0.763   2.356  0.0398 -0.8003 -0.7536
 8540SOL    HW137253   4.414   0.755   2.426  1.6155  0.0007 -2.1058
 8540SOL    HW237254   4.368   0.855   2.338 -2.8663 -0.1636 -0.4195
 8541SOL     OW37255   3.993   0.333   2.628  0.0959 -0.0627 -0.0302
 8541SOL    HW137256   3.953   0.262   2.679  2.3138 -2.0593 -1.0674
 8541SOL    HW237257   4.012   0.388   2.704 -1.2286 -1.9508  1.6510
 8542SOL     OW37258   3.351   1.410   5.188  0.0941 -0.1742 -0.2728
 8542SOL    HW137259   3.320   1.443   5.104 -0.1943  0.5520  0.1109
 8542SOL    HW237260   3.292   1.339   5.214 -1.6934  1.4856  0.2720
 8543SOL     OW37261   3.652   1.773   8.540  0.0351  0.1555  0.1150
 8543SOL    HW137262   3.698   1.830   8.478  0.6665  2.7950  2.9963
 8543SOL    HW237263   3.560   1.782   8.518  0.0318 -1.0436 -0.3571
 8544SOL     OW37264   2.175   0.532   7.346  0.1327  0.4616 -0.2526
 8544SOL    HW137265   2.198   0.558   7.257  0.2552  1.9643  0.2104
 8544SOL    HW237266   2.231   0.593   7.394  0.8420 -1.3504  1.2425
 8545SOL     OW37267   4.634   3.834   2.379 -0.0095  0.4711  0.0780
 8545SOL    HW137268   4.639   3.770   2.308  0.0390  0.2816  0.2524
 8545SOL    HW237269   4.676   3.910   2.338  0.2631 -0.2322 -0.9584
 8546SOL     OW37270   2.571   1.936   3.040 -0.1673 -0.3473  0.3291
 8546SOL    HW137271   2.531   2.022   3.041 -0.1952 -0.3638  0.7016
 8546SOL    HW237272   2.499   1.884   3.077 -0.3952  0.3356  0.8295
 8547SOL     OW37273   3.866   1.898   7.976 -0.1275  0.2926 -0.1995
 8547SOL    HW137274   3.824   1.834   7.918 -3.5588  3.4526 -1.1754
 8547SOL    HW237275   3.956   1.864   7.975 -0.3089 -0.2103  0.1310
 8548SOL     OW37276   3.445   1.351  11.073 -0.2695  0.3710 -0.6458
 8548SOL    HW137277   3.480   1.364  10.985  0.0875 -1.0606 -0.7290
 8548SOL    HW237278   3.443   1.442  11.102 -0.3646 -0.3386  1.5879
 8549SOL     OW37279   1.941   4.052   9.188  0.7401 -0.0431 -0.3279
 8549SOL    HW137280   2.025   4.097   9.181  1.2398 -0.7635  1.0168
 8549SOL    HW237281   1.963   3.979   9.131  0.4066  0.1194 -0.6592
 8550SOL     OW37282   0.712   2.305   8.896 -0.0166  0.2843  0.0013
 8550SOL    HW137283   0.701   2.236   8.831  0.3155 -1.2174  1.5153
 8550SOL    HW237284   0.687   2.255   8.974 -0.1715  3.2146  1.8188
 8551SOL     OW37285   1.831   4.221   5.031 -0.2048  0.2259  0.1288
 8551SOL    HW137286   1.871   4.154   4.976  0.2923  0.3698  0.3099
 8551SOL    HW237287   1.836   4.297   4.973 -0.1446  0.8849  0.9811
 8552SOL     OW37288   0.351   3.833  11.488 -0.1649  1.1184  0.3092
 8552SOL    HW137289   0.402   3.844  11.568  0.1129  0.5770  0.2092
 8552SOL    HW237290   0.282   3.772  11.515  0.1406  0.8411  0.4647
 8553SOL     OW37291   1.162   3.640   5.277 -0.4553 -0.1460  0.1519
 8553SOL    HW137292   1.095   3.576   5.301 -0.1492  0.1425  1.7757
 8553SOL    HW237293   1.109   3.719   5.286 -0.6235 -0.2110 -0.2827
 8554SOL     OW37294   0.109   1.541   1.838 -0.0710 -0.1152  0.2690
 8554SOL    HW137295   0.193   1.497   1.829 -0.6201 -1.0471 -0.2519
 8554SOL    HW237296   0.050   1.500   1.775  1.0631  1.5664 -1.8548
 8555SOL     OW37297   0.934   1.182  17.130 -0.3042  0.3351 -0.1866
 8555SOL    HW137298   0.933   1.087  17.115 -0.7677  0.1895  0.7356
 8555SOL    HW237299   0.850   1.208  17.092 -0.5300  0.7841  0.6222
 8556SOL     OW37300   1.609   3.330   1.158  0.1584 -0.0286  0.1243
 8556SOL    HW137301   1.611   3.290   1.071  2.0243 -0.7200  0.4722
 8556SOL    HW237302   1.694   3.308   1.197  0.4015  1.7096  0.5889
 8557SOL     OW37303   3.161   0.814   1.199  0.2093 -0.4501  0.1004
 8557SOL    HW137304   3.103   0.889   1.214 -0.1413 -0.4795 -1.0841
 8557SOL    HW237305   3.118   0.785   1.119  1.3037  0.5050 -0.8330
 8558SOL     OW37306   0.062   2.233   0.252 -0.4681 -0.1589 -0.3601
 8558SOL    HW137307   0.021   2.299   0.307  1.1657  1.5681 -1.2003
 8558SOL    HW237308   0.123   2.283   0.197 -0.9246 -0.1433 -0.8475
 8559SOL     OW37309   0.271   1.615  16.047 -0.1251 -0.3620 -0.3604
 8559SOL    HW137310   0.278   1.648  15.957  0.2200 -3.0583 -1.3025
 8559SOL    HW237311   0.356   1.581  16.073 -0.5309 -0.7661  0.4590
 8560SOL     OW37312   1.206   4.239   4.712 -0.4027  0.5423  0.0762
 8560SOL    HW137313   1.138   4.201   4.767  3.3426 -0.0451  4.3323
 8560SOL    HW237314   1.196   4.334   4.719 -0.7636  0.5028  0.0791
 8561SOL     OW37315   2.467   4.282   2.122 -0.0932 -0.1197  0.0611
 8561SOL    HW137316   2.390   4.289   2.066 -0.1347 -2.3998 -0.1886
 8561SOL    HW237317   2.507   4.195   2.113 -0.4832 -0.3291  0.3190
 8562SOL     OW37318   1.210   4.214   2.578 -0.0602 -0.5080  0.0597
 8562SOL    HW137319   1.161   4.151   2.631 -0.3609 -0.2357  0.1038
 8562SOL    HW237320   1.297   4.205   2.617 -0.9522  0.5992  2.3176
 8563SOL     OW37321   3.274   4.311   5.613 -0.1406  0.0591 -0.3999
 8563SOL    HW137322   3.305   4.371   5.546  0.8677  2.3821  2.1771
 8563SOL    HW237323   3.196   4.351   5.652 -2.0922 -2.3691 -1.7446
 8564SOL     OW37324   1.981   4.626   5.033  0.0952 -0.4058 -0.1429
 8564SOL    HW137325   1.983   4.714   5.070 -0.7502  0.3400 -1.8705
 8564SOL    HW237326   1.936   4.651   4.952 -1.5195  3.5153  1.9267
 8565SOL     OW37327   1.145   1.826   4.667 -0.7169 -0.7852 -0.1256
 8565SOL    HW137328   1.097   1.750   4.633 -1.5604 -0.3908  0.1753
 8565SOL    HW237329   1.124   1.821   4.760  1.7654  2.5458  0.5849
 8566SOL     OW37330   1.970   1.847   2.319 -0.8749  0.0094  0.6328
 8566SOL    HW137331   1.994   1.921   2.375 -0.6872  1.2089 -1.0266
 8566SOL    HW237332   1.880   1.837   2.351 -1.0304  2.2758  0.9277
 8567SOL     OW37333   3.327   1.467   9.561 -0.8255  0.5117  0.3140
 8567SOL    HW137334   3.418   1.475   9.589 -0.1218 -0.7818 -1.5951
 8567SOL    HW237335   3.327   1.388   9.507 -0.3674 -0.3598  1.6036
 8568SOL     OW37336   3.009   3.091   8.389  0.4881 -0.2171  0.9019
 8568SOL    HW137337   3.084   3.053   8.433 -1.3432 -2.4145  2.1200
 8568SOL    HW237338   2.953   3.114   8.463  0.6141  0.5780  0.7567
 8569SOL     OW37339   0.177   0.585   5.154 -0.0221  0.6138  0.3349
 8569SOL    HW137340   0.228   0.530   5.214  2.8519  0.7713 -1.9975
 8569SOL    HW237341   0.102   0.536   5.120  0.5587 -0.7003  0.9546
 8570SOL     OW37342   3.116   3.332   9.358 -0.0306 -0.4880  0.5723
 8570SOL    HW137343   3.076   3.250   9.389 -0.2617  0.1891  2.0761
 8570SOL    HW237344   3.047   3.353   9.295  0.5975 -0.0606  0.0258
 8571SOL     OW37345   3.791   0.317   3.993 -0.0454 -0.2734  0.1387
 8571SOL    HW137346   3.827   0.376   4.060  1.2266  1.6412 -2.2142
 8571SOL    HW237347   3.701   0.350   4.001 -0.0183 -0.1481 -0.0840
 8572SOL     OW37348   3.706   2.793   2.775  0.0326  0.2671  0.6977
 8572SOL    HW137349   3.742   2.711   2.808 -2.8614 -0.9240  0.9020
 8572SOL    HW237350   3.625   2.811   2.822 -1.8149 -2.0137 -1.5914
 8573SOL     OW37351   1.524   4.024   3.216 -0.5970  0.2685 -0.2560
 8573SOL    HW137352   1.544   4.113   3.245  0.2751 -0.4098  1.2170
 8573SOL    HW237353   1.603   4.012   3.165 -1.1055 -0.7742 -0.8062
 8574SOL     OW37354   3.803   4.396   6.373  0.1284  0.0925 -0.2048
 8574SOL    HW137355   3.775   4.462   6.436 -0.1406 -0.2181 -0.0017
 8574SOL    HW237356   3.892   4.372   6.399 -0.4256 -1.3515  0.3463
 8575SOL     OW37357   3.535   4.175   7.379  0.2758 -0.0878  0.1724
 8575SOL    HW137358   3.503   4.096   7.335  0.6074 -0.1419  0.0291
 8575SOL    HW237359   3.489   4.169   7.462  1.7649 -1.2766  0.8899
 8576SOL     OW37360   0.162   1.632   3.602  0.8458 -0.0709  0.4730
 8576SOL    HW137361   0.120   1.586   3.674 -2.4532 -2.1054 -2.7322
 8576SOL    HW237362   0.108   1.710   3.590 -0.3700 -1.1616 -1.2183
 8577SOL     OW37363   0.139   1.990   1.589 -0.1224  0.1351 -0.3716
 8577SOL    HW137364   0.179   2.073   1.616 -0.3469 -0.6799  2.4284
 8577SOL    HW237365   0.189   1.932   1.645  0.9450  0.2493 -1.2026
 8578SOL     OW37366   2.841   0.307  15.087  0.0065  0.0080  0.1882
 8578SOL    HW137367   2.836   0.296  15.182 -0.7538  0.6463  0.2169
 8578SOL    HW237368   2.756   0.279  15.053  0.9476 -0.7281 -1.5851
 8579SOL     OW37369   3.458   2.925   8.678 -0.6218 -0.5834  0.7007
 8579SOL    HW137370   3.494   3.008   8.707 -0.5579 -0.0619 -0.8681
 8579SOL    HW237371   3.486   2.883   8.759 -0.3083 -2.7793 -0.5271
 8580SOL     OW37372   3.594   4.569   5.983  0.7521  0.4316  0.0690
 8580SOL    HW137373   3.679   4.590   6.022  1.7874 -1.4742 -1.1058
 8580SOL    HW237374   3.530   4.621   6.031  0.5601 -0.1996  0.4924
 8581SOL     OW37375   2.969   3.501   4.518 -0.3932  0.7840  0.0702
 8581SOL    HW137376   2.951   3.469   4.430  1.7217  0.4161 -0.2090
 8581SOL    HW237377   2.897   3.461   4.567  0.6790 -0.0930  0.9226
 8582SOL     OW37378   4.426   0.039   1.091  0.3393  0.0752 -0.0966
 8582SOL    HW137379   4.330   0.037   1.099  0.1854  0.2664 -2.0254
 8582SOL    HW237380   4.437   0.127   1.126  0.7247 -0.5296  1.3113
 8583SOL     OW37381   2.327   2.921   4.915 -1.0179 -0.1473 -0.1813
 8583SOL    HW137382   2.411   2.878   4.929  0.0174  1.4843 -1.4635
 8583SOL    HW237383   2.324   2.908   4.821  0.1109 -0.4930 -0.1687
 8584SOL     OW37384   4.437   2.344   8.115  0.1487  0.1079  0.1982
 8584SOL    HW137385   4.358   2.313   8.158 -1.0867  0.8962 -1.4921
 8584SOL    HW237386   4.445   2.280   8.044  2.1828 -1.3151  1.7310
 8585SOL     OW37387   1.511   1.791   3.158 -0.4589 -0.6900  0.1559
 8585SOL    HW137388   1.510   1.871   3.211 -0.9464 -0.7775  0.2738
 8585SOL    HW237389   1.521   1.826   3.069 -1.1061  0.3541  0.4867
 8586SOL     OW37390   3.966   4.277  17.079  0.1006  0.1140 -0.0419
 8586SOL    HW137391   3.912   4.341  17.125  2.3267  1.6581  0.4118
 8586SOL    HW237392   3.953   4.314  16.992 -0.0974  0.6426  0.2123
 8587SOL     OW37393   3.721   0.781   7.368 -0.2129  0.4464  0.6086
 8587SOL    HW137394   3.736   0.767   7.275  1.0965  0.6000  0.8013
 8587SOL    HW237395   3.789   0.727   7.408  0.3353 -0.7981 -1.9902
 8588SOL     OW37396   4.046   0.991   4.753  0.0787 -0.1895 -0.5989
 8588SOL    HW137397   3.955   0.994   4.782 -0.0004  0.4638 -0.9107
 8588SOL    HW237398   4.068   1.079   4.785 -0.5828 -1.2404  2.6955
 8589SOL     OW37399   0.069   2.649   5.310 -0.1181  0.1020 -0.0123
 8589SOL    HW137400   4.718   2.640   5.337 -0.5517  0.6493 -1.2905
 8589SOL    HW237401   0.113   2.664   5.394  1.0378  0.9074 -0.7690
 8590SOL     OW37402   0.533   1.318  10.062  0.3394  0.3811  0.1582
 8590SOL    HW137403   0.443   1.290  10.046  0.3142  1.6512 -1.9498
 8590SOL    HW237404   0.546   1.265  10.141 -3.1274  2.5287  2.1297
 8591SOL     OW37405   1.481   3.398  15.913 -0.5730 -0.4987  0.0445
 8591SOL    HW137406   1.573   3.409  15.935 -0.6942  0.7061 -0.0413
 8591SOL    HW237407   1.475   3.364  15.824 -1.0171  1.2773 -0.6127
 8592SOL     OW37408   0.723   1.058   0.170 -0.5184 -0.3450 -0.2375
 8592SOL    HW137409   0.697   0.989   0.230 -0.1061  1.6232  2.1738
 8592SOL    HW237410   0.656   1.122   0.190 -0.5618  0.0150 -1.4897
 8593SOL     OW37411   0.973   0.574   8.112  0.2638  0.0277  0.3695
 8593SOL    HW137412   0.955   0.508   8.045 -1.0548 -0.2103  0.9499
 8593SOL    HW237413   1.062   0.548   8.134  0.3009  0.2986  0.5486
 8594SOL     OW37414   1.354   0.901   4.757  0.1832 -0.1864  0.0657
 8594SOL    HW137415   1.301   0.963   4.806  2.1747  2.3251 -0.9676
 8594SOL    HW237416   1.432   0.955   4.748  1.2236 -1.9050 -1.2828
 8595SOL     OW37417   2.918   1.228   7.267 -0.1404 -0.3388  0.3464
 8595SOL    HW137418   2.838   1.280   7.267  0.2434  0.2378 -2.0496
 8595SOL    HW237419   2.988   1.288   7.242 -0.7560 -0.2950 -1.2694
 8596SOL     OW37420   1.363   2.701   8.177 -0.0198  0.0168  0.2278
 8596SOL    HW137421   1.305   2.765   8.217 -0.1443  1.1659 -1.7740
 8596SOL    HW237422   1.440   2.715   8.232  0.1071 -0.4785  0.1808
 8597SOL     OW37423   1.605   3.264   8.678 -0.0433 -0.0135 -0.4608
 8597SOL    HW137424   1.569   3.272   8.766 -0.4510 -0.2403 -0.6085
 8597SOL    HW237425   1.526   3.247   8.627 -1.0001  0.8262  0.7155
 8598SOL     OW37426   1.538   3.560   3.517 -0.9766 -0.1124 -0.1441
 8598SOL    HW137427   1.514   3.487   3.460  0.0930 -1.1353  0.7142
 8598SOL    HW237428   1.460   3.613   3.527  0.3679  1.7311  0.5391
 8599SOL     OW37429   1.467   1.862   2.831  0.2475 -0.3602 -0.1449
 8599SOL    HW137430   1.526   1.787   2.826  0.2320 -0.3159 -0.9635
 8599SOL    HW237431   1.392   1.814   2.797 -0.9232  0.2884  1.5355
 8600SOL     OW37432   3.188   4.027   5.943  0.1088 -0.7190  0.2798
 8600SOL    HW137433   3.249   3.963   5.978  1.4571  0.0695 -0.6175
 8600SOL    HW237434   3.208   4.037   5.850  0.4694  0.8181  0.5233
 8601SOL     OW37435   2.462   3.360   6.451  0.1556 -0.1250  0.0959
 8601SOL    HW137436   2.463   3.415   6.373  1.6279 -0.3350 -0.0290
 8601SOL    HW237437   2.421   3.426   6.507  1.4758 -0.5891  1.6339
 8602SOL     OW37438   2.241   2.041   6.542 -0.4122 -0.1282  0.4069
 8602SOL    HW137439   2.203   1.960   6.509 -0.4786  0.2399 -0.4275
 8602SOL    HW237440   2.318   2.000   6.581  0.7795  0.6788 -1.0903
 8603SOL     OW37441   4.599   1.672   9.914  0.1321  0.4259  0.6685
 8603SOL    HW137442   4.564   1.601   9.968  0.3092 -0.4052 -0.3099
 8603SOL    HW237443   4.683   1.684   9.958  1.6679 -1.3905 -1.7589
 8604SOL     OW37444   2.982   1.156  16.938  0.0440 -0.4652  0.1713
 8604SOL    HW137445   3.021   1.106  16.866 -2.0202 -0.8134 -0.7041
 8604SOL    HW237446   2.963   1.090  17.005  0.6354  0.7172  1.4934
 8605SOL     OW37447   1.007   2.053   2.182  0.0646  0.2164  0.9833
 8605SOL    HW137448   1.096   2.070   2.212  0.0332 -1.7789  2.2216
 8605SOL    HW237449   1.020   2.029   2.090 -1.2742 -1.1933  1.1658
 8606SOL     OW37450   2.350   0.235  12.136 -0.2762  0.2925 -0.2242
 8606SOL    HW137451   2.308   0.212  12.053 -0.1982  1.0459 -0.4669
 8606SOL    HW237452   2.438   0.209  12.107 -0.1669  1.3732 -0.8383
 8607SOL     OW37453   4.063   0.441   3.888 -0.7940 -0.2105  1.0078
 8607SOL    HW137454   4.007   0.403   3.820 -1.0879 -1.9645  2.2397
 8607SOL    HW237455   4.149   0.438   3.847 -1.0061 -0.0992  0.5565
 8608SOL     OW37456   1.128   3.878   8.813  0.1577  0.5015  0.2202
 8608SOL    HW137457   1.100   3.786   8.810  0.6647  0.3597 -0.1861
 8608SOL    HW237458   1.049   3.914   8.772  1.6403  3.2881 -0.1103
 8609SOL     OW37459   2.365   0.556   5.498  0.1954  0.1399 -0.3506
 8609SOL    HW137460   2.291   0.615   5.486 -1.3231 -1.3285  1.7097
 8609SOL    HW237461   2.431   0.619   5.527  0.3790 -1.0269  1.7999
 8610SOL     OW37462   0.056   4.414   6.762  0.0080  0.0937  0.2607
 8610SOL    HW137463   0.128   4.454   6.713 -0.7000  0.3842 -0.5313
 8610SOL    HW237464   4.729   4.468   6.721 -0.2680  1.3382  2.3210
 8611SOL     OW37465   2.464   2.177   2.969  0.3934  0.0044  0.2895
 8611SOL    HW137466   2.530   2.194   2.901  1.2147 -0.0517  1.0693
 8611SOL    HW237467   2.468   2.249   3.032  0.5655 -0.0839  0.3802
 8612SOL     OW37468   0.482   1.902   7.447 -0.5258  0.3946 -0.3685
 8612SOL    HW137469   0.516   1.989   7.427  0.9916 -0.5139 -1.7621
 8612SOL    HW237470   0.542   1.883   7.520  0.1870 -1.3595 -1.4127
 8613SOL     OW37471   2.010   2.087   6.816 -0.4401 -0.3799 -0.2618
 8613SOL    HW137472   2.051   2.103   6.900  0.4091  1.0513 -0.9456
 8613SOL    HW237473   1.997   1.992   6.819  0.0423 -0.3899  1.0915
 8614SOL     OW37474   1.436   4.337   0.922 -0.1940 -0.4443 -0.1790
 8614SOL    HW137475   1.431   4.243   0.906 -1.5596 -0.6693  1.4847
 8614SOL    HW237476   1.349   4.342   0.961 -0.8415  0.7614 -1.7967
 8615SOL     OW37477   1.689   3.139   2.005 -0.0239  0.6035  0.0630
 8615SOL    HW137478   1.732   3.202   2.063 -3.5200  1.5599  1.6124
 8615SOL    HW237479   1.678   3.202   1.933  1.5371 -0.1275 -0.8079
 8616SOL     OW37480   1.576   3.772  12.009  0.2872  0.1482  0.0580
 8616SOL    HW137481   1.607   3.729  12.089  0.2084  0.2217  0.1276
 8616SOL    HW237482   1.514   3.838  12.040  1.2996  1.0375  0.2090
 8617SOL     OW37483   0.231   0.928   6.132  0.0346  0.4123  0.0944
 8617SOL    HW137484   0.276   0.958   6.053 -0.9515  0.8529 -0.2944
 8617SOL    HW237485   0.277   0.847   6.152  0.7369  1.0248  0.9687
 8618SOL     OW37486   0.659   0.080   9.519 -0.0131 -0.3412  0.2242
 8618SOL    HW137487   0.662   0.013   9.587 -1.4375 -1.4406 -0.7995
 8618SOL    HW237488   0.745   0.119   9.532 -1.0081  1.4291  1.6177
 8619SOL     OW37489   1.218   4.624   2.039 -0.9906 -0.0827 -0.8258
 8619SOL    HW137490   1.178   4.538   2.048 -0.6592 -0.2118 -0.5943
 8619SOL    HW237491   1.304   4.598   2.008 -0.2108  0.8555  0.5556
 8620SOL     OW37492   2.789   0.732  11.444 -0.4055 -0.5656 -0.0609
 8620SOL    HW137493   2.758   0.788  11.372  0.9404 -1.6496 -1.4633
 8620SOL    HW237494   2.858   0.795  11.466  0.2691 -2.6100  3.5213
 8621SOL     OW37495   0.792   1.652   9.107 -0.5587 -0.2398 -0.4824
 8621SOL    HW137496   0.841   1.589   9.161 -0.4422  0.3708  0.1164
 8621SOL    HW237497   0.733   1.669   9.180  1.5373  2.0572  0.6890
 8622SOL     OW37498   1.252   3.435   9.009 -0.1639 -0.8279 -0.4183
 8622SOL    HW137499   1.194   3.369   9.048  0.8656 -1.5740 -0.1441
 8622SOL    HW237500   1.261   3.487   9.088 -0.3007 -1.0702 -0.2412
 8623SOL     OW37501   0.808   4.718   1.697  0.3241  0.1000 -0.3868
 8623SOL    HW137502   0.884   0.001   1.751  0.7605 -0.5107 -0.7397
 8623SOL    HW237503   0.746   0.047   1.720 -1.1617 -1.0502 -0.9610
 8624SOL     OW37504   1.958   1.407   7.418 -0.5981 -0.1286  0.4226
 8624SOL    HW137505   2.016   1.470   7.462 -0.2560 -0.1679  0.0244
 8624SOL    HW237506   1.895   1.400   7.489 -0.6900  1.6468  0.5036
 8625SOL     OW37507   3.711   3.607  16.911  0.1389 -0.5394  0.1100
 8625SOL    HW137508   3.793   3.577  16.872  1.6304  3.0939  0.3672
 8625SOL    HW237509   3.711   3.571  17.000 -1.1016  1.4409  0.9137
 8626SOL     OW37510   3.658   2.098  11.985 -0.0007  0.2040 -0.2700
 8626SOL    HW137511   3.655   2.149  11.904 -3.3348  0.8386  0.2313
 8626SOL    HW237512   3.747   2.115  12.014 -0.5456  1.5330  0.6575
 8627SOL     OW37513   1.083   2.496   3.431  0.1759 -0.3755 -0.2400
 8627SOL    HW137514   1.068   2.402   3.439 -1.8271 -0.0269  0.0322
 8627SOL    HW237515   1.019   2.514   3.362  0.6837 -0.9820 -0.8760
 8628SOL     OW37516   3.937   1.654   9.774 -0.4082  0.1553  0.0019
 8628SOL    HW137517   3.946   1.702   9.856 -0.4426 -0.7188  0.5197
 8628SOL    HW237518   4.030   1.665   9.753 -0.4330 -1.0104 -0.7212
 8629SOL     OW37519   0.609   2.034   4.053 -0.0505 -0.1360  0.1132
 8629SOL    HW137520   0.527   2.076   4.027 -0.9764 -2.0119  0.0032
 8629SOL    HW237521   0.579   1.944   4.066 -1.1557  0.2248  0.0816
 8630SOL     OW37522   3.371   2.286   6.756  0.0837 -0.9674 -0.0053
 8630SOL    HW137523   3.279   2.267   6.775 -0.2700  1.6892  0.8384
 8630SOL    HW237524   3.414   2.221   6.812  1.6158  0.8858  0.9708
 8631SOL     OW37525   3.587   0.305  11.153 -0.1009 -0.5633  0.2502
 8631SOL    HW137526   3.682   0.310  11.165 -0.1474  0.3750  0.2451
 8631SOL    HW237527   3.554   0.243  11.218  0.0986 -0.5501  0.3641
 8632SOL     OW37528   1.763   1.333   7.629 -0.2513 -0.6855  0.0569
 8632SOL    HW137529   1.680   1.381   7.641  0.8736  1.3905 -0.4696
 8632SOL    HW237530   1.731   1.243   7.635 -1.2890 -0.3213  0.0974
 8633SOL     OW37531   4.416   1.230  10.727 -0.8189  0.0032 -0.0958
 8633SOL    HW137532   4.510   1.217  10.739 -0.5793  1.9742  0.0547
 8633SOL    HW237533   4.418   1.314  10.682 -0.5952 -0.3387 -0.7291
 8634SOL     OW37534   2.447   0.476   7.588  0.6434 -0.0883 -0.4979
 8634SOL    HW137535   2.468   0.463   7.681  0.1053 -0.1786 -0.3941
 8634SOL    HW237536   2.526   0.503   7.541  0.7640 -1.7143 -1.2445
 8635SOL     OW37537   2.395   4.219  17.372  0.0864 -0.2813  0.1458
 8635SOL    HW137538   2.328   4.175  17.424  0.8335  0.0826  1.3927
 8635SOL    HW237539   2.460   4.148  17.378  2.2975  1.7199 -0.2689
 8636SOL     OW37540   2.668   4.280   8.229  0.0056 -0.1075 -0.0827
 8636SOL    HW137541   2.675   4.280   8.324 -0.8624 -1.9717 -0.0113
 8636SOL    HW237542   2.759   4.260   8.207  0.0499  1.0561 -1.0043
 8637SOL     OW37543   0.110   1.241   5.166 -0.5206 -0.4731  0.2619
 8637SOL    HW137544   0.117   1.334   5.186 -3.6542  0.3099 -2.3301
 8637SOL    HW237545   0.176   1.229   5.097 -0.3109  0.6579  0.2762
 8638SOL     OW37546   4.106   0.703   4.773  0.6763  0.2388 -0.2979
 8638SOL    HW137547   4.198   0.677   4.760 -0.2593 -2.2283 -1.9181
 8638SOL    HW237548   4.111   0.798   4.761  0.7462 -0.0981 -2.7356
 8639SOL     OW37549   2.797   0.806   8.393 -0.7057  0.0467 -0.2398
 8639SOL    HW137550   2.810   0.717   8.427 -0.6201 -0.5177 -1.7372
 8639SOL    HW237551   2.846   0.860   8.455  0.1197 -0.0051 -0.8427
 8640SOL     OW37552   3.184   0.250  16.069 -0.4011  0.4596  0.0572
 8640SOL    HW137553   3.201   0.241  16.163 -1.1214  0.6697  0.2065
 8640SOL    HW237554   3.109   0.308  16.066  0.4982  1.6665  0.7771
 8641SOL     OW37555   2.981   3.676  14.161  0.5871  0.0645  0.7637
 8641SOL    HW137556   2.946   3.756  14.200  2.0061 -0.5065  3.1922
 8641SOL    HW237557   3.018   3.638  14.241  2.1366  1.4256  0.7082
 8642SOL     OW37558   0.928   2.786   9.135 -0.5994  0.0337  0.0378
 8642SOL    HW137559   0.833   2.773   9.130 -0.6552 -0.1629  1.6920
 8642SOL    HW237560   0.958   2.707   9.090 -0.1910  0.0710  0.2508
 8643SOL     OW37561   2.744   0.989  17.396  0.3231  0.1953 -0.3816
 8643SOL    HW137562   2.829   0.950  17.418  0.3766  0.5176 -0.0297
 8643SOL    HW237563   2.698   0.962  17.475  5.1569  0.0367  2.3876
 8644SOL     OW37564   3.343   3.298   2.937  0.0039 -0.3114 -0.3966
 8644SOL    HW137565   3.270   3.342   2.894  0.2201 -0.3956 -0.8425
 8644SOL    HW237566   3.316   3.310   3.028  0.0076  1.2981 -0.6152
 8645SOL     OW37567   1.806   1.638   7.906  0.1059  0.1118 -0.2586
 8645SOL    HW137568   1.834   1.710   7.849  5.0462 -1.2100  0.5282
 8645SOL    HW237569   1.710   1.649   7.908  0.0413 -0.6612  0.6405
 8646SOL     OW37570   2.578   3.635   7.552 -0.0899  0.3835 -0.5137
 8646SOL    HW137571   2.564   3.569   7.484 -0.8170  0.0657 -0.0555
 8646SOL    HW237572   2.486   3.648   7.575 -0.6765 -1.6125 -1.7593
 8647SOL     OW37573   4.651   0.988  12.141  1.1385 -0.2908 -0.0886
 8647SOL    HW137574   4.740   0.962  12.115  1.1827  0.0920 -0.3328
 8647SOL    HW237575   4.633   1.067  12.089  0.7829 -1.0606 -1.1405
 8648SOL     OW37576   3.865   0.818   6.534 -0.4689 -0.5656 -0.4448
 8648SOL    HW137577   3.923   0.851   6.602 -0.6396 -2.4855  0.6505
 8648SOL    HW237578   3.922   0.817   6.457  1.1774 -0.0682  0.7699
 8649SOL     OW37579   1.408   1.867   8.411  0.3863 -0.2594 -0.4003
 8649SOL    HW137580   1.404   1.807   8.337 -1.4375 -1.0694  0.3511
 8649SOL    HW237581   1.382   1.808   8.482 -1.5703 -0.0505 -0.9392
 8650SOL     OW37582   2.521   3.197   5.039 -0.3854 -0.4528  0.2633
 8650SOL    HW137583   2.589   3.215   4.974 -0.5991 -0.2115  0.1074
 8650SOL    HW237584   2.557   3.188   5.127 -1.4715  0.0653  0.7563
 8651SOL     OW37585   3.226   1.261   4.884  0.2396 -0.2447 -0.1610
 8651SOL    HW137586   3.136   1.237   4.908  0.6039  0.1424  1.6303
 8651SOL    HW237587   3.286   1.214   4.941 -0.9767  0.8571  2.0670
 8652SOL     OW37588   4.718   4.103  14.305  0.1220  0.3551  0.5326
 8652SOL    HW137589   4.687   4.179  14.353 -1.9514 -0.0800 -0.1232
 8652SOL    HW237590   0.052   4.075  14.358  0.9503  1.5502 -0.0071
 8653SOL     OW37591   2.909   3.787   8.551 -0.3366 -0.4172 -0.2714
 8653SOL    HW137592   2.964   3.737   8.611 -0.7672 -1.6704 -0.9318
 8653SOL    HW237593   2.968   3.807   8.479  1.8387 -0.4497  1.5019
 8654SOL     OW37594   0.250   2.911   2.292 -0.5332 -0.6585 -0.0151
 8654SOL    HW137595   0.315   2.856   2.248 -0.6408 -1.1911  0.4910
 8654SOL    HW237596   0.299   2.990   2.313 -0.0569 -2.0034  3.9354
 8655SOL     OW37597   4.224   3.314  17.565  0.0934 -0.3386  0.3443
 8655SOL    HW137598   4.294   3.356  17.515  0.6301 -1.8088 -0.1529
 8655SOL    HW237599   4.227   3.224  17.532 -0.9156 -0.3656  0.3302
 8656SOL     OW37600   2.908   2.850   8.613 -0.4747  0.0351  0.1626
 8656SOL    HW137601   2.865   2.921   8.660 -1.9118 -0.2029 -0.7738
 8656SOL    HW237602   2.992   2.889   8.591 -1.5284  1.0584 -2.0725
 8657SOL     OW37603   2.307   0.608   0.190 -0.4653 -0.3619  0.0251
 8657SOL    HW137604   2.297   0.556   0.270  1.0171 -1.8496 -0.7658
 8657SOL    HW237605   2.348   0.544   0.132  1.8924  1.6109 -0.4923
 8658SOL     OW37606   3.675   1.686  16.425 -0.3029  0.0047 -0.1885
 8658SOL    HW137607   3.687   1.666  16.517 -0.8719  0.3003 -0.0483
 8658SOL    HW237608   3.661   1.594  16.402  1.4186 -0.0160 -1.0851
 8659SOL     OW37609   2.661   2.217  11.658 -0.3741  0.0538  0.5495
 8659SOL    HW137610   2.699   2.217  11.745  1.3746 -0.0323 -0.2210
 8659SOL    HW237611   2.641   2.310  11.646  1.6295  0.7532  2.7012
 8660SOL     OW37612   4.161   2.482  14.201  0.5874 -0.3824 -0.7493
 8660SOL    HW137613   4.073   2.516  14.186  0.7125  0.1315 -0.3217
 8660SOL    HW237614   4.175   2.497  14.294  0.8821 -0.9872 -0.6997
 8661SOL     OW37615   2.149   1.879   6.123  0.3005  0.5120  0.0022
 8661SOL    HW137616   2.099   1.866   6.203  1.3713  0.9782  0.7547
 8661SOL    HW237617   2.204   1.957   6.134  0.7419  0.1671  0.2412
 8662SOL     OW37618   4.004   2.805   5.424  0.3760 -0.2925 -0.0262
 8662SOL    HW137619   4.043   2.860   5.357  0.7022 -1.2621 -0.6344
 8662SOL    HW237620   4.075   2.818   5.487 -2.2088  3.8636  2.0519
 8663SOL     OW37621   2.690   3.582   5.449 -0.1324 -0.1739 -0.1764
 8663SOL    HW137622   2.642   3.517   5.398 -0.9114 -0.1668  0.5479
 8663SOL    HW237623   2.633   3.602   5.523 -1.3062 -1.0669 -0.8386
 8664SOL     OW37624   1.740   3.614   5.755 -0.3126  0.6567  0.0364
 8664SOL    HW137625   1.722   3.595   5.663  2.6145 -0.0963 -0.3693
 8664SOL    HW237626   1.769   3.703   5.776 -1.7244  0.9596  0.7160
 8665SOL     OW37627   3.356   0.479   3.690  0.5104 -0.0031  0.0024
 8665SOL    HW137628   3.270   0.494   3.652  0.7087 -0.4689 -0.6372
 8665SOL    HW237629   3.350   0.537   3.766 -0.7584  2.6548 -2.1714
 8666SOL     OW37630   0.697   0.559   2.828 -0.0514 -0.2767 -0.2505
 8666SOL    HW137631   0.708   0.638   2.775  0.0218 -0.3134 -0.2889
 8666SOL    HW237632   0.770   0.505   2.798  0.0420  0.3769 -1.2008
 8667SOL     OW37633   2.718   3.286   8.404  0.3287  0.7734  0.3573
 8667SOL    HW137634   2.720   3.232   8.325 -0.1653  0.0910  0.8122
 8667SOL    HW237635   2.770   3.362   8.378 -1.3020  2.1199  0.9425
 8668SOL     OW37636   0.938   3.351   1.343 -0.3641 -0.3427  0.2035
 8668SOL    HW137637   1.011   3.364   1.403  0.7519 -0.1395 -1.2257
 8668SOL    HW237638   0.939   3.431   1.290 -1.6263 -1.5568 -1.6534
 8669SOL     OW37639   0.174   3.625   5.573  0.4292 -0.4033 -0.2096
 8669SOL    HW137640   0.198   3.543   5.616 -1.8293 -1.3709 -0.7503
 8669SOL    HW237641   0.113   3.673   5.630 -0.7537  0.7498 -2.4295
 8670SOL     OW37642   3.749   4.482   3.497  0.1984 -0.4515 -0.0435
 8670SOL    HW137643   3.748   4.554   3.435  0.1561 -0.7250 -0.3583
 8670SOL    HW237644   3.676   4.507   3.554  1.2261  0.3655  0.9247
 8671SOL     OW37645   2.149   1.985   2.776 -0.1583  0.2780  0.4600
 8671SOL    HW137646   2.194   2.030   2.847  0.4391  0.5048 -0.0648
 8671SOL    HW237647   2.162   2.035   2.695  0.7483 -2.5509 -1.1233
 8672SOL     OW37648   1.002   4.382  10.801 -0.1668 -0.7681  0.1732
 8672SOL    HW137649   0.996   4.444  10.728 -0.8658  0.2798  1.1349
 8672SOL    HW237650   1.064   4.313  10.780 -0.1692 -0.4760 -0.7851
 8673SOL     OW37651   1.748   1.074   9.475  0.2757  0.3429  0.0999
 8673SOL    HW137652   1.787   1.000   9.429 -0.6190  0.4975 -0.8972
 8673SOL    HW237653   1.804   1.080   9.552 -0.4130 -1.4317  0.7374
 8674SOL     OW37654   3.271   2.335   1.690 -0.7927 -0.5272  0.2663
 8674SOL    HW137655   3.261   2.240   1.691  2.7883 -0.9328  0.3437
 8674SOL    HW237656   3.193   2.363   1.737  0.0445  0.5066  1.0266
 8675SOL     OW37657   0.530   4.432   6.125 -0.0765  0.2179 -0.4592
 8675SOL    HW137658   0.608   4.381   6.148  0.1421  1.4979  1.6637
 8675SOL    HW237659   0.513   4.466   6.213  1.8742  1.1917 -0.4630
 8676SOL     OW37660   1.776   1.219  16.516  0.0197 -0.2036 -0.6808
 8676SOL    HW137661   1.747   1.206  16.426  0.8983  0.1599 -1.0128
 8676SOL    HW237662   1.690   1.207  16.556 -0.2824  3.8197 -0.1663
 8677SOL     OW37663   0.359   2.283  12.494  0.6762 -0.3830  0.6873
 8677SOL    HW137664   0.428   2.246  12.549  0.0103  0.6112  2.2212
 8677SOL    HW237665   0.283   2.280  12.553 -1.7601  1.4851 -2.3660
 8678SOL     OW37666   2.888   4.363  10.866 -0.3071 -0.1711 -0.3390
 8678SOL    HW137667   2.939   4.442  10.886 -1.4262  0.2183  1.0327
 8678SOL    HW237668   2.916   4.296  10.928 -0.4363 -0.5953 -0.7460
 8679SOL     OW37669   1.190   3.927   1.972 -0.7419  0.6699 -0.1651
 8679SOL    HW137670   1.173   4.001   1.913  0.7451  0.8341 -0.3982
 8679SOL    HW237671   1.112   3.939   2.025  0.0051  1.8589  0.6685
 8680SOL     OW37672   1.295   4.044   6.554  0.4321 -0.0160 -0.3906
 8680SOL    HW137673   1.310   4.029   6.647 -0.4259 -1.9058 -0.5660
 8680SOL    HW237674   1.380   4.015   6.522  0.4291  0.6395 -1.0115
 8681SOL     OW37675   0.473   0.331  17.006 -0.7598  0.5094  0.6906
 8681SOL    HW137676   0.521   0.301  17.084 -0.9531  1.5619  1.2146
 8681SOL    HW237677   0.435   0.253  16.966 -3.3651  2.1329 -0.0192
 8682SOL     OW37678   0.216   0.209   5.130 -0.1700 -0.5333  0.0692
 8682SOL    HW137679   0.188   0.166   5.211  1.7793  3.1910  2.7091
 8682SOL    HW237680   0.138   0.246   5.089  1.0233  0.4104 -1.3447
 8683SOL     OW37681   3.095   0.588  17.093  0.5119  0.5985  0.3958
 8683SOL    HW137682   3.129   0.672  17.063  0.5946  0.7590  0.9347
 8683SOL    HW237683   3.038   0.616  17.165 -0.3696 -0.5764  0.1676
 8684SOL     OW37684   1.011   0.665   7.532 -0.0493 -0.7308 -0.1161
 8684SOL    HW137685   1.028   0.759   7.526 -3.1427 -0.2308 -0.7398
 8684SOL    HW237686   0.985   0.663   7.625 -0.1822 -0.1724 -0.1454
 8685SOL     OW37687   2.063   0.505   5.917 -0.3429 -0.6385  0.1587
 8685SOL    HW137688   2.049   0.552   5.999  1.4117 -0.6537  0.4841
 8685SOL    HW237689   2.159   0.499   5.912 -0.1149  0.8633  2.9572
 8686SOL     OW37690   0.152   0.282   6.143  0.2952 -0.6959  0.0955
 8686SOL    HW137691   0.237   0.243   6.162 -0.2101 -2.1209 -0.6046
 8686SOL    HW237692   0.175   0.370   6.173  2.3483 -0.9144 -0.8519
 8687SOL     OW37693   1.546   1.318   3.616  0.1339 -0.2884  0.3562
 8687SOL    HW137694   1.541   1.238   3.563  0.9011  0.2288 -0.4929
 8687SOL    HW237695   1.464   1.366   3.600  0.8526  1.5780  2.3737
 8688SOL     OW37696   1.895   1.422   9.508  0.6596  0.6966  0.1532
 8688SOL    HW137697   1.971   1.422   9.567  1.9679  0.7187 -1.5343
 8688SOL    HW237698   1.897   1.513   9.478  0.9124 -0.1034 -2.2409
 8689SOL     OW37699   3.559   1.295   5.634 -0.1046 -0.0736  0.7060
 8689SOL    HW137700   3.519   1.257   5.712  2.3337 -1.9005  1.0639
 8689SOL    HW237701   3.651   1.278   5.655 -0.0639 -2.4610 -1.3757
 8690SOL     OW37702   3.654   0.215   5.837  0.2937 -0.2112  0.3581
 8690SOL    HW137703   3.567   0.218   5.875 -0.0206 -1.5098 -0.2809
 8690SOL    HW237704   3.655   0.140   5.778 -1.5213  0.6141 -0.7081
 8691SOL     OW37705   4.267   3.840   9.856 -0.4549 -0.0840  0.3004
 8691SOL    HW137706   4.196   3.888   9.813 -2.7492 -1.1747  2.8720
 8691SOL    HW237707   4.268   3.898   9.932 -2.5547  0.8378 -0.3656
 8692SOL     OW37708   2.237   3.548   3.691  0.0878  0.2561  0.2819
 8692SOL    HW137709   2.197   3.633   3.672 -0.8664 -0.1665  0.4234
 8692SOL    HW237710   2.182   3.495   3.633  1.2727 -1.9810  1.1745
 8693SOL     OW37711   0.126   2.988   6.823 -0.4565  0.3092  0.4855
 8693SOL    HW137712   0.053   2.942   6.863  0.6185 -1.8870 -0.0594
 8693SOL    HW237713   0.087   3.068   6.786 -0.3071  0.1212 -0.0745
 8694SOL     OW37714   4.132   4.244  17.604  0.2747  0.2168 -0.7708
 8694SOL    HW137715   4.069   4.309  17.636 -0.4344 -0.6799 -0.3554
 8694SOL    HW237716   4.114   4.236  17.510 -0.8736  3.1971 -0.8043
 8695SOL     OW37717   1.509   3.462   1.586  0.4688  0.3355  0.0213
 8695SOL    HW137718   1.422   3.423   1.577  0.6869 -0.1065 -0.1628
 8695SOL    HW237719   1.494   3.483   1.678 -3.2093 -0.1963 -0.4396
 8696SOL     OW37720   0.103   3.887   3.434  0.6126 -0.9162 -0.0466
 8696SOL    HW137721   0.150   3.946   3.492  0.8041 -0.9639 -0.1547
 8696SOL    HW237722   0.170   3.877   3.367 -1.2148  1.0023 -2.1612
 8697SOL     OW37723   3.513   0.055   3.788 -0.1255  0.1807  0.4356
 8697SOL    HW137724   3.565   0.133   3.767  3.7297 -2.8755 -1.4330
 8697SOL    HW237725   3.436   0.070   3.732 -0.2603  0.2086  0.6294
 8698SOL     OW37726   1.344   0.736   5.887  0.6067 -0.0741  0.4949
 8698SOL    HW137727   1.259   0.780   5.883  1.9508  2.5267  0.9601
 8698SOL    HW237728   1.338   0.653   5.839  2.8399  1.2040 -1.9958
 8699SOL     OW37729   1.409   1.410   4.832 -0.1689 -0.2598 -0.3101
 8699SOL    HW137730   1.343   1.343   4.849  0.7368 -0.4951  2.3711
 8699SOL    HW237731   1.375   1.493   4.865 -0.1561 -0.4861  0.2777
 8700SOL     OW37732   0.684   0.633   8.232  0.0269  0.1728 -0.4541
 8700SOL    HW137733   0.773   0.646   8.201 -0.0403 -0.0679 -0.7499
 8700SOL    HW237734   0.713   0.563   8.290  0.1279  0.7421  0.1796
 8701SOL     OW37735   2.795   2.444  11.442  0.0708  0.2617  0.8374
 8701SOL    HW137736   2.753   2.464  11.525 -1.8648  3.1524 -0.8221
 8701SOL    HW237737   2.748   2.510  11.389 -0.7475 -0.6090  0.4879
 8702SOL     OW37738   0.130   0.211  17.039  0.0384 -0.0732 -0.0968
 8702SOL    HW137739   0.035   0.209  17.027  0.2045 -0.5325 -1.3147
 8702SOL    HW237740   0.148   0.198  17.132  0.1984  0.6296 -0.0307
 8703SOL     OW37741   3.749   2.398   9.762  0.0280  0.4320 -0.4187
 8703SOL    HW137742   3.692   2.364   9.831 -0.4755  1.3548 -0.3767
 8703SOL    HW237743   3.704   2.375   9.681  1.1703 -1.1401 -0.6269
 8704SOL     OW37744   0.944   2.270   3.442 -0.0010  0.0007  0.5003
 8704SOL    HW137745   0.992   2.223   3.373 -1.4673 -1.1625  0.2649
 8704SOL    HW237746   0.853   2.262   3.411 -0.4389  0.2327  1.7272
 8705SOL     OW37747   3.094   4.667   4.855  1.0446  0.0901  0.0740
 8705SOL    HW137748   3.028   4.624   4.909  0.5282 -2.1161 -2.3064
 8705SOL    HW237749   3.056   0.013   4.839  0.3283 -0.0659  0.9639
 8706SOL     OW37750   4.196   4.144   9.058  0.4786 -0.5197  0.0404
 8706SOL    HW137751   4.246   4.095   9.123 -1.0661 -2.8611 -0.5478
 8706SOL    HW237752   4.199   4.234   9.091 -0.7747 -0.3361 -0.3191
 8707SOL     OW37753   0.051   0.314   7.690 -0.6811 -0.5377  0.5512
 8707SOL    HW137754   0.045   0.310   7.786  2.4445 -0.1378  0.7461
 8707SOL    HW237755   0.139   0.300   7.656 -1.6815 -0.6055 -1.9885
 8708SOL     OW37756   0.660   2.090   8.756  0.4214  0.3145  0.0716
 8708SOL    HW137757   0.739   2.039   8.742 -0.6644 -1.4180  0.2725
 8708SOL    HW237758   0.642   2.125   8.669  0.3770 -2.7233 -1.1178
 8709SOL     OW37759   4.431   4.600   7.857 -0.3684 -0.1930  0.1788
 8709SOL    HW137760   4.351   4.593   7.805  0.9802  0.3367 -2.0112
 8709SOL    HW237761   4.413   4.674   7.914 -1.6757 -0.1204 -0.3356
 8710SOL     OW37762   1.701   1.409   3.032 -0.4239  0.2874  0.1299
 8710SOL    HW137763   1.686   1.472   3.102  1.3133 -1.4705  2.0833
 8710SOL    HW237764   1.612   1.380   3.015  0.0457 -1.6905  1.0369
 8711SOL     OW37765   1.714   3.201   0.893 -0.1742  0.0144  0.0706
 8711SOL    HW137766   1.741   3.256   0.819  0.1784 -0.1527  0.0737
 8711SOL    HW237767   1.701   3.117   0.849  0.0869  0.5600 -1.0394
 8712SOL     OW37768   3.083   1.270   2.594 -0.0274 -0.1455 -0.5125
 8712SOL    HW137769   3.108   1.362   2.600  0.3777 -0.2529 -0.4992
 8712SOL    HW237770   3.168   1.226   2.604 -0.9633 -1.6863  0.6165
 8713SOL     OW37771   3.652   1.222  15.432  0.7957  0.2766 -0.0759
 8713SOL    HW137772   3.568   1.246  15.393  0.8253  1.0194  0.3149
 8713SOL    HW237773   3.697   1.288  15.379  2.2783 -0.5774  0.1189
 8714SOL     OW37774   0.450   1.932   8.869 -0.0199 -0.2450  0.1979
 8714SOL    HW137775   0.490   1.855   8.910  0.8296  0.0502 -0.0705
 8714SOL    HW237776   0.523   1.988   8.841  1.0829 -0.2799  3.0582
 8715SOL     OW37777   3.700   2.453   8.033  0.5666 -0.2394  0.1644
 8715SOL    HW137778   3.658   2.379   8.078 -3.0732  0.4852 -2.0463
 8715SOL    HW237779   3.673   2.527   8.087  0.8293  1.5972 -2.2197
 8716SOL     OW37780   2.282   3.385   5.703 -0.5924  0.5552 -0.0710
 8716SOL    HW137781   2.255   3.448   5.769 -0.5180  0.4150  0.0929
 8716SOL    HW237782   2.256   3.437   5.627 -0.1695  0.9676  0.0726
 8717SOL     OW37783   2.834   3.741   7.567  0.3347 -0.4059 -0.1825
 8717SOL    HW137784   2.820   3.830   7.535 -0.3829 -0.8576 -1.1130
 8717SOL    HW237785   2.752   3.695   7.548  0.1627 -0.0407 -0.3242
 8718SOL     OW37786   4.522   2.764  15.544  0.1560  0.0457 -0.3826
 8718SOL    HW137787   4.607   2.733  15.512 -1.0114 -1.0031 -2.4315
 8718SOL    HW237788   4.534   2.852  15.581 -0.3619 -0.4881  1.0694
 8719SOL     OW37789   2.725   2.352   4.771 -0.0220  0.2436  0.0522
 8719SOL    HW137790   2.812   2.363   4.732  0.1909 -0.0692  0.4463
 8719SOL    HW237791   2.674   2.303   4.706 -0.3370  0.9007 -0.2040
 8720SOL     OW37792   1.664   0.968  15.729 -0.0416  0.3674  0.1377
 8720SOL    HW137793   1.740   0.929  15.686 -0.3903  0.8767 -0.9742
 8720SOL    HW237794   1.676   1.057  15.696  1.3050  0.0503 -0.2283
 8721SOL     OW37795   1.923   2.223  10.337 -0.1052 -0.2917  0.2525
 8721SOL    HW137796   1.863   2.152  10.358 -1.9996  1.4132  0.6852
 8721SOL    HW237797   1.934   2.259  10.425 -0.5175 -1.7402  0.8922
 8722SOL     OW37798   4.130   3.068   7.571  0.1004 -0.1106  0.7454
 8722SOL    HW137799   4.092   3.129   7.634  1.8361 -0.3078  1.9782
 8722SOL    HW237800   4.064   2.999   7.564 -1.6508  1.6375 -0.2193
 8723SOL     OW37801   2.914   2.568  16.764  0.0794  0.1395  0.5283
 8723SOL    HW137802   2.832   2.598  16.803 -0.2594 -0.2931  0.1393
 8723SOL    HW237803   2.982   2.573  16.832  0.3721 -0.0561  0.2502
 8724SOL     OW37804   0.393   3.839   4.805 -0.5607 -0.6585  0.1083
 8724SOL    HW137805   0.420   3.905   4.869 -0.9868 -0.5535  0.1813
 8724SOL    HW237806   0.315   3.883   4.771 -0.6455  1.1234  2.6401
 8725SOL     OW37807   3.548   0.445  12.584  0.5803  0.5312 -0.0727
 8725SOL    HW137808   3.592   0.360  12.593  1.6764  0.9253 -1.8327
 8725SOL    HW237809   3.627   0.495  12.603  1.3049 -0.6415 -0.0263
 8726SOL     OW37810   0.335   3.479  17.681  0.2293  0.2074 -0.6701
 8726SOL    HW137811   0.333   3.384  17.693  0.4732  0.5481  1.9787
 8726SOL    HW237812   0.242   3.500  17.680 -0.2325 -1.8235 -0.4655
 8727SOL     OW37813   0.947   1.039   1.462 -0.0358 -0.5917  0.3498
 8727SOL    HW137814   0.991   1.019   1.545  2.4755 -2.3936 -1.4143
 8727SOL    HW237815   0.916   1.129   1.471 -1.3413 -1.0121  0.0062
 8728SOL     OW37816   0.022   0.530   6.660 -0.2610  0.3665 -0.3556
 8728SOL    HW137817   0.027   0.576   6.577  1.1426  0.7613 -0.0500
 8728SOL    HW237818   0.023   0.438   6.632  1.9272  0.5311 -0.8220
 8729SOL     OW37819   0.818   1.199   4.178 -0.1407 -0.1448 -0.2923
 8729SOL    HW137820   0.740   1.253   4.166  1.0560  1.7156  0.3283
 8729SOL    HW237821   0.801   1.154   4.260  0.1843  1.7812  0.8329
 8730SOL     OW37822   1.419   0.305   7.212 -0.8348  0.3529  0.6238
 8730SOL    HW137823   1.407   0.313   7.307  1.4020  1.0599  0.8413
 8730SOL    HW237824   1.510   0.277   7.204 -0.5252  1.1800  1.2190
 8731SOL     OW37825   1.107   2.522   6.593 -0.4593 -0.4496  0.5971
 8731SOL    HW137826   1.024   2.478   6.608 -1.4028  0.7278 -1.2104
 8731SOL    HW237827   1.152   2.529   6.678 -1.0802 -0.8951  0.9612
 8732SOL     OW37828   3.783   2.164  17.654  0.4992 -0.6102 -0.1856
 8732SOL    HW137829   3.774   2.179  17.560 -1.0027 -2.5306 -0.3351
 8732SOL    HW237830   3.713   2.215  17.693  0.9864 -0.2084  0.1731
 8733SOL     OW37831   0.744   3.593   3.582  0.5356 -0.1196 -0.2031
 8733SOL    HW137832   0.674   3.562   3.639 -0.6119 -0.5171 -1.8455
 8733SOL    HW237833   0.771   3.515   3.533  0.9535 -0.8884  1.2224
 8734SOL     OW37834   0.182   1.528   3.347  0.3152  0.8241 -0.1645
 8734SOL    HW137835   0.153   1.445   3.384 -0.8609  1.5561  0.5691
 8734SOL    HW237836   0.160   1.589   3.418  1.7383  1.3775 -0.2035
 8735SOL     OW37837   0.483   2.073   6.261  0.7072 -0.2106 -0.2104
 8735SOL    HW137838   0.571   2.108   6.269 -0.1712  1.8340  0.6312
 8735SOL    HW237839   0.463   2.132   6.188 -1.9410 -0.7415  0.0824
 8736SOL     OW37840   4.651   1.568   7.287 -0.1104  0.1243  0.0856
 8736SOL    HW137841   4.676   1.652   7.326  0.3089 -0.1281  0.3667
 8736SOL    HW237842   4.560   1.582   7.264  0.0521  3.0573  1.1705
 8737SOL     OW37843   2.437   1.887   6.644  0.0221  0.4516 -0.2053
 8737SOL    HW137844   2.382   1.810   6.637  2.1385 -0.9595 -1.3567
 8737SOL    HW237845   2.527   1.854   6.656  0.3388  1.1721 -0.5936
 8738SOL     OW37846   2.315   1.424  16.759 -0.1155 -0.4794 -0.2594
 8738SOL    HW137847   2.232   1.469  16.776 -0.3151 -1.1797  0.6375
 8738SOL    HW237848   2.338   1.475  16.681 -2.8847 -0.5829 -1.1332
 8739SOL     OW37849   4.104   2.433   3.686 -0.4340  0.2217 -0.4260
 8739SOL    HW137850   4.098   2.423   3.591 -0.4673 -0.7118 -0.3311
 8739SOL    HW237851   4.192   2.395   3.697 -0.4378 -0.2183 -1.9829
 8740SOL     OW37852   3.893   4.447   1.302  0.3157 -1.1755 -0.2753
 8740SOL    HW137853   3.857   4.535   1.292  0.2724 -1.0078  1.2987
 8740SOL    HW237854   3.929   4.438   1.214 -1.8973 -1.8108 -1.1078
 8741SOL     OW37855   1.392   3.434   1.863  0.1680  0.2491 -0.3850
 8741SOL    HW137856   1.351   3.428   1.949 -0.5655  1.2914 -0.6741
 8741SOL    HW237857   1.352   3.515   1.831 -1.5795 -0.8911 -1.0946
 8742SOL     OW37858   1.295   2.375  11.808 -0.2666 -0.4599 -0.2556
 8742SOL    HW137859   1.354   2.299  11.798 -0.6906 -1.1234  2.1624
 8742SOL    HW237860   1.239   2.345  11.737 -1.7741 -2.0162  1.5694
 8743SOL     OW37861   3.804   1.613  10.265  0.4291  0.0973 -0.0716
 8743SOL    HW137862   3.789   1.519  10.276 -0.1486  0.2261  0.2335
 8743SOL    HW237863   3.875   1.611  10.329 -1.0981  0.4816  1.6364
 8744SOL     OW37864   1.211   1.514  16.501  0.4172 -0.2605  0.2646
 8744SOL    HW137865   1.141   1.574  16.525 -0.9462 -1.5226 -0.6018
 8744SOL    HW237866   1.269   1.569  16.448  1.4134 -1.6288 -0.0798
 8745SOL     OW37867   1.269   0.103   9.708  0.0153 -0.1665  0.4929
 8745SOL    HW137868   1.188   0.063   9.677 -0.5088  0.5837  0.8998
 8745SOL    HW237869   1.252   0.197   9.706  1.3923  0.0613 -0.3419
 8746SOL     OW37870   3.330   4.661  13.314  0.0027  0.3962  0.2818
 8746SOL    HW137871   3.344   4.600  13.386 -0.4988  0.2233  0.2373
 8746SOL    HW237872   3.251   4.628  13.270  1.3380 -1.0296 -1.0482
 8747SOL     OW37873   0.585   4.404   3.161 -0.3536  0.2053 -0.2117
 8747SOL    HW137874   0.536   4.443   3.088 -0.0727  1.5178  0.3002
 8747SOL    HW237875   0.672   4.409   3.122  0.0710  0.9134  0.8469
 8748SOL     OW37876   1.153   2.328  14.055  0.0395  0.0138 -0.1325
 8748SOL    HW137877   1.205   2.264  14.104  1.1511  0.1007 -1.1853
 8748SOL    HW237878   1.092   2.273  14.006  1.2040  0.6501 -2.2987
 8749SOL     OW37879   0.560   4.038   3.259  0.0542  0.2496  0.0841
 8749SOL    HW137880   0.638   4.065   3.308 -1.0533  0.6333  1.6714
 8749SOL    HW237881   0.598   4.017   3.174  0.7890  0.6387  0.3207
 8750SOL     OW37882   3.197   1.329  11.053  0.3105 -0.6535  0.1896
 8750SOL    HW137883   3.282   1.315  11.094 -0.6751 -1.1807  2.0875
 8750SOL    HW237884   3.191   1.255  10.993 -1.0027  0.3171 -0.8717
 8751SOL     OW37885   2.875   3.293   6.351 -0.0270  0.1583  0.4786
 8751SOL    HW137886   2.799   3.236   6.338  1.7564 -2.3031  0.8002
 8751SOL    HW237887   2.953   3.238   6.351 -0.2881 -0.2005  1.5617
 8752SOL     OW37888   4.419   0.239   7.793 -0.6168 -0.1530  0.6377
 8752SOL    HW137889   4.328   0.213   7.780 -0.9190  1.3620 -0.3694
 8752SOL    HW237890   4.421   0.319   7.739 -0.3734  0.2077  1.1750
 8753SOL     OW37891   3.512   4.581   1.848 -0.0959 -0.1445 -0.2362
 8753SOL    HW137892   3.442   4.528   1.811 -2.8520  1.5148  2.5757
 8753SOL    HW237893   3.462   4.628   1.914  1.3380  3.7076 -1.9193
 8754SOL     OW37894   4.175   2.552   2.501 -0.5751  0.4618 -0.4292
 8754SOL    HW137895   4.181   2.479   2.562 -0.3382 -1.1265 -2.3634
 8754SOL    HW237896   4.181   2.624   2.565  0.8999 -0.6906  0.7246
 8755SOL     OW37897   3.629   3.725   7.194 -0.0646 -0.0054 -0.6391
 8755SOL    HW137898   3.721   3.751   7.189  0.2472 -1.2835 -1.5435
 8755SOL    HW237899   3.580   3.801   7.162  0.6632  1.0935  0.8370
 8756SOL     OW37900   2.950   2.883  10.788 -0.8288  0.2887 -0.1021
 8756SOL    HW137901   2.956   2.788  10.798 -0.6893  0.1541 -1.4307
 8756SOL    HW237902   2.857   2.897  10.804 -0.8069 -0.2345  0.5098
 8757SOL     OW37903   4.003   2.136  11.312  0.0397 -0.1506  0.4592
 8757SOL    HW137904   4.053   2.194  11.370 -0.3325  0.6681 -0.0410
 8757SOL    HW237905   4.036   2.171  11.229 -0.2723 -1.9770 -0.4328
 8758SOL     OW37906   1.146   3.370   9.343 -0.4553 -0.1606  0.4934
 8758SOL    HW137907   1.181   3.450   9.381 -1.7363 -0.3342  2.0561
 8758SOL    HW237908   1.053   3.366   9.368 -0.7286  1.9327 -0.2662
 8759SOL     OW37909   4.646   1.751  15.054  0.1264 -0.0105  0.0987
 8759SOL    HW137910   4.701   1.810  15.003  1.0239 -0.6399  0.3501
 8759SOL    HW237911   4.653   1.678  14.992  0.0561 -1.2052  1.5098
 8760SOL     OW37912   2.545   3.432   1.632  0.0693 -0.3170  0.0419
 8760SOL    HW137913   2.591   3.360   1.590  2.8665  3.3096 -3.0796
 8760SOL    HW237914   2.513   3.391   1.713  0.6273 -1.0616 -0.1230
 8761SOL     OW37915   0.368   0.550   4.574 -0.3551  0.1785 -0.3456
 8761SOL    HW137916   0.335   0.536   4.663  1.2154 -0.0888  0.1843
 8761SOL    HW237917   0.327   0.636   4.565 -1.3283  0.0048  2.2954
 8762SOL     OW37918   3.069   2.292   3.171 -0.1475 -0.9199 -0.5387
 8762SOL    HW137919   3.011   2.312   3.098 -1.1259 -0.2161  0.4242
 8762SOL    HW237920   3.010   2.267   3.242  0.5091  2.5147  1.1985
 8763SOL     OW37921   4.392   0.299   4.111  0.2037  0.2155 -0.1849
 8763SOL    HW137922   4.388   0.252   4.028 -1.4251 -1.8131  1.0551
 8763SOL    HW237923   4.386   0.226   4.171  0.9922 -0.0226 -0.3918
 8764SOL     OW37924   4.577   2.767   1.456 -0.2064  0.3854 -0.4191
 8764SOL    HW137925   4.512   2.837   1.469 -0.2455  0.4488 -0.9526
 8764SOL    HW237926   4.534   2.699   1.404 -0.8154 -0.2639  0.9267
 8765SOL     OW37927   3.562   0.572   5.891  0.4643 -0.0913 -0.1378
 8765SOL    HW137928   3.504   0.561   5.816  0.6807 -0.2842 -0.2756
 8765SOL    HW237929   3.599   0.658   5.870 -0.6219  0.8643  1.8549
 8766SOL     OW37930   1.595   1.347   9.626 -0.1831 -0.7687 -0.2854
 8766SOL    HW137931   1.675   1.397   9.608 -0.9953  0.3608 -0.7634
 8766SOL    HW237932   1.543   1.381   9.553 -0.8267  0.1838  0.6167
 8767SOL     OW37933   0.351   0.872  17.513 -0.7269 -0.4179 -0.4146
 8767SOL    HW137934   0.296   0.934  17.465  0.3465  1.8881  1.3011
 8767SOL    HW237935   0.395   0.929  17.577  0.2625 -3.0787  1.2488
 8768SOL     OW37936   0.928   1.483   3.608 -0.0885  0.2516 -0.1112
 8768SOL    HW137937   0.944   1.392   3.584  0.8483  0.7192 -1.2658
 8768SOL    HW237938   0.969   1.517   3.529 -0.0933  0.0398 -0.2050
 8769SOL     OW37939   2.683   3.691   4.515 -0.7116 -1.0280 -0.2705
 8769SOL    HW137940   2.774   3.663   4.523  0.1842  1.4745 -1.6794
 8769SOL    HW237941   2.651   3.657   4.599  2.4306  1.1432  1.8192
 8770SOL     OW37942   2.319   2.621  13.492 -0.1257 -0.8661 -0.0470
 8770SOL    HW137943   2.271   2.651  13.569  1.1547 -0.9009  0.7621
 8770SOL    HW237944   2.254   2.555  13.466  0.3740 -1.6869  0.7919
 8771SOL     OW37945   0.050   3.059   9.138 -0.2424 -0.6990  0.5822
 8771SOL    HW137946   4.712   3.055   9.083 -0.4344  0.7587  0.7410
 8771SOL    HW237947   0.105   3.128   9.101 -0.0045 -0.9484  0.4740
 8772SOL     OW37948   2.038   4.433   5.221 -0.5377 -0.0238  0.4541
 8772SOL    HW137949   2.008   4.474   5.303  1.2008 -0.3760  1.2737
 8772SOL    HW237950   2.015   4.489   5.148  2.0266  0.7781  0.2805
 8773SOL     OW37951   4.731   0.512   1.669  0.2740 -0.0865 -0.0357
 8773SOL    HW137952   0.067   0.470   1.708  1.1015  3.6185  2.2690
 8773SOL    HW237953   4.662   0.499   1.733 -0.1453 -1.5977 -0.7921
 8774SOL     OW37954   2.262   3.938   1.435 -0.0302 -0.0802 -0.1926
 8774SOL    HW137955   2.338   3.937   1.492  2.4727 -0.4767 -3.5663
 8774SOL    HW237956   2.294   3.915   1.348 -0.5685 -1.0590 -0.1345
 8775SOL     OW37957   0.289   3.597   8.707  0.2367 -0.2740  0.6410
 8775SOL    HW137958   0.298   3.538   8.781  1.6542 -1.9845 -0.8861
 8775SOL    HW237959   0.334   3.541   8.643 -1.8762 -2.7916  1.3391
 8776SOL     OW37960   1.361   2.569   7.073  0.0881  0.0874  0.5707
 8776SOL    HW137961   1.421   2.543   7.143  2.2372  1.2792 -0.8163
 8776SOL    HW237962   1.412   2.648   7.055  1.0374 -1.0550 -1.6973
 8777SOL     OW37963   3.521   2.162   5.538  0.1076  0.1057 -0.4508
 8777SOL    HW137964   3.549   2.217   5.464  1.4323 -0.1704 -0.1514
 8777SOL    HW237965   3.479   2.092   5.488 -1.6294 -0.1522  1.3721
 8778SOL     OW37966   1.254   3.903  14.523 -0.2182  0.0622 -0.2016
 8778SOL    HW137967   1.196   3.979  14.517  0.3929  0.4702 -0.9657
 8778SOL    HW237968   1.331   3.941  14.480  0.6888 -1.2314  0.2766
 8779SOL     OW37969   1.386   1.277   8.475 -0.1296 -0.5465 -0.1590
 8779SOL    HW137970   1.453   1.220   8.438 -0.9626  0.0345 -2.5484
 8779SOL    HW237971   1.429   1.363   8.478  0.4757 -0.8921  1.0722
 8780SOL     OW37972   3.189   3.757  14.552  0.0353 -0.0932 -0.0071
 8780SOL    HW137973   3.223   3.749  14.463  1.2615  0.1523  0.4387
 8780SOL    HW237974   3.228   3.842  14.573  1.5827 -0.7709 -0.1481
 8781SOL     OW37975   4.010   3.444  10.610  0.4953 -0.5464  0.0191
 8781SOL    HW137976   3.943   3.411  10.671  1.6966 -1.8952  0.6086
 8781SOL    HW237977   4.008   3.539  10.619  1.2752 -0.3200 -2.1917
 8782SOL     OW37978   0.038   1.941   8.793 -0.4349  0.2305  0.3415
 8782SOL    HW137979   4.721   1.906   8.725  2.3278 -0.5975 -1.5832
 8782SOL    HW237980   0.029   2.036   8.795 -1.0333  0.2238 -2.7197
 8783SOL     OW37981   0.712   2.269  17.440 -0.2434  0.1118 -0.4640
 8783SOL    HW137982   0.777   2.319  17.391 -1.0365 -1.0491 -2.6993
 8783SOL    HW237983   0.640   2.259  17.378 -1.3430  2.3615  0.4817
 8784SOL     OW37984   1.171   3.026   5.032 -0.4493  0.1991  0.4136
 8784SOL    HW137985   1.206   2.992   5.114  1.1808 -0.0836 -0.3842
 8784SOL    HW237986   1.254   3.024   4.983  0.8380  1.4361  2.5258
 8785SOL     OW37987   3.970   2.863  10.350 -0.3901  0.3006 -0.0046
 8785SOL    HW137988   3.893   2.837  10.300  1.1184 -1.3548 -1.4283
 8785SOL    HW237989   3.997   2.783  10.396  0.7362  0.1529 -0.9266
 8786SOL     OW37990   0.008   2.717   4.273 -0.4234 -0.2853  0.3237
 8786SOL    HW137991   0.069   2.653   4.309  0.1456 -0.7237 -1.4346
 8786SOL    HW237992   4.714   2.763   4.350 -0.0989 -1.5924  1.2577
 8787SOL     OW37993   2.854   2.610   6.807 -0.5825  0.0528 -0.1246
 8787SOL    HW137994   2.895   2.654   6.882 -1.8036  0.5422  0.2536
 8787SOL    HW237995   2.767   2.651   6.805 -0.7562 -0.2266  1.4653
 8788SOL     OW37996   2.425   0.924   4.063 -0.2297  0.6504  0.1574
 8788SOL    HW137997   2.369   0.934   4.140 -1.6400 -3.5037 -0.3012
 8788SOL    HW237998   2.452   1.015   4.049 -1.3944  0.8908 -0.5655
 8789SOL     OW37999   0.788   4.724   2.140 -0.2904  0.3516 -0.5842
 8789SOL    HW138000   0.859   4.726   2.076  1.9706  0.4631  1.9280
 8789SOL    HW238001   0.790   4.634   2.173 -2.4087  0.2636 -0.6704
 8790SOL     OW38002   0.787   2.712  11.522  0.2436 -0.1081  0.0559
 8790SOL    HW138003   0.877   2.736  11.502 -0.2643  0.7747 -1.1353
 8790SOL    HW238004   0.742   2.736  11.441 -1.6897 -0.2466  1.0938
 8791SOL     OW38005   1.077   1.963   0.351 -0.1797  0.6881  0.1616
 8791SOL    HW138006   1.148   1.910   0.315 -1.5056 -0.4234 -0.8105
 8791SOL    HW238007   1.001   1.911   0.325 -0.4808  0.5083  1.4350
 8792SOL     OW38008   2.217   4.033   8.698  0.4152 -0.1296  0.3047
 8792SOL    HW138009   2.276   3.960   8.684  0.5157  0.0679 -0.3397
 8792SOL    HW238010   2.248   4.076   8.777  0.1789  1.1190 -0.2792
 8793SOL     OW38011   3.649   3.393   5.867 -0.1156 -0.8403 -0.2460
 8793SOL    HW138012   3.653   3.346   5.784 -1.9355 -0.9922 -0.2528
 8793SOL    HW238013   3.725   3.448   5.847 -0.2870  0.5305  2.8958
 8794SOL     OW38014   1.839   1.576   8.553 -0.1027 -0.5043  0.0481
 8794SOL    HW138015   1.895   1.511   8.596  1.3525 -0.7348 -2.2041
 8794SOL    HW238016   1.851   1.552   8.461  0.1933  0.4128 -0.1481
 8795SOL     OW38017   2.620   4.475  15.080 -0.2442  0.0653 -0.1537
 8795SOL    HW138018   2.642   4.561  15.114 -2.0930  0.0355  1.0746
 8795SOL    HW238019   2.606   4.430  15.163 -3.3079  1.0326 -0.1603
 8796SOL     OW38020   0.150   3.609   3.150  0.2898  0.9603 -0.7935
 8796SOL    HW138021   0.148   3.525   3.105  1.2439  0.1585  0.6490
 8796SOL    HW238022   0.142   3.581   3.242  2.2134 -0.2267 -0.9716
 8797SOL     OW38023   1.001   0.865   6.568 -0.6159 -0.1650 -0.0002
 8797SOL    HW138024   1.092   0.840   6.554 -0.4775  0.2109  0.2147
 8797SOL    HW238025   0.960   0.784   6.597 -0.5923 -0.8898 -2.0243
 8798SOL     OW38026   3.394   2.579   8.990 -0.1428 -0.2753  0.0600
 8798SOL    HW138027   3.351   2.595   9.074 -1.5122 -0.3159 -0.6372
 8798SOL    HW238028   3.327   2.531   8.942 -0.0168  0.3088 -0.7059
 8799SOL     OW38029   0.570   3.557   5.909 -1.2239 -0.8727 -0.0290
 8799SOL    HW138030   0.612   3.473   5.924  2.0509  0.5344 -1.4014
 8799SOL    HW238031   0.598   3.576   5.820 -1.7490  1.1398  0.2165
 8800SOL     OW38032   1.421   4.117  10.516 -0.3420  0.1179  0.3151
 8800SOL    HW138033   1.432   4.068  10.435  0.8665  1.3060 -0.2404
 8800SOL    HW238034   1.342   4.076  10.552 -0.7399 -0.9644 -1.7797
 8801SOL     OW38035   1.764   3.055   6.185  0.0948 -0.7317  0.3611
 8801SOL    HW138036   1.764   3.123   6.117  1.1219 -1.0556  0.0417
 8801SOL    HW238037   1.811   2.986   6.139  0.9045 -0.2727  0.5037
 8802SOL     OW38038   0.639   0.975   8.714 -0.4550  0.3296 -0.0559
 8802SOL    HW138039   0.731   1.002   8.713  0.2202 -1.9716  0.8042
 8802SOL    HW238040   0.650   0.936   8.627  0.7512 -0.8063  0.5969
 8803SOL     OW38041   0.091   1.831   2.836  0.1137 -0.6913 -0.0898
 8803SOL    HW138042   0.130   1.851   2.921 -1.3514  2.0946 -0.0723
 8803SOL    HW238043   0.159   1.775   2.798  1.3606 -0.8315  2.3340
 8804SOL     OW38044   2.816   1.903   3.955  0.3477 -0.3833  0.0151
 8804SOL    HW138045   2.856   1.817   3.940  1.0204 -0.5471  2.7384
 8804SOL    HW238046   2.900   1.936   3.988 -0.1627  1.2099 -0.2908
 8805SOL     OW38047   4.150   3.884   5.435  0.1846 -0.2071 -0.8140
 8805SOL    HW138048   4.203   3.925   5.366  2.0390  0.2088  0.8412
 8805SOL    HW238049   4.094   3.841   5.371 -0.4363  1.4010 -1.3421
 8806SOL     OW38050   2.907   1.657   4.974  0.0741 -0.4878  0.3391
 8806SOL    HW138051   2.850   1.582   4.988 -0.2997  0.1499  2.2889
 8806SOL    HW238052   2.862   1.734   5.008 -0.2037 -0.8640  0.8201
 8807SOL     OW38053   1.808   1.322   5.033  1.1140 -0.0726  0.6187
 8807SOL    HW138054   1.779   1.352   4.947 -1.1564 -1.0410  1.0391
 8807SOL    HW238055   1.902   1.307   5.022  1.0286  0.7584 -1.2453
 8808SOL     OW38056   2.112   2.122   3.922  0.0080 -0.0489  0.3170
 8808SOL    HW138057   2.172   2.075   3.981  0.6381  1.2133  0.6710
 8808SOL    HW238058   2.031   2.080   3.949  0.8656 -1.6846  0.4160
 8809SOL     OW38059   1.421   2.993   9.067 -0.6557 -0.0051 -0.0714
 8809SOL    HW138060   1.392   3.072   9.112 -1.6280 -0.7284  0.5766
 8809SOL    HW238061   1.508   2.993   9.107  0.0143  2.8881 -1.5848
 8810SOL     OW38062   1.005   1.289   1.981 -0.1194  0.1963  0.4417
 8810SOL    HW138063   0.960   1.362   2.024 -0.5908 -0.5149  1.1502
 8810SOL    HW238064   0.969   1.313   1.896  3.1081 -0.2703 -1.0514
 8811SOL     OW38065   0.681   2.678   3.745  0.3755 -0.0448  0.0919
 8811SOL    HW138066   0.661   2.693   3.653 -1.3751 -2.3730  0.1005
 8811SOL    HW238067   0.762   2.629   3.732  1.2789  0.3500  4.2826
 8812SOL     OW38068   4.162   4.443   1.896  0.8725  0.1317 -0.0387
 8812SOL    HW138069   4.067   4.434   1.889  0.6300  1.3900  1.7407
 8812SOL    HW238070   4.168   4.394   1.978 -1.8505  0.1400  0.1469
 8813SOL     OW38071   3.402   1.152   1.700  0.7233  0.7679  0.1679
 8813SOL    HW138072   3.397   1.169   1.606 -0.5128 -0.6071 -0.0104
 8813SOL    HW238073   3.401   1.240   1.738  0.7309  0.8895 -0.1124
 8814SOL     OW38074   0.108   0.963   7.573  0.0816  0.2688  0.0335
 8814SOL    HW138075   0.134   0.871   7.577 -0.2264  0.0734 -2.0629
 8814SOL    HW238076   0.134   0.985   7.483 -3.1857  2.0979 -0.4484
 8815SOL     OW38077   1.889   1.167   6.161  0.1919 -0.1054 -0.2678
 8815SOL    HW138078   1.812   1.133   6.114  0.8602 -2.5435  0.3974
 8815SOL    HW238079   1.859   1.258   6.167  1.3978  0.3048 -0.6194
 8816SOL     OW38080   4.389   3.968   8.496  0.4113  0.3219  0.1525
 8816SOL    HW138081   4.296   3.987   8.502  0.2848 -0.2630  0.0039
 8816SOL    HW238082   4.405   3.895   8.436  0.4570  0.5994 -0.1712
 8817SOL     OW38083   3.478   0.107   4.069 -0.4633  0.1553  0.0562
 8817SOL    HW138084   3.571   0.088   4.072 -0.3063  0.9840  0.5838
 8817SOL    HW238085   3.474   0.070   3.981  0.3450 -0.5216  0.3159
 8818SOL     OW38086   2.279   3.055  10.138 -0.2326  0.3504 -0.0131
 8818SOL    HW138087   2.251   3.089  10.224 -2.0101 -0.7184 -0.1660
 8818SOL    HW238088   2.217   3.100  10.081 -1.7771 -0.8690  0.7061
 8819SOL     OW38089   1.969   3.749   4.183 -0.7620  0.4173 -0.3699
 8819SOL    HW138090   1.984   3.837   4.149 -2.2075  0.2696 -1.4071
 8819SOL    HW238091   2.055   3.709   4.195  0.1419  2.8654  1.1020
 8820SOL     OW38092   1.895   1.470   8.281 -0.8546  0.2998  0.2301
 8820SOL    HW138093   1.957   1.486   8.209 -1.6845  0.1532 -0.5121
 8820SOL    HW238094   1.822   1.522   8.249  0.0054  1.0739 -0.4924
 8821SOL     OW38095   4.439   0.729   3.382  0.6841  0.1547  0.1426
 8821SOL    HW138096   4.524   0.770   3.367  1.0884  0.2353  2.5889
 8821SOL    HW238097   4.398   0.783   3.451  1.2946 -0.4391  0.9714
 8822SOL     OW38098   0.184   4.269   7.123  0.5209  0.2561  0.2071
 8822SOL    HW138099   0.177   4.312   7.208  0.1716  1.0967 -0.2518
 8822SOL    HW238100   0.101   4.224   7.110 -0.0268  1.4629 -0.3807
 8823SOL     OW38101   4.033   1.551  17.681  0.1208 -0.5599  0.1602
 8823SOL    HW138102   3.957   1.576  17.629  0.5008  1.1664  0.4371
 8823SOL    HW238103   4.095   1.535  17.610  1.5318 -0.0787  1.2708
 8824SOL     OW38104   3.844   3.715   2.283 -0.2386  0.0834 -0.4979
 8824SOL    HW138105   3.838   3.756   2.197  1.6666  0.6713 -0.3626
 8824SOL    HW238106   3.794   3.765   2.347  0.2979 -0.0141 -0.0020
 8825SOL     OW38107   2.072   2.529   5.976  0.6529 -0.0296 -0.3200
 8825SOL    HW138108   2.065   2.537   6.071  1.0330  0.3521 -0.3204
 8825SOL    HW238109   2.149   2.474   5.959  1.5620  1.1896 -0.1873
 8826SOL     OW38110   1.858   1.982   5.528 -0.2873 -0.0765 -0.6752
 8826SOL    HW138111   1.922   1.984   5.457  0.2400 -0.5596 -0.2103
 8826SOL    HW238112   1.772   1.973   5.486 -1.4445 -0.8582  1.8618
 8827SOL     OW38113   0.924   0.600   5.215 -0.0666 -0.1069  0.4692
 8827SOL    HW138114   0.938   0.539   5.142  0.6449  0.1092  0.4218
 8827SOL    HW238115   0.846   0.559   5.252 -1.6637  1.4376 -1.2050
 8828SOL     OW38116   0.395   3.995   9.228  0.3693 -0.2609 -0.3131
 8828SOL    HW138117   0.314   4.038   9.200  0.2938  1.0889  1.9459
 8828SOL    HW238118   0.418   3.933   9.159 -0.7492 -0.7888 -0.1969
 8829SOL     OW38119   0.722   0.185  11.246  0.2640  0.4687 -0.0991
 8829SOL    HW138120   0.795   0.245  11.236 -0.0541  0.6750 -1.0983
 8829SOL    HW238121   0.665   0.209  11.173  0.8674  0.8776 -0.4231
 8830SOL     OW38122   0.773   1.920   5.529  0.5861  0.8510 -0.8671
 8830SOL    HW138123   0.744   1.986   5.466 -0.8256 -0.7323 -1.9015
 8830SOL    HW238124   0.829   1.869   5.471  0.1922  2.4984 -2.7098
 8831SOL     OW38125   3.104   1.363   6.706 -0.3890  0.3799  0.2241
 8831SOL    HW138126   3.051   1.359   6.626 -0.4914  0.8281  0.2715
 8831SOL    HW238127   3.085   1.453   6.733  0.6218  0.7062 -0.1596
 8832SOL     OW38128   3.298   3.005  15.459  0.2195  0.3759  0.2190
 8832SOL    HW138129   3.350   3.081  15.434 -2.0985  2.5113  1.8664
 8832SOL    HW238130   3.226   3.030  15.402 -0.7399  0.3269  1.4019
 8833SOL     OW38131   3.903   0.603   7.496 -0.4389  0.2700 -0.1579
 8833SOL    HW138132   3.892   0.657   7.574  0.8890 -1.3979  1.1897
 8833SOL    HW238133   3.936   0.522   7.537 -3.4806 -0.6595  0.4730
 8834SOL     OW38134   3.871   4.555  13.852  0.0583 -0.2560 -0.4257
 8834SOL    HW138135   3.789   4.563  13.901 -1.0623 -1.1513 -2.1188
 8834SOL    HW238136   3.940   4.586  13.910  0.4823  1.1782 -1.7204
 8835SOL     OW38137   3.747   2.801   8.540 -0.5699  0.2133 -0.0566
 8835SOL    HW138138   3.754   2.877   8.598  0.4339  1.7241 -2.2000
 8835SOL    HW238139   3.801   2.738   8.588  1.7437  1.4241 -1.0952
 8836SOL     OW38140   4.430   0.817   6.836 -0.2751  0.0377 -0.6960
 8836SOL    HW138141   4.506   0.759   6.827  1.4044  2.1695 -0.1728
 8836SOL    HW238142   4.371   0.754   6.878 -0.5388  1.7027  1.4595
 8837SOL     OW38143   3.587   3.078  10.263 -0.3043  0.5008 -0.8018
 8837SOL    HW138144   3.560   3.143  10.328  0.4499 -2.0701  2.0941
 8837SOL    HW238145   3.682   3.092  10.262 -0.1552 -0.5811 -1.9645
 8838SOL     OW38146   0.454   4.423   6.826 -0.3410  0.4731  0.2620
 8838SOL    HW138147   0.520   4.384   6.883  0.3246 -1.2224 -1.6605
 8838SOL    HW238148   0.447   4.352   6.762  1.6940  0.6108 -0.0927
 8839SOL     OW38149   0.831   1.696   0.590 -0.0336 -0.1510  0.1221
 8839SOL    HW138150   0.878   1.628   0.542 -0.5395 -0.7539  0.4751
 8839SOL    HW238151   0.871   1.676   0.675 -0.7502  0.1865  0.5402
 8840SOL     OW38152   0.752   1.391   8.531 -0.4559  0.0642 -0.3844
 8840SOL    HW138153   0.775   1.325   8.465 -2.0515 -1.1083  0.2335
 8840SOL    HW238154   0.676   1.349   8.570 -0.0514  0.4767  0.8414
 8841SOL     OW38155   3.819   4.209  11.993  0.1951 -0.3703 -0.3017
 8841SOL    HW138156   3.819   4.113  11.997  0.1207 -0.3462  0.3404
 8841SOL    HW238157   3.861   4.239  12.074 -0.7896  0.3675 -0.0598
 8842SOL     OW38158   1.170   3.390   7.720  1.0731  0.0815  0.3621
 8842SOL    HW138159   1.263   3.375   7.702  0.8160 -0.1886 -0.7490
 8842SOL    HW238160   1.158   3.355   7.808  2.0801 -0.0478  0.4444
 8843SOL     OW38161   0.538   2.285   2.079 -0.4690 -0.3200  0.0362
 8843SOL    HW138162   0.550   2.335   2.160 -0.4324 -0.2531 -0.0115
 8843SOL    HW238163   0.578   2.200   2.101  1.1796 -0.3099 -2.9555
 8844SOL     OW38164   1.497   4.430   2.880  0.4707  0.1962  0.5531
 8844SOL    HW138165   1.550   4.447   2.958  0.8428 -1.1830  0.5987
 8844SOL    HW238166   1.561   4.455   2.813 -1.7318 -1.6965 -2.2525
 8845SOL     OW38167   0.595   0.203   2.219 -0.2614 -0.5168 -0.2610
 8845SOL    HW138168   0.682   0.164   2.212  1.0331  2.2948  0.3626
 8845SOL    HW238169   0.548   0.140   2.164  0.5398 -0.4383 -1.0297
 8846SOL     OW38170   4.214   1.712   8.909  0.3433  0.0946 -0.3677
 8846SOL    HW138171   4.308   1.694   8.914  0.6622  1.2084 -2.6712
 8846SOL    HW238172   4.188   1.691   8.820  0.4691  1.0543 -0.6311
 8847SOL     OW38173   0.436   2.765  12.607  0.1301 -0.1087  0.0336
 8847SOL    HW138174   0.495   2.826  12.564 -0.2412  0.3211  0.1240
 8847SOL    HW238175   0.396   2.723  12.531 -4.4877 -1.7281  3.3161
 8848SOL     OW38176   1.288   4.315   3.710  0.3324  0.2582  0.2467
 8848SOL    HW138177   1.247   4.257   3.774  1.2235 -1.4939 -0.7530
 8848SOL    HW238178   1.213   4.352   3.663  1.0885 -0.0625 -1.2377
 8849SOL     OW38179   1.760   0.828   5.906  0.2285 -0.0986  0.3716
 8849SOL    HW138180   1.775   0.735   5.890  0.8163  0.4113 -2.0557
 8849SOL    HW238181   1.740   0.829   6.000  0.1052 -2.2100  0.3767
 8850SOL     OW38182   4.386   0.219   3.850 -0.7328  0.8222  0.3959
 8850SOL    HW138183   4.309   0.222   3.793  1.0864 -0.4835 -2.1654
 8850SOL    HW238184   4.458   0.225   3.786  0.3095 -0.4083  1.4428
 8851SOL     OW38185   1.206   4.342   5.277 -0.1050  0.3748 -0.1929
 8851SOL    HW138186   1.243   4.262   5.239 -0.9674 -0.0336 -0.1756
 8851SOL    HW238187   1.265   4.413   5.251  0.4450  1.0754  3.0723
 8852SOL     OW38188   2.623   3.010   6.868 -0.7134  0.0369  0.0856
 8852SOL    HW138189   2.662   3.064   6.938 -0.9914 -0.3998  0.5792
 8852SOL    HW238190   2.575   3.066   6.807 -0.9412 -0.4034 -0.1381
 8853SOL     OW38191   4.735   0.694   9.257  0.0988  0.0015 -0.7031
 8853SOL    HW138192   0.016   0.603   9.240  0.4765  0.1635 -1.0788
 8853SOL    HW238193   0.038   0.744   9.189  0.8895  0.9862  0.5187
 8854SOL     OW38194   4.236   1.306   2.970 -0.3024  0.0928  0.3720
 8854SOL    HW138195   4.253   1.399   2.955 -0.3186  0.0617  0.1731
 8854SOL    HW238196   4.318   1.275   2.932 -0.0278  0.5422  0.5942
 8855SOL     OW38197   4.026   4.224  17.366  0.3620  0.5379  0.2504
 8855SOL    HW138198   3.962   4.157  17.389  0.1648  0.4350 -0.5795
 8855SOL    HW238199   4.021   4.229  17.270 -1.2171 -0.5955  0.2544
 8856SOL     OW38200   3.311   2.841   6.026  0.1275  0.1778 -0.1735
 8856SOL    HW138201   3.302   2.902   5.953  3.3675  0.8418 -0.0379
 8856SOL    HW238202   3.376   2.783   5.986  0.0713  0.1847 -0.2727
 8857SOL     OW38203   3.449   4.572   9.027  0.0260 -0.1911  0.3157
 8857SOL    HW138204   3.487   4.504   9.083  1.2999  0.6417  0.4551
 8857SOL    HW238205   3.371   4.527   8.994  0.0818  0.1343 -0.2504
 8858SOL     OW38206   1.091   3.574  11.842 -0.2542  0.2611 -0.0612
 8858SOL    HW138207   1.091   3.558  11.747  1.0419 -1.8219  0.2980
 8858SOL    HW238208   1.184   3.565  11.860  0.3644  2.2733 -2.1732
 8859SOL     OW38209   1.566   0.395  11.616 -0.0621 -0.4435  0.2321
 8859SOL    HW138210   1.651   0.427  11.646 -0.9510 -1.0612  3.3536
 8859SOL    HW238211   1.580   0.301  11.625  0.3437 -0.3521  0.5223
 8860SOL     OW38212   1.352   4.207   2.165 -0.2471  0.0871 -0.3009
 8860SOL    HW138213   1.443   4.183   2.181 -0.2573  0.6031  0.5706
 8860SOL    HW238214   1.343   4.277   2.230  0.9149 -0.1287  0.0962
 8861SOL     OW38215   3.736   3.333   1.528  0.1663  0.4709  0.4386
 8861SOL    HW138216   3.756   3.254   1.479 -1.1488  0.5696 -0.2648
 8861SOL    HW238217   3.653   3.359   1.487  0.4690 -0.1075 -0.5315
 8862SOL     OW38218   4.308   1.128   8.247  0.6855 -0.4100 -0.2970
 8862SOL    HW138219   4.242   1.069   8.211  0.6309 -1.3466  1.2971
 8862SOL    HW238220   4.361   1.144   8.169 -1.8865  0.5277 -1.8468
 8863SOL     OW38221   1.804   2.506   9.797 -0.4284  0.4702 -0.0365
 8863SOL    HW138222   1.743   2.531   9.866 -0.7686  3.1828 -1.3343
 8863SOL    HW238223   1.745   2.489   9.723  0.9669 -0.1264 -1.0120
 8864SOL     OW38224   0.190   4.591   4.239 -0.1710 -0.3951  0.2007
 8864SOL    HW138225   0.157   4.542   4.163  0.6937 -1.0462  0.2570
 8864SOL    HW238226   0.115   4.645   4.265  0.0957  0.1925 -0.2573
 8865SOL     OW38227   3.258   3.463   7.626  0.1944 -0.1297 -0.7263
 8865SOL    HW138228   3.267   3.379   7.671 -0.4303  0.0542 -0.2496
 8865SOL    HW238229   3.324   3.453   7.558 -0.8566  1.6356 -2.0120
 8866SOL     OW38230   3.135   3.442   2.798 -0.2149 -0.2202 -0.5629
 8866SOL    HW138231   3.117   3.519   2.852  2.6204 -0.3694  0.6266
 8866SOL    HW238232   3.056   3.390   2.810 -0.7610  0.4092 -1.4942
 8867SOL     OW38233   3.166   0.300   5.473 -0.1864 -0.2150 -0.3165
 8867SOL    HW138234   3.218   0.276   5.550 -2.3369 -0.6901  0.9728
 8867SOL    HW238235   3.097   0.236   5.488  0.3296 -0.4405  1.1160
 8868SOL     OW38236   1.099   0.040  13.041 -0.5419 -0.0173  0.1883
 8868SOL    HW138237   1.166   0.046  12.973 -1.8382 -0.2422 -1.1152
 8868SOL    HW238238   1.028   4.736  12.993 -0.3293  1.4500 -1.4763
 8869SOL     OW38239   1.537   1.000   0.767 -0.7690  0.2567 -0.1315
 8869SOL    HW138240   1.632   0.991   0.762 -0.8447 -0.9583  0.7858
 8869SOL    HW238241   1.508   0.909   0.768  3.2550 -0.9864  0.4359
 8870SOL     OW38242   4.026   2.293  16.099 -0.1145  0.1047 -0.4601
 8870SOL    HW138243   4.033   2.346  16.019 -1.1114  2.2954  0.8921
 8870SOL    HW238244   3.931   2.294  16.110 -0.2431 -0.6946 -1.5080
 8871SOL     OW38245   2.464   0.499   2.125 -0.3095 -0.2773  0.1290
 8871SOL    HW138246   2.522   0.538   2.059 -1.0488  1.5052  0.5436
 8871SOL    HW238247   2.471   0.407   2.098 -0.7191  0.1206 -1.3285
 8872SOL     OW38248   1.347   0.429  16.258  0.5144 -0.0022 -0.3864
 8872SOL    HW138249   1.278   0.374  16.295  0.3832  0.6751  0.3939
 8872SOL    HW238250   1.327   0.512  16.302 -1.7720 -1.4235  1.2630
 8873SOL     OW38251   3.679   1.837  17.629  0.1976  0.2258  0.3590
 8873SOL    HW138252   3.592   1.812  17.657 -0.2813  0.6762 -0.7322
 8873SOL    HW238253   3.687   1.931  17.648 -1.5975  0.2632  0.8502
 8874SOL     OW38254   2.574   3.239  16.421  0.3083 -0.1676 -0.8474
 8874SOL    HW138255   2.654   3.263  16.466 -1.0936  0.0201  1.5366
 8874SOL    HW238256   2.534   3.184  16.488  2.1224 -1.7551 -1.0849
 8875SOL     OW38257   4.248   0.645   6.627 -0.0944 -0.3667 -0.1056
 8875SOL    HW138258   4.234   0.740   6.629  1.7421 -0.1074  0.3996
 8875SOL    HW238259   4.201   0.618   6.549 -1.3578  2.0592 -0.1847
 8876SOL     OW38260   0.239   1.705   6.002 -0.0502  0.0508 -0.5106
 8876SOL    HW138261   0.168   1.746   6.050 -1.7600 -3.2327 -0.2291
 8876SOL    HW238262   0.194   1.692   5.918  2.8985  2.5938 -2.4950
 8877SOL     OW38263   0.230   2.601   8.626  0.1604 -0.1037 -0.1015
 8877SOL    HW138264   0.227   2.642   8.712 -0.6776  1.0070 -0.6632
 8877SOL    HW238265   0.137   2.578   8.623  0.1284 -0.0137  0.2176
 8878SOL     OW38266   1.348   3.513   2.792 -0.0380 -0.0754 -0.1701
 8878SOL    HW138267   1.259   3.482   2.807  0.1112 -0.3911  0.0672
 8878SOL    HW238268   1.382   3.525   2.880  2.5536 -0.8337 -1.0537
 8879SOL     OW38269   4.374   1.424   1.184 -0.1283 -0.1759  0.4165
 8879SOL    HW138270   4.387   1.348   1.241  0.6898 -0.2151  0.1756
 8879SOL    HW238271   4.288   1.396   1.154 -0.4069  1.5997 -0.4307
 8880SOL     OW38272   0.652   1.383  12.699  0.7560  0.6335  0.1235
 8880SOL    HW138273   0.686   1.471  12.714  0.7938  0.2314  2.5550
 8880SOL    HW238274   0.603   1.377  12.781  0.0293  1.3025 -0.2701
 8881SOL     OW38275   0.396   4.413   3.401  0.6380  0.3133 -0.1241
 8881SOL    HW138276   0.478   4.446   3.363  1.1478  0.2909  0.9595
 8881SOL    HW238277   0.394   4.331   3.351  1.4174  0.1271  0.1509
 8882SOL     OW38278   1.135   2.261  15.218  0.2140 -0.4236 -0.1719
 8882SOL    HW138279   1.198   2.189  15.230 -0.6273 -1.7730 -4.0563
 8882SOL    HW238280   1.059   2.235  15.270 -0.2699 -0.0922 -0.7247
 8883SOL     OW38281   0.347   2.098   4.485 -0.1907 -0.3448 -0.3265
 8883SOL    HW138282   0.299   2.017   4.504 -0.8141  1.1013  4.2133
 8883SOL    HW238283   0.331   2.123   4.394 -0.4917  1.1395  0.1325
 8884SOL     OW38284   3.217   4.216   6.433 -0.6157  0.1318  0.2574
 8884SOL    HW138285   3.153   4.192   6.367 -0.0139 -2.4223  0.6218
 8884SOL    HW238286   3.194   4.308   6.447  0.0985  0.7694 -2.8021
 8885SOL     OW38287   4.099   0.938   7.162  0.0072 -0.0918  0.2289
 8885SOL    HW138288   4.083   0.845   7.178 -0.1411 -0.0094  0.5595
 8885SOL    HW238289   4.013   0.956   7.123  1.0072 -0.5704 -2.1747
 8886SOL     OW38290   1.316   0.479   5.742  0.1894 -0.0010  0.0209
 8886SOL    HW138291   1.397   0.462   5.695 -0.1416 -2.8326  0.4764
 8886SOL    HW238292   1.258   0.439   5.677 -1.7964  1.7301  0.6855
 8887SOL     OW38293   1.015   0.025   3.385 -0.0431 -0.5895 -0.5301
 8887SOL    HW138294   0.962   4.713   3.445 -0.7566  0.7719  0.0464
 8887SOL    HW238295   1.090   0.047   3.439  0.5550 -0.3597 -1.4476
 8888SOL     OW38296   0.294   2.668   3.608 -0.3395 -0.1070 -0.2269
 8888SOL    HW138297   0.324   2.640   3.522 -2.7158  0.1332 -1.1426
 8888SOL    HW238298   0.364   2.625   3.657  0.7375 -0.4618 -2.1118
 8889SOL     OW38299   4.502   2.777   3.042 -0.0941 -0.1379 -0.2000
 8889SOL    HW138300   4.439   2.823   3.098  0.3237  1.5795 -1.1302
 8889SOL    HW238301   4.507   2.840   2.970 -1.7674  1.3414  0.9898
 8890SOL     OW38302   3.062   2.963  10.192 -0.2581  0.2327  0.1594
 8890SOL    HW138303   3.014   2.880  10.185  1.3027 -0.6226 -0.3876
 8890SOL    HW238304   3.045   2.980  10.285  1.0981  2.7925 -0.0587
 8891SOL     OW38305   1.819   2.824   6.047  0.0793 -0.8660  0.0773
 8891SOL    HW138306   1.756   2.767   6.003 -1.1252 -0.7152  1.6207
 8891SOL    HW238307   1.873   2.853   5.973  1.3790 -1.3484  0.8421
 8892SOL     OW38308   1.418   0.992   6.065 -0.3093 -0.3015 -0.3221
 8892SOL    HW138309   1.383   0.903   6.061 -0.5306 -0.3017  1.5157
 8892SOL    HW238310   1.343   1.036   6.105  0.3549 -0.3212  0.9720
 8893SOL     OW38311   3.156   0.399   3.940  0.3999  0.3372  0.1989
 8893SOL    HW138312   3.217   0.466   3.910 -0.3609  0.6472 -0.6465
 8893SOL    HW238313   3.075   0.449   3.936  0.0459 -0.1529  1.1234
 8894SOL     OW38314   1.246   4.015  16.354 -0.2528  0.4241 -0.3432
 8894SOL    HW138315   1.225   3.991  16.264 -1.3504 -0.6327  0.1996
 8894SOL    HW238316   1.218   3.938  16.404  0.4236 -0.2448 -0.9861
 8895SOL     OW38317   3.093   1.389  13.447 -0.0927 -0.1243 -0.0001
 8895SOL    HW138318   3.082   1.479  13.475  1.2451  0.1020 -0.2003
 8895SOL    HW238319   3.035   1.386  13.371 -0.5704  2.4400  0.2912
 8896SOL     OW38320   2.669   2.882   2.186  0.3019  0.2425 -0.5245
 8896SOL    HW138321   2.595   2.823   2.198  0.3693  0.2245 -0.1919
 8896SOL    HW238322   2.698   2.906   2.275 -0.0264  0.6738 -0.5325
 8897SOL     OW38323   3.539   1.018   6.130 -0.1584  0.7925  0.4203
 8897SOL    HW138324   3.483   1.072   6.186 -0.6034 -1.3094  2.0063
 8897SOL    HW238325   3.621   1.035   6.177  1.0003 -0.3952 -1.1972
 8898SOL     OW38326   2.254   2.764   3.928 -0.4497  0.0905  0.3130
 8898SOL    HW138327   2.194   2.716   3.985 -0.0216 -0.7578  0.0508
 8898SOL    HW238328   2.308   2.690   3.900  0.8348  0.6463  1.2889
 8899SOL     OW38329   3.853   3.432   8.913  0.1497  0.0679 -0.0288
 8899SOL    HW138330   3.843   3.527   8.914  2.3979  0.2900  1.4708
 8899SOL    HW238331   3.945   3.416   8.932  0.4466  1.4129 -0.3723
 8900SOL     OW38332   3.899   2.784   1.021  0.0121  0.1748  0.3765
 8900SOL    HW138333   3.851   2.806   0.941  1.1582  2.5008  0.3302
 8900SOL    HW238334   3.833   2.728   1.064 -0.9102  1.5135  0.6875
 8901SOL     OW38335   3.875   1.133  14.585  0.1275  0.1860 -0.0467
 8901SOL    HW138336   3.792   1.107  14.625 -0.2972  3.6429  1.2570
 8901SOL    HW238337   3.898   1.059  14.528  0.9218  0.3421  0.0779
 8902SOL     OW38338   2.325   4.140   5.257 -0.0096  0.0205 -0.0037
 8902SOL    HW138339   2.254   4.203   5.274  1.1855  1.1232  0.8832
 8902SOL    HW238340   2.282   4.055   5.264  0.4472 -0.2303 -0.2867
 8903SOL     OW38341   4.110   2.155   1.915 -0.2546 -0.1616  0.8306
 8903SOL    HW138342   4.072   2.067   1.918  0.5334 -0.5170  0.2827
 8903SOL    HW238343   4.042   2.205   1.960 -0.9122 -0.2699 -0.0534
 8904SOL     OW38344   3.713   1.025   2.090 -0.8283  0.2721  0.3117
 8904SOL    HW138345   3.773   0.951   2.096  1.4949  2.2266  1.0340
 8904SOL    HW238346   3.771   1.095   2.120  0.7920 -0.7822 -0.3876
 8905SOL     OW38347   0.905   3.558  12.532  0.2118  1.3039 -0.1801
 8905SOL    HW138348   0.812   3.579  12.538 -0.2577 -1.0263  0.9759
 8905SOL    HW238349   0.910   3.505  12.612 -0.9084  1.7393  0.1792
 8906SOL     OW38350   4.169   4.666   7.505  0.7552  0.2477  0.2536
 8906SOL    HW138351   4.229   4.598   7.476  0.9553  2.0312 -3.4837
 8906SOL    HW238352   4.178   4.732   7.436 -1.3151 -0.1459 -0.3850
 8907SOL     OW38353   3.529   0.418   8.977 -0.3439 -0.1494  0.1482
 8907SOL    HW138354   3.592   0.473   8.931  0.6195 -0.9830  0.4879
 8907SOL    HW238355   3.499   0.476   9.048 -2.5552 -0.2517 -0.7118
 8908SOL     OW38356   4.735   0.055   8.932 -0.0100  0.1614 -0.3506
 8908SOL    HW138357   4.671   4.727   8.912  1.5106 -1.8341  1.5975
 8908SOL    HW238358   0.076   0.008   8.951 -0.3243 -0.1911  0.1070
 8909SOL     OW38359   3.392   0.180   6.908 -0.6202  0.2511 -0.2893
 8909SOL    HW138360   3.353   0.232   6.837 -0.7522 -1.0226 -1.1539
 8909SOL    HW238361   3.473   0.227   6.928  0.4030 -0.3021 -3.0683
 8910SOL     OW38362   1.270   0.463   6.019  0.1671 -0.2169  0.5237
 8910SOL    HW138363   1.265   0.485   5.926 -2.2649  0.3854  0.7949
 8910SOL    HW238364   1.238   0.373   6.013  1.0726 -0.4623 -0.7364
 8911SOL     OW38365   2.184   3.695  11.045 -0.3475  0.4501  0.5085
 8911SOL    HW138366   2.233   3.612  11.045  0.3403  0.8529  1.6422
 8911SOL    HW238367   2.252   3.742  11.094 -0.2793 -0.1496  0.9934
 8912SOL     OW38368   3.879   1.769  10.034 -0.3868 -0.0777  0.7006
 8912SOL    HW138369   3.802   1.826  10.032 -1.1339 -1.0256  3.4609
 8912SOL    HW238370   3.861   1.716  10.112 -2.7390 -1.1714 -0.5969
 8913SOL     OW38371   2.252   4.721   8.340 -0.7066 -0.5038  0.4523
 8913SOL    HW138372   2.263   0.064   8.295  0.0557 -0.8503 -0.0024
 8913SOL    HW238373   2.158   4.706   8.336 -0.9768  0.9604  1.3683
 8914SOL     OW38374   1.887   2.815   6.778 -0.2460  0.1642  0.0984
 8914SOL    HW138375   1.812   2.869   6.754  0.1787  0.6540 -0.1497
 8914SOL    HW238376   1.897   2.769   6.695 -1.5917 -1.0218  0.6092
 8915SOL     OW38377   0.019   3.811   5.115  0.6360 -0.1431 -0.4012
 8915SOL    HW138378   0.085   3.875   5.091 -0.8987  1.5770 -0.0637
 8915SOL    HW238379   0.069   3.754   5.173  0.6997 -0.3216 -0.6356
 8916SOL     OW38380   3.629   0.916   4.320 -0.0306  0.0787  0.1574
 8916SOL    HW138381   3.552   0.967   4.345 -0.6705 -1.3591  1.0675
 8916SOL    HW238382   3.688   0.933   4.393 -2.6961 -2.2612  2.8035
 8917SOL     OW38383   0.840   2.029   9.244 -1.2415 -0.7391 -0.6395
 8917SOL    HW138384   0.846   2.003   9.336 -0.8544 -4.4431 -1.7106
 8917SOL    HW238385   0.924   2.004   9.206  0.6686  1.6426  2.0085
 8918SOL     OW38386   0.873   2.182   3.729  0.6762  0.0706 -0.1015
 8918SOL    HW138387   0.785   2.150   3.708  0.9509 -1.6254  1.3413
 8918SOL    HW238388   0.878   2.157   3.821  1.8374  1.6525  0.2737
 8919SOL     OW38389   1.996   2.673   2.245  0.4049  0.5674  0.6052
 8919SOL    HW138390   2.051   2.645   2.172  0.7081 -0.8332  1.3792
 8919SOL    HW238391   2.025   2.762   2.266  1.2696  0.3420  0.3775
 8920SOL     OW38392   0.491   4.607   4.853  0.1333 -0.5662  0.4950
 8920SOL    HW138393   0.463   4.692   4.819 -1.4703 -0.2953  2.4508
 8920SOL    HW238394   0.581   4.597   4.822  0.7092  0.6483  1.8074
 8921SOL     OW38395   3.509   2.666   4.478 -0.2042 -0.2626 -0.2799
 8921SOL    HW138396   3.448   2.601   4.514  0.3389 -1.2795 -1.2077
 8921SOL    HW238397   3.446   2.717   4.426  1.2833 -1.1340 -2.9593
 8922SOL     OW38398   0.402   2.440   3.739 -0.2517 -0.2027  0.1843
 8922SOL    HW138399   0.338   2.378   3.704 -0.7853  0.3855  0.0986
 8922SOL    HW238400   0.472   2.445   3.674 -1.5670 -0.5605 -1.2714
 8923SOL     OW38401   3.290   2.863  14.834 -0.3115  0.4411  0.2377
 8923SOL    HW138402   3.308   2.770  14.823 -0.9751  0.0019  2.7892
 8923SOL    HW238403   3.225   2.877  14.766  0.7708  0.9816 -0.6836
 8924SOL     OW38404   4.087   0.282   8.583  0.6265  0.2638  0.2247
 8924SOL    HW138405   4.140   0.288   8.504  0.8114  0.7554  0.3852
 8924SOL    HW238406   4.048   0.195   8.576  1.0954  0.2482 -2.2595
 8925SOL     OW38407   1.342   0.097   2.956 -0.1899 -0.3194  0.3358
 8925SOL    HW138408   1.433   0.114   2.980 -0.8757  0.8379  2.1149
 8925SOL    HW238409   1.311   0.188   2.957  0.5263 -0.0470 -2.6051
 8926SOL     OW38410   2.553   3.187   8.707  0.2835 -0.0578  0.0246
 8926SOL    HW138411   2.518   3.135   8.634 -0.9016 -3.0707  2.7783
 8926SOL    HW238412   2.509   3.271   8.693  0.2424 -0.0678  0.0967
 8927SOL     OW38413   1.155   2.971   5.961  0.0642  0.6908  0.0384
 8927SOL    HW138414   1.142   3.028   5.885 -1.8283  4.1851  2.9822
 8927SOL    HW238415   1.246   2.944   5.950 -0.3146 -0.1670 -1.1055
 8928SOL     OW38416   2.370   4.668  11.714  0.1618 -0.1702 -0.7893
 8928SOL    HW138417   2.448   4.620  11.744 -0.8446 -1.1908  0.1541
 8928SOL    HW238418   2.387   0.019  11.735 -1.4886  0.6483 -3.0006
 8929SOL     OW38419   1.456   0.540  11.392  0.0627 -0.1129 -0.0983
 8929SOL    HW138420   1.477   0.487  11.469  0.1280  0.5411  0.3382
 8929SOL    HW238421   1.448   0.631  11.420 -2.0780 -0.1066 -0.7487
 8930SOL     OW38422   2.829   4.488   7.531  0.0960 -0.0388 -0.1578
 8930SOL    HW138423   2.769   4.562   7.544  0.1400 -0.1487  0.7281
 8930SOL    HW238424   2.892   4.532   7.474  2.0231 -0.5932  1.5357
 8931SOL     OW38425   3.488   0.080  10.983  0.4059  0.7554  0.5816
 8931SOL    HW138426   3.512   0.094  10.891 -0.5938  1.3981  0.4296
 8931SOL    HW238427   3.507   0.168  11.014 -0.4162  0.5409  1.6630
 8932SOL     OW38428   3.746   4.255  17.507  0.0063 -0.6434  0.4644
 8932SOL    HW138429   3.718   4.201  17.580  1.7265 -1.8425  0.2397
 8932SOL    HW238430   3.725   4.200  17.432 -3.1041  0.5853  0.4467
 8933SOL     OW38431   4.105   3.727  14.616  0.5014  0.2924 -0.0227
 8933SOL    HW138432   4.087   3.634  14.626 -2.9225  0.9244 -0.3137
 8933SOL    HW238433   4.014   3.754  14.606 -0.7909 -3.4466  2.0136
 8934SOL     OW38434   1.094   2.366   9.428 -0.5626  0.5606  0.0308
 8934SOL    HW138435   1.160   2.432   9.409  0.0969  0.5128  2.1812
 8934SOL    HW238436   1.108   2.298   9.361 -3.1999  2.1695 -2.1531
 8935SOL     OW38437   1.126   0.336   2.359 -0.5257  0.2537  0.2858
 8935SOL    HW138438   1.107   0.255   2.313  1.4843  0.0957 -0.2440
 8935SOL    HW238439   1.172   0.386   2.291 -1.4005 -0.1606 -0.6052
 8936SOL     OW38440   0.164   0.478   9.150  0.3421  0.4830 -0.1363
 8936SOL    HW138441   0.244   0.476   9.098  0.7671 -0.1457  0.5544
 8936SOL    HW238442   0.192   0.426   9.225  2.7860  1.2494 -0.5345
 8937SOL     OW38443   1.336   1.072  12.223  0.6046 -0.1348 -0.0725
 8937SOL    HW138444   1.416   1.089  12.272 -0.1312 -0.8848  1.4293
 8937SOL    HW238445   1.370   1.007  12.163 -1.2814  0.2807 -1.5910
 8938SOL     OW38446   0.516   2.411   2.464 -0.2953 -0.3878 -0.3444
 8938SOL    HW138447   0.464   2.331   2.449  0.6766 -0.4181 -3.3736
 8938SOL    HW238448   0.592   2.391   2.410  0.7541  0.2263  0.8927
 8939SOL     OW38449   1.688   4.351   7.050  0.0523 -0.3577  0.6755
 8939SOL    HW138450   1.598   4.324   7.069  0.1393  0.0346  1.6254
 8939SOL    HW238451   1.690   4.399   6.967 -1.2207 -0.9899  0.2819
 8940SOL     OW38452   2.156   4.229   7.903 -0.5099 -0.5627 -0.0967
 8940SOL    HW138453   2.159   4.144   7.947 -0.8345 -0.5361 -0.0232
 8940SOL    HW238454   2.066   4.260   7.920 -0.1515  0.8525 -0.8194
 8941SOL     OW38455   2.066   0.199   5.538  0.3531  0.4709  0.7637
 8941SOL    HW138456   2.061   0.293   5.555 -1.3545  0.7824 -1.3676
 8941SOL    HW238457   2.084   0.168   5.626 -0.2638 -0.6552  0.4975
 8942SOL     OW38458   0.607   0.394   6.105  0.0519 -0.3021  0.1460
 8942SOL    HW138459   0.593   0.463   6.041  0.5923 -1.9136 -1.7293
 8942SOL    HW238460   0.580   0.316   6.056 -0.1709 -0.8430  1.1130
 8943SOL     OW38461   3.036   1.007   1.809 -0.2260 -0.2004 -0.2866
 8943SOL    HW138462   3.084   1.011   1.892 -0.2417 -0.8108 -0.2498
 8943SOL    HW238463   2.981   1.084   1.825  2.0710  1.4009 -0.0392
 8944SOL     OW38464   0.433   4.150   6.807  0.0674  0.1884 -0.0760
 8944SOL    HW138465   0.370   4.104   6.862  1.2463  0.7413  1.7549
 8944SOL    HW238466   0.513   4.142   6.860  0.2849  0.7114 -0.3160
 8945SOL     OW38467   2.031   4.137   3.373 -0.0844  0.2059  0.0835
 8945SOL    HW138468   2.049   4.190   3.295  1.3583 -1.1624 -0.5080
 8945SOL    HW238469   2.122   4.124   3.396 -0.1818  0.2638  0.4929
 8946SOL     OW38470   0.261   0.501  16.131 -0.0091 -0.3399  0.7459
 8946SOL    HW138471   0.253   0.417  16.176  0.8264  0.2326  1.9355
 8946SOL    HW238472   0.185   0.502  16.072  0.4556  0.9052  0.1754
 8947SOL     OW38473   0.107   0.183  17.309  0.6341  0.0636  0.1136
 8947SOL    HW138474   0.022   0.140  17.316  1.3449 -0.9125  2.4579
 8947SOL    HW238475   0.088   0.270  17.344  2.9295  1.2738 -1.6613
 8948SOL     OW38476   1.020   1.619   6.348  0.2346  0.7484  0.1505
 8948SOL    HW138477   1.114   1.602   6.360  0.2033 -0.1406 -0.8404
 8948SOL    HW238478   1.023   1.710   6.320  1.7351  0.4940 -0.5143
 8949SOL     OW38479   1.176   0.458   2.084  0.0877  0.2933 -0.0963
 8949SOL    HW138480   1.178   0.552   2.101  1.7964  0.1414  0.4999
 8949SOL    HW238481   1.088   0.442   2.118  0.4546 -2.1609 -0.3082
 8950SOL     OW38482   3.936   3.440   7.086  0.2964  0.0262  0.2844
 8950SOL    HW138483   4.012   3.495   7.101  0.2938  0.2392 -0.4677
 8950SOL    HW238484   3.896   3.470   7.004 -1.1990 -1.7579  0.3565
 8951SOL     OW38485   0.323   1.028   5.454  0.0315 -0.3401  0.1431
 8951SOL    HW138486   0.261   0.995   5.388 -0.2913  0.3845  0.0914
 8951SOL    HW238487   0.256   1.058   5.515 -1.7753 -3.8642 -0.0678
 8952SOL     OW38488   3.479   1.191   7.430 -0.2921 -0.2503 -0.1092
 8952SOL    HW138489   3.421   1.254   7.473  2.0930  1.7870  0.1229
 8952SOL    HW238490   3.526   1.159   7.506 -4.9784  0.6711  3.1826
 8953SOL     OW38491   3.136   0.914   2.851 -0.2752 -0.2347 -0.3168
 8953SOL    HW138492   3.166   0.840   2.798  0.1292  0.1531 -0.6229
 8953SOL    HW238493   3.043   0.906   2.832 -1.1745 -0.2650  3.9163
 8954SOL     OW38494   2.215   0.204  14.226 -0.0602 -0.7860  0.7072
 8954SOL    HW138495   2.246   0.266  14.160 -0.1935 -1.3503  0.1167
 8954SOL    HW238496   2.157   0.146  14.178  0.8659 -1.5873  0.5458
 8955SOL     OW38497   3.288   4.703   1.547  0.0745 -0.7005  0.3118
 8955SOL    HW138498   3.359   0.018   1.580  0.4228  0.1164 -1.8343
 8955SOL    HW238499   3.215   0.024   1.553  1.2765  0.9233 -1.6185
 8956SOL     OW38500   2.469   0.107   5.666 -0.3690  0.3910  0.1910
 8956SOL    HW138501   2.483   0.168   5.593 -0.2723  0.2042  0.0514
 8956SOL    HW238502   2.419   0.039   5.621  0.5637 -0.6964  0.8128
 8957SOL     OW38503   4.313   0.907   1.306 -0.3664 -0.3878 -0.0948
 8957SOL    HW138504   4.319   0.816   1.335  1.9780  0.5142  2.2440
 8957SOL    HW238505   4.403   0.926   1.329  0.4178 -5.5159  1.0759
 8958SOL     OW38506   0.497   2.640   1.858  0.0765 -0.1288 -0.2835
 8958SOL    HW138507   0.542   2.723   1.872  0.4785 -0.9041  2.8418
 8958SOL    HW238508   0.410   2.648   1.896  0.1891 -1.8914  0.3214
 8959SOL     OW38509   0.857   4.480   8.986 -0.0471 -0.1421 -0.1242
 8959SOL    HW138510   0.818   4.520   9.063 -0.4999 -1.3963  0.2989
 8959SOL    HW238511   0.795   4.506   8.918  0.2776 -1.2267 -0.8287
 8960SOL     OW38512   3.752   1.883   2.110 -0.5057  0.3167  0.6766
 8960SOL    HW138513   3.738   1.801   2.158 -1.2393  0.4839  0.7433
 8960SOL    HW238514   3.671   1.885   2.059  1.2369 -0.0421 -2.1142
 8961SOL     OW38515   4.724   0.834  11.425 -0.0231 -0.1279 -0.1961
 8961SOL    HW138516   4.701   0.768  11.359  0.3848 -1.1470  0.6732
 8961SOL    HW238517   4.701   0.915  11.379  1.4221  1.7332  2.3732
 8962SOL     OW38518   1.629   2.909   7.707 -0.2945  0.1369  0.3351
 8962SOL    HW138519   1.576   2.927   7.784 -2.0749 -0.0823 -0.8451
 8962SOL    HW238520   1.707   2.870   7.748  0.1050  0.8996  0.3009
 8963SOL     OW38521   0.617   2.285  12.730 -0.2148 -0.0732  0.2509
 8963SOL    HW138522   0.687   2.332  12.685 -0.1703 -0.4960 -0.1258
 8963SOL    HW238523   0.657   2.256  12.812  1.9651  4.0999  0.6349
 8964SOL     OW38524   3.275   0.761  14.082 -0.7792  0.1046  0.3792
 8964SOL    HW138525   3.330   0.775  14.159  1.0221 -1.0253 -0.6942
 8964SOL    HW238526   3.200   0.711  14.116 -1.3674  0.8308  0.1567
 8965SOL     OW38527   2.801   2.671   0.300  0.0276  0.7547 -0.4698
 8965SOL    HW138528   2.797   2.609   0.227 -1.6657 -0.5241  0.7292
 8965SOL    HW238529   2.720   2.667   0.349 -0.5957 -0.2065 -1.5820
 8966SOL     OW38530   0.046   1.569   7.763 -0.2602  0.2201  0.0689
 8966SOL    HW138531   0.021   1.572   7.671 -1.2968  0.7600  0.3679
 8966SOL    HW238532   0.062   1.663   7.774  0.8661  0.0528 -0.1352
 8967SOL     OW38533   3.201   0.007   8.447 -0.0642  0.2150  0.1261
 8967SOL    HW138534   3.127   4.696   8.476  0.2334 -0.5841 -0.5276
 8967SOL    HW238535   3.241   0.028   8.532 -0.3048  0.0176  0.2862
 8968SOL     OW38536   2.445   4.543  17.620  0.7006 -0.6212 -0.2249
 8968SOL    HW138537   2.467   4.593  17.541 -3.5734  1.1142 -0.3244
 8968SOL    HW238538   2.366   4.582  17.658  1.5523 -0.5069  1.4726
 8969SOL     OW38539   3.460   0.796   0.885 -0.3523 -0.0329  0.1188
 8969SOL    HW138540   3.371   0.766   0.865 -0.8121  1.4312 -0.0403
 8969SOL    HW238541   3.482   0.848   0.808 -0.0095  1.2819  1.1154
 8970SOL     OW38542   2.358   0.638   8.399  0.1143 -0.1137  0.0108
 8970SOL    HW138543   2.397   0.665   8.482  2.2570  1.6249 -1.5427
 8970SOL    HW238544   2.434   0.656   8.343  0.5047  0.2444  0.6531
 8971SOL     OW38545   0.560   0.859  11.172  0.3904  0.4836  0.8452
 8971SOL    HW138546   0.541   0.910  11.251 -3.2908 -1.0150  0.9284
 8971SOL    HW238547   0.510   0.783  11.203 -1.2545  0.6084 -1.4575
 8972SOL     OW38548   2.251   4.223   7.139 -0.0284  0.7910  0.3713
 8972SOL    HW138549   2.343   4.196   7.138 -1.3020 -3.6381  1.7437
 8972SOL    HW238550   2.258   4.283   7.213 -1.0076  0.0615  1.0457
 8973SOL     OW38551   2.961   2.415   3.569  0.1355 -0.4008  0.2565
 8973SOL    HW138552   2.967   2.499   3.614 -1.8482 -0.2039  0.1199
 8973SOL    HW238553   2.952   2.359   3.646 -0.0378  1.3472  1.5182
 8974SOL     OW38554   2.585   0.008  13.366  0.1678  0.0463  0.2207
 8974SOL    HW138555   2.504   0.054  13.389  0.1270  0.5830 -0.9979
 8974SOL    HW238556   2.611   0.048  13.283 -3.8893 -0.6797 -1.4092
 8975SOL     OW38557   1.504   0.274   7.480 -0.7111 -0.3384 -0.2903
 8975SOL    HW138558   1.599   0.280   7.464 -0.8872  0.2805 -1.1016
 8975SOL    HW238559   1.505   0.202   7.542 -0.7725  0.2284  0.3727
 8976SOL     OW38560   3.009   4.016  16.111  0.2000  0.4574  0.3022
 8976SOL    HW138561   2.936   4.024  16.050  0.0870  2.5757  0.7112
 8976SOL    HW238562   3.021   4.108  16.136 -1.0370  0.4976  0.7390
 8977SOL     OW38563   4.669   2.576   5.573 -0.0177  0.3205 -0.0111
 8977SOL    HW138564   4.631   2.660   5.600  1.5035  1.7616 -2.3405
 8977SOL    HW238565   0.020   2.588   5.598  0.5480 -2.6060 -0.6913
 8978SOL     OW38566   4.335   0.533   2.689 -0.1862 -0.2210  0.3364
 8978SOL    HW138567   4.416   0.561   2.730 -0.2185 -0.9665  0.9018
 8978SOL    HW238568   4.340   0.437   2.691  0.0272 -0.2003  0.6324
 8979SOL     OW38569   0.392   3.274   7.266 -0.1972  0.3055  0.1101
 8979SOL    HW138570   0.437   3.223   7.199 -0.0647  0.4035  0.1258
 8979SOL    HW238571   0.325   3.212   7.294 -0.7376  1.5848  1.6482
 8980SOL     OW38572   4.085   2.344   0.464  0.3625 -0.6286 -0.3817
 8980SOL    HW138573   4.122   2.430   0.441  1.2932 -0.7237  0.7544
 8980SOL    HW238574   4.015   2.330   0.400 -1.0302 -0.0047  1.0055
 8981SOL     OW38575   1.275   2.923   1.511 -0.6013  0.3685  0.6407
 8981SOL    HW138576   1.252   2.852   1.450 -0.3974  1.6766 -0.9748
 8981SOL    HW238577   1.319   2.877   1.582  0.9275 -0.7943 -1.0551
 8982SOL     OW38578   3.249   3.310  12.577  0.3590 -0.1544 -0.6187
 8982SOL    HW138579   3.216   3.289  12.665  2.3014 -0.9144 -0.0888
 8982SOL    HW238580   3.308   3.383  12.598 -1.1934  0.5923  1.2043
 8983SOL     OW38581   2.227   4.474  11.130 -0.1588  0.2303 -0.4870
 8983SOL    HW138582   2.276   4.479  11.048 -0.2517  1.6151 -0.4620
 8983SOL    HW238583   2.294   4.435  11.187 -0.7653 -0.2335 -0.0907
 8984SOL     OW38584   4.420   0.796  12.798 -0.2063 -0.1310  0.5278
 8984SOL    HW138585   4.450   0.705  12.810 -2.2024 -0.9839 -0.8975
 8984SOL    HW238586   4.469   0.820  12.719 -0.8545  0.2199  0.2332
 8985SOL     OW38587   4.199   3.850   6.710 -0.4351  0.3335 -0.0635
 8985SOL    HW138588   4.229   3.761   6.726 -0.3824  0.4356  0.4007
 8985SOL    HW238589   4.125   3.844   6.770  0.2589  0.0572  0.7505
 8986SOL     OW38590   0.147   0.794   4.122  0.4537  0.2097  0.7376
 8986SOL    HW138591   0.149   0.878   4.169  2.0767  0.5320  0.0817
 8986SOL    HW238592   0.213   0.744   4.170 -1.3909 -0.8093  2.2580
 8987SOL     OW38593   2.480   3.168   4.033 -0.3303 -0.0375 -0.3025
 8987SOL    HW138594   2.400   3.116   4.046 -2.1391  2.9673  0.7855
 8987SOL    HW238595   2.454   3.252   4.071  1.9025  0.5033  0.0007
 8988SOL     OW38596   4.487   2.875   3.718  0.1579 -0.5052 -0.3356
 8988SOL    HW138597   4.400   2.881   3.680  0.0075  1.0969  0.2362
 8988SOL    HW238598   4.472   2.858   3.811  0.1884 -0.6707 -0.3600
 8989SOL     OW38599   4.119   1.622   8.679  0.1515 -0.3428 -0.1169
 8989SOL    HW138600   4.169   1.560   8.625 -0.9206 -0.7496 -0.6355
 8989SOL    HW238601   4.028   1.598   8.663  0.0413 -0.1977  0.2919
 8990SOL     OW38602   4.608   3.100   4.414 -0.3931  0.4193 -0.1736
 8990SOL    HW138603   4.688   3.125   4.369  0.9085 -2.8898  0.2763
 8990SOL    HW238604   4.622   3.122   4.506  1.5578  2.0438 -0.8700
 8991SOL     OW38605   2.722   0.695   8.027  0.4016  0.1893 -0.3088
 8991SOL    HW138606   2.807   0.656   8.048 -0.2081 -0.9190  0.1010
 8991SOL    HW238607   2.751   0.786   8.024  0.0510  0.2693 -1.2316
 8992SOL     OW38608   2.722   1.161   7.521  0.3309 -0.7006 -0.1750
 8992SOL    HW138609   2.811   1.126   7.513  0.4834 -0.0026 -1.5302
 8992SOL    HW238610   2.692   1.128   7.606 -2.7603  2.1730 -0.1557
 8993SOL     OW38611   3.137   1.433  17.194  0.0481  0.2433  0.7176
 8993SOL    HW138612   3.183   1.397  17.119 -2.3587 -0.2415 -0.5513
 8993SOL    HW238613   3.117   1.523  17.169 -0.1686  0.5741  2.0396
 8994SOL     OW38614   3.435   1.178  12.981  0.5252 -0.0747 -0.2167
 8994SOL    HW138615   3.421   1.087  13.006 -0.1993 -0.0049 -0.3593
 8994SOL    HW238616   3.416   1.221  13.064  0.2872  0.8195 -0.7426
 8995SOL     OW38617   2.862   1.526   2.369  0.1474 -0.4726 -0.8473
 8995SOL    HW138618   2.778   1.571   2.376  0.9120  0.9532 -0.8009
 8995SOL    HW238619   2.918   1.587   2.417 -1.7134  0.6270 -0.0691
 8996SOL     OW38620   2.385   3.236   6.116 -0.0508 -0.6852  0.2095
 8996SOL    HW138621   2.389   3.149   6.158  0.5601 -1.0210 -0.5530
 8996SOL    HW238622   2.308   3.224   6.061  0.0731  1.3686 -0.3875
 8997SOL     OW38623   3.910   1.681   5.957  0.4043 -0.2805 -0.4897
 8997SOL    HW138624   3.990   1.711   5.912  0.6382  0.6182  0.5232
 8997SOL    HW238625   3.856   1.760   5.964 -2.7449 -2.4632 -0.1948
 8998SOL     OW38626   4.573   0.847   3.776 -0.2690  0.4349 -0.0760
 8998SOL    HW138627   4.629   0.860   3.852  2.2938 -0.3770 -1.8126
 8998SOL    HW238628   4.550   0.755   3.782  0.3008  0.2400 -0.8181
 8999SOL     OW38629   4.483   4.064   5.488  0.2845 -0.3679  0.1920
 8999SOL    HW138630   4.426   4.135   5.519 -0.5134 -0.9942  0.1554
 8999SOL    HW238631   4.506   4.100   5.402 -3.0803  0.6870 -0.2484
 9000SOL     OW38632   1.148   4.116   5.886 -0.1402  0.0282  0.3320
 9000SOL    HW138633   1.100   4.055   5.941 -1.4421  0.0654 -0.7605
 9000SOL    HW238634   1.095   4.195   5.896  1.6340  1.2046  0.5439
 9001SOL     OW38635   0.676   3.784   9.279  0.2198  0.4916 -0.2109
 9001SOL    HW138636   0.662   3.808   9.188 -0.5500 -0.3357 -0.3043
 9001SOL    HW238637   0.645   3.862   9.326 -0.3411 -1.1721  2.2070
 9002SOL     OW38638   1.733   1.580   2.573  0.6008  0.3328  0.0688
 9002SOL    HW138639   1.718   1.499   2.622  1.0384  0.4718  0.4373
 9002SOL    HW238640   1.693   1.556   2.489 -1.3406 -1.6406  1.5637
 9003SOL     OW38641   1.597   4.338   5.923  0.5901  0.0678 -0.3064
 9003SOL    HW138642   1.683   4.366   5.893  1.2892  0.2411  1.8243
 9003SOL    HW238643   1.553   4.423   5.925  0.7595  0.1790 -1.2009
 9004SOL     OW38644   0.469   2.129  11.454 -0.4812 -0.4214  0.6311
 9004SOL    HW138645   0.549   2.152  11.500 -1.6134  0.9588  1.9350
 9004SOL    HW238646   0.472   2.195  11.385  0.1943  0.0500  1.1247
 9005SOL     OW38647   3.357   3.570   3.528 -0.4272  0.0088  0.5537
 9005SOL    HW138648   3.281   3.625   3.512 -2.3092 -2.9509 -0.7821
 9005SOL    HW238649   3.321   3.494   3.574  1.6014 -0.6956  1.0031
 9006SOL     OW38650   4.325   1.924   5.301 -0.2745  0.4237 -0.0139
 9006SOL    HW138651   4.385   1.980   5.350 -0.9198  0.6139  0.5594
 9006SOL    HW238652   4.244   1.959   5.338 -0.9484 -0.2572 -0.8299
 9007SOL     OW38653   1.486   0.988  14.591 -0.2251 -0.5264 -0.2950
 9007SOL    HW138654   1.560   0.930  14.571 -0.6969 -1.5007  0.7796
 9007SOL    HW238655   1.446   0.941  14.664 -0.3985  0.4709  0.2468
 9008SOL     OW38656   1.705   0.216  15.915  0.0469  0.3663 -0.0287
 9008SOL    HW138657   1.696   0.187  16.005 -1.1668  1.0572  0.0702
 9008SOL    HW238658   1.668   0.304  15.921 -4.4583 -1.4112 -1.7720
 9009SOL     OW38659   3.598   1.839   4.725 -0.2288  0.0700  0.4989
 9009SOL    HW138660   3.572   1.927   4.696  1.0653 -0.1185 -1.2455
 9009SOL    HW238661   3.669   1.866   4.783 -0.1506  2.6069 -0.7728
 9010SOL     OW38662   3.902   2.317   7.141 -0.1586  0.1573 -0.0301
 9010SOL    HW138663   3.870   2.288   7.056  0.7774  0.2355 -0.4160
 9010SOL    HW238664   3.893   2.412   7.130 -1.2861  0.1187  0.6431
 9011SOL     OW38665   3.943   3.834  11.819  0.2740 -0.0595  0.2747
 9011SOL    HW138666   3.867   3.801  11.771  0.4044 -0.0940  0.0940
 9011SOL    HW238667   4.018   3.777  11.800 -1.0094 -1.9957  1.0061
 9012SOL     OW38668   4.253   0.562   2.189 -0.1241  0.3500  0.4499
 9012SOL    HW138669   4.179   0.550   2.248 -0.5292 -2.7241 -0.7342
 9012SOL    HW238670   4.299   0.625   2.246  0.5254 -0.1053  0.4248
 9013SOL     OW38671   4.508   4.619   8.898 -0.5564  0.5501  0.2528
 9013SOL    HW138672   4.517   4.554   8.829 -1.7874  0.0349  0.5822
 9013SOL    HW238673   4.413   4.632   8.901 -0.3588  2.0145  0.2951
 9014SOL     OW38674   4.184   0.748   7.516  0.1590  0.2098 -0.3653
 9014SOL    HW138675   4.135   0.785   7.589 -0.6496 -2.6634  0.5653
 9014SOL    HW238676   4.119   0.741   7.445 -1.9989 -3.2724  1.9378
 9015SOL     OW38677   1.457   1.602   6.659 -0.1637  0.4139 -0.3614
 9015SOL    HW138678   1.486   1.682   6.615 -0.8382  0.6345 -0.4063
 9015SOL    HW238679   1.527   1.584   6.722 -0.4220 -2.0008 -0.7741
 9016SOL     OW38680   0.384   2.221   2.759 -0.2739 -0.3558  0.1835
 9016SOL    HW138681   0.336   2.299   2.785  1.6000  0.4565  1.2695
 9016SOL    HW238682   0.307   2.174   2.729 -0.8934  0.9584 -0.2949
 9017SOL     OW38683   2.839   1.089   1.575  0.1035  0.1509 -0.0763
 9017SOL    HW138684   2.882   1.006   1.553 -0.0608 -0.1246  0.6555
 9017SOL    HW238685   2.874   1.149   1.509 -1.8174  1.4221  0.0517
 9018SOL     OW38686   1.878   1.176  15.425 -0.2012  0.3985  0.0736
 9018SOL    HW138687   1.943   1.185  15.495 -0.5975 -0.8776  0.6138
 9018SOL    HW238688   1.877   1.084  15.399 -1.8393  0.1697  0.9687
 9019SOL     OW38689   0.817   3.620   4.961 -0.2790 -0.2105  0.1765
 9019SOL    HW138690   0.911   3.607   4.961  0.0627  2.1420  0.7483
 9019SOL    HW238691   0.802   3.603   4.868  0.8431 -1.3785  0.2091
 9020SOL     OW38692   3.729   1.072  16.330  0.3696 -0.6405 -0.1929
 9020SOL    HW138693   3.792   1.136  16.364  0.2173  0.5974 -2.2452
 9020SOL    HW238694   3.760   1.058  16.241 -1.4433 -0.5590 -0.8181
 9021SOL     OW38695   3.045   2.095   9.172  0.0509  0.2449 -0.3834
 9021SOL    HW138696   3.058   2.015   9.222 -2.7854  0.3868  0.6118
 9021SOL    HW238697   2.981   2.137   9.229 -1.4595 -2.9631  0.2699
 9022SOL     OW38698   3.890   1.235  16.461 -0.2300  0.5638 -0.3446
 9022SOL    HW138699   3.862   1.215  16.551  3.2207 -2.6258  0.0020
 9022SOL    HW238700   3.964   1.295  16.471  0.2618 -0.1955  0.5982
 9023SOL     OW38701   2.894   1.093   0.160  0.0198 -0.1874  0.0263
 9023SOL    HW138702   2.901   1.053   0.073  0.0960  1.8583 -0.9009
 9023SOL    HW238703   2.972   1.146   0.149 -0.3575  0.4606  0.4979
 9024SOL     OW38704   0.278   0.121   7.380 -0.4782 -0.1274  0.1112
 9024SOL    HW138705   0.237   0.034   7.377 -0.4495 -0.0558 -2.6920
 9024SOL    HW238706   0.324   0.129   7.296 -0.1569  3.2370  0.6122
 9025SOL     OW38707   1.808   4.695   4.278 -0.3382  0.4101  0.5262
 9025SOL    HW138708   1.741   4.715   4.343  0.7755  1.9989  1.1817
 9025SOL    HW238709   1.887   4.678   4.331  1.5326  1.9891 -1.7486
 9026SOL     OW38710   2.839   4.185   4.179  0.5363  0.1158 -0.2566
 9026SOL    HW138711   2.854   4.106   4.128  0.4627 -1.4859  2.1899
 9026SOL    HW238712   2.901   4.185   4.253 -0.4079 -0.0927  0.5295
 9027SOL     OW38713   3.174   0.103   3.478 -0.0049  0.3243 -0.4907
 9027SOL    HW138714   3.086   0.140   3.465 -0.0032  0.3795 -0.3420
 9027SOL    HW238715   3.190   0.135   3.567 -0.7623 -1.4644  0.2906
 9028SOL     OW38716   0.524   0.097   8.578 -0.3294  0.1808 -0.2711
 9028SOL    HW138717   0.618   0.113   8.587  0.0516 -1.3240 -1.3572
 9028SOL    HW238718   0.489   0.177   8.615  0.3700 -0.3274  1.4825
 9029SOL     OW38719   0.334   0.154   1.925 -0.0727  0.2573  0.7477
 9029SOL    HW138720   0.372   0.129   1.841 -0.8561  1.7467 -0.0500
 9029SOL    HW238721   0.253   0.104   1.923 -0.2295  0.5069  0.7831
 9030SOL     OW38722   3.717   3.727   3.045  0.4785  0.0032 -0.6145
 9030SOL    HW138723   3.724   3.632   3.036 -3.7436 -0.3312 -0.4024
 9030SOL    HW238724   3.770   3.745   3.123  0.8820  1.0916 -1.1549
 9031SOL     OW38725   4.712   3.433   9.227 -1.3658 -0.7679 -0.4649
 9031SOL    HW138726   0.050   3.380   9.238 -1.4032 -0.8598 -0.6488
 9031SOL    HW238727   4.663   3.377   9.288  0.0435  0.0852  1.4452
 9032SOL     OW38728   2.759   4.617   0.669  0.3521 -0.1023  0.3897
 9032SOL    HW138729   2.817   4.561   0.721 -0.6585 -0.7934  0.7782
 9032SOL    HW238730   2.790   4.706   0.680 -0.2087  0.6656 -4.2824
 9033SOL     OW38731   2.099   3.525   3.971 -0.3651 -0.9542 -0.5409
 9033SOL    HW138732   2.058   3.609   3.949 -1.0498 -1.0933  0.1981
 9033SOL    HW238733   2.117   3.533   4.065  0.9993 -1.1813 -0.7836
 9034SOL     OW38734   1.643   4.036   5.325 -0.4705 -0.0566  0.0860
 9034SOL    HW138735   1.694   4.117   5.322 -1.0770  0.2066 -3.0382
 9034SOL    HW238736   1.591   4.049   5.404  0.6349 -0.9315  0.9525
 9035SOL     OW38737   4.445   0.433   2.368 -0.2357  0.2425  0.2234
 9035SOL    HW138738   4.374   0.448   2.305 -2.1923  0.1443  2.4026
 9035SOL    HW238739   4.397   0.378   2.429 -0.5586  0.3330  0.0549
 9036SOL     OW38740   3.089   2.397   6.024  0.0636  0.1343 -0.5538
 9036SOL    HW138741   3.110   2.306   6.003  0.3470  0.6435 -2.4486
 9036SOL    HW238742   2.996   2.399   6.047 -0.4389 -0.2622 -2.4860
 9037SOL     OW38743   0.616   4.386  17.487 -0.0565  0.3555 -0.4626
 9037SOL    HW138744   0.587   4.393  17.578 -4.2833 -0.1582 -1.7677
 9037SOL    HW238745   0.708   4.413  17.487 -0.0653  0.3907 -0.2581
 9038SOL     OW38746   4.553   0.158   7.530  0.5164 -0.4914  0.6754
 9038SOL    HW138747   4.581   0.245   7.561 -1.1559  0.1894  0.2822
 9038SOL    HW238748   4.511   0.127   7.610  0.8889 -1.0028  0.6735
 9039SOL     OW38749   1.159   3.481   5.752 -0.5319  0.3811 -0.3585
 9039SOL    HW138750   1.194   3.470   5.840  0.1178 -1.1485 -0.8023
 9039SOL    HW238751   1.097   3.552   5.770 -1.0033 -0.1588  0.1382
 9040SOL     OW38752   1.274   3.189  15.437 -0.1829 -0.2034 -0.0419
 9040SOL    HW138753   1.183   3.197  15.467 -0.4726 -1.6198 -0.5277
 9040SOL    HW238754   1.271   3.105  15.391  0.9360 -0.3841  0.2251
 9041SOL     OW38755   1.716   1.942  15.951  1.0077 -0.0544 -0.0843
 9041SOL    HW138756   1.721   1.908  16.040  0.1606 -2.0739 -0.8178
 9041SOL    HW238757   1.802   1.979  15.928  1.4653 -0.1385  1.5004
 9042SOL     OW38758   1.672   1.599   3.254  0.4461 -0.3232 -0.4342
 9042SOL    HW138759   1.635   1.573   3.339 -1.0800 -0.7750 -1.2370
 9042SOL    HW238760   1.613   1.670   3.231  0.3880 -0.3209 -0.2767
 9043SOL     OW38761   1.634   1.641   2.842  0.4737  0.2478  0.1262
 9043SOL    HW138762   1.621   1.553   2.808  0.9469  0.2603 -0.0813
 9043SOL    HW238763   1.725   1.646   2.871  0.3414 -2.7150  1.0278
 9044SOL     OW38764   0.469   3.175   4.568 -0.4590 -0.2300 -0.3500
 9044SOL    HW138765   0.443   3.206   4.655  2.2664  1.3985 -0.1027
 9044SOL    HW238766   0.408   3.105   4.547 -0.3843 -0.4275  0.0822
 9045SOL     OW38767   4.431   3.670   2.574 -0.2791  0.2528  0.1965
 9045SOL    HW138768   4.415   3.734   2.504 -0.9171 -0.6041 -0.4405
 9045SOL    HW238769   4.411   3.724   2.650 -0.3445  0.6160 -0.0777
 9046SOL     OW38770   2.484   1.312   8.388  0.1275 -0.0773 -0.2390
 9046SOL    HW138771   2.404   1.330   8.438 -0.0270  3.3281 -1.7741
 9046SOL    HW238772   2.542   1.385   8.409 -1.7576  1.3774 -0.1820
 9047SOL     OW38773   1.602   4.078   2.261  0.2957 -0.1311 -0.1082
 9047SOL    HW138774   1.639   4.050   2.177  0.9310 -0.9862  0.4582
 9047SOL    HW238775   1.667   4.139   2.295 -1.2785  0.1938  2.3099
 9048SOL     OW38776   3.266   2.957   4.026  0.0186  0.4522  0.2573
 9048SOL    HW138777   3.267   2.891   4.096 -3.0877 -1.7368 -1.7759
 9048SOL    HW238778   3.171   2.970   4.025 -0.0132  0.0245 -1.1039
 9049SOL     OW38779   0.388   0.367   0.554  0.3738 -0.5115 -0.0814
 9049SOL    HW138780   0.326   0.359   0.481  1.1304 -0.1903 -0.7548
 9049SOL    HW238781   0.455   0.300   0.541  0.6196 -0.2082 -0.3715
 9050SOL     OW38782   0.761   0.784   9.036  0.2848 -0.0076 -0.1170
 9050SOL    HW138783   0.823   0.851   9.008 -0.5649 -0.1212 -2.2517
 9050SOL    HW238784   0.786   0.771   9.128 -2.0567 -2.0255  0.2384
 9051SOL     OW38785   3.211   0.639   0.857  0.0532  0.9975 -0.8252
 9051SOL    HW138786   3.167   0.563   0.819 -0.4243  1.9318 -2.1411
 9051SOL    HW238787   3.141   0.696   0.889  0.6017  0.7200  0.8927
 9052SOL     OW38788   4.066   1.542   4.673  0.3471  0.3385 -0.1986
 9052SOL    HW138789   3.974   1.514   4.674  1.3158 -2.8290  2.2640
 9052SOL    HW238790   4.084   1.538   4.767 -1.2598 -1.8771  0.0327
 9053SOL     OW38791   4.378   2.907   9.362 -0.1471 -0.1364  0.3501
 9053SOL    HW138792   4.375   2.818   9.327  0.5706  0.5219 -1.4237
 9053SOL    HW238793   4.462   2.899   9.406  0.7592 -1.6834 -1.6881
 9054SOL     OW38794   2.067   3.228   5.330 -0.5367  0.3921  0.3165
 9054SOL    HW138795   2.098   3.150   5.376  1.3322  0.1713 -1.3458
 9054SOL    HW238796   2.051   3.186   5.246 -2.0791 -0.0295  0.8114
 9055SOL     OW38797   3.711   1.132   6.552  0.6732 -0.8578  0.0589
 9055SOL    HW138798   3.804   1.155   6.544  0.7052 -0.8659  0.4194
 9055SOL    HW238799   3.697   1.165   6.641 -0.5835 -0.0604 -0.4364
 9056SOL     OW38800   1.713   0.097  14.429 -0.5181 -0.6127  0.1288
 9056SOL    HW138801   1.667   0.044  14.364  0.7774 -0.4503 -0.9045
 9056SOL    HW238802   1.647   0.129  14.491 -0.1164 -1.4252  0.9736
 9057SOL     OW38803   2.305   4.664   5.531  0.4985  0.6834 -0.1823
 9057SOL    HW138804   2.336   4.575   5.513 -1.9868  0.0480 -1.2638
 9057SOL    HW238805   2.246   4.656   5.606  2.9260 -1.1510  1.5402
 9058SOL     OW38806   1.663   3.852   4.646  0.1490 -0.2184  0.1657
 9058SOL    HW138807   1.667   3.767   4.690 -0.8996 -0.0629  0.5645
 9058SOL    HW238808   1.736   3.846   4.584 -0.5893 -3.1153 -0.4017
 9059SOL     OW38809   1.413   3.298   7.809  0.1722  0.0412 -0.3395
 9059SOL    HW138810   1.421   3.254   7.894 -1.7808 -0.2860 -0.3386
 9059SOL    HW238811   1.508   3.308   7.800  0.1961  0.1110 -0.0402
 9060SOL     OW38812   2.530   2.521   1.363  0.1447  0.0479 -0.3699
 9060SOL    HW138813   2.622   2.539   1.343  0.3589 -0.0022  0.5490
 9060SOL    HW238814   2.534   2.460   1.437  1.2924  0.3277 -0.1961
 9061SOL     OW38815   0.399   0.101   4.733 -0.5105  0.3829  0.4288
 9061SOL    HW138816   0.462   0.165   4.701 -0.6008  0.2329 -0.0586
 9061SOL    HW238817   0.335   0.104   4.661 -0.3014 -1.5291  0.1478
 9062SOL     OW38818   2.066   2.616  16.321  0.6027 -0.5306  0.1720
 9062SOL    HW138819   2.087   2.664  16.241 -1.6633  2.1918  1.2149
 9062SOL    HW238820   2.151   2.575  16.339  1.2101  0.8348  0.4003
 9063SOL     OW38821   3.698   1.738   9.667  0.5510  0.5256 -0.9237
 9063SOL    HW138822   3.685   1.807   9.732 -1.8333 -0.2436 -0.5882
 9063SOL    HW238823   3.781   1.699   9.693  0.4561  0.2335 -1.0565
 9064SOL     OW38824   4.011   1.936   8.705  0.3268 -0.2425  0.0907
 9064SOL    HW138825   3.921   1.908   8.723  0.4556 -0.6797  0.0658
 9064SOL    HW238826   4.047   1.936   8.794  0.3825 -0.3232  0.0684
 9065SOL     OW38827   3.901   2.586   7.092 -0.4043 -0.2972 -0.2159
 9065SOL    HW138828   3.882   2.667   7.046  1.6754 -0.4739 -1.4020
 9065SOL    HW238829   3.996   2.589   7.097 -0.3313 -1.9354 -0.3973
 9066SOL     OW38830   0.822   3.844   5.720 -0.4166 -0.0011 -0.0375
 9066SOL    HW138831   0.782   3.917   5.767 -1.0805 -0.8521  0.6979
 9066SOL    HW238832   0.800   3.861   5.628  0.5014  1.0338 -0.0638
 9067SOL     OW38833   1.245   3.613   2.384  0.1265  0.0917 -0.7903
 9067SOL    HW138834   1.306   3.539   2.385 -1.6470 -1.3684 -1.8661
 9067SOL    HW238835   1.286   3.677   2.325  0.4851  1.6116  1.0716
 9068SOL     OW38836   0.343   3.434   5.155  1.0518 -0.1926  0.0540
 9068SOL    HW138837   0.375   3.494   5.087  1.4624 -0.7903 -0.2730
 9068SOL    HW238838   0.418   3.382   5.181  2.9752  2.6128  0.1603
 9069SOL     OW38839   1.757   0.734   4.791  0.3305  0.4697  0.3286
 9069SOL    HW138840   1.783   0.801   4.729  1.1138  1.1552  1.4109
 9069SOL    HW238841   1.801   0.759   4.872  0.4258  0.6845  0.2088
 9070SOL     OW38842   4.331   1.830  12.615  0.1370 -0.2165  0.0251
 9070SOL    HW138843   4.353   1.763  12.551  2.5187  0.3732  0.2464
 9070SOL    HW238844   4.250   1.794  12.652  0.4984 -0.8064  0.2350
 9071SOL     OW38845   4.644   4.422  10.732 -0.1189 -0.0467 -0.9436
 9071SOL    HW138846   4.738   4.429  10.716  0.2868  0.1040  1.3853
 9071SOL    HW238847   4.608   4.428  10.644 -0.1929  2.4580 -0.7478
 9072SOL     OW38848   2.402   1.962   8.685 -0.2192 -0.3427 -0.3968
 9072SOL    HW138849   2.389   2.030   8.619  2.0468 -0.1173 -0.5981
 9072SOL    HW238850   2.365   1.892   8.632 -1.4711 -0.1867  0.2613
 9073SOL     OW38851   3.151   1.733   8.462  0.0536  0.2152  0.3269
 9073SOL    HW138852   3.121   1.823   8.477 -0.4198  0.4305 -1.9585
 9073SOL    HW238853   3.092   1.700   8.531 -0.7450 -0.8205 -0.8391
 9074SOL     OW38854   0.543   4.636   6.649  0.1569 -0.4186 -0.0199
 9074SOL    HW138855   0.500   4.590   6.721 -0.3085 -1.4221 -0.9377
 9074SOL    HW238856   0.505   4.587   6.576  0.9086  0.0008 -0.6882
 9075SOL     OW38857   2.555   4.245   5.500  0.7433  0.4563 -0.0339
 9075SOL    HW138858   2.623   4.271   5.438 -2.0192 -0.0728 -3.2547
 9075SOL    HW238859   2.595   4.242   5.587  1.2572  0.3537 -0.2777
 9076SOL     OW38860   1.097   3.271   2.942  0.2262 -0.7138 -0.8830
 9076SOL    HW138861   1.102   3.353   2.990  0.3132 -1.4490  0.3482
 9076SOL    HW238862   1.027   3.280   2.876 -1.3695  0.0260  0.9084
 9077SOL     OW38863   3.221   0.937   3.419  0.0011  0.2441  0.2364
 9077SOL    HW138864   3.316   0.934   3.436  0.0703  1.4151  0.0461
 9077SOL    HW238865   3.212   0.948   3.325 -2.1736 -1.1891  0.2860
 9078SOL     OW38866   3.602   3.188   3.804  0.7970  0.4446 -0.6634
 9078SOL    HW138867   3.511   3.218   3.803  0.6299 -0.0670 -0.9758
 9078SOL    HW238868   3.599   3.101   3.764  1.0111 -0.2164  0.7665
 9079SOL     OW38869   2.850   3.141   3.049 -0.0816  0.3358 -0.0102
 9079SOL    HW138870   2.763   3.155   3.012 -0.9623  1.9625  2.7216
 9079SOL    HW238871   2.884   3.139   2.959  1.1645  2.5996  0.3982
 9080SOL     OW38872   4.649   0.764  10.070  0.1505  0.2790 -0.4374
 9080SOL    HW138873   4.628   0.756  10.163  0.9020  0.1385 -0.2780
 9080SOL    HW238874   4.563   0.799  10.046 -0.4458 -1.0996 -0.3099
 9081SOL     OW38875   1.432   0.079   3.803 -0.0845  0.0820  0.6895
 9081SOL    HW138876   1.360   0.038   3.851  0.7214  1.5606  3.1240
 9081SOL    HW238877   1.444   0.157   3.857 -0.8895  0.0825  0.8730
 9082SOL     OW38878   3.004   3.452  11.917  0.7485 -0.4316  0.5099
 9082SOL    HW138879   3.017   3.365  11.955 -0.1377  0.0562  1.9139
 9082SOL    HW238880   2.916   3.478  11.944  0.6754 -0.2961  0.1357
 9083SOL     OW38881   1.868   2.464   7.321  0.4338  0.1296  0.7357
 9083SOL    HW138882   1.859   2.411   7.242 -1.4081  1.5646 -0.0013
 9083SOL    HW238883   1.856   2.392   7.382  2.5465 -0.8933 -0.0402
 9084SOL     OW38884   1.417   3.182  11.137 -0.0802  1.0668  0.3589
 9084SOL    HW138885   1.411   3.171  11.232  0.5688  2.2522  0.5341
 9084SOL    HW238886   1.454   3.268  11.120  0.3691  1.4323  3.1652
 9085SOL     OW38887   2.897   3.477   2.636  0.1104 -0.2521  0.0694
 9085SOL    HW138888   2.808   3.463   2.667 -0.3088  2.2483 -0.0018
 9085SOL    HW238889   2.923   3.552   2.689  0.5185 -0.0490 -0.4252
 9086SOL     OW38890   1.881   3.485   3.197 -0.2144 -0.6019  0.5785
 9086SOL    HW138891   1.855   3.512   3.109 -1.1987 -0.7562  0.8211
 9086SOL    HW238892   1.912   3.569   3.230 -0.5155 -0.2249 -0.0973
 9087SOL     OW38893   2.990   4.176   5.128 -0.0565  0.5228 -0.1890
 9087SOL    HW138894   2.984   4.080   5.125  0.3516  0.4956 -0.1152
 9087SOL    HW238895   3.037   4.199   5.047 -0.7052  1.3872 -0.3204
 9088SOL     OW38896   1.822   3.379   9.253  0.0496 -0.3077 -0.3023
 9088SOL    HW138897   1.745   3.409   9.206  0.3921  2.0039  0.5953
 9088SOL    HW238898   1.831   3.292   9.212  0.2059 -0.3433 -0.1927
 9089SOL     OW38899   3.217   1.848   1.964 -0.4548  0.2037 -0.3672
 9089SOL    HW138900   3.129   1.810   1.956  0.9275 -3.2231  0.7400
 9089SOL    HW238901   3.226   1.837   2.058 -1.0483 -0.6020 -0.4026
 9090SOL     OW38902   3.082   0.982   8.308  0.0135 -0.2916 -0.3828
 9090SOL    HW138903   3.071   0.961   8.401  0.2746 -0.4858 -0.3968
 9090SOL    HW238904   3.079   1.077   8.320 -0.7745 -0.3989  0.3349
 9091SOL     OW38905   4.298   0.102  12.381 -0.3587 -0.5408  0.2103
 9091SOL    HW138906   4.340   0.082  12.464  0.5485  0.0404 -0.1085
 9091SOL    HW238907   4.268   0.189  12.408  1.9654  0.0320  0.9444
 9092SOL     OW38908   4.403   0.979   6.155  0.3783  0.4331 -0.2005
 9092SOL    HW138909   4.437   0.913   6.216 -0.9556  1.3228  1.4645
 9092SOL    HW238910   4.444   1.055   6.195 -0.2152  1.5524 -1.7289
 9093SOL     OW38911   0.840   2.388   4.202  0.0084  0.7017 -0.6217
 9093SOL    HW138912   0.856   2.300   4.237 -0.3249  0.4779 -1.0282
 9093SOL    HW238913   0.744   2.385   4.201  0.0316 -0.3946  0.7043
 9094SOL     OW38914   1.902   0.013   3.634  0.1634  0.2215  0.0521
 9094SOL    HW138915   1.947   0.091   3.668  1.1961 -0.1286 -0.5133
 9094SOL    HW238916   1.971   4.688   3.643 -0.3150  0.1603  3.4358
 9095SOL     OW38917   3.278   1.358  10.412  0.1151  0.6239 -0.4292
 9095SOL    HW138918   3.317   1.433  10.456  0.4055  2.1153 -3.2435
 9095SOL    HW238919   3.187   1.386  10.402 -0.3323 -0.5389  0.3418
 9096SOL     OW38920   0.421   1.977   5.996 -0.0680  0.1599 -0.3703
 9096SOL    HW138921   0.353   2.004   6.057 -0.2222 -1.1304  0.0213
 9096SOL    HW238922   0.475   1.914   6.043  3.1798  1.0978 -2.7967
 9097SOL     OW38923   1.222   4.261   5.535 -0.2912  0.0498 -0.3956
 9097SOL    HW138924   1.224   4.305   5.450 -4.1912 -2.2385 -1.6612
 9097SOL    HW238925   1.277   4.185   5.514  0.4136  1.1244 -2.5217
 9098SOL     OW38926   3.344   2.661   1.375 -0.6339 -0.0953  0.2486
 9098SOL    HW138927   3.347   2.719   1.299  1.1161  0.9812  1.1498
 9098SOL    HW238928   3.434   2.636   1.394 -0.4504  0.6804  0.4254
 9099SOL     OW38929   1.514   2.733   4.779 -0.2586 -0.7596 -0.3015
 9099SOL    HW138930   1.517   2.672   4.853 -3.0888 -0.9020 -0.3152
 9099SOL    HW238931   1.574   2.684   4.723  2.2271  1.3758  0.4874
 9100SOL     OW38932   0.529   2.129   5.799  0.4285  0.0224 -0.1199
 9100SOL    HW138933   0.478   2.093   5.727  0.5801  0.0888 -0.2605
 9100SOL    HW238934   0.491   2.077   5.870  0.5643 -1.0489 -0.8340
 9101SOL     OW38935   1.576   2.361   2.432 -0.1745  0.0098 -0.0284
 9101SOL    HW138936   1.629   2.434   2.464 -1.3930  1.9209 -2.2931
 9101SOL    HW238937   1.511   2.354   2.502  0.0207  0.4954  0.2006
 9102SOL     OW38938   2.429   2.989   7.151 -0.2846  0.6833 -1.0237
 9102SOL    HW138939   2.437   2.953   7.063 -1.4498  0.8692 -1.2015
 9102SOL    HW238940   2.515   3.032   7.151 -0.7693  1.6313  1.2596
 9103SOL     OW38941   3.840   0.124  17.465 -0.3128  0.0737  0.5823
 9103SOL    HW138942   3.749   0.113  17.437 -0.0776 -0.2505 -0.0602
 9103SOL    HW238943   3.870   0.050  17.412 -0.5608  1.9482 -2.1844
 9104SOL     OW38944   3.903   2.842   7.278 -0.4535 -0.1202  0.3924
 9104SOL    HW138945   3.915   2.878   7.191  0.3094  0.2917  0.6626
 9104SOL    HW238946   3.812   2.820   7.261  0.0095 -2.0640  0.3628
 9105SOL     OW38947   0.998   3.837  11.658 -0.2346 -0.4970  0.8929
 9105SOL    HW138948   0.951   3.775  11.602 -1.4679  1.3295 -0.1007
 9105SOL    HW238949   0.920   3.853  11.711 -0.0078  2.0697  0.4505
 9106SOL     OW38950   0.749   2.693   2.416  0.4683 -0.0096 -0.2542
 9106SOL    HW138951   0.685   2.695   2.486 -0.1242  1.7974 -0.8315
 9106SOL    HW238952   0.710   2.767   2.368  0.4816 -0.4973 -1.0160
 9107SOL     OW38953   0.532   3.143   3.594  0.4573 -0.1305  0.4300
 9107SOL    HW138954   0.514   3.059   3.550 -1.6535  0.6717 -0.2330
 9107SOL    HW238955   0.538   3.106   3.682  0.0340 -1.5730 -0.1309
 9108SOL     OW38956   0.396   0.128   7.141  0.2457 -0.1593 -0.1672
 9108SOL    HW138957   0.360   0.084   7.064 -0.7277  0.8235 -0.2815
 9108SOL    HW238958   0.488   0.121   7.117 -0.1715 -0.6642 -1.6134
 9109SOL     OW38959   2.384   2.319   4.552  0.3310 -0.4785  0.5353
 9109SOL    HW138960   2.445   2.259   4.510  0.2693 -0.9457  1.1007
 9109SOL    HW238961   2.307   2.262   4.550  0.4624 -0.6122 -0.3068
 9110SOL     OW38962   2.260   0.048   8.870 -0.3256  0.0572 -0.2570
 9110SOL    HW138963   2.182   0.012   8.828  0.8344 -1.5903 -0.9748
 9110SOL    HW238964   2.257   0.143   8.853  0.2199  0.4359  1.7863
 9111SOL     OW38965   0.749   3.693  12.051 -0.1476 -0.0308 -0.9577
 9111SOL    HW138966   0.841   3.681  12.026 -0.1060 -1.7215 -0.0142
 9111SOL    HW238967   0.722   3.602  12.064  1.5869 -0.4361 -0.2222
 9112SOL     OW38968   1.370   2.114  11.555 -0.0325 -0.3693  0.4033
 9112SOL    HW138969   1.302   2.054  11.586 -2.1917  0.9587 -1.7244
 9112SOL    HW238970   1.432   2.101  11.627  2.1552  1.7875 -1.1079
 9113SOL     OW38971   1.988   1.860   7.149 -0.2200 -0.2521  0.3188
 9113SOL    HW138972   1.947   1.787   7.102  0.7615 -0.9708  0.5927
 9113SOL    HW238973   1.920   1.864   7.216 -0.1398 -0.2674  0.4014
 9114SOL     OW38974   4.609   4.327   4.244 -0.0204 -0.2153 -0.1937
 9114SOL    HW138975   4.516   4.349   4.249  0.0929  0.6186 -1.6130
 9114SOL    HW238976   4.603   4.233   4.229 -0.6738 -0.1436 -0.4090
 9115SOL     OW38977   2.470   0.944  11.646 -0.7636  0.2993 -0.3024
 9115SOL    HW138978   2.498   0.886  11.575  2.5131 -1.2653  2.3125
 9115SOL    HW238979   2.385   0.968  11.609 -0.5537 -1.1088 -1.7269
 9116SOL     OW38980   1.800   4.725  17.606 -0.0241  0.4228 -0.3732
 9116SOL    HW138981   1.758   4.643  17.578 -1.5471 -0.1988  3.7049
 9116SOL    HW238982   1.849   4.700  17.684  1.1827  1.5401 -0.7687
 9117SOL     OW38983   0.494   0.744   2.146  0.4141 -0.2530  0.5307
 9117SOL    HW138984   0.481   0.837   2.168  1.0867 -0.0273 -0.0412
 9117SOL    HW238985   0.516   0.712   2.233  1.5914  0.1096  0.3627
 9118SOL     OW38986   2.305   4.500   5.245  0.2124  0.0100 -0.4720
 9118SOL    HW138987   2.312   4.489   5.340 -1.0890  1.9988 -0.1424
 9118SOL    HW238988   2.217   4.462   5.245 -0.8252  2.4375  1.0967
 9119SOL     OW38989   4.553   2.918  12.190 -0.1951 -0.2871 -0.1356
 9119SOL    HW138990   4.553   2.824  12.207  0.0644 -0.2899 -0.1492
 9119SOL    HW238991   4.485   2.945  12.251  1.0532  0.3657  0.9767
 9120SOL     OW38992   4.653   2.545   7.917  0.1731  0.1022 -0.3492
 9120SOL    HW138993   4.661   2.452   7.937  0.2802  0.0734 -0.5268
 9120SOL    HW238994   4.662   2.542   7.822 -1.1382 -1.8017 -0.4206
 9121SOL     OW38995   0.954   0.637   1.958  0.2245 -0.0584 -0.2716
 9121SOL    HW138996   0.938   0.651   1.864  1.6909  3.5806  0.0190
 9121SOL    HW238997   0.985   0.722   1.989  0.2018 -0.4803  0.9158
 9122SOL     OW38998   0.495   0.557   7.682 -0.3580 -0.1382 -0.1272
 9122SOL    HW138999   0.423   0.608   7.643 -0.9437 -0.7611  0.1393
 9122SOL    HW239000   0.453   0.489   7.733  1.1380 -1.3397 -0.4966
 9123SOL     OW39001   3.625   3.783  10.924 -0.0536 -0.0050  0.2119
 9123SOL    HW139002   3.709   3.758  10.884 -0.0204 -0.9516  0.8677
 9123SOL    HW239003   3.571   3.772  10.846  1.7739  1.6182 -1.2952
 9124SOL     OW39004   2.015   1.308   8.682  0.4656 -0.3503 -0.1250
 9124SOL    HW139005   2.007   1.245   8.753 -0.5051 -2.1337 -1.8079
 9124SOL    HW239006   2.109   1.319   8.691  0.9223 -1.5934 -3.3757
 9125SOL     OW39007   4.544   3.920   6.055 -0.2782  0.5923  0.3680
 9125SOL    HW139008   4.477   3.923   6.124 -0.6002  0.3775  0.0628
 9125SOL    HW239009   4.508   3.982   5.992  1.3583  0.4433 -0.7194
 9126SOL     OW39010   1.487   3.060   3.303 -0.1970 -0.2421 -0.0144
 9126SOL    HW139011   1.503   3.069   3.397 -1.2042  0.7688  0.0678
 9126SOL    HW239012   1.545   2.996   3.263 -1.4759 -0.1602 -2.0122
 9127SOL     OW39013   4.591   1.992   2.993  0.4095 -0.3722 -0.0452
 9127SOL    HW139014   4.677   1.977   2.953  0.8726 -0.8772  1.1474
 9127SOL    HW239015   4.551   1.905   2.995  1.2773 -0.7164  1.9474
 9128SOL     OW39016   0.822   0.474  11.265 -0.2751 -0.5383  0.0200
 9128SOL    HW139017   0.736   0.469  11.307 -0.5482 -0.3749 -0.5167
 9128SOL    HW239018   0.815   0.562  11.226 -1.5838  0.2538  2.0638
 9129SOL     OW39019   2.819   4.212   8.464  0.1802  0.5200  0.1274
 9129SOL    HW139020   2.806   4.179   8.553  2.1805 -0.7276 -0.0359
 9129SOL    HW239021   2.872   4.288   8.488  4.3720 -1.8016 -1.7542
 9130SOL     OW39022   1.543   4.396  11.679 -0.0600 -0.3539 -0.5323
 9130SOL    HW139023   1.587   4.397  11.594 -0.8107 -0.9494 -0.9234
 9130SOL    HW239024   1.597   4.341  11.736 -0.6944 -0.8893 -0.4458
 9131SOL     OW39025   0.362   4.239   2.204 -0.2682  0.2491  0.1546
 9131SOL    HW139026   0.400   4.232   2.292 -1.2001  1.2278  0.6353
 9131SOL    HW239027   0.322   4.153   2.192  0.0509 -0.0630  1.3191
 9132SOL     OW39028   1.138   4.509   3.433 -0.4061  0.3482  0.2409
 9132SOL    HW139029   1.061   4.559   3.405 -3.4589 -5.1774 -1.1928
 9132SOL    HW239030   1.181   4.492   3.349 -0.7717  0.6654 -0.0118
 9133SOL     OW39031   0.184   2.561  12.621 -0.1719 -0.3786  0.3654
 9133SOL    HW139032   0.273   2.543  12.653  0.5819 -0.3897 -1.7164
 9133SOL    HW239033   0.205   2.575  12.528 -1.2388  1.5546  0.4260
 9134SOL     OW39034   4.227   3.036   9.149 -0.2025 -0.0166  0.9061
 9134SOL    HW139035   4.225   3.129   9.171  3.7009 -0.2445  2.2206
 9134SOL    HW239036   4.278   3.009   9.225 -2.0774 -0.9202  1.8382
 9135SOL     OW39037   0.857   2.040   8.157 -0.1420  0.5972  0.0163
 9135SOL    HW139038   0.871   2.007   8.246 -0.0365 -2.6548 -1.2283
 9135SOL    HW239039   0.890   2.130   8.163  1.3181 -0.0975  2.5142
 9136SOL     OW39040   3.333   2.902   5.235 -0.3387  0.5097 -0.1576
 9136SOL    HW139041   3.318   2.996   5.241 -2.9002 -0.0590  2.1726
 9136SOL    HW239042   3.367   2.884   5.322 -1.9186  0.9668  0.5529
 9137SOL     OW39043   0.466   0.736  12.841 -0.4124  0.4378  0.7007
 9137SOL    HW139044   0.458   0.784  12.759  1.0375  2.4274  1.7154
 9137SOL    HW239045   0.487   0.646  12.813 -0.3957  1.0009 -1.0859
 9138SOL     OW39046   2.585   3.739   6.652  0.4864 -0.2092  0.1402
 9138SOL    HW139047   2.605   3.646   6.651  0.4780 -0.1961 -1.1622
 9138SOL    HW239048   2.531   3.750   6.731  1.0164 -0.7995  0.5848
 9139SOL     OW39049   2.851   0.119   5.855 -0.2950  0.1640  0.1166
 9139SOL    HW139050   2.913   0.059   5.812  0.2770  0.8542 -0.0272
 9139SOL    HW239051   2.829   0.167   5.774  0.5115 -0.1567 -0.2940
 9140SOL     OW39052   2.176   1.794   6.468 -0.2695 -0.1484 -0.6015
 9140SOL    HW139053   2.235   1.753   6.404 -0.3318 -2.9942  1.1773
 9140SOL    HW239054   2.117   1.719   6.471  0.1624 -0.4798 -0.4656
 9141SOL     OW39055   0.771   1.026  10.795  0.6744 -0.1292 -0.0117
 9141SOL    HW139056   0.788   0.932  10.801  1.1463  0.0300  1.2053
 9141SOL    HW239057   0.839   1.064  10.740  0.3803  0.3261 -0.0562
 9142SOL     OW39058   3.753   4.290   4.282 -0.6051  0.4449  0.6086
 9142SOL    HW139059   3.775   4.270   4.373  0.8571 -1.0561 -0.0684
 9142SOL    HW239060   3.719   4.378   4.298  0.3881  1.2579 -1.6883
 9143SOL     OW39061   2.026   2.231   5.175 -0.4184 -0.4965 -0.6992
 9143SOL    HW139062   2.062   2.258   5.259 -1.4345  2.0850 -1.0931
 9143SOL    HW239063   2.045   2.306   5.118 -2.6026 -1.9942 -3.3723
 9144SOL     OW39064   2.508   3.547   3.213  0.2502 -0.7328 -0.5369
 9144SOL    HW139065   2.525   3.454   3.203  1.4844 -0.8207  2.3486
 9144SOL    HW239066   2.524   3.582   3.125  1.7472  0.8793  0.3782
 9145SOL     OW39067   2.275   3.848  11.669 -0.6081  0.2710 -0.1131
 9145SOL    HW139068   2.185   3.841  11.701 -0.3953  2.3297  0.9554
 9145SOL    HW239069   2.259   3.787  11.597 -0.9134  1.4952 -1.0956
 9146SOL     OW39070   3.547   3.971   7.092  0.6664 -0.0491 -0.3537
 9146SOL    HW139071   3.550   3.979   6.996  1.1285 -1.0998 -0.4291
 9146SOL    HW239072   3.454   3.984   7.109  0.5702 -0.7590 -0.3471
 9147SOL     OW39073   3.080   2.630   9.368  0.6172 -0.2703 -0.0571
 9147SOL    HW139074   3.053   2.661   9.282  2.7148  1.2331 -0.1807
 9147SOL    HW239075   2.989   2.607   9.383  0.1510  2.3908  1.2578
 9148SOL     OW39076   1.078   2.647   5.880 -0.0319 -0.8616 -0.0912
 9148SOL    HW139077   1.051   2.710   5.814  2.9232 -0.2076 -0.6817
 9148SOL    HW239078   1.015   2.575   5.882 -3.3686  2.0720  0.2229
 9149SOL     OW39079   2.895   2.224   9.335 -0.3636  0.2892 -0.0328
 9149SOL    HW139080   2.839   2.297   9.310 -0.7818  0.1400  0.4930
 9149SOL    HW239081   2.909   2.250   9.426  3.3092  1.5574 -0.9249
 9150SOL     OW39082   3.897   4.248   7.330 -0.1810 -0.3277 -0.2010
 9150SOL    HW139083   3.833   4.212   7.269 -1.2303 -1.2300  1.4471
 9150SOL    HW239084   3.934   4.318   7.276 -0.3277  0.1577  0.3346
 9151SOL     OW39085   3.816   1.221   3.171  0.7620 -0.6275  0.0201
 9151SOL    HW139086   3.891   1.173   3.135  1.6453  0.1862  0.7720
 9151SOL    HW239087   3.782   1.167   3.243 -0.8612  0.4498  0.0620
 9152SOL     OW39088   2.926   2.331   9.584 -0.2365 -0.2368 -0.4718
 9152SOL    HW139089   3.001   2.353   9.640  0.0561 -1.2866 -0.4526
 9152SOL    HW239090   2.865   2.396   9.619 -0.3803 -0.0473 -1.0690
 9153SOL     OW39091   1.025   0.144   8.319  0.0411  0.4870 -0.0091
 9153SOL    HW139092   0.956   0.144   8.253  1.9804 -0.7742 -2.0203
 9153SOL    HW239093   1.050   0.053   8.305 -1.5888 -0.6324  4.4293
 9154SOL     OW39094   1.616   3.780   1.699  0.2706 -0.0127 -0.4339
 9154SOL    HW139095   1.672   3.743   1.631  1.3979  0.1698  0.3939
 9154SOL    HW239096   1.611   3.709   1.763 -1.3908  0.1180 -0.4093
 9155SOL     OW39097   3.594   4.487  17.370  0.4012 -0.2567 -0.0145
 9155SOL    HW139098   3.535   4.431  17.319 -0.1396 -0.6119  1.0193
 9155SOL    HW239099   3.631   4.425  17.433  1.1130  0.2786  0.0971
 9156SOL     OW39100   1.668   1.455   4.794  0.2042 -0.0158  0.4597
 9156SOL    HW139101   1.580   1.422   4.812 -0.2622 -0.8964 -3.4126
 9156SOL    HW239102   1.640   1.539   4.757  1.3008  0.5306  0.8615
 9157SOL     OW39103   0.568   4.605   1.418  0.2137  0.6515 -0.1595
 9157SOL    HW139104   0.648   4.658   1.414  0.7812 -0.2277 -0.6260
 9157SOL    HW239105   0.535   4.631   1.504  1.5875  0.4887  0.4174
 9158SOL     OW39106   3.187   2.095   4.767 -0.9107 -0.4786  0.0368
 9158SOL    HW139107   3.134   2.122   4.842 -1.2869 -1.1015 -0.0048
 9158SOL    HW239108   3.126   2.042   4.715  0.0883 -0.8103 -0.7960
 9159SOL     OW39109   0.713   3.242  12.333  0.1803 -0.1022  0.1332
 9159SOL    HW139110   0.695   3.159  12.290 -0.6487 -0.6911  1.6252
 9159SOL    HW239111   0.635   3.253  12.387 -0.4909 -1.9131 -0.4776
 9160SOL     OW39112   2.106   0.156   5.812 -0.6296  0.8004 -0.3765
 9160SOL    HW139113   2.134   0.245   5.832  1.1238  0.0858  0.3681
 9160SOL    HW239114   2.113   0.122   5.902  0.7071 -1.3665 -1.2880
 9161SOL     OW39115   1.627   3.088  14.160  0.1842  0.0042 -0.6574
 9161SOL    HW139116   1.605   3.054  14.073 -1.2149  0.9176 -0.6700
 9161SOL    HW239117   1.541   3.120  14.187  1.0047 -1.0803  3.1876
 9162SOL     OW39118   3.858   1.686   3.834 -0.2328 -0.1494 -0.1922
 9162SOL    HW139119   3.841   1.595   3.860  0.9424  0.0481  1.2895
 9162SOL    HW239120   3.797   1.703   3.763 -0.4333 -0.2685 -0.0470
 9163SOL     OW39121   0.917   2.420   5.859 -0.1308  0.3228 -0.1002
 9163SOL    HW139122   0.882   2.331   5.856 -2.5151  1.1637  1.7177
 9163SOL    HW239123   0.836   2.471   5.853 -0.6240 -0.6551 -1.5427
 9164SOL     OW39124   2.693   3.494   3.971  0.0238 -0.7579  0.2966
 9164SOL    HW139125   2.754   3.516   3.900 -0.4575  0.5392  0.2851
 9164SOL    HW239126   2.620   3.465   3.915 -0.8037  0.6949  0.6141
 9165SOL     OW39127   0.547   0.935   2.983  0.2955  0.4847  0.0625
 9165SOL    HW139128   0.589   1.015   3.014 -0.8336  0.3685  1.8738
 9165SOL    HW239129   0.550   0.877   3.059  2.3875 -1.1144 -1.2411
 9166SOL     OW39130   1.922   4.647   4.769  0.4801  0.4037  0.2057
 9166SOL    HW139131   1.890   4.665   4.680 -2.8265 -1.7442  0.9622
 9166SOL    HW239132   1.868   4.569   4.783  3.0389 -1.3500  0.2477
 9167SOL     OW39133   3.664   4.703   8.916 -0.1852  0.0574  0.1896
 9167SOL    HW139134   3.587   4.673   8.964  0.5794  0.7326  1.8307
 9167SOL    HW239135   3.640   0.051   8.886  1.6947  2.2050  5.0166
 9168SOL     OW39136   2.530   0.349   0.261 -0.3249 -0.1481  0.2769
 9168SOL    HW139137   2.585   0.426   0.279 -0.3810  0.1501 -0.7870
 9168SOL    HW239138   2.583   0.315   0.189  0.4814  1.1853  0.2425
 9169SOL     OW39139   0.461   0.272  15.576  0.4183 -0.2850  0.0999
 9169SOL    HW139140   0.416   0.224  15.506 -0.0333  3.5229 -2.2325
 9169SOL    HW239141   0.553   0.270  15.550 -0.0455  2.2463 -1.7375
 9170SOL     OW39142   4.672   1.996   5.227 -0.7128  0.1692  0.1163
 9170SOL    HW139143   4.607   2.040   5.282  2.1527  1.0344  2.7845
 9170SOL    HW239144   4.640   2.001   5.137 -1.8563  1.2910  0.5851
 9171SOL     OW39145   3.852   0.822   2.134 -0.1604 -0.3723 -0.1856
 9171SOL    HW139146   3.850   0.740   2.085 -1.5088 -0.0039 -0.7704
 9171SOL    HW239147   3.923   0.809   2.196 -1.7310 -2.3195  1.1911
 9172SOL     OW39148   2.702   4.557   5.538  0.2812 -0.3756 -0.1773
 9172SOL    HW139149   2.695   4.566   5.633 -1.0696 -0.5648 -0.2592
 9172SOL    HW239150   2.796   4.543   5.529  0.1745 -0.9200 -0.4374
 9173SOL     OW39151   3.383   1.743   1.395 -0.0404 -0.2712  0.4653
 9173SOL    HW139152   3.333   1.760   1.315  3.7332 -0.2746 -1.8851
 9173SOL    HW239153   3.453   1.681   1.375 -0.7424 -0.3943 -1.6055
 9174SOL     OW39154   2.791   3.312   7.595 -0.5689  0.6024 -0.3226
 9174SOL    HW139155   2.813   3.235   7.648 -4.3796  0.6567  1.3665
 9174SOL    HW239156   2.742   3.367   7.657 -0.3998  1.3180 -0.8225
 9175SOL     OW39157   1.558   4.736  10.320  0.5484  0.0039  0.1917
 9175SOL    HW139158   1.537   0.087  10.302  3.2977  0.2091 -1.9813
 9175SOL    HW239159   1.566   0.010  10.414 -3.3824  1.6497  0.2829
 9176SOL     OW39160   2.966   2.126   2.255  0.3043  0.3318 -0.3820
 9176SOL    HW139161   2.909   2.140   2.331  0.9559  2.9780 -0.3788
 9176SOL    HW239162   3.053   2.133   2.293 -0.1135  0.2980  0.5742
 9177SOL     OW39163   0.599   2.652   7.421 -0.7929 -0.9649  0.0899
 9177SOL    HW139164   0.556   2.701   7.491 -1.3198 -0.7544 -0.3808
 9177SOL    HW239165   0.689   2.682   7.428 -0.6234 -1.7028  1.0909
 9178SOL     OW39166   2.808   1.832   3.130  0.3492  0.0588 -0.0723
 9178SOL    HW139167   2.871   1.898   3.100 -0.9672  0.5361 -1.7726
 9178SOL    HW239168   2.727   1.876   3.103  1.1807  2.1601  0.8226
 9179SOL     OW39169   0.203   0.765   3.586 -0.4760 -0.2929  0.1231
 9179SOL    HW139170   0.179   0.689   3.639 -0.2170 -1.3763 -1.3034
 9179SOL    HW239171   0.207   0.728   3.498  0.1894  1.6443 -0.6710
 9180SOL     OW39172   4.619   0.951   8.692  0.5002  0.1988 -0.2440
 9180SOL    HW139173   4.682   1.014   8.658  0.4463  1.0837  1.2777
 9180SOL    HW239174   4.639   0.877   8.635  0.2459 -1.3288  1.6488
 9181SOL     OW39175   4.129   2.171  10.562  0.4713 -0.1765 -0.1171
 9181SOL    HW139176   4.085   2.171  10.647  0.6664  0.6608 -0.0219
 9181SOL    HW239177   4.100   2.086  10.527 -0.8885  0.9356 -1.6852
 9182SOL     OW39178   2.819   0.777   2.564  0.0138  0.0773 -0.6301
 9182SOL    HW139179   2.788   0.802   2.652  0.9373  0.0914 -0.3081
 9182SOL    HW239180   2.868   0.699   2.589  2.0166  1.9639  1.3898
 9183SOL     OW39181   3.030   3.691  17.318 -0.0869 -0.2798 -0.2460
 9183SOL    HW139182   2.983   3.716  17.239 -0.0814  1.3394  0.2546
 9183SOL    HW239183   2.970   3.620  17.340  0.1346 -1.0430 -2.1590
 9184SOL     OW39184   3.972   1.653  13.788  0.4324  0.4070 -0.3518
 9184SOL    HW139185   3.996   1.699  13.707 -1.3205 -0.5753 -1.4398
 9184SOL    HW239186   3.919   1.719  13.832  1.7261 -0.4235  2.4095
 9185SOL     OW39187   2.683   0.399  11.185 -0.3750 -0.1221 -0.6163
 9185SOL    HW139188   2.734   0.392  11.266  0.0355  1.3362 -0.7586
 9185SOL    HW239189   2.718   0.328  11.131  1.1990  1.1593 -1.2613
 9186SOL     OW39190   4.543   2.648  13.377  0.0142 -0.0613 -0.7580
 9186SOL    HW139191   4.476   2.700  13.332  1.9351  2.0273 -1.1871
 9186SOL    HW239192   4.609   2.717  13.380 -1.8249  1.6208  1.6007
 9187SOL     OW39193   0.731   1.784   4.752  0.3863  0.4247 -0.7001
 9187SOL    HW139194   0.690   1.744   4.828  1.5180 -0.3193 -0.4718
 9187SOL    HW239195   0.817   1.771   4.793 -0.6914  1.6438  1.8942
 9188SOL     OW39196   3.643   0.115   1.999 -0.5002  1.2334 -0.3870
 9188SOL    HW139197   3.629   0.090   2.091 -0.9818 -1.1027 -1.0852
 9188SOL    HW239198   3.634   0.210   2.008  3.2661  1.5142  0.4724
 9189SOL     OW39199   2.685   2.934  10.872 -0.0473 -0.2434 -0.0392
 9189SOL    HW139200   2.643   2.928  10.786 -1.0226  2.4124  0.2269
 9189SOL    HW239201   2.696   3.029  10.872  0.3523 -0.2913 -2.8679
 9190SOL     OW39202   0.677   3.311   6.805  0.0694 -0.3530 -0.0124
 9190SOL    HW139203   0.583   3.301   6.824 -0.2433  1.2309 -0.7422
 9190SOL    HW239204   0.676   3.305   6.710  3.1248 -3.5865  0.1540
 9191SOL     OW39205   2.603   1.733   5.055  0.3840  0.0958 -1.1416
 9191SOL    HW139206   2.514   1.739   5.092  1.4220 -1.2573  1.5657
 9191SOL    HW239207   2.632   1.647   5.084 -0.2840  0.2024 -0.1523
 9192SOL     OW39208   3.394   2.106  13.679  0.4402 -0.3351  0.0357
 9192SOL    HW139209   3.456   2.171  13.712  0.0240 -0.0354  0.2419
 9192SOL    HW239210   3.453   2.031  13.687  0.1378 -0.7918 -2.1151
 9193SOL     OW39211   3.236   1.155  13.875  0.1446 -0.6406  0.6000
 9193SOL    HW139212   3.235   1.251  13.878 -0.1098 -0.6335  0.2096
 9193SOL    HW239213   3.244   1.134  13.968 -0.0764 -1.2337  0.4830
 9194SOL     OW39214   0.658   0.852   0.328  0.1466  0.1293  0.2473
 9194SOL    HW139215   0.570   0.832   0.295  0.9269 -1.3743 -0.9539
 9194SOL    HW239216   0.647   0.808   0.413  1.3674  0.5589  0.6281
 9195SOL     OW39217   2.091   2.772   9.282  0.2982 -0.7305 -0.0344
 9195SOL    HW139218   2.009   2.729   9.308  0.2766  0.1096  1.2783
 9195SOL    HW239219   2.103   2.842   9.346  2.0928  0.7427 -1.9943
 9196SOL     OW39220   3.449   4.264   3.992 -0.3509  0.2174  0.0111
 9196SOL    HW139221   3.439   4.359   3.990 -0.1322  0.2228 -1.2088
 9196SOL    HW239222   3.391   4.219   4.053 -0.9252  0.7176 -0.1707
 9197SOL     OW39223   1.525   0.390   8.636 -0.7087  0.5940 -0.2239
 9197SOL    HW139224   1.612   0.350   8.648 -0.8278  0.0547 -1.1932
 9197SOL    HW239225   1.538   0.475   8.678 -0.3480 -1.0478  3.0684
 9198SOL     OW39226   0.953   2.520   8.020  0.5638  0.4590  0.4784
 9198SOL    HW139227   1.045   2.534   7.995  0.1566 -0.1914 -1.4014
 9198SOL    HW239228   0.951   2.550   8.111 -1.0270  1.3752  0.1371
 9199SOL     OW39229   1.307   1.307   9.037 -0.4992  0.0311 -0.7355
 9199SOL    HW139230   1.359   1.257   8.975  0.7771 -1.4724  1.5438
 9199SOL    HW239231   1.317   1.399   9.011 -1.7772  1.3429  3.3231
 9200SOL     OW39232   2.594   0.909   3.450  1.1522 -0.6029  0.0824
 9200SOL    HW139233   2.595   0.948   3.363 -0.2608  0.5099  0.5606
 9200SOL    HW239234   2.540   0.831   3.438  0.8882 -0.5363  0.7937
 9201SOL     OW39235   2.226   1.621   0.070 -0.2961 -0.0452  0.3533
 9201SOL    HW139236   2.268   1.704   0.094  0.4916 -0.4859  0.5107
 9201SOL    HW239237   2.210   1.571   0.150  3.4533 -2.6543 -0.5314
 9202SOL     OW39238   1.783   3.624   1.167  0.2763  0.6361  0.0464
 9202SOL    HW139239   1.802   3.566   1.093  1.5303  0.4309  0.5256
 9202SOL    HW239240   1.703   3.587   1.204  0.0983  0.0158 -0.9587
 9203SOL     OW39241   0.223   1.496   5.118  0.0976  0.1561  0.0522
 9203SOL    HW139242   0.237   1.538   5.203  3.6613  1.7025 -1.3222
 9203SOL    HW239243   0.219   1.569   5.056 -0.3490  0.0778 -0.0104
 9204SOL     OW39244   1.961   3.147  14.088 -0.4966 -0.0189  0.0922
 9204SOL    HW139245   1.918   3.100  14.160 -0.9861 -1.3057 -1.0510
 9204SOL    HW239246   1.987   3.072  14.035 -0.8390  0.7474 -1.1505
 9205SOL     OW39247   3.729   2.285   8.800 -0.2966  0.6123  0.1311
 9205SOL    HW139248   3.646   2.330   8.813 -0.5169 -0.2158  1.5957
 9205SOL    HW239249   3.748   2.273   8.893  0.9851 -0.8909 -0.3187
 9206SOL     OW39250   0.862   2.837   5.381 -0.2069 -0.7361  0.2617
 9206SOL    HW139251   0.882   2.928   5.404 -2.7203  0.5459 -2.7614
 9206SOL    HW239252   0.881   2.780   5.456 -1.4465 -1.5631 -0.0657
 9207SOL     OW39253   4.367   2.750   6.278 -0.3353  0.9984  0.9218
 9207SOL    HW139254   4.385   2.733   6.186 -1.7939  0.8875  0.6731
 9207SOL    HW239255   4.406   2.837   6.292  0.7391  0.5827  0.5713
 9208SOL     OW39256   3.081   1.397   3.976  0.2098  0.0021 -0.0513
 9208SOL    HW139257   3.156   1.348   4.010  1.4697  2.0330  0.1020
 9208SOL    HW239258   3.096   1.476   4.028 -1.9725  1.4974 -1.6721
 9209SOL     OW39259   2.173   0.768   5.378 -0.3006 -0.0003  0.3607
 9209SOL    HW139260   2.078   0.769   5.374 -0.3363 -2.4300  0.5271
 9209SOL    HW239261   2.185   0.851   5.425 -0.9683  0.1755  0.2090
 9210SOL     OW39262   3.543   3.124   7.592  0.2744  0.5564 -0.3075
 9210SOL    HW139263   3.595   3.046   7.572  2.4888  1.5678  1.5286
 9210SOL    HW239264   3.594   3.195   7.553 -2.1105  2.3958 -0.0499
 9211SOL     OW39265   1.239   0.733   2.165  0.4930 -0.2717  0.0278
 9211SOL    HW139266   1.288   0.814   2.154 -0.2442  0.1201 -0.4101
 9211SOL    HW239267   1.176   0.789   2.211  0.5436 -0.2299  0.0465
 9212SOL     OW39268   3.768   4.017  15.732  0.4904  0.3353  0.1471
 9212SOL    HW139269   3.722   4.079  15.674  2.0725 -1.1023 -2.6748
 9212SOL    HW239270   3.712   3.940  15.727  1.4552 -0.3162 -0.7418
 9213SOL     OW39271   1.302   0.056   7.196  0.3980 -0.3650 -0.2117
 9213SOL    HW139272   1.266   0.074   7.283 -1.2314 -0.9042 -0.7858
 9213SOL    HW239273   1.357   0.134   7.183  1.7865 -0.8741  2.6358
 9214SOL     OW39274   1.963   0.505   7.548 -0.0106 -0.4355 -0.4629
 9214SOL    HW139275   2.022   0.498   7.473  1.1836  0.2496  0.4259
 9214SOL    HW239276   1.895   0.566   7.519 -0.8561 -0.5975  1.1862
 9215SOL     OW39277   2.533   2.164   6.802 -0.0811  0.4761 -0.1192
 9215SOL    HW139278   2.439   2.168   6.821 -0.1329 -0.1531 -0.2618
 9215SOL    HW239279   2.569   2.247   6.835  2.3627 -1.4177  1.9931
 9216SOL     OW39280   2.901   3.991   8.276  0.0678 -0.0504 -0.4332
 9216SOL    HW139281   2.829   3.984   8.213 -1.3887  2.5993  0.9400
 9216SOL    HW239282   2.879   4.068   8.327 -1.9511 -0.1739 -1.0903
 9217SOL     OW39283   0.018   2.523   7.355 -0.3691  0.4107  0.2890
 9217SOL    HW139284   0.076   2.577   7.408 -0.9982  1.3854 -0.0140
 9217SOL    HW239285   0.061   2.524   7.270 -0.2091 -1.5897  0.3444
 9218SOL     OW39286   3.005   4.607   7.352  0.0476  0.4505  0.4911
 9218SOL    HW139287   3.008   4.683   7.294  0.4967  1.7770  2.2555
 9218SOL    HW239288   2.998   4.528   7.298  1.7785  1.2992 -0.9563
 9219SOL     OW39289   1.897   0.890   9.351 -0.3112  0.3709 -0.0240
 9219SOL    HW139290   1.830   0.864   9.288 -0.7831  2.4223 -0.3719
 9219SOL    HW239291   1.974   0.850   9.312 -0.0528 -0.7859  1.6920
 9220SOL     OW39292   4.615   0.808   2.528  0.2015  0.0017 -0.4389
 9220SOL    HW139293   4.690   0.849   2.485 -0.3172 -1.8162 -3.1168
 9220SOL    HW239294   4.648   0.777   2.612 -2.5343  0.0987  0.6635
 9221SOL     OW39295   1.680   4.282   4.373  0.1467  0.3892  0.4576
 9221SOL    HW139296   1.734   4.292   4.295  0.6909  1.9141  1.0286
 9221SOL    HW239297   1.599   4.331   4.358 -0.9297 -1.9713 -1.3426
 9222SOL     OW39298   1.799   1.070  17.277 -0.0587  0.0181 -0.7553
 9222SOL    HW139299   1.891   1.058  17.253  0.2213 -0.5833  0.5878
 9222SOL    HW239300   1.781   1.163  17.292  2.0249  0.2946  0.1209
 9223SOL     OW39301   1.199   3.013   7.776  0.3087  0.3444 -0.2116
 9223SOL    HW139302   1.172   3.103   7.792  1.4961  0.3851  1.5092
 9223SOL    HW239303   1.255   3.023   7.699  1.3904 -1.4870  0.3406
 9224SOL     OW39304   3.911   4.244   5.934 -0.1095  0.3484  0.5713
 9224SOL    HW139305   3.910   4.317   5.995  2.0838  1.1968 -0.4173
 9224SOL    HW239306   3.825   4.202   5.942 -0.3600  1.1702  2.0875
 9225SOL     OW39307   3.468   2.160   3.611  0.1573 -0.4766 -0.0197
 9225SOL    HW139308   3.465   2.145   3.517  0.0083 -1.1855  0.0916
 9225SOL    HW239309   3.497   2.250   3.620 -3.4912  0.7260 -0.2913
 9226SOL     OW39310   3.515   1.993   7.549  0.2581  0.0548 -0.2828
 9226SOL    HW139311   3.562   1.967   7.628  1.2639 -1.0766 -1.2478
 9226SOL    HW239312   3.438   2.033   7.587  0.2779  0.7254 -0.9352
 9227SOL     OW39313   0.097   1.921   9.542  0.0658  0.3898  0.2136
 9227SOL    HW139314   0.158   1.994   9.548 -0.2150  0.6602 -0.2386
 9227SOL    HW239315   0.109   1.884   9.455  0.6390 -2.9548  1.7185
 9228SOL     OW39316   3.629   3.565  10.697 -0.1470  0.0583 -0.0772
 9228SOL    HW139317   3.553   3.605  10.654 -1.3853 -1.5209  0.6526
 9228SOL    HW239318   3.664   3.503  10.632  0.2337  1.5563 -1.3076
 9229SOL     OW39319   4.738   4.087   6.321 -0.2156 -0.7937  0.1994
 9229SOL    HW139320   0.024   4.035   6.245  1.2012  0.5607 -0.2195
 9229SOL    HW239321   0.056   4.163   6.325 -4.3228  2.4173 -1.3478
 9230SOL     OW39322   3.827   0.013   1.288 -0.4386 -0.5484  0.5277
 9230SOL    HW139323   3.890   0.030   1.357  0.0954 -0.6704  0.0718
 9230SOL    HW239324   3.819   0.101   1.250  2.7792 -0.4563  0.0537
 9231SOL     OW39325   3.160   3.785   5.302 -0.2205 -0.0786  0.7961
 9231SOL    HW139326   3.205   3.701   5.315 -0.3012 -0.4172 -1.0917
 9231SOL    HW239327   3.096   3.778   5.373  0.1866  0.3706  1.2052
 9232SOL     OW39328   4.572   2.394  13.272  0.5228 -0.1374  1.0069
 9232SOL    HW139329   4.585   2.485  13.299  0.5072 -0.0379  0.6889
 9232SOL    HW239330   4.562   2.401  13.177  0.5238 -0.8886  0.9557
 9233SOL     OW39331   1.983   3.888   6.641  0.5287  0.0688  0.3856
 9233SOL    HW139332   2.004   3.848   6.557  1.9583  1.1698  0.2164
 9233SOL    HW239333   1.981   3.978   6.606 -1.2910  0.3368  1.2079
 9234SOL     OW39334   2.329   2.109   6.090 -0.5586 -0.7838  0.1413
 9234SOL    HW139335   2.376   2.055   6.153  0.8549  0.4293  0.1253
 9234SOL    HW239336   2.291   2.177   6.145 -0.2501 -1.1704  0.8285
 9235SOL     OW39337   3.864   1.862  16.745 -0.5861  0.0765  0.4697
 9235SOL    HW139338   3.947   1.907  16.762 -0.7003  0.3157  0.3902
 9235SOL    HW239339   3.883   1.847  16.652 -1.0229 -0.7275  0.5114
 9236SOL     OW39340   2.003   2.864   6.407 -0.6380  0.3626  0.4420
 9236SOL    HW139341   2.053   2.873   6.326 -0.2924  0.3631  0.6554
 9236SOL    HW239342   1.998   2.959   6.418  0.6096  0.4298  0.4749
 9237SOL     OW39343   2.707   0.018   1.050 -0.1900 -0.4598 -0.1661
 9237SOL    HW139344   2.661   0.097   1.077 -0.7075 -0.9959  0.5291
 9237SOL    HW239345   2.738   0.049   0.965 -0.1978 -0.5588 -0.2046
 9238SOL     OW39346   3.487   2.250  15.977 -0.1844  0.8792 -0.1466
 9238SOL    HW139347   3.483   2.189  16.051 -2.0639 -1.1602 -1.9371
 9238SOL    HW239348   3.581   2.268  15.976  0.2370 -1.0487  3.4724
 9239SOL     OW39349   1.968   1.928  16.697 -0.3175 -0.7111 -0.7010
 9239SOL    HW139350   1.906   1.987  16.740 -0.3225  0.6736 -2.6282
 9239SOL    HW239351   1.913   1.853  16.673  1.0966 -2.2399  0.8145
 9240SOL     OW39352   4.481   0.090   4.426  0.2868  0.1823 -0.7533
 9240SOL    HW139353   4.473   0.039   4.507 -0.8126  2.2540  0.4249
 9240SOL    HW239354   4.491   0.178   4.461  0.2775 -0.2096  0.2362
 9241SOL     OW39355   3.036   4.377   8.540  0.1088  0.0999  0.0945
 9241SOL    HW139356   3.113   4.389   8.484  0.6590  1.0542  1.0520
 9241SOL    HW239357   3.011   4.462   8.575 -0.7379 -0.6710  1.3434
 9242SOL     OW39358   2.907   0.462   7.773  0.5969 -0.3829  0.1800
 9242SOL    HW139359   2.926   0.551   7.803 -1.0290  1.6044 -4.7286
 9242SOL    HW239360   2.983   0.415   7.807  0.7219 -1.2002 -1.2141
 9243SOL     OW39361   2.279   2.031   1.354  0.1688  0.1995 -0.4244
 9243SOL    HW139362   2.241   2.087   1.286  0.8997  0.2528 -0.7845
 9243SOL    HW239363   2.340   1.976   1.306 -0.8046 -0.9714 -0.3435
 9244SOL     OW39364   1.827   0.645   1.798 -0.3240  0.2116  0.0414
 9244SOL    HW139365   1.860   0.592   1.870 -1.1180 -2.2930 -1.4423
 9244SOL    HW239366   1.752   0.592   1.772 -0.7543  0.1463  1.4534
 9245SOL     OW39367   3.761   3.252   7.488 -0.1478 -0.0303  0.5717
 9245SOL    HW139368   3.762   3.156   7.490  0.4500 -0.0330 -0.3314
 9245SOL    HW239369   3.841   3.272   7.538 -1.0345  0.7348  1.6863
 9246SOL     OW39370   2.241   0.057   4.632  0.1606 -0.1240 -0.1850
 9246SOL    HW139371   2.300   0.090   4.565  0.3485 -3.6989 -1.7801
 9246SOL    HW239372   2.152   0.046   4.599 -0.8457  2.3499  1.6775
 9247SOL     OW39373   0.144   3.981   7.218 -0.6472 -0.1579  0.6167
 9247SOL    HW139374   0.087   3.922   7.167 -1.2697  1.1854 -0.2543
 9247SOL    HW239375   0.087   4.001   7.292 -1.3561 -0.7242  0.2310
 9248SOL     OW39376   4.304   1.756   5.927 -0.2330 -0.1011  0.5575
 9248SOL    HW139377   4.291   1.691   5.857  2.4491 -0.2136  0.1870
 9248SOL    HW239378   4.266   1.701   5.995 -1.4915 -0.4941 -0.4470
 9249SOL     OW39379   0.076   2.602   3.825  0.4131  0.0198 -0.1103
 9249SOL    HW139380   4.736   2.639   3.860  0.3525 -1.1971  1.0088
 9249SOL    HW239381   0.061   2.510   3.846  0.7873  0.4060  1.8612
 9250SOL     OW39382   0.564   2.619   6.706 -0.4815 -0.2406 -0.3974
 9250SOL    HW139383   0.569   2.694   6.764  0.5494  0.5775 -1.5429
 9250SOL    HW239384   0.510   2.562   6.760  0.3558 -1.3274 -0.7052
 9251SOL     OW39385   0.839   1.889   7.326 -0.0048  0.4159  0.5992
 9251SOL    HW139386   0.898   1.868   7.253 -1.7191 -4.4352  0.6155
 9251SOL    HW239387   0.899   1.888   7.400  1.5564 -0.6636 -0.6769
 9252SOL     OW39388   3.188   3.821   8.537 -0.0678 -0.2783 -0.3687
 9252SOL    HW139389   3.258   3.767   8.572  2.4136  1.8663 -2.0039
 9252SOL    HW239390   3.186   3.900   8.589 -2.7602  0.5794 -1.7900
 9253SOL     OW39391   2.601   3.870  15.007 -0.0990  0.2047  0.0854
 9253SOL    HW139392   2.641   3.795  15.051  1.7915  0.8450 -0.5580
 9253SOL    HW239393   2.661   3.941  15.030 -0.3899  1.0548 -1.7389
 9254SOL     OW39394   3.100   0.593   6.584 -0.5881 -0.3043 -0.3148
 9254SOL    HW139395   3.110   0.585   6.679 -0.9265 -2.1167 -0.4222
 9254SOL    HW239396   3.027   0.535   6.560 -0.7125  0.3029 -1.4243
 9255SOL     OW39397   2.352   1.183   8.177 -0.1896  0.1668  0.1280
 9255SOL    HW139398   2.425   1.208   8.234 -2.2364  1.0604  2.3625
 9255SOL    HW239399   2.379   1.095   8.153 -0.4599  0.1687 -0.1852
 9256SOL     OW39400   0.552   3.366  12.978 -0.5535 -0.0234  0.2498
 9256SOL    HW139401   0.541   3.459  13.000  0.3703  0.3751 -0.9421
 9256SOL    HW239402   0.581   3.328  13.061 -1.4762  0.2322  0.6806
 9257SOL     OW39403   0.460   0.500   1.626 -0.1144  0.0997 -0.1644
 9257SOL    HW139404   0.540   0.454   1.601  0.2371  0.3411  0.5150
 9257SOL    HW239405   0.452   0.555   1.549 -1.3624  0.4665  0.2337
 9258SOL     OW39406   1.281   4.196   4.453 -0.6978  0.0601 -0.1207
 9258SOL    HW139407   1.354   4.134   4.465 -3.3723 -3.0493  0.1188
 9258SOL    HW239408   1.247   4.203   4.542 -0.9283  0.4431 -0.2426
 9259SOL     OW39409   3.351   0.228   7.503 -0.2644  0.0365  0.2339
 9259SOL    HW139410   3.295   0.151   7.509 -1.6409  0.9999 -0.2648
 9259SOL    HW239411   3.337   0.282   7.581 -1.3346  0.5378 -0.3134
 9260SOL     OW39412   3.827   2.155   8.114  0.0238 -0.0616 -0.3139
 9260SOL    HW139413   3.745   2.191   8.080 -0.0490 -0.5196 -0.6270
 9260SOL    HW239414   3.837   2.092   8.042  2.1660  0.1027 -0.1611
 9261SOL     OW39415   3.948   0.040   2.309  0.1055  0.1451  0.6561
 9261SOL    HW139416   3.883   4.710   2.306  1.3770 -1.0001 -0.5707
 9261SOL    HW239417   4.004   0.013   2.382  1.8665  0.3038 -0.6129
 9262SOL     OW39418   4.277   2.720  15.650  0.8105  0.8410 -0.1142
 9262SOL    HW139419   4.360   2.727  15.604  1.1911 -1.4208  0.2396
 9262SOL    HW239420   4.310   2.687  15.733 -0.2411 -1.1139 -0.4615
 9263SOL     OW39421   2.690   2.995  10.057  0.0003  0.1335  0.5043
 9263SOL    HW139422   2.669   2.902  10.048 -2.6725  0.8122 -0.1071
 9263SOL    HW239423   2.786   2.999  10.046 -0.0946  3.7579  0.9750
 9264SOL     OW39424   0.544   1.291  15.101  0.0311  0.6726 -0.8390
 9264SOL    HW139425   0.622   1.285  15.156 -1.7889 -0.2430  1.6574
 9264SOL    HW239426   0.570   1.227  15.034 -1.5184 -1.5396  0.6707
 9265SOL     OW39427   4.071   2.223   6.001  0.1422 -0.3433  0.1461
 9265SOL    HW139428   4.081   2.194   6.091  1.7405 -1.3718 -0.3682
 9265SOL    HW239429   3.975   2.227   6.001  0.2531  2.4023  1.5319
 9266SOL     OW39430   3.482   1.525   5.532  0.4402 -0.2441  0.2725
 9266SOL    HW139431   3.513   1.438   5.558 -2.1282 -0.7174  1.7385
 9266SOL    HW239432   3.490   1.574   5.614  3.8136 -0.4820  0.0829
 9267SOL     OW39433   1.498   2.332   8.432  0.3340  0.1418 -0.0290
 9267SOL    HW139434   1.500   2.398   8.501  0.1492 -0.6875  0.7742
 9267SOL    HW239435   1.487   2.250   8.480  0.4631 -0.3599 -0.8564
 9268SOL     OW39436   2.864   0.463   2.043 -0.0371  0.2155 -0.1466
 9268SOL    HW139437   2.870   0.382   2.092 -0.4371  0.9018  1.0322
 9268SOL    HW239438   2.874   0.523   2.117  1.4976  1.3116 -1.2392
 9269SOL     OW39439   1.397   2.912  13.593  0.3043  0.6263 -0.8469
 9269SOL    HW139440   1.344   2.991  13.600 -1.2700 -0.4129 -0.9856
 9269SOL    HW239441   1.365   2.861  13.668  1.2042  0.6686 -0.4400
 9270SOL     OW39442   4.199   4.566   4.366  0.2467 -0.4639 -0.8382
 9270SOL    HW139443   4.188   4.612   4.449  0.6746 -1.3247 -0.3128
 9270SOL    HW239444   4.117   4.518   4.362 -0.8023  1.4063 -2.0449
 9271SOL     OW39445   0.330   1.036   3.909 -0.2084 -0.4749  0.6104
 9271SOL    HW139446   0.235   1.030   3.923 -0.5616  0.8442 -1.1766
 9271SOL    HW239447   0.332   1.032   3.814 -0.2070  1.4939  0.5246
 9272SOL     OW39448   4.590   3.074  16.399 -0.3658  0.4416  0.1987
 9272SOL    HW139449   4.658   3.083  16.332  0.6695 -0.6625  1.0849
 9272SOL    HW239450   4.573   3.167  16.411  0.1108  0.5990 -0.3248
 9273SOL     OW39451   4.256   4.134  16.328 -0.3804  0.4079  0.3582
 9273SOL    HW139452   4.266   4.229  16.342 -0.2251  0.5765 -0.9253
 9273SOL    HW239453   4.270   4.100  16.417 -1.0818  1.9189  1.0516
 9274SOL     OW39454   3.608   4.318   7.634  0.0295  0.4053 -0.0577
 9274SOL    HW139455   3.631   4.278   7.550 -0.7697 -0.9761  0.3917
 9274SOL    HW239456   3.680   4.381   7.639 -1.6475  2.4475 -1.0541
 9275SOL     OW39457   2.883   2.526   8.346 -0.7611  0.5512  0.4265
 9275SOL    HW139458   2.912   2.470   8.419  0.6645 -0.0446 -0.5916
 9275SOL    HW239459   2.961   2.578   8.329 -0.7781  0.5676  0.3989
 9276SOL     OW39460   4.687   4.030  16.009  0.4186 -0.3044  0.5726
 9276SOL    HW139461   4.675   3.935  16.005  1.2245 -0.4635  1.7762
 9276SOL    HW239462   0.019   4.039  15.948 -0.2298 -0.2340 -0.1791
 9277SOL     OW39463   3.191   3.794  17.569  0.0692 -0.1455 -0.0407
 9277SOL    HW139464   3.137   3.829  17.639  0.0816  0.8959 -0.5384
 9277SOL    HW239465   3.132   3.798  17.494 -0.9312 -0.8061  0.7182
 9278SOL     OW39466   3.487   2.448   5.919  0.1803 -0.5647  0.0844
 9278SOL    HW139467   3.453   2.434   6.007  0.9726  0.1316  0.4958
 9278SOL    HW239468   3.419   2.503   5.879  0.7650 -1.7605 -2.5302
 9279SOL     OW39469   2.904   2.253   7.321 -0.5114 -0.0950  0.3195
 9279SOL    HW139470   2.838   2.238   7.254  0.5162 -2.0730 -0.2516
 9279SOL    HW239471   2.988   2.255   7.275 -1.1066  0.3699 -0.7552
 9280SOL     OW39472   0.796   0.681  13.573 -0.2747 -0.0506 -0.1603
 9280SOL    HW139473   0.777   0.588  13.562 -0.9814  0.2835 -1.7338
 9280SOL    HW239474   0.721   0.701  13.629  0.9497  0.7499  1.2051
 9281SOL     OW39475   3.401   4.342  17.236 -0.1573 -0.3233  0.0993
 9281SOL    HW139476   3.360   4.428  17.226  0.2173  0.0116  1.4148
 9281SOL    HW239477   3.315   4.303  17.253 -0.4316  0.0268 -0.5005
 9282SOL     OW39478   4.361   2.483   7.516  0.4961  0.0478 -0.8344
 9282SOL    HW139479   4.333   2.523   7.599 -1.4770 -3.6415  0.2482
 9282SOL    HW239480   4.291   2.507   7.455  0.1433 -0.6794 -0.7151
 9283SOL     OW39481   1.504   0.742   4.588  0.0742  0.2442 -0.4542
 9283SOL    HW139482   1.581   0.797   4.598 -0.7648  0.8037  3.0149
 9283SOL    HW239483   1.450   0.786   4.654  0.2989 -1.6868  1.0249
 9284SOL     OW39484   4.316   2.908  12.968  0.4373  0.4970 -0.0010
 9284SOL    HW139485   4.243   2.901  12.907 -0.0907 -2.2681  0.9557
 9284SOL    HW239486   4.390   2.895  12.909  0.0577  2.7059 -0.9747
 9285SOL     OW39487   1.219   2.954   6.244 -0.3663 -0.6522 -0.1216
 9285SOL    HW139488   1.172   2.965   6.162 -0.3494  0.3912  0.0046
 9285SOL    HW239489   1.189   2.867   6.272 -1.7023  0.1201  0.8734
 9286SOL     OW39490   2.865   0.864   3.420  0.4824  0.5521 -0.4241
 9286SOL    HW139491   2.873   0.939   3.361 -0.3423  1.9662  1.2831
 9286SOL    HW239492   2.793   0.893   3.476 -0.5528  0.9266 -1.9601
 9287SOL     OW39493   3.420   0.096   8.631  0.3179  0.0214  0.0468
 9287SOL    HW139494   3.366   0.134   8.700  0.0018 -0.6901  0.1907
 9287SOL    HW239495   3.505   0.122   8.666 -0.0001  0.9733  0.1081
 9288SOL     OW39496   3.825   3.930   3.718 -0.3237  0.4240 -0.3498
 9288SOL    HW139497   3.918   3.932   3.694  0.1597 -0.4616  1.4767
 9288SOL    HW239498   3.803   4.023   3.722 -2.0022 -0.0551  1.0456
 9289SOL     OW39499   0.136   1.110   9.509  0.6546  0.4012 -0.2426
 9289SOL    HW139500   0.136   1.083   9.417 -0.8273  0.0730 -0.1384
 9289SOL    HW239501   0.212   1.076   9.556 -0.7546 -2.1806  0.1974
 9290SOL     OW39502   4.526   1.502  10.662 -0.0401 -0.2081 -0.3306
 9290SOL    HW139503   4.587   1.470  10.728 -2.5508  0.4476  2.3147
 9290SOL    HW239504   4.515   1.594  10.686  1.0568  0.2261 -1.4969
 9291SOL     OW39505   3.858   1.889   1.562  0.2317 -0.3170 -0.5442
 9291SOL    HW139506   3.931   1.945   1.587  0.8215 -1.4495  0.3403
 9291SOL    HW239507   3.808   1.949   1.508 -1.0280  0.1010  1.0770
 9292SOL     OW39508   2.183   1.776  15.111  0.2597  0.4630  0.0604
 9292SOL    HW139509   2.105   1.723  15.124 -0.2343  0.8394 -1.3804
 9292SOL    HW239510   2.179   1.834  15.187 -1.2356 -0.2617  0.5281
 9293SOL     OW39511   3.812   3.658   9.167  0.0609 -0.0478  0.0403
 9293SOL    HW139512   3.863   3.593   9.214 -0.8688 -2.1797 -1.8973
 9293SOL    HW239513   3.795   3.717   9.240 -0.5689  0.8460 -0.8395
 9294SOL     OW39514   0.727   2.457   9.618  0.2783  0.7191 -0.2607
 9294SOL    HW139515   0.729   2.519   9.545 -0.6966  0.4240 -0.5296
 9294SOL    HW239516   0.817   2.427   9.634 -0.2548 -0.7665 -0.0986
 9295SOL     OW39517   4.078   3.076   5.661 -0.5374  0.3789 -0.3619
 9295SOL    HW139518   4.087   2.981   5.667  1.8889  0.6926  0.7370
 9295SOL    HW239519   4.168   3.106   5.650 -0.8315  1.8924  1.4776
 9296SOL     OW39520   2.657   3.116  10.320  0.6676  0.5856  0.2803
 9296SOL    HW139521   2.629   3.067  10.243 -0.3304  0.6919  0.5767
 9296SOL    HW239522   2.583   3.176  10.325  0.7277  0.6811  0.0047
 9297SOL     OW39523   4.268   1.335  10.279 -0.7359  0.2611 -0.3128
 9297SOL    HW139524   4.247   1.422  10.247 -2.6240 -0.9763 -2.4672
 9297SOL    HW239525   4.360   1.337  10.307 -0.9243  0.6564  0.2671
 9298SOL     OW39526   3.332   3.976   2.878  0.6510 -0.3229  0.3499
 9298SOL    HW139527   3.409   3.942   2.832 -1.0450 -0.5708 -2.2897
 9298SOL    HW239528   3.368   3.988   2.966  1.6320  3.7269 -0.6029
 9299SOL     OW39529   2.795   3.832   7.896 -0.0162  0.2015  0.6423
 9299SOL    HW139530   2.703   3.807   7.901 -0.4221  1.4349 -0.3934
 9299SOL    HW239531   2.834   3.754   7.933  1.9996  1.3291  0.8904
 9300SOL     OW39532   0.841   1.382   1.777  0.0042 -0.0851  0.0213
 9300SOL    HW139533   0.766   1.324   1.780 -1.1615  1.2997 -3.6849
 9300SOL    HW239534   0.855   1.388   1.683 -1.5273 -0.8587 -0.2414
 9301SOL     OW39535   0.684   3.645  16.403  0.0166  0.2095 -0.3019
 9301SOL    HW139536   0.694   3.556  16.369  0.5084 -0.5836  1.9420
 9301SOL    HW239537   0.589   3.658  16.406 -0.0236 -0.3972  0.7575
 9302SOL     OW39538   0.833   2.337  17.694 -0.1338  0.0711 -0.2157
 9302SOL    HW139539   0.770   2.299  17.632  0.0501 -0.1486 -0.2686
 9302SOL    HW239540   0.816   2.429  17.675  2.2614  0.7259  0.8059
 9303SOL     OW39541   1.749   0.666   7.503  0.1333  0.1244  0.8371
 9303SOL    HW139542   1.776   0.756   7.518  1.0058  0.1073 -0.6052
 9303SOL    HW239543   1.654   0.675   7.516 -0.2890 -1.0902 -1.3912
 9304SOL     OW39544   4.315   1.845   2.745 -0.2255  0.4424  0.0892
 9304SOL    HW139545   4.325   1.805   2.658 -0.0422  0.8938 -0.0994
 9304SOL    HW239546   4.407   1.838   2.773  0.1372 -1.0522 -1.4588
 9305SOL     OW39547   2.259   3.879   3.955 -0.4692  0.8565  0.8294
 9305SOL    HW139548   2.279   3.951   4.014  0.7184 -1.3427  3.1025
 9305SOL    HW239549   2.166   3.894   3.936  0.2098  1.3475 -2.0854
 9306SOL     OW39550   3.929   2.654   3.120 -0.3769 -0.0166  0.1011
 9306SOL    HW139551   3.979   2.735   3.112 -0.8797  0.0330 -2.5952
 9306SOL    HW239552   3.987   2.592   3.165 -1.7554 -1.1157  0.3618
 9307SOL     OW39553   0.360   1.407   3.704  0.4831  0.0030 -0.6735
 9307SOL    HW139554   0.439   1.371   3.663  2.3163  2.2025  0.9188
 9307SOL    HW239555   0.290   1.404   3.639  0.8650 -0.6025 -1.0511
 9308SOL     OW39556   3.214   3.601  11.979  0.4908 -0.9535 -0.1653
 9308SOL    HW139557   3.139   3.547  11.954 -0.0487  0.2512 -1.1395
 9308SOL    HW239558   3.178   3.689  11.968  1.5814 -0.5281 -0.3533
 9309SOL     OW39559   1.209   3.077  11.449  0.5734 -0.4523  0.4767
 9309SOL    HW139560   1.210   3.170  11.426 -0.6013 -0.5483  0.0072
 9309SOL    HW239561   1.303   3.073  11.465  0.8320 -0.3396 -1.0329
 9310SOL     OW39562   2.568   0.433   0.824  0.4774  0.2530 -0.3577
 9310SOL    HW139563   2.562   0.484   0.744  1.1307  0.3997 -0.3141
 9310SOL    HW239564   2.566   0.347   0.782  1.3332  0.9906 -1.9060
 9311SOL     OW39565   0.148   4.098  16.398  0.4850  0.0003 -0.1451
 9311SOL    HW139566   0.126   4.149  16.320 -0.8903 -0.4533 -0.0554
 9311SOL    HW239567   0.064   4.066  16.431  1.0658 -1.1071  0.2469
 9312SOL     OW39568   0.614   1.204   9.007 -0.7358  0.0289 -0.2041
 9312SOL    HW139569   0.648   1.131   9.058  0.7262  0.8323 -0.0199
 9312SOL    HW239570   0.682   1.269   9.025  2.1223 -2.8954 -0.4205
 9313SOL     OW39571   2.718   1.367   4.281 -0.4087 -0.5065 -0.0248
 9313SOL    HW139572   2.757   1.452   4.302 -0.0914 -0.2143 -1.7691
 9313SOL    HW239573   2.647   1.390   4.220 -0.0285 -1.1909 -0.7237
 9314SOL     OW39574   2.599   2.888   9.278  0.3179 -0.5998  0.2521
 9314SOL    HW139575   2.555   2.822   9.225 -2.5936  1.6983 -0.2358
 9314SOL    HW239576   2.583   2.959   9.216  0.6655  0.3885  1.2993
 9315SOL     OW39577   4.685   0.539   6.313  0.1637 -0.3044 -0.3843
 9315SOL    HW139578   4.632   0.612   6.345  0.4220  0.2588 -1.2408
 9315SOL    HW239579   0.032   0.555   6.351  0.3713 -1.6866 -0.2579
 9316SOL     OW39580   3.217   3.147   8.749  0.7598  0.1521  0.2745
 9316SOL    HW139581   3.200   3.216   8.685  0.0888  0.1382  0.4435
 9316SOL    HW239582   3.312   3.154   8.738  0.8279  1.1544  1.5373
 9317SOL     OW39583   4.575   3.625   5.019 -0.1736  0.4852 -0.2178
 9317SOL    HW139584   4.629   3.682   5.074  0.4562 -0.5835  0.2597
 9317SOL    HW239585   4.642   3.579   4.969  0.6889  0.9108  0.5483
 9318SOL     OW39586   2.768   3.814   1.467  0.8975  0.5991 -0.4280
 9318SOL    HW139587   2.803   3.772   1.388  1.9901  2.5488 -0.9991
 9318SOL    HW239588   2.742   3.728   1.499 -0.3449  0.4434 -1.9135
 9319SOL     OW39589   3.814   1.237   0.031 -0.1909 -0.7664 -0.0790
 9319SOL    HW139590   3.751   1.178   0.072  0.9947 -1.7921  0.2787
 9319SOL    HW239591   3.895   1.217   0.079 -0.4278 -1.1444  0.1530
 9320SOL     OW39592   4.342   4.360   6.936  0.6257  0.7435 -0.2446
 9320SOL    HW139593   4.376   4.322   6.856  1.1344  0.7093 -0.0141
 9320SOL    HW239594   4.418   4.345   6.992  0.7117 -1.4317 -0.9614
 9321SOL     OW39595   4.575   4.708   5.266  0.1820 -0.0488 -0.3277
 9321SOL    HW139596   4.533   0.027   5.204 -0.8924  0.0118  0.4602
 9321SOL    HW239597   4.657   0.015   5.281 -0.8982  0.8128  2.7622
 9322SOL     OW39598   0.983   0.319   5.119 -0.0499  0.1544 -0.4432
 9322SOL    HW139599   0.891   0.294   5.115  0.8355 -3.3594  1.1471
 9322SOL    HW239600   1.023   0.234   5.101 -0.2084 -0.3890  1.7753
 9323SOL     OW39601   0.813   1.929  11.357 -0.0156  0.0853 -0.1937
 9323SOL    HW139602   0.737   1.887  11.397  0.3599 -0.6596 -0.2554
 9323SOL    HW239603   0.795   1.918  11.263  1.3576 -1.8206 -0.2396
 9324SOL     OW39604   3.398   3.502  15.246  0.2053 -0.1654 -0.0589
 9324SOL    HW139605   3.459   3.551  15.189 -0.7063 -0.1234 -0.9925
 9324SOL    HW239606   3.381   3.427  15.190  0.7582  1.4689 -2.4127
 9325SOL     OW39607   4.056   1.580   2.328  0.0337 -0.0494 -0.0029
 9325SOL    HW139608   4.045   1.634   2.249 -0.4108 -0.2337 -0.0627
 9325SOL    HW239609   4.101   1.640   2.387  0.6361 -2.2829  1.7852
 9326SOL     OW39610   2.969   0.115  11.926  0.1161 -0.3109 -0.3293
 9326SOL    HW139611   2.977   0.203  11.889 -0.4507  0.0417  0.3831
 9326SOL    HW239612   2.874   0.107  11.916 -0.1367  1.4130  0.6323
 9327SOL     OW39613   2.251   1.263   2.468 -0.5228  0.1267  0.0901
 9327SOL    HW139614   2.339   1.281   2.500 -1.8136  1.4153  2.9281
 9327SOL    HW239615   2.206   1.348   2.470 -3.4060 -1.4242  0.8737
 9328SOL     OW39616   1.394   3.806   9.489  0.4777  0.2129  0.1606
 9328SOL    HW139617   1.320   3.866   9.478  0.7256  0.8129  1.8752
 9328SOL    HW239618   1.419   3.857   9.566  2.0499 -0.3355  0.0130
 9329SOL     OW39619   4.014   0.973   5.352  0.1815 -0.4966  0.2519
 9329SOL    HW139620   3.954   0.900   5.364  0.9302 -0.9598  1.1772
 9329SOL    HW239621   4.069   0.977   5.430  1.1745 -1.5456 -0.3743
 9330SOL     OW39622   4.443   0.492  14.669 -0.3846  0.5082 -0.0969
 9330SOL    HW139623   4.392   0.411  14.672  0.0054  0.2803  0.4482
 9330SOL    HW239624   4.461   0.512  14.761 -0.7495  2.6502 -0.4898
 9331SOL     OW39625   2.260   3.074   5.475 -0.4340 -0.7477 -0.0922
 9331SOL    HW139626   2.299   2.989   5.457 -1.8700 -1.0114 -1.8959
 9331SOL    HW239627   2.334   3.117   5.519 -1.0779  0.6920 -0.3943
 9332SOL     OW39628   1.177   0.321   0.166  0.1713 -0.3104  0.2952
 9332SOL    HW139629   1.150   0.400   0.213 -0.2289 -1.4048  1.9032
 9332SOL    HW239630   1.217   0.353   0.085 -0.6324  0.2301  0.1129
 9333SOL     OW39631   2.134   0.509   4.549 -0.4332 -0.0703  0.6720
 9333SOL    HW139632   2.145   0.593   4.505  0.5260 -0.5313  0.0307
 9333SOL    HW239633   2.055   0.521   4.602 -0.2321 -1.4880  1.2990
 9334SOL     OW39634   4.144   2.870   8.185 -0.3054 -0.0102  0.8054
 9334SOL    HW139635   4.212   2.938   8.186  1.7306 -2.0657  1.5299
 9334SOL    HW239636   4.200   2.792   8.187  0.5162  0.5756  0.7193
 9335SOL     OW39637   4.249   1.054   3.389 -0.3331  0.6027  0.1858
 9335SOL    HW139638   4.253   1.142   3.426  0.8735  1.1941 -1.3385
 9335SOL    HW239639   4.333   1.014   3.412  0.2224  0.3670 -2.2087
 9336SOL     OW39640   2.562   0.964   8.035  0.0697  0.0945 -0.0662
 9336SOL    HW139641   2.605   1.017   8.102  1.1323 -1.1524  0.2324
 9336SOL    HW239642   2.494   0.922   8.086 -0.2317  1.8728  1.0028
 9337SOL     OW39643   3.178   2.996   7.160 -0.3138  0.6816 -0.2088
 9337SOL    HW139644   3.253   3.028   7.110 -0.6892  2.4237  0.3302
 9337SOL    HW239645   3.228   2.928   7.205 -0.0696  0.2030 -1.2105
 9338SOL     OW39646   0.847   3.600   8.543 -0.3378  0.2897 -0.3296
 9338SOL    HW139647   0.887   3.683   8.518  2.3902 -0.5729  1.1105
 9338SOL    HW239648   0.799   3.573   8.465  0.6761 -0.5784 -0.6504
 9339SOL     OW39649   1.383   4.041  11.537 -0.0860  0.1029 -0.3646
 9339SOL    HW139650   1.439   4.051  11.460 -1.5114  2.2088 -1.1218
 9339SOL    HW239651   1.319   4.112  11.542 -0.8125 -0.6410  1.0210
 9340SOL     OW39652   3.241   3.964   4.826 -0.0832  0.3125  0.2687
 9340SOL    HW139653   3.212   4.046   4.786  0.2500  0.1584 -0.2844
 9340SOL    HW239654   3.191   3.908   4.766  0.3453 -1.2875  1.3895
 9341SOL     OW39655   3.512   2.082   7.928  0.1576 -0.4243  0.2519
 9341SOL    HW139656   3.532   2.128   8.009 -1.5024 -0.4495  0.6684
 9341SOL    HW239657   3.482   2.156   7.875 -0.2556 -2.9264 -3.0770
 9342SOL     OW39658   0.489   2.883  11.873 -0.2898  0.7106 -0.3024
 9342SOL    HW139659   0.507   2.793  11.846 -0.8381  0.1230  1.2635
 9342SOL    HW239660   0.526   2.939  11.805 -0.3688 -1.2973 -2.0139
 9343SOL     OW39661   3.985   1.123   7.624 -0.3225 -0.4068 -0.0037
 9343SOL    HW139662   4.068   1.098   7.584  0.2476  0.9847  0.2881
 9343SOL    HW239663   3.917   1.086   7.568  1.9100 -3.0479 -0.9280
 9344SOL     OW39664   3.661   1.340  14.429 -0.5731  0.3094 -0.6164
 9344SOL    HW139665   3.728   1.274  14.414 -2.1698 -1.3670 -0.3315
 9344SOL    HW239666   3.701   1.383  14.505 -0.8589  0.1261 -0.3637
 9345SOL     OW39667   4.013   3.175   0.948 -0.0577 -0.5820 -0.0653
 9345SOL    HW139668   3.922   3.198   0.968 -0.3451 -0.9885 -0.9139
 9345SOL    HW239669   4.056   3.184   1.033 -1.0577 -1.7839  0.5716
 9346SOL     OW39670   1.525   3.467   3.093 -0.2857 -0.8103 -0.4639
 9346SOL    HW139671   1.499   3.447   3.183 -1.3370 -2.5152 -1.1306
 9346SOL    HW239672   1.515   3.562   3.095 -0.9556 -0.8711 -0.7215
 9347SOL     OW39673   0.205   4.540  12.518 -0.4680  0.3936  0.3039
 9347SOL    HW139674   0.144   4.581  12.458 -0.6473 -0.7715 -0.3221
 9347SOL    HW239675   0.289   4.535  12.472 -0.2666  0.8970  0.6174
 9348SOL     OW39676   2.515   4.092   4.319 -0.0577 -1.0290 -0.4566
 9348SOL    HW139677   2.610   4.089   4.329 -0.6383 -2.0968  4.9022
 9348SOL    HW239678   2.503   4.153   4.391 -3.2052 -0.3361 -1.5666
 9349SOL     OW39679   0.980   2.721   3.764  0.0946  1.0207  0.5332
 9349SOL    HW139680   0.989   2.635   3.724 -0.6335  0.9379  0.5519
 9349SOL    HW239681   0.969   2.704   3.858 -1.1211  0.3479  0.2700
 9350SOL     OW39682   1.461   2.688  14.130  0.4372 -0.0768  0.1807
 9350SOL    HW139683   1.394   2.740  14.087  1.3606  0.4449 -0.6382
 9350SOL    HW239684   1.488   2.633  14.056  0.1258 -0.3309  0.2578
 9351SOL     OW39685   2.980   1.594   7.098 -0.3940 -0.0226  0.1474
 9351SOL    HW139686   3.039   1.545   7.156  1.0091  1.6161  0.0820
 9351SOL    HW239687   3.023   1.678   7.082 -1.5476  0.7488  1.1225
 9352SOL     OW39688   2.399   2.064   5.046  0.5776  0.2204  0.2892
 9352SOL    HW139689   2.473   2.089   4.990  2.3996 -3.0910  1.2310
 9352SOL    HW239690   2.442   2.027   5.123 -1.2037 -2.3634  0.0310
 9353SOL     OW39691   1.773   0.253   1.357 -0.4372 -0.4946 -0.4755
 9353SOL    HW139692   1.787   0.344   1.332  1.2223 -0.6354 -0.0475
 9353SOL    HW239693   1.679   0.250   1.374 -0.4716 -0.8105 -0.7115
 9354SOL     OW39694   3.600   1.286   4.210  0.1634 -0.0582  0.5783
 9354SOL    HW139695   3.647   1.244   4.282  1.6523 -0.7066 -0.7642
 9354SOL    HW239696   3.562   1.216   4.157  1.6302 -1.0098  0.7680
 9355SOL     OW39697   1.147   1.736  10.468 -0.2897  0.0420 -0.1077
 9355SOL    HW139698   1.174   1.824  10.442 -0.5183 -0.0508 -0.6549
 9355SOL    HW239699   1.074   1.760  10.526 -0.4958  0.6285 -0.6114
 9356SOL     OW39700   2.284   2.116   5.813  1.0216  0.1371 -0.3594
 9356SOL    HW139701   2.273   2.141   5.904 -0.0823 -1.9114  0.0797
 9356SOL    HW239702   2.202   2.074   5.786  0.3241  1.6408 -0.5590
 9357SOL     OW39703   2.971   4.653   8.541  0.1936  0.3664 -0.0517
 9357SOL    HW139704   2.968   4.726   8.603 -2.1065 -0.1828  0.4887
 9357SOL    HW239705   2.891   4.611   8.572  0.1957  0.1794 -0.3024
 9358SOL     OW39706   0.380   4.325   1.757  0.2485 -0.2865  0.2820
 9358SOL    HW139707   0.448   4.289   1.814  0.8317  0.3458 -0.0113
 9358SOL    HW239708   0.426   4.329   1.673 -1.5149  2.1263 -0.5669
 9359SOL     OW39709   2.707   1.724   8.518 -0.0381 -0.2478  0.0309
 9359SOL    HW139710   2.653   1.778   8.460 -0.8961  0.1854  1.2273
 9359SOL    HW239711   2.686   1.754   8.606 -0.5005  2.0669 -0.8503
 9360SOL     OW39712   2.743   3.500  14.862  0.1877  0.8140  0.5965
 9360SOL    HW139713   2.750   3.466  14.773  0.8739  3.6098 -0.3940
 9360SOL    HW239714   2.649   3.516  14.873  0.0771  1.8070 -1.9621
 9361SOL     OW39715   3.350   1.251   5.440 -0.2407  0.0087 -0.2033
 9361SOL    HW139716   3.276   1.269   5.498 -0.8656 -1.2683 -0.6145
 9361SOL    HW239717   3.425   1.263   5.498 -2.0246 -1.4214  2.4032
 9362SOL     OW39718   3.156   1.234   7.790 -0.0885 -0.5144 -0.2402
 9362SOL    HW139719   3.145   1.142   7.814  1.8321 -0.0997  2.2482
 9362SOL    HW239720   3.207   1.231   7.709 -0.0153  0.4202 -0.2204
 9363SOL     OW39721   4.552   3.652   8.551  0.2933 -0.5771 -0.0337
 9363SOL    HW139722   4.502   3.571   8.561  0.2217 -0.5202  0.0728
 9363SOL    HW239723   4.514   3.689   8.472  2.2000  0.6473 -0.3856
 9364SOL     OW39724   1.170   1.360   0.266  0.4825  0.2209 -0.0904
 9364SOL    HW139725   1.085   1.317   0.275 -0.0442  1.2112 -0.3101
 9364SOL    HW239726   1.215   1.302   0.327 -0.8190 -0.7141 -0.0052
 9365SOL     OW39727   4.320   1.169   4.976  0.0059  0.0671 -0.0876
 9365SOL    HW139728   4.364   1.243   5.017 -0.3620 -0.3557  1.0845
 9365SOL    HW239729   4.291   1.122   5.054 -0.4185  1.5448  0.6370
 9366SOL     OW39730   1.822   2.360  11.252 -1.0622  0.2089  0.0253
 9366SOL    HW139731   1.750   2.298  11.260 -0.7479 -0.1690 -0.1159
 9366SOL    HW239732   1.849   2.390  11.339 -2.2901 -0.0863  0.5008
 9367SOL     OW39733   0.156   0.790  11.137  0.1011 -0.3271  0.3258
 9367SOL    HW139734   0.069   0.751  11.136  1.0968 -2.5737  2.6162
 9367SOL    HW239735   0.133   0.883  11.144 -0.9112 -0.5212 -0.3389
 9368SOL     OW39736   2.601   4.070   1.999 -0.6483 -0.0508  0.8525
 9368SOL    HW139737   2.640   3.986   2.024  0.6835  0.6279  1.0027
 9368SOL    HW239738   2.659   4.107   1.932 -0.5819 -1.2305  0.2480
 9369SOL     OW39739   2.023   1.142   7.351 -0.4305 -0.4076  0.1762
 9369SOL    HW139740   1.976   1.212   7.397  0.8186 -1.3613  2.9072
 9369SOL    HW239741   2.100   1.158   7.406  1.3035  1.4999 -2.7659
 9370SOL     OW39742   0.160   0.478   4.202 -0.3362 -0.3067  0.0314
 9370SOL    HW139743   0.066   0.460   4.211 -0.0143 -0.1408  3.9774
 9370SOL    HW239744   0.193   0.420   4.134  1.0262 -2.4519  2.4965
 9371SOL     OW39745   2.560   2.965  13.014  0.2853 -0.1654 -0.4543
 9371SOL    HW139746   2.498   2.996  13.080 -1.9216 -0.0587 -2.6186
 9371SOL    HW239747   2.619   2.910  13.066 -0.0204 -1.0923 -1.0813
 9372SOL     OW39748   1.828   1.470   1.215  0.0918 -0.4593 -0.0083
 9372SOL    HW139749   1.889   1.406   1.250 -1.4804 -2.4925 -1.0308
 9372SOL    HW239750   1.894   1.525   1.172 -0.9791  0.4197 -0.5260
 9373SOL     OW39751   3.674   4.537   2.749  0.7478 -0.0409 -0.0833
 9373SOL    HW139752   3.763   4.514   2.774 -0.5229 -2.7053  1.9603
 9373SOL    HW239753   3.630   4.578   2.824  1.5415  0.0553  0.3213
 9374SOL     OW39754   3.419   1.236   6.284  0.7146  0.7475 -0.2817
 9374SOL    HW139755   3.372   1.299   6.339 -0.0958 -2.2609  2.4782
 9374SOL    HW239756   3.449   1.182   6.357  0.7811 -0.1994 -1.0112
 9375SOL     OW39757   4.051   4.256   6.489 -0.4234 -0.4073 -0.1535
 9375SOL    HW139758   4.118   4.319   6.516 -0.1276 -0.6523 -0.3096
 9375SOL    HW239759   4.041   4.201   6.566 -0.2365 -1.5104 -0.9135
 9376SOL     OW39760   3.854   2.435  10.842 -0.1539  0.3698  0.7515
 9376SOL    HW139761   3.767   2.456  10.806  0.1012 -1.2103 -0.8170
 9376SOL    HW239762   3.896   2.520  10.845  0.6080  0.0365 -0.6075
 9377SOL     OW39763   0.659   4.303   3.948 -0.5107 -0.3848  0.5521
 9377SOL    HW139764   0.753   4.301   3.927 -0.0439  1.4781  2.5056
 9377SOL    HW239765   0.647   4.208   3.955  0.6972 -0.5589  0.3468
 9378SOL     OW39766   1.483   3.650   4.967  0.0548 -0.3798  0.4774
 9378SOL    HW139767   1.475   3.705   5.045  3.2675 -1.0293  1.2910
 9378SOL    HW239768   1.423   3.583   5.000 -0.5196  0.2794  0.7539
 9379SOL     OW39769   1.349   2.427   4.552  0.4301  0.4385  0.1973
 9379SOL    HW139770   1.421   2.464   4.502 -0.1594  1.1568 -0.1149
 9379SOL    HW239771   1.283   2.494   4.536 -1.2361 -1.3048 -0.3135
 9380SOL     OW39772   1.141   2.758   9.377 -0.0992  0.5647  0.2810
 9380SOL    HW139773   1.139   2.780   9.284 -1.2125 -1.0208 -0.0700
 9380SOL    HW239774   1.059   2.709   9.390  1.1660 -1.1834  1.7666
 9381SOL     OW39775   0.461   3.211   5.823  0.3836  0.0783  0.7633
 9381SOL    HW139776   0.506   3.238   5.903 -0.5969 -0.2811  1.4437
 9381SOL    HW239777   0.435   3.125   5.858  2.2735 -1.1785 -0.9554
 9382SOL     OW39778   3.110   1.349   4.623  0.2265 -0.9535 -0.0307
 9382SOL    HW139779   3.165   1.415   4.580 -1.1926 -0.9644 -1.8493
 9382SOL    HW239780   3.175   1.308   4.680  0.4129  1.9094  1.8159
 9383SOL     OW39781   3.330   4.133   1.291 -0.0489  0.7087 -0.3445
 9383SOL    HW139782   3.422   4.159   1.291 -0.7181  3.0323 -0.4406
 9383SOL    HW239783   3.326   4.038   1.302  0.4330  0.5167 -1.8142
 9384SOL     OW39784   4.442   4.267  15.025  0.4228  0.1581  0.2026
 9384SOL    HW139785   4.508   4.274  15.095 -0.3109  0.3946  0.8692
 9384SOL    HW239786   4.489   4.216  14.959 -0.2918 -0.8744  0.4912
 9385SOL     OW39787   3.038   2.927   6.138 -0.2050  0.5095  0.2667
 9385SOL    HW139788   3.022   2.877   6.218 -1.8852  1.3419  0.4610
 9385SOL    HW239789   3.129   2.900   6.124 -0.7135 -1.2473  0.4278
 9386SOL     OW39790   0.986   0.174   4.498  0.8585  0.2989  0.3393
 9386SOL    HW139791   0.919   0.107   4.491  0.5115  0.9980 -3.2313
 9386SOL    HW239792   0.957   0.235   4.430  3.3630 -2.5553 -3.3401
 9387SOL     OW39793   1.887   1.004  13.699  0.1729  0.8696  0.5774
 9387SOL    HW139794   1.802   1.029  13.663  0.9287 -0.5321 -2.1735
 9387SOL    HW239795   1.940   1.052  13.635 -1.3202  1.9091  0.1216
 9388SOL     OW39796   3.706   2.403  13.391  0.1863  0.0108 -0.8076
 9388SOL    HW139797   3.695   2.326  13.336 -0.3883 -1.6817  1.6953
 9388SOL    HW239798   3.800   2.401  13.407 -0.0972  1.1134  0.9940
 9389SOL     OW39799   4.362   1.813   8.210 -0.0419  0.4246 -0.2950
 9389SOL    HW139800   4.312   1.893   8.194 -0.0396  0.5010  0.0848
 9389SOL    HW239801   4.353   1.803   8.305  1.2222 -1.3106 -0.3425
 9390SOL     OW39802   2.267   1.629  15.472 -0.1328 -0.1552 -0.6071
 9390SOL    HW139803   2.313   1.597  15.395 -0.7338 -0.4052 -0.8596
 9390SOL    HW239804   2.240   1.714  15.439  2.2694  0.6400 -0.5461
 9391SOL     OW39805   1.017   4.299   9.312 -0.0029  0.6558  0.2371
 9391SOL    HW139806   0.934   4.266   9.278  0.4269  0.8005 -0.9466
 9391SOL    HW239807   1.074   4.305   9.235  1.2247 -3.3337  0.8330
 9392SOL     OW39808   4.181   1.568   5.160 -0.6613  0.1272 -0.4048
 9392SOL    HW139809   4.119   1.605   5.222 -1.3079 -0.7659 -0.5223
 9392SOL    HW239810   4.263   1.576   5.208  0.1599 -0.6298 -1.6817
 9393SOL     OW39811   4.561   3.812   9.247  0.4246 -0.0710  0.1469
 9393SOL    HW139812   4.654   3.792   9.250  0.4174 -0.1519 -0.2467
 9393SOL    HW239813   4.518   3.727   9.252  0.8140 -0.2748 -0.0338
 9394SOL     OW39814   0.153   2.024   7.183  0.3913  0.1903 -0.3943
 9394SOL    HW139815   0.229   1.968   7.167  0.6596  0.7440 -1.0673
 9394SOL    HW239816   0.173   2.072   7.264 -2.1647  0.3142  0.1475
 9395SOL     OW39817   3.237   4.305   5.909  0.4428  0.0737 -0.0829
 9395SOL    HW139818   3.228   4.224   5.960  2.6558  0.2176  0.5102
 9395SOL    HW239819   3.151   4.347   5.921  1.3417  1.1565  2.4561
 9396SOL     OW39820   1.397   1.210   3.839 -0.0321  0.6707 -0.1502
 9396SOL    HW139821   1.466   1.256   3.791  0.6839  0.3752  0.5937
 9396SOL    HW239822   1.336   1.170   3.776 -1.9482  0.4981  1.8033
 9397SOL     OW39823   0.839   1.648   5.918  0.3480  0.4780 -0.0873
 9397SOL    HW139824   0.827   1.556   5.892 -1.1735  0.0218  2.2193
 9397SOL    HW239825   0.933   1.652   5.906  0.5379 -0.6517  1.0375
 9398SOL     OW39826   3.982   0.276   6.927 -0.4233 -0.2898 -0.0696
 9398SOL    HW139827   3.994   0.193   6.882  1.1723 -0.4340  0.6310
 9398SOL    HW239828   4.032   0.340   6.877  1.3743 -1.1282  0.6605
 9399SOL     OW39829   1.504   2.499  13.338  0.1851  0.4483  0.0537
 9399SOL    HW139830   1.494   2.434  13.268  0.6951 -0.2578  0.6416
 9399SOL    HW239831   1.467   2.578  13.299  1.3751  1.3375  0.7568
 9400SOL     OW39832   4.179   1.630   7.804 -0.1209  0.5045  0.3877
 9400SOL    HW139833   4.113   1.561   7.795  0.9585 -0.6642  1.5099
 9400SOL    HW239834   4.179   1.658   7.713  2.5129  0.1009  0.2661
 9401SOL     OW39835   0.218   0.210   8.621 -0.0242 -0.1522  0.2831
 9401SOL    HW139836   0.189   0.124   8.652  0.1000  0.2990  1.6672
 9401SOL    HW239837   0.198   0.259   8.701 -0.3534  0.2532 -0.0482
 9402SOL     OW39838   4.661   3.226  14.149 -0.2415  0.3545 -0.0457
 9402SOL    HW139839   4.601   3.264  14.214 -1.5878 -1.0776 -0.4493
 9402SOL    HW239840   4.605   3.153  14.124  0.1587  0.5061 -1.3721
 9403SOL     OW39841   0.549   4.563   9.014  0.5789 -0.8034 -0.3373
 9403SOL    HW139842   0.573   4.589   8.925 -0.3777 -0.1922 -0.4172
 9403SOL    HW239843   0.471   4.521   8.977 -0.9302 -0.3073  2.3530
 9404SOL     OW39844   2.488   2.986   1.453 -0.0240  0.0908 -0.3478
 9404SOL    HW139845   2.579   2.956   1.454 -0.3502 -0.8881 -1.2644
 9404SOL    HW239846   2.475   3.005   1.361 -0.6481 -0.8188 -0.4437
 9405SOL     OW39847   1.795   3.535   6.035  0.1676  0.3043  0.3416
 9405SOL    HW139848   1.799   3.526   5.940  1.4854  1.3669  0.2922
 9405SOL    HW239849   1.717   3.484   6.056  1.8711 -2.2686  0.3346
 9406SOL     OW39850   3.303   2.226   5.159 -0.5406  0.1301  0.1627
 9406SOL    HW139851   3.252   2.226   5.077  3.5986 -1.8745 -2.3862
 9406SOL    HW239852   3.384   2.202   5.115 -0.9476  0.8933 -1.0386
 9407SOL     OW39853   4.376   2.908   5.824 -0.3299 -0.0035 -0.1152
 9407SOL    HW139854   4.348   2.996   5.800  0.9824  0.9889  2.0484
 9407SOL    HW239855   4.362   2.918   5.918  0.0494 -1.1370  0.0675
 9408SOL     OW39856   0.973   2.779  10.855 -0.0418 -0.0062  0.7382
 9408SOL    HW139857   1.065   2.770  10.830  0.2130 -0.4119  1.8334
 9408SOL    HW239858   0.956   2.867  10.821  3.8725  0.6399  0.4362
 9409SOL     OW39859   1.830   2.797  16.125 -0.3086  0.3356 -0.0525
 9409SOL    HW139860   1.754   2.745  16.098 -1.0367  0.8775  0.9742
 9409SOL    HW239861   1.795   2.880  16.092  3.1371  1.4784 -0.8278
 9410SOL     OW39862   0.583   2.800  10.014 -0.0485  0.6705 -0.0971
 9410SOL    HW139863   0.587   2.789   9.919 -1.7487  0.1928 -0.1110
 9410SOL    HW239864   0.501   2.845  10.034 -0.0813  0.0311  1.1863
 9411SOL     OW39865   2.242   0.124   2.946 -0.5088 -0.3432  0.0042
 9411SOL    HW139866   2.150   0.109   2.924 -0.8878  1.5851  0.2062
 9411SOL    HW239867   2.231   0.206   2.995 -1.9761  0.0078 -0.9187
 9412SOL     OW39868   4.718   2.821  10.578 -0.3018 -0.1997 -0.2915
 9412SOL    HW139869   4.686   2.842  10.490  3.3964  2.2290 -1.0582
 9412SOL    HW239870   4.663   2.883  10.626  1.2275  0.9619 -0.0156
 9413SOL     OW39871   2.375   3.384   4.132 -0.1375  0.5899  0.1607
 9413SOL    HW139872   2.369   3.469   4.088  1.2590  0.5094 -0.1649
 9413SOL    HW239873   2.293   3.357   4.173 -0.5716  0.4204 -0.8023
 9414SOL     OW39874   3.067   1.850   5.619 -0.0246 -0.6460 -0.0101
 9414SOL    HW139875   3.024   1.934   5.635  0.2907 -0.8082  1.7473
 9414SOL    HW239876   3.035   1.839   5.530  2.4408 -1.1674 -0.8340
 9415SOL     OW39877   2.208   2.244   1.157  0.2664  0.2310 -0.5516
 9415SOL    HW139878   2.160   2.300   1.095 -3.5295 -3.4438 -0.9145
 9415SOL    HW239879   2.233   2.296   1.234 -1.0084 -0.0385  0.0485
 9416SOL     OW39880   3.566   0.437   4.044 -0.8002 -0.0812 -0.0997
 9416SOL    HW139881   3.492   0.415   4.100 -0.4664  0.0169  0.3834
 9416SOL    HW239882   3.519   0.494   3.983 -2.1222 -0.3783  0.6401
 9417SOL     OW39883   0.616   2.059   2.666 -0.1010 -0.3701 -0.0068
 9417SOL    HW139884   0.630   2.050   2.571  0.5615  0.1951  0.0397
 9417SOL    HW239885   0.537   2.111   2.669 -1.0981 -1.9083  0.4519
 9418SOL     OW39886   2.108   2.622   6.223  0.4498 -0.0908  0.7922
 9418SOL    HW139887   2.110   2.714   6.197 -0.5809 -0.3054 -0.0286
 9418SOL    HW239888   2.165   2.629   6.300  0.6210 -0.4184  0.6967
 9419SOL     OW39889   2.472   1.363  16.357  0.5552 -0.4503 -0.1753
 9419SOL    HW139890   2.425   1.420  16.418 -3.2536 -2.0080 -1.5957
 9419SOL    HW239891   2.558   1.359  16.398  0.5164 -1.3270 -0.1797
 9420SOL     OW39892   1.105   0.571  10.490  0.4097  0.0508 -0.0285
 9420SOL    HW139893   1.159   0.619  10.427  2.3701 -3.4244 -1.0023
 9420SOL    HW239894   1.133   0.610  10.572  1.1841 -1.1872  0.3009
 9421SOL     OW39895   0.286   2.881  12.868 -0.1932 -0.0273  0.7059
 9421SOL    HW139896   0.334   2.959  12.895  2.3139 -1.0429 -0.8331
 9421SOL    HW239897   0.339   2.837  12.802 -1.8905  1.6423 -1.7727
 9422SOL     OW39898   3.072   0.727   2.012 -0.6505 -0.2509 -0.2222
 9422SOL    HW139899   3.039   0.723   2.102 -0.3829 -2.0393 -0.2083
 9422SOL    HW239900   3.114   0.813   2.014  1.2577 -1.2360  1.4068
 9423SOL     OW39901   1.429   4.220   2.724  0.5973  0.2092  0.2902
 9423SOL    HW139902   1.501   4.165   2.754 -1.7449 -1.3330  3.0365
 9423SOL    HW239903   1.443   4.296   2.781 -0.2619 -0.7384  1.7730
 9424SOL     OW39904   3.963   2.042   3.416  0.1179 -0.0724 -0.4686
 9424SOL    HW139905   4.015   1.963   3.400  0.8843  0.0476  1.4648
 9424SOL    HW239906   3.922   2.028   3.501  1.5148  1.8108  0.5159
 9425SOL     OW39907   3.417   1.253  17.292 -0.0104  0.4305  0.3560
 9425SOL    HW139908   3.410   1.294  17.206  1.0251 -0.2907 -0.0604
 9425SOL    HW239909   3.427   1.161  17.270 -1.2877  0.4687 -0.3842
 9426SOL     OW39910   3.485   2.614  11.345 -0.0495 -0.0962  0.0241
 9426SOL    HW139911   3.411   2.674  11.355  0.1812  0.6587 -2.9118
 9426SOL    HW239912   3.512   2.597  11.435 -3.4597 -3.0701  0.4888
 9427SOL     OW39913   4.694   2.891   6.256 -0.1212  0.4813  0.0401
 9427SOL    HW139914   4.615   2.945   6.255 -1.8863 -2.0997  2.0190
 9427SOL    HW239915   4.738   2.934   6.330  0.5999 -1.4404  0.7269
 9428SOL     OW39916   0.691   0.774   6.242 -0.7388 -0.3285  0.1486
 9428SOL    HW139917   0.758   0.720   6.199  0.7528  1.9522 -0.3753
 9428SOL    HW239918   0.744   0.852   6.259  2.2407 -2.2215 -0.2864
 9429SOL     OW39919   4.088   0.260   3.050 -0.4646  0.2985 -0.0903
 9429SOL    HW139920   4.028   0.321   3.093  2.4993  2.0238  1.5837
 9429SOL    HW239921   4.120   0.320   2.982 -0.4854  1.3644  0.8527
 9430SOL     OW39922   2.566   0.104   2.879 -0.0193  0.2512 -0.3112
 9430SOL    HW139923   2.574   0.148   2.794  0.5043  1.6008  0.4484
 9430SOL    HW239924   2.486   0.054   2.863 -0.0214  0.0256  0.4224
 9431SOL     OW39925   3.171   3.217   5.732  0.5397  0.3431 -0.6777
 9431SOL    HW139926   3.186   3.297   5.782  2.1632 -0.4896  0.1603
 9431SOL    HW239927   3.144   3.256   5.648 -0.1626  0.9939 -0.1465
 9432SOL     OW39928   2.046   2.741   7.216  0.1589 -0.1742  0.0665
 9432SOL    HW139929   2.079   2.813   7.162 -2.4719  0.4298 -0.7677
 9432SOL    HW239930   1.965   2.723   7.167  0.4973  1.0502 -0.9174
 9433SOL     OW39931   2.395   1.344   2.945 -0.0989  0.0528 -0.2953
 9433SOL    HW139932   2.350   1.406   3.003 -0.4153 -1.5780  1.2180
 9433SOL    HW239933   2.323   1.330   2.884  1.5794 -0.2825 -2.2041
 9434SOL     OW39934   1.366   3.269   8.841  0.4366  0.0583  0.2351
 9434SOL    HW139935   1.335   3.331   8.907 -1.0681 -1.5283  1.0264
 9434SOL    HW239936   1.340   3.328   8.771 -1.0355 -0.0939  0.6420
 9435SOL     OW39937   2.912   2.752   4.106  0.0611 -0.0659  0.4088
 9435SOL    HW139938   2.863   2.755   4.024 -1.7719 -1.6331  1.4514
 9435SOL    HW239939   2.944   2.842   4.115 -1.3847  0.4055  0.8601
 9436SOL     OW39940   4.055   1.296   2.293  0.4046 -0.3250 -0.1067
 9436SOL    HW139941   4.123   1.254   2.344 -1.8039 -2.9857  0.6291
 9436SOL    HW239942   4.063   1.387   2.323  0.1624 -0.2007 -0.4192
 9437SOL     OW39943   1.153   0.739  10.689 -0.1479  0.3954 -0.3682
 9437SOL    HW139944   1.111   0.797  10.753  3.1091 -0.8114  2.9106
 9437SOL    HW239945   1.218   0.800  10.653  0.9348 -0.2568  0.4555
 9438SOL     OW39946   3.010   1.802   7.749  0.5932  0.1896 -0.0039
 9438SOL    HW139947   2.918   1.779   7.757  0.2290  0.9624 -2.0774
 9438SOL    HW239948   3.020   1.808   7.654  1.5528  0.6745  0.1282
 9439SOL     OW39949   4.205   0.701   5.240 -0.1925 -0.5933  0.3892
 9439SOL    HW139950   4.147   0.764   5.196  0.6903 -0.5745 -0.7643
 9439SOL    HW239951   4.141   0.633   5.258  0.4629 -1.0645  0.9415
 9440SOL     OW39952   3.591   2.292   7.337  0.2601 -0.1053 -0.2069
 9440SOL    HW139953   3.639   2.375   7.347 -1.1920  0.4855  1.8788
 9440SOL    HW239954   3.644   2.237   7.279  0.2657  0.9969 -1.2566
 9441SOL     OW39955   2.710   3.468   8.799  0.3770 -0.1941  0.1286
 9441SOL    HW139956   2.629   3.473   8.748  1.7811  1.3434 -1.9630
 9441SOL    HW239957   2.715   3.553   8.842 -3.2499 -0.4753  1.1498
 9442SOL     OW39958   2.468   2.647   2.920 -0.1547  0.1471  0.4498
 9442SOL    HW139959   2.390   2.639   2.864 -0.9208  1.7020  1.2889
 9442SOL    HW239960   2.431   2.683   3.000 -0.2001  1.0596  0.0180
 9443SOL     OW39961   1.111   0.393   3.200  0.7718 -0.4511  0.1775
 9443SOL    HW139962   1.056   0.315   3.186  2.2269 -1.6308  0.9494
 9443SOL    HW239963   1.158   0.392   3.117 -0.9300  0.4331 -0.7796
 9444SOL     OW39964   4.124   4.282   2.118 -0.1884  0.1914 -0.4921
 9444SOL    HW139965   4.060   4.304   2.186  2.0425  0.4400  1.5135
 9444SOL    HW239966   4.164   4.201   2.149 -1.7873 -0.1325  0.7317
 9445SOL     OW39967   2.129   3.861   6.393  0.1338 -0.7784  0.2905
 9445SOL    HW139968   2.171   3.901   6.317  0.6174 -0.9722  0.4531
 9445SOL    HW239969   2.039   3.867   6.363  0.4867  0.4923 -0.5186
 9446SOL     OW39970   4.713   3.432  13.595 -0.0706  0.5547  0.3967
 9446SOL    HW139971   4.643   3.368  13.610  0.5117 -0.1876 -0.0625
 9446SOL    HW239972   4.682   3.507  13.646  1.7271 -0.3916  2.8843
 9447SOL     OW39973   3.791   3.698   5.004  0.3966  0.2350  0.0769
 9447SOL    HW139974   3.815   3.641   4.931 -0.1368 -1.5175  1.2740
 9447SOL    HW239975   3.727   3.642   5.049  0.3368 -0.3356 -0.7161
 9448SOL     OW39976   0.932   0.252   3.839 -0.2032 -0.1614 -0.1760
 9448SOL    HW139977   0.991   0.319   3.874  1.8697 -1.9145 -0.3174
 9448SOL    HW239978   0.854   0.301   3.812  0.7875  1.4346 -0.1454
 9449SOL     OW39979   2.565   4.462   2.290 -0.7476 -0.0098  0.0856
 9449SOL    HW139980   2.644   4.409   2.300 -0.1984  0.5998 -0.9715
 9449SOL    HW239981   2.521   4.406   2.226 -0.7831  1.8290 -1.4973
 9450SOL     OW39982   1.573   4.653   0.695 -0.5909 -0.3565 -0.0366
 9450SOL    HW139983   1.514   4.707   0.748  1.6360 -1.9388  3.9906
 9450SOL    HW239984   1.598   4.585   0.757  1.9899  1.9183  1.3840
 9451SOL     OW39985   4.343   0.219   6.147 -0.0086 -0.1974  0.2561
 9451SOL    HW139986   4.410   0.260   6.093 -0.5861 -1.3148 -1.3356
 9451SOL    HW239987   4.266   0.204   6.092  0.5236 -0.2314 -0.4799
 9452SOL     OW39988   3.584   2.094   4.616 -0.4310  0.5609  0.7967
 9452SOL    HW139989   3.610   2.116   4.527  1.9817  1.2581  1.6927
 9452SOL    HW239990   3.625   2.165   4.664  0.0929  0.7220  0.1112
 9453SOL     OW39991   2.152   2.938   6.156 -0.0801  0.3410  0.0336
 9453SOL    HW139992   2.164   2.910   6.066  0.7512 -1.8593  0.8147
 9453SOL    HW239993   2.230   2.993   6.163  0.1658  0.3274 -2.6728
 9454SOL     OW39994   4.498   4.431   5.192 -0.0404 -0.1622  0.0685
 9454SOL    HW139995   4.518   4.505   5.248 -0.1793 -0.3592  0.3807
 9454SOL    HW239996   4.410   4.462   5.168 -0.1075 -1.0817 -0.8971
 9455SOL     OW39997   1.130   0.672  14.230  0.0491  0.1805 -0.0412
 9455SOL    HW139998   1.065   0.729  14.189  1.4783 -0.5790 -3.3207
 9455SOL    HW239999   1.214   0.703  14.195  0.0619 -1.1394 -1.1394
 9456SOL     OW40000   2.215   1.437   7.836 -0.0992 -0.1640  0.3818
 9456SOL    HW140001   2.295   1.398   7.802 -0.5014 -1.0417  0.4410
 9456SOL    HW240002   2.143   1.388   7.796  0.1446 -0.4313  0.2697
 9457SOL     OW40003   0.943   1.778  14.744  0.0393 -0.0897  0.6450
 9457SOL    HW140004   1.009   1.811  14.805  0.3594 -1.5642  1.0946
 9457SOL    HW240005   0.990   1.700  14.712 -1.4474 -0.3591 -0.8712
 9458SOL     OW40006   3.172   4.058  10.261 -0.3258  0.0379 -0.1710
 9458SOL    HW140007   3.118   3.979  10.260 -2.5908  1.5721 -0.5107
 9458SOL    HW240008   3.135   4.101  10.338  3.1041  1.2652  0.7891
 9459SOL     OW40009   0.551   1.599   8.714 -0.7012  0.0761 -0.0759
 9459SOL    HW140010   0.591   1.520   8.753 -0.0722 -0.0400 -0.9589
 9459SOL    HW240011   0.514   1.652   8.785 -1.6550 -2.0499  1.0297
 9460SOL     OW40012   4.001   0.845   4.231 -0.3046  0.2827 -0.1467
 9460SOL    HW140013   3.996   0.806   4.319 -1.8874  0.4257 -0.1669
 9460SOL    HW240014   3.918   0.820   4.190 -1.5417  2.0961  1.2473
 9461SOL     OW40015   4.570   2.780  13.814 -0.0326 -0.5485 -0.0815
 9461SOL    HW140016   4.664   2.793  13.823 -0.3594  1.5755  0.4118
 9461SOL    HW240017   4.563   2.685  13.814  0.7056 -0.6022 -0.4038
 9462SOL     OW40018   0.840   4.349  12.734 -0.7087  0.4672 -0.1831
 9462SOL    HW140019   0.832   4.317  12.644  1.5153  2.8464 -1.2051
 9462SOL    HW240020   0.922   4.397  12.725  0.4167 -1.2560  0.8141
 9463SOL     OW40021   0.460   3.468   3.735 -0.0675  0.3114 -0.4393
 9463SOL    HW140022   0.426   3.531   3.799  0.1029 -0.3992  0.3481
 9463SOL    HW240023   0.512   3.424   3.802 -1.9655 -1.7645 -0.3493
 9464SOL     OW40024   1.678   3.422   8.334  0.2164 -0.0200 -0.2168
 9464SOL    HW140025   1.738   3.376   8.275  0.1012 -2.7217  1.8057
 9464SOL    HW240026   1.721   3.506   8.349 -0.8005  0.3052  0.8506
 9465SOL     OW40027   2.491   0.016   3.736 -0.4809  0.2654 -0.2786
 9465SOL    HW140028   2.504   0.029   3.830 -2.2099  3.1822 -0.4455
 9465SOL    HW240029   2.562   4.695   3.717 -1.1790 -0.0948 -1.6926
 9466SOL     OW40030   3.221   1.027  14.964 -0.9294  0.6234  0.0281
 9466SOL    HW140031   3.266   0.982  14.892  0.1270  0.1281  1.0024
 9466SOL    HW240032   3.264   1.113  14.966  1.4940 -0.6206  1.4406
 9467SOL     OW40033   2.660   3.549  13.523 -0.6741  0.1263  0.1301
 9467SOL    HW140034   2.613   3.627  13.492  0.0134  1.6945  3.0251
 9467SOL    HW240035   2.669   3.564  13.617  1.2515 -3.2833  0.4753
 9468SOL     OW40036   1.853   1.131  10.389  0.2263  0.2979 -0.5361
 9468SOL    HW140037   1.818   1.219  10.378 -0.1310  0.3395  0.9066
 9468SOL    HW240038   1.773   1.086  10.414 -0.1745  0.9818 -0.5941
 9469SOL     OW40039   4.334   1.488   5.364  0.6945  0.6029 -0.0337
 9469SOL    HW140040   4.348   1.422   5.431 -1.4807 -0.1618 -0.3276
 9469SOL    HW240041   4.385   1.561   5.399 -2.4965  2.4700  0.7817
 9470SOL     OW40042   1.754   4.726   3.066  0.4281  0.0835 -0.4095
 9470SOL    HW140043   1.691   4.655   3.074  2.1736 -1.4879 -0.5624
 9470SOL    HW240044   1.733   0.029   3.149 -2.9164 -1.8124 -0.2912
 9471SOL     OW40045   2.182   4.423   2.673  0.1915 -0.2762 -0.7162
 9471SOL    HW140046   2.175   4.519   2.674  0.9353 -0.2409  1.8358
 9471SOL    HW240047   2.242   4.416   2.599 -0.4745 -1.2149 -1.1673
 9472SOL     OW40048   3.414   2.382   8.390 -0.5186 -0.1637  0.0027
 9472SOL    HW140049   3.397   2.295   8.427  1.6340 -1.3894 -1.9317
 9472SOL    HW240050   3.463   2.415   8.465  0.5036  0.2553 -0.8551
 9473SOL     OW40051   0.335   4.600   5.185 -0.3213  0.0395 -0.1169
 9473SOL    HW140052   0.338   4.611   5.280 -0.2548 -1.0554  0.0068
 9473SOL    HW240053   0.293   4.682   5.160 -1.5256 -0.4497  0.2814
 9474SOL     OW40054   1.430   2.273  17.575  0.1367 -0.0353 -0.3685
 9474SOL    HW140055   1.341   2.295  17.600  0.2718  0.9578 -0.7935
 9474SOL    HW240056   1.434   2.177  17.567 -2.7349 -0.0486 -1.4276
 9475SOL     OW40057   3.325   4.712   5.031  0.1131  0.0001 -0.7260
 9475SOL    HW140058   3.260   4.703   4.962  0.0393 -1.0763 -0.5219
 9475SOL    HW240059   3.282   0.024   5.098 -2.3354 -0.6799 -1.7897
 9476SOL     OW40060   3.103   3.669   1.588 -0.0897 -0.2361 -0.0955
 9476SOL    HW140061   3.093   3.586   1.634 -2.0637  0.5848  0.9714
 9476SOL    HW240062   3.028   3.665   1.528 -0.7374 -0.2899  0.7264
 9477SOL     OW40063   4.717   3.124  14.874  0.1473  0.5088 -0.5970
 9477SOL    HW140064   4.682   3.117  14.785  2.4796 -0.9441 -1.3753
 9477SOL    HW240065   4.648   3.067  14.909  0.3971  0.9639  0.6384
 9478SOL     OW40066   1.920   1.069   1.204  0.0414 -0.3320  0.1851
 9478SOL    HW140067   1.924   1.160   1.233  0.5823 -0.4161  0.3872
 9478SOL    HW240068   1.836   1.063   1.159 -0.0070  0.3390  0.1786
 9479SOL     OW40069   1.628   4.582   0.437  0.1641 -0.1019 -0.4997
 9479SOL    HW140070   1.626   4.599   0.531  0.1673  1.9091 -0.8785
 9479SOL    HW240071   1.640   4.670   0.403 -0.3664  0.2203  0.1388
 9480SOL     OW40072   3.080   4.608  11.841  0.0246 -0.1869 -0.5574
 9480SOL    HW140073   3.061   4.678  11.903  1.5426 -1.5297  1.4463
 9480SOL    HW240074   3.143   4.649  11.781  2.3173 -0.1332  1.8672
 9481SOL     OW40075   1.183   1.194   5.669  0.4625  0.2613  1.4835
 9481SOL    HW140076   1.173   1.154   5.755 -0.6096 -1.4744  0.5688
 9481SOL    HW240077   1.134   1.133   5.614 -1.1492  4.4070 -1.6866
 9482SOL     OW40078   2.832   2.619   8.721 -0.0176  0.1385 -0.4951
 9482SOL    HW140079   2.877   2.693   8.680  2.6770 -0.0332  2.1203
 9482SOL    HW240080   2.805   2.572   8.642 -1.9582 -0.8353  0.7607
 9483SOL     OW40081   4.701   2.150   9.219 -0.0541 -0.3998  0.5186
 9483SOL    HW140082   4.679   2.184   9.306 -1.2442 -0.0328  0.0768
 9483SOL    HW240083   4.721   2.061   9.245  1.0867  0.1589  1.5674
 9484SOL     OW40084   4.708   0.115  12.422  0.1594 -0.0320 -0.1527
 9484SOL    HW140085   4.696   0.034  12.472 -1.0489 -0.3266 -0.9054
 9484SOL    HW240086   4.690   0.088  12.332 -0.7923  1.7391 -0.4927
 9485SOL     OW40087   1.146   4.067   3.807  0.0005 -0.3437 -0.2037
 9485SOL    HW140088   1.177   4.042   3.894  1.8120  2.0120 -0.1628
 9485SOL    HW240089   1.220   4.030   3.759 -0.0485  0.6299 -1.0417
 9486SOL     OW40090   1.231   1.649   1.151 -0.2637  0.7746 -0.6095
 9486SOL    HW140091   1.288   1.597   1.094 -0.3430  0.8627 -0.7697
 9486SOL    HW240092   1.145   1.649   1.108  0.5687  0.2507 -2.2861
 9487SOL     OW40093   4.000   3.726   4.554 -0.7841  0.1644 -0.0179
 9487SOL    HW140094   3.991   3.656   4.619  1.3483  0.7858  0.9647
 9487SOL    HW240095   4.032   3.793   4.615  0.5530  0.2355 -0.8018
 9488SOL     OW40096   3.633   4.124   3.361 -0.7176 -0.5172  0.6400
 9488SOL    HW140097   3.615   4.124   3.455 -0.9991  0.6021  0.5846
 9488SOL    HW240098   3.571   4.191   3.333 -0.2318 -0.6613 -0.7447
 9489SOL     OW40099   1.023   1.732   2.466  0.1399  0.5677  0.2530
 9489SOL    HW140100   0.995   1.641   2.464 -0.9188  0.8521  1.6892
 9489SOL    HW240101   1.109   1.730   2.424 -0.4236 -1.9314 -0.7896
 9490SOL     OW40102   1.520   0.104   4.788 -0.0924  0.3504 -0.0341
 9490SOL    HW140103   1.488   0.188   4.754 -1.8136 -0.4542 -0.3900
 9490SOL    HW240104   1.435   0.065   4.807  0.2290  0.8346  2.4002
 9491SOL     OW40105   1.876   1.201  12.094 -0.6300  0.4250  0.5268
 9491SOL    HW140106   1.843   1.269  12.035  0.1122  1.5875  1.4578
 9491SOL    HW240107   1.956   1.243  12.124  0.0288 -0.6824  0.3084
 9492SOL     OW40108   4.155   3.712   3.168  0.0482 -0.6245  0.7524
 9492SOL    HW140109   4.228   3.718   3.230  2.2238  0.1164 -1.8846
 9492SOL    HW240110   4.197   3.697   3.084 -0.6573 -0.1380  0.3150
 9493SOL     OW40111   2.912   2.352  16.559  0.5104 -0.6323  0.1023
 9493SOL    HW140112   2.929   2.406  16.636  1.2509 -3.4416  1.8983
 9493SOL    HW240113   2.927   2.404  16.480 -0.5227  0.5133  0.6523
 9494SOL     OW40114   2.719   0.067  17.309 -0.2218 -0.0121  0.3030
 9494SOL    HW140115   2.722   0.042  17.217 -0.8759  1.2152 -0.0508
 9494SOL    HW240116   2.789   0.022  17.354 -0.0001  0.6500  0.6213
 9495SOL     OW40117   2.451   2.844   5.407 -0.1070 -0.2372 -1.0536
 9495SOL    HW140118   2.533   2.879   5.372 -1.1934  2.2936 -1.0552
 9495SOL    HW240119   2.451   2.763   5.357  2.2421 -0.5423 -0.5564
 9496SOL     OW40120   3.441   1.032   6.768  0.3154 -0.5892  0.3851
 9496SOL    HW140121   3.359   0.985   6.783 -0.2763  0.8948  1.7748
 9496SOL    HW240122   3.431   1.124   6.791  1.1570 -0.5693  0.6801
 9497SOL     OW40123   0.060   2.766   7.203 -0.2709  0.3883 -0.2740
 9497SOL    HW140124   0.010   2.827   7.257 -0.5025  1.0752 -1.2615
 9497SOL    HW240125   0.151   2.795   7.190 -0.1489  0.7849  1.4802
 9498SOL     OW40126   2.703   2.520   1.814 -0.3713  0.7939 -0.2875
 9498SOL    HW140127   2.788   2.477   1.801 -0.5923  0.5343 -0.8334
 9498SOL    HW240128   2.720   2.609   1.783  0.1543  0.0194 -2.2270
 9499SOL     OW40129   1.054   0.121   1.394 -0.4658 -0.0477  0.2129
 9499SOL    HW140130   1.132   0.065   1.390  0.5217  1.3702 -0.3699
 9499SOL    HW240131   1.070   0.182   1.323 -0.2503  0.1244  0.4075
 9500SOL     OW40132   3.145   3.760   2.930 -0.6503  0.5431  0.5333
 9500SOL    HW140133   3.173   3.773   3.021  0.0914 -0.7041  0.4766
 9500SOL    HW240134   3.205   3.811   2.877 -1.2387 -0.0370 -0.6840
 9501SOL     OW40135   4.682   3.754   3.010  0.6647  0.6579 -0.8426
 9501SOL    HW140136   4.669   3.848   3.019 -0.2349  0.4857 -0.3850
 9501SOL    HW240137   0.024   3.744   3.058 -0.2765  0.3708  0.7159
 9502SOL     OW40138   3.085   4.064   2.026  0.1094  0.0361 -0.4288
 9502SOL    HW140139   3.092   4.156   2.052 -0.2402 -0.5853  1.7957
 9502SOL    HW240140   3.177   4.049   2.003  0.6246  0.5140  1.3630
 9503SOL     OW40141   2.066   0.717   8.540  0.6233 -0.1018  0.1114
 9503SOL    HW140142   2.154   0.696   8.510  1.4422 -0.1390  2.5192
 9503SOL    HW240143   2.038   0.786   8.480  0.0467  0.8407  1.4587
 9504SOL     OW40144   0.804   3.260   8.990  0.1429 -0.1144  0.2371
 9504SOL    HW140145   0.895   3.234   9.005  0.6725  0.2646 -2.3463
 9504SOL    HW240146   0.820   3.354   8.986  1.9377 -0.4328  0.1600
 9505SOL     OW40147   3.051   2.304   2.661 -0.2286  0.2587  0.4317
 9505SOL    HW140148   2.999   2.383   2.675  0.2825  0.9208 -1.4440
 9505SOL    HW240149   3.122   2.335   2.604  0.0844  0.6855  1.0477
 9506SOL     OW40150   3.360   1.040  17.085 -0.2585  0.1297 -0.8891
 9506SOL    HW140151   3.289   1.020  17.023 -1.0948 -0.2008  0.1598
 9506SOL    HW240152   3.441   1.015  17.041 -0.9771 -0.8870 -1.6535
 9507SOL     OW40153   3.790   2.947  15.705 -0.0098 -0.4228 -0.3713
 9507SOL    HW140154   3.742   3.029  15.691 -0.3430 -0.5955 -0.2332
 9507SOL    HW240155   3.806   2.918  15.615  0.2299  1.9076 -1.0951
 9508SOL     OW40156   2.888   4.678   1.225  0.0849 -0.4214  0.0147
 9508SOL    HW140157   2.981   4.693   1.206  0.0566 -0.9797 -0.5666
 9508SOL    HW240158   2.833   4.712   1.154  0.5269 -0.7885 -0.5076
 9509SOL     OW40159   3.524   2.691   4.086  0.9684 -0.6737  0.0731
 9509SOL    HW140160   3.551   2.693   3.994  3.2082 -2.0588  0.6811
 9509SOL    HW240161   3.517   2.599   4.111  1.0517 -1.0003 -1.1031
 9510SOL     OW40162   2.900   4.208   8.087  0.0595  0.2222  0.0438
 9510SOL    HW140163   2.849   4.181   8.011 -1.6639  1.6237  0.7077
 9510SOL    HW240164   2.980   4.156   8.079  0.3220  0.3920  1.5369
 9511SOL     OW40165   3.109   3.520   6.782 -0.1685 -0.8330  0.2609
 9511SOL    HW140166   3.134   3.609   6.756  0.4264 -1.2902 -0.7531
 9511SOL    HW240167   3.161   3.508   6.862 -1.2575  0.3746  1.1490
 9512SOL     OW40168   2.555   3.449   4.354  0.4133  0.3209  0.0489
 9512SOL    HW140169   2.605   3.531   4.355 -0.4736  0.8833 -1.6312
 9512SOL    HW240170   2.538   3.438   4.260 -1.1349  0.6497  0.3015
 9513SOL     OW40171   2.062   0.140   4.846  0.3048 -0.2038 -0.2004
 9513SOL    HW140172   2.011   0.072   4.803  0.0374  0.5165 -1.0224
 9513SOL    HW240173   2.139   0.146   4.789 -0.9457 -0.7441 -1.9378
 9514SOL     OW40174   1.438   2.941   8.365 -0.3748  0.0300  0.1646
 9514SOL    HW140175   1.480   2.864   8.404 -1.3984 -0.7215 -0.2254
 9514SOL    HW240176   1.355   2.937   8.413  0.3112 -1.4599  1.2291
 9515SOL     OW40177   4.439   2.166   8.769 -0.3646 -0.0283  0.6145
 9515SOL    HW140178   4.532   2.178   8.790 -0.2204  1.5393 -0.8871
 9515SOL    HW240179   4.414   2.090   8.821  2.0453 -0.4327  1.2082
 9516SOL     OW40180   2.364   3.378   8.681  0.0244 -0.9516 -0.8433
 9516SOL    HW140181   2.281   3.355   8.640 -0.5347  0.1876 -0.3583
 9516SOL    HW240182   2.346   3.454   8.736 -2.5240 -3.0469  1.2282
 9517SOL     OW40183   0.624   1.535  15.737  0.3194  0.2916  0.1725
 9517SOL    HW140184   0.708   1.562  15.702  0.7610 -1.2178  0.0476
 9517SOL    HW240185   0.645   1.455  15.786  3.0527  1.1347  0.3496
 9518SOL     OW40186   3.011   3.807   5.041 -0.1483 -0.3161  0.4916
 9518SOL    HW140187   3.098   3.772   5.021 -0.9030 -2.0222  0.1937
 9518SOL    HW240188   2.992   3.757   5.120 -0.0055 -3.7991 -1.7045
 9519SOL     OW40189   2.359   4.423   5.540 -0.0692 -0.3466 -0.4487
 9519SOL    HW140190   2.429   4.364   5.511 -1.1938 -1.8067 -0.2104
 9519SOL    HW240191   2.343   4.391   5.629  0.3167 -1.0395 -0.6219
 9520SOL     OW40192   0.649   1.890   7.140 -0.1952  0.1727 -0.1074
 9520SOL    HW140193   0.725   1.865   7.192 -0.8768 -0.8101  0.4305
 9520SOL    HW240194   0.676   1.898   7.048 -0.2849  2.0144  0.0424
 9521SOL     OW40195   4.356   3.682   3.355 -0.0011 -0.3027 -0.1388
 9521SOL    HW140196   4.315   3.681   3.442  0.4369  2.5459  0.0832
 9521SOL    HW240197   4.450   3.684   3.375 -0.2470  2.0201  0.7123
 9522SOL     OW40198   2.099   0.226   8.322  0.1611  0.2667  0.1232
 9522SOL    HW140199   2.108   0.321   8.313  2.3584 -0.1472 -1.8342
 9522SOL    HW240200   2.072   0.209   8.413  0.8149  0.3092  0.3237
 9523SOL     OW40201   3.231   0.019   7.029 -0.4373 -0.2901 -0.1976
 9523SOL    HW140202   3.279   0.066   6.961 -0.4097 -0.4676 -0.3016
 9523SOL    HW240203   3.281   0.039   7.108 -2.5581 -1.5991  1.4879
 9524SOL     OW40204   3.427   4.230   4.862 -0.2038  0.0383 -0.5300
 9524SOL    HW140205   3.500   4.212   4.921  0.2800  0.2987 -1.0504
 9524SOL    HW240206   3.439   4.168   4.790 -2.3180 -0.6906 -0.2405
 9525SOL     OW40207   0.920   1.161  10.592  0.1701  0.3828  0.0889
 9525SOL    HW140208   0.990   1.193  10.650  0.6033 -1.6504  0.7047
 9525SOL    HW240209   0.943   1.213  10.516  0.8520  1.1106  0.7925
 9526SOL     OW40210   1.608   1.576   7.460  0.2123  0.0547  0.2515
 9526SOL    HW140211   1.619   1.633   7.383  0.1449 -0.9373 -0.4899
 9526SOL    HW240212   1.565   1.502   7.418 -3.1432  1.1883  1.6817
 9527SOL     OW40213   0.673   3.493   8.358 -0.1771 -0.1623 -0.0251
 9527SOL    HW140214   0.609   3.489   8.429 -1.6799 -2.0062 -1.5217
 9527SOL    HW240215   0.615   3.525   8.289 -1.7631 -2.3250  0.3322
 9528SOL     OW40216   0.818   3.660   0.265  0.5094 -0.4273 -0.0075
 9528SOL    HW140217   0.787   3.591   0.206  0.1028 -1.1555  1.0574
 9528SOL    HW240218   0.869   3.713   0.203  1.6135 -0.7376  0.6399
 9529SOL     OW40219   1.951   3.533   6.634 -0.0279 -0.4465 -0.5015
 9529SOL    HW140220   1.889   3.605   6.620  0.7765 -0.0146 -1.8299
 9529SOL    HW240221   1.956   3.501   6.544  2.7654 -1.4032 -0.0021
 9530SOL     OW40222   0.709   0.843   5.888  0.5653 -0.6483  0.2994
 9530SOL    HW140223   0.710   0.932   5.853  0.1880 -0.3301  1.0921
 9530SOL    HW240224   0.791   0.813   5.848  0.2614  0.7720 -1.3465
 9531SOL     OW40225   4.467   1.919   2.011 -0.4571  0.3620  0.7128
 9531SOL    HW140226   4.501   1.938   1.924  0.9152 -3.4580  0.3981
 9531SOL    HW240227   4.516   1.842   2.040 -2.6238 -0.7657  1.3713
 9532SOL     OW40228   0.147   1.464   6.486 -0.3240  0.0419  0.3010
 9532SOL    HW140229   0.168   1.499   6.573 -1.0266  0.1542  0.4211
 9532SOL    HW240230   0.170   1.532   6.423 -4.5509  0.1662 -1.0934
 9533SOL     OW40231   3.828   0.046   4.097 -0.1369  0.0012 -0.0029
 9533SOL    HW140232   3.852   0.130   4.059 -1.0031 -0.8013 -2.3876
 9533SOL    HW240233   3.854   0.066   4.186 -0.2770 -0.4530  0.1406
 9534SOL     OW40234   4.451   4.000   0.274 -0.0400 -0.5376 -0.4219
 9534SOL    HW140235   4.432   4.092   0.290  0.8262 -0.2561 -1.0261
 9534SOL    HW240236   4.366   3.957   0.268 -0.0730 -0.7115  1.3146
 9535SOL     OW40237   4.095   3.010  15.721 -0.2237  0.0442  0.3288
 9535SOL    HW140238   4.107   2.959  15.642 -0.9640  1.1366 -0.4821
 9535SOL    HW240239   4.000   3.015  15.718 -0.2375  1.8307  2.7818
 9536SOL     OW40240   3.973   0.492   4.595 -0.2263 -0.2671 -0.6439
 9536SOL    HW140241   3.884   0.457   4.599  1.0020 -3.4426 -0.7793
 9536SOL    HW240242   3.966   0.560   4.663 -1.2221  1.1771 -2.1794
 9537SOL     OW40243   0.676   0.447   8.990  0.1319  0.1035 -0.1354
 9537SOL    HW140244   0.765   0.438   8.956  0.0757  1.0894 -0.5315
 9537SOL    HW240245   0.672   0.367   9.043  4.2671  0.1391  0.2290
 9538SOL     OW40246   3.600   2.240   9.945  0.1472 -0.1487 -0.6452
 9538SOL    HW140247   3.514   2.260   9.981  1.0387 -0.9086  1.8987
 9538SOL    HW240248   3.660   2.272  10.012 -0.7585  0.1566  0.0185
 9539SOL     OW40249   3.992   2.194  10.792 -0.4519  0.3628  0.8633
 9539SOL    HW140250   3.976   2.166  10.882  0.5647  1.3408  1.3481
 9539SOL    HW240251   3.945   2.277  10.798 -0.5509  0.2435  1.8216
 9540SOL     OW40252   0.567   4.313   5.520 -0.3748 -0.1625 -0.0098
 9540SOL    HW140253   0.608   4.228   5.507 -1.3098 -0.7383  0.7525
 9540SOL    HW240254   0.582   4.353   5.435 -2.1408  0.4651 -0.0275
 9541SOL     OW40255   0.822   3.122   3.453 -0.6677  0.3992 -0.7412
 9541SOL    HW140256   0.897   3.140   3.396  0.7823 -0.1849  0.9822
 9541SOL    HW240257   0.841   3.032   3.480 -1.8355  0.7914  1.3887
 9542SOL     OW40258   1.276   4.483   6.249  0.1812  0.0052 -0.4149
 9542SOL    HW140259   1.313   4.436   6.323  0.2223  3.2858  1.6223
 9542SOL    HW240260   1.192   4.435   6.247  0.4666 -0.5279  0.3143
 9543SOL     OW40261   2.233   0.701  13.975 -0.4365 -0.2659 -0.1167
 9543SOL    HW140262   2.209   0.711  13.883 -1.6467 -1.9833  0.0186
 9543SOL    HW240263   2.183   0.770  14.018 -1.9116 -0.0306 -2.1973
 9544SOL     OW40264   3.673   1.324   9.341  0.2600  0.5888  0.3905
 9544SOL    HW140265   3.685   1.251   9.402 -0.0505 -1.3513 -1.8733
 9544SOL    HW240266   3.629   1.380   9.405 -1.1485 -0.2730  0.1663
 9545SOL     OW40267   4.652   4.311  12.269 -0.0323 -0.1819  0.1969
 9545SOL    HW140268   4.595   4.374  12.225  0.4389 -0.2400 -0.5091
 9545SOL    HW240269   4.612   4.310  12.356  0.3854  0.3182  0.3921
 9546SOL     OW40270   0.706   0.453   2.273  0.3813  0.3544  0.2158
 9546SOL    HW140271   0.663   0.368   2.260 -1.0147  1.1867 -0.5394
 9546SOL    HW240272   0.769   0.443   2.201  1.2724 -1.5493  1.2444
 9547SOL     OW40273   0.482   2.558   0.886 -0.1033 -0.3147 -0.2284
 9547SOL    HW140274   0.513   2.597   0.968 -1.1521 -0.4859  0.2452
 9547SOL    HW240275   0.425   2.624   0.847  0.9782  0.1643 -1.0259
 9548SOL     OW40276   0.826   3.376   4.613 -0.4514 -0.0935 -0.2250
 9548SOL    HW140277   0.771   3.455   4.611  0.4705  0.6046  1.5059
 9548SOL    HW240278   0.907   3.423   4.632 -0.2228 -0.9022  0.7881
 9549SOL     OW40279   0.886   2.302   2.252 -0.0052 -0.0990 -0.2645
 9549SOL    HW140280   0.937   2.231   2.213 -0.2860 -1.0314  1.0682
 9549SOL    HW240281   0.959   2.354   2.286 -2.1924  1.4879  1.9907
 9550SOL     OW40282   0.623   1.946  16.459  0.5177 -0.2391 -0.0056
 9550SOL    HW140283   0.575   1.914  16.383  1.3064 -0.4955 -0.4006
 9550SOL    HW240284   0.568   2.017  16.492 -1.1987 -1.8140  0.4855
 9551SOL     OW40285   3.646   3.439  12.005  0.1698  0.7573  0.0155
 9551SOL    HW140286   3.641   3.516  12.061  0.5274  0.8354 -0.0599
 9551SOL    HW240287   3.560   3.398  12.015  1.0984 -0.7490  1.7736
 9552SOL     OW40288   1.159   2.704   5.394  0.4054  0.2937  0.1278
 9552SOL    HW140289   1.101   2.651   5.338  0.2467  2.0203 -1.3567
 9552SOL    HW240290   1.198   2.634   5.447  2.3554  0.3268 -1.2801
 9553SOL     OW40291   3.781   0.030   7.717  0.5510 -0.1957 -0.0670
 9553SOL    HW140292   3.826   0.002   7.797 -0.2272 -0.0800  0.4011
 9553SOL    HW240293   3.733   0.111   7.735  0.3397  0.1464 -2.1272
 9554SOL     OW40294   3.290   1.588   4.956  0.6635 -0.1535 -0.4851
 9554SOL    HW140295   3.379   1.620   4.944  0.1639  0.9282 -1.4469
 9554SOL    HW240296   3.278   1.540   4.874 -0.0337 -2.3520  0.9228
 9555SOL     OW40297   4.134   0.972   9.080  0.7051 -0.0234 -0.1754
 9555SOL    HW140298   4.108   1.060   9.106  0.9241  0.0217 -0.1058
 9555SOL    HW240299   4.223   0.984   9.046  2.0892 -1.5467  2.8054
 9556SOL     OW40300   4.693   4.140   3.320 -0.6232 -0.2664  0.4628
 9556SOL    HW140301   4.637   4.118   3.394  1.2867  0.3409  2.0741
 9556SOL    HW240302   0.017   4.070   3.328 -2.3515 -2.0900 -1.4512
 9557SOL     OW40303   0.724   0.395  13.544  0.8476 -0.2781  0.0711
 9557SOL    HW140304   0.635   0.382  13.579  1.4590 -1.2288  1.2809
 9557SOL    HW240305   0.776   0.323  13.581  1.4845 -0.5889 -1.4308
 9558SOL     OW40306   0.588   2.882  15.921  0.0309  0.0327  0.2848
 9558SOL    HW140307   0.567   2.821  15.993 -0.2191 -1.0579 -0.7132
 9558SOL    HW240308   0.542   2.839  15.849  0.2917  1.5059 -0.7492
 9559SOL     OW40309   3.595   1.132   7.676  0.1244  0.5528 -0.4162
 9559SOL    HW140310   3.661   1.064   7.692 -0.7908 -0.1692  0.2875
 9559SOL    HW240311   3.518   1.105   7.725  0.1036 -0.7593 -1.1709
 9560SOL     OW40312   1.506   3.448   7.417 -0.2255  0.0056 -0.8948
 9560SOL    HW140313   1.554   3.368   7.396  0.1834 -0.5825  2.3879
 9560SOL    HW240314   1.564   3.490   7.480 -0.5079 -0.5386 -0.2725
 9561SOL     OW40315   2.112   3.126   8.128  0.2824  0.3650  0.0545
 9561SOL    HW140316   2.069   3.041   8.136 -2.3515  1.4552 -2.5971
 9561SOL    HW240317   2.135   3.135   8.220  0.5072  0.0725  0.0251
 9562SOL     OW40318   4.508   2.734  16.601 -0.0265  0.1009  0.4537
 9562SOL    HW140319   4.575   2.685  16.553 -0.7840 -1.5361  1.0982
 9562SOL    HW240320   4.441   2.741  16.534 -0.7078  1.3513  1.2572
 9563SOL     OW40321   4.237   4.445   6.559 -0.0099 -0.0772 -0.1825
 9563SOL    HW140322   4.301   4.389   6.603 -0.0748  0.8775  1.1292
 9563SOL    HW240323   4.284   4.527   6.549  0.9989 -0.5468  0.7385
 9564SOL     OW40324   2.839   1.743   2.730 -0.4792  0.1280 -0.0281
 9564SOL    HW140325   2.900   1.812   2.702 -1.3747  1.2060  0.6636
 9564SOL    HW240326   2.776   1.805   2.767  1.6146  3.0828 -1.3373
 9565SOL     OW40327   3.778   3.748   8.224 -0.0980  0.0502  0.3346
 9565SOL    HW140328   3.701   3.718   8.175 -0.0338 -1.7193  1.2784
 9565SOL    HW240329   3.736   3.781   8.304  0.7024  2.0598 -0.0947
 9566SOL     OW40330   3.592   0.190   8.401 -0.1609 -0.2418 -0.1973
 9566SOL    HW140331   3.674   0.201   8.449 -0.4280 -2.9133  0.8546
 9566SOL    HW240332   3.540   0.160   8.475  1.4046 -0.7413  0.7003
 9567SOL     OW40333   0.169   3.532   0.555 -0.4721 -0.0124  0.5552
 9567SOL    HW140334   0.207   3.598   0.613 -0.1051  1.1544 -1.0029
 9567SOL    HW240335   0.133   3.590   0.487  0.2995  0.9856  0.9970
 9568SOL     OW40336   1.100   0.601  13.644  0.4712  0.0869  0.3376
 9568SOL    HW140337   1.108   0.515  13.602  1.5472  0.4681 -0.2329
 9568SOL    HW240338   1.068   0.650  13.568 -1.3129  0.2980  1.2255
 9569SOL     OW40339   0.986   2.746   8.573  0.2104 -0.6019 -0.5087
 9569SOL    HW140340   0.919   2.722   8.508 -2.2163  0.9567  1.4342
 9569SOL    HW240341   0.954   2.827   8.612  0.1230 -1.3281  0.9138
 9570SOL     OW40342   4.073   3.684   5.088 -0.3179 -0.5270 -0.0610
 9570SOL    HW140343   3.980   3.701   5.106 -0.5085 -1.4136 -0.2392
 9570SOL    HW240344   4.117   3.769   5.098 -1.2912  0.0363 -0.5561
 9571SOL     OW40345   0.973   3.440   5.315  0.2246 -0.2567 -0.0482
 9571SOL    HW140346   0.947   3.372   5.253 -2.5406 -1.8574  2.8126
 9571SOL    HW240347   0.902   3.505   5.312 -0.3193 -0.7656  1.3936
   4.74040   4.74040  17.75908
