Membrane in water
40347
    1TMC1    C1    1   3.929   3.655  11.736 -0.5879 -0.1836 -0.4646
    1TMC1    C2    2   3.908   3.602  11.613 -0.5950 -0.1020 -0.3615
    1TMC1    C3    3   3.937   3.684  11.509  0.4385  0.3615 -0.0058
    1TMC1    C4    4   3.987   3.780  11.759  0.4010  0.3040  0.0728
    1TMC1    C5    5   4.015   3.860  11.646  0.5912 -0.4246  0.6029
    1TMC1    C6    6   3.981   3.816  11.521 -0.1295  0.0927 -0.1991
    1TMC1     C    7   3.897   3.573  11.853 -0.6762 -0.6683 -0.7775
    1TMC1     O    8   3.847   3.623  11.949 -0.1153  0.2814  0.0777
    1TMC1     H    9   3.859   3.507  11.596  0.7599 -0.9287  0.3368
    1TMC1    H1   10   4.010   3.806  11.862  0.3740 -1.2185  0.4775
    1TMC1    H2   11   4.004   3.873  11.432  0.5394 -0.8520 -0.6288
    1TMC1    C7   12   4.089   3.978  11.650 -0.2832  0.1112 -0.4218
    1TMC1    C8   13   3.942   3.644  11.371 -0.2508  0.4173  0.0463
    1TMC1    O1   14   4.098   4.050  11.552  0.4588 -0.2088 -1.0325
    1TMC1    O2   15   4.042   3.659  11.307  0.3280  0.2488 -0.4653
    1TMC1    O3   16   4.113   4.016  11.778 -0.2198 -0.3622 -0.5020
    1TMC1    H3   17   4.119   3.951  11.852 -0.7057  0.5068  0.3062
    1TMC1    O5   18   3.842   3.550  11.347  0.4106 -0.0984 -0.7621
    1TMC1    H5   19   3.782   3.566  11.423 -0.2687 -3.1234 -0.6363
    2MPD2     C   20   3.976   3.118  12.078  0.6184  0.0538  0.4912
    2MPD2    C1   21   3.946   3.242  12.135 -0.5333 -0.0521  0.0087
    2MPD2    C2   22   3.922   3.343  12.044 -0.5196 -0.2024 -0.1312
    2MPD2    C3   23   3.949   3.337  11.908 -0.2321  0.1515 -0.0428
    2MPD2    C4   24   4.002   3.225  11.852  0.0504  0.2445  0.6339
    2MPD2    C5   25   4.010   3.116  11.942 -0.1342 -0.6206 -0.0022
    2MPD2     H   26   3.890   3.432  12.098  0.7595 -0.9971  1.9131
    2MPD2    H1   27   4.011   3.222  11.745 -0.8389 -1.1033  0.5877
    2MPD2    H2   28   3.992   3.034  12.145  0.8302  0.6928  1.2368
    2MPD2    H3   29   4.036   3.015  11.914 -0.0304 -0.1035 -1.7693
    2MPD2     N   30   3.947   3.449  11.827 -0.0576  0.1124 -0.0130
    2MPD2    H5   31   3.992   3.438  11.737  1.7754  1.1330  0.7713
    2MPD2    N1   32   3.935   3.265  12.273 -0.1298 -0.2229 -0.7267
    2MPD2    H7   33   3.904   3.355  12.308 -0.4847 -1.1299  1.2986
    3TMC1    C1   34   3.014   0.383  10.617 -0.0689  0.1875 -0.2294
    3TMC1    C2   35   3.062   0.441  10.508 -0.2091  0.4323 -0.9529
    3TMC1    C3   36   3.036   0.572  10.490  0.0588  0.0884  0.6693
    3TMC1    C4   37   2.953   0.459  10.718  0.4725  0.3288  0.0465
    3TMC1    C5   38   2.934   0.595  10.696 -0.2089 -0.1863  0.5763
    3TMC1    C6   39   2.958   0.653  10.574 -0.5593  0.4191  0.0117
    3TMC1     C   40   3.044   0.248  10.640  0.4588  0.0377 -0.0754
    3TMC1     O   41   3.135   0.198  10.577  0.2680  0.1726  0.3577
    3TMC1     H   42   3.102   0.385  10.425  1.0581  1.5257 -1.0865
    3TMC1    H1   43   2.942   0.422  10.819 -1.3714 -0.8966 -0.6036
    3TMC1    H2   44   2.917   0.750  10.548  0.0439  0.8207  0.5611
    3TMC1    C7   45   2.869   0.669  10.807  0.2528 -0.9648  0.5321
    3TMC1    C8   46   3.051   0.608  10.348 -0.0933  0.3573  0.1658
    3TMC1    O1   47   2.838   0.611  10.908 -0.4219  0.6092 -0.0967
    3TMC1    O2   48   3.063   0.529  10.254 -0.2879  0.1811 -0.1778
    3TMC1    O3   49   2.914   0.800  10.807  0.1209  0.5461  0.2965
    3TMC1    H3   50   2.963   0.827  10.726  2.0749 -0.5065  1.1317
    3TMC1    O5   51   3.034   0.741  10.335  0.5157 -0.4368  0.1821
    3TMC1    H5   52   3.063   0.792  10.414  0.7945 -0.8499  0.3454
    4MPD2     C   53   2.944   4.534  10.854  0.4624  0.2256  0.2941
    4MPD2    C1   54   2.865   4.628  10.922 -0.0009 -0.6679  0.4320
    4MPD2    C2   55   2.878   0.016  10.872  0.5073  0.5618 -0.8021
    4MPD2    C3   56   2.968   0.055  10.775  0.6301  0.0524 -0.0569
    4MPD2    C4   57   3.043   4.698  10.711  0.0307  0.4883  0.5284
    4MPD2    C5   58   3.030   4.570  10.755 -0.3829 -0.3818 -0.4956
    4MPD2     H   59   2.822   0.095  10.922  0.3431  0.1209 -0.2759
    4MPD2    H1   60   3.101   4.720  10.622 -0.0101  0.7903  0.5745
    4MPD2    H2   61   2.932   4.428  10.871  0.0336 -0.2813 -3.1949
    4MPD2    H3   62   3.095   4.492  10.717  1.7292  2.0685 -1.9455
    4MPD2     N   63   2.969   0.193  10.740  0.7959  0.0026 -0.3823
    4MPD2    H5   64   2.893   0.244  10.784  0.5657 -1.1643  0.5856
    4MPD2    N1   65   2.767   4.600  11.024 -0.0519  0.6422 -0.2410
    4MPD2    H7   66   2.717   4.681  11.059  2.0360  1.8143  0.0238
    5TCq1    O1   67   4.063   1.448  12.199 -0.2178 -0.0358 -0.0383
    5TCq1    C1   68   4.001   1.474  12.313 -0.4559  0.1304  0.1411
    5TCq1    O2   69   4.016   1.423  12.424  1.0506 -0.1345  0.2862
    5TCq1    C2   70   3.905   1.580  12.292  0.5376 -0.2055 -0.1575
    5TCq1    C3   71   3.869   1.645  12.404 -0.2377 -0.2428 -0.6334
    5TCq1    C4   72   3.764   1.723  12.394  0.0809  0.3797  0.2465
    5TCq1    C5   73   3.689   1.732  12.275  0.1955  0.0974  0.9179
    5TCq1    C6   74   3.729   1.658  12.165 -0.4306  0.1442  0.2075
    5TCq1    C7   75   3.842   1.584  12.167 -0.6851 -1.1911  0.0240
    5TCq1    C8   76   3.638   1.640  12.055 -0.3052 -0.0369 -1.3299
    5TCq1    O4   77   3.682   1.565  11.962  0.5542  0.0270 -0.4778
    5TCq1    C9   78   3.713   1.795  12.507 -0.8149  0.3577 -0.0781
    5TCq1    O5   79   3.772   1.787  12.618  0.0039 -0.5672 -0.1966
    5TCq1    O6   80   3.595   1.836  12.497  0.2347  0.1359  0.0735
    5TCq1    H1   81   4.049   1.510  12.124 -0.2010  1.3563  1.1061
    5TCq1    H2   82   3.926   1.636  12.496 -0.4947 -1.7537 -0.6263
    5TCq1    H3   83   3.620   1.816  12.279  1.9831  1.6690 -1.0406
    5TCq1    H4   84   3.867   1.516  12.086  1.7384  1.3724 -1.3748
    6MPD2     C   85   3.265   1.675  12.036  0.6186 -0.0608  0.4296
    6MPD2    C1   86   3.394   1.650  11.994 -0.2663  0.5672  0.1695
    6MPD2    C2   87   3.413   1.589  11.876 -0.4350 -0.1538 -0.4000
    6MPD2    C3   88   3.309   1.561  11.789 -0.3325 -0.2920 -0.3738
    6MPD2    C4   89   3.175   1.599  11.818 -0.3609 -0.8754  0.4132
    6MPD2    C5   90   3.155   1.647  11.952 -0.6327 -0.3909  0.0499
    6MPD2     H   91   3.508   1.557  11.835 -0.2424  1.4860 -1.2536
    6MPD2    H1   92   3.093   1.581  11.749  0.3606 -0.9599 -0.4125
    6MPD2    H2   93   3.244   1.716  12.134  1.7699 -0.2875  0.7817
    6MPD2    H3   94   3.055   1.654  11.993 -0.7738 -1.8229 -0.0571
    6MPD2     N   95   3.351   1.495  11.667 -0.5487 -0.7479  0.2163
    6MPD2    H5   96   3.449   1.467  11.658  0.5827  3.1080  0.7200
    6MPD2    N1   97   3.508   1.686  12.079 -0.0350  0.0039 -0.5748
    6MPD2    H7   98   3.491   1.734  12.167  0.7633 -2.3641  0.8725
    7TCq1    O1   99   1.050   0.817  13.161  0.4138 -0.3635 -0.1794
    7TCq1    C1  100   1.031   0.854  13.032 -0.3855  0.6910 -0.1557
    7TCq1    O2  101   1.033   0.972  12.988 -0.1376  0.1724 -0.1088
    7TCq1    C2  102   1.041   0.743  12.935 -0.1466 -0.6093  0.7259
    7TCq1    C3  103   0.936   0.750  12.845  0.5992  0.4998 -0.3243
    7TCq1    C4  104   0.909   0.635  12.776 -0.6397 -0.3983 -0.0822
    7TCq1    C5  105   0.983   0.526  12.785  0.1788 -0.3652  0.4194
    7TCq1    C6  106   1.092   0.517  12.874  0.6656  0.7907 -0.0735
    7TCq1    C7  107   1.122   0.630  12.950  0.1574  0.7219 -0.3130
    7TCq1    C8  108   1.130   0.390  12.932  0.5424  0.5981 -0.0533
    7TCq1    O4  109   1.062   0.298  12.891  0.2989  0.2261 -0.2724
    7TCq1    C9  110   0.785   0.619  12.709 -0.9732  0.0453  0.7738
    7TCq1    O5  111   0.703   0.710  12.737 -0.2787 -0.0590  0.2941
    7TCq1    O6  112   0.783   0.518  12.634  0.1567  0.2408 -0.0639
    7TCq1    H1  113   1.044   0.721  13.182 -0.1976 -0.6397 -1.5406
    7TCq1    H2  114   0.879   0.841  12.832  0.4560  0.9567  3.4641
    7TCq1    H3  115   0.936   0.439  12.741  0.2491  0.6976 -1.7600
    7TCq1    H4  116   1.186   0.629  13.038 -0.3929  2.4828  0.1173
    8MPD2     C  117   1.369   0.037  13.186 -0.0044  0.9438  0.1799
    8MPD2    C1  118   1.232   0.056  13.179  0.5214 -0.5549 -0.3642
    8MPD2    C2  119   1.192   0.172  13.128  0.2674  0.3402 -0.6895
    8MPD2    C3  120   1.278   0.274  13.090  0.8584 -0.3135 -0.4771
    8MPD2    C4  121   1.412   0.254  13.112  0.7205  0.1560  0.3262
    8MPD2    C5  122   1.461   0.136  13.158  0.0340  0.6335  0.4859
    8MPD2     H  123   1.086   0.174  13.106  0.5907  1.5093 -2.1664
    8MPD2    H1  124   1.477   0.338  13.090  0.0275  0.0730 -2.0167
    8MPD2    H2  125   1.395   4.677  13.222  0.2439  1.5654  1.7017
    8MPD2    H3  126   1.566   0.109  13.167 -0.1008  0.4423  1.4134
    8MPD2     N  127   1.241   0.384  13.009 -0.1329  0.3382 -0.0575
    8MPD2    H5  128   1.307   0.459  12.993  2.0080 -1.6965 -0.6817
    8MPD2    N1  129   1.147   4.689  13.225  0.1386  0.6276 -0.3680
    8MPD2    H7  130   1.190   4.605  13.262  0.1818  1.6287  1.8539
    9TMC1    C1  131   3.773   4.410  10.834 -0.1198 -0.0472  0.0251
    9TMC1    C2  132   3.721   4.285  10.841 -0.0623  0.5524 -0.2320
    9TMC1    C3  133   3.704   4.210  10.727 -0.1855 -0.7516 -0.7954
    9TMC1    C4  134   3.792   4.460  10.709 -0.6788  0.0488  0.1338
    9TMC1    C5  135   3.772   4.383  10.595  0.5155  0.2958  0.1420
    9TMC1    C6  136   3.723   4.255  10.601 -0.0687 -0.0731 -0.2957
    9TMC1     C  137   3.796   4.485  10.955 -0.0148 -0.1318 -0.5621
    9TMC1     O  138   3.855   4.588  10.925  0.0284  0.2449  0.4463
    9TMC1     H  139   3.719   4.231  10.934 -0.5168 -1.2732 -1.3061
    9TMC1    H1  140   3.833   4.559  10.696 -1.8447  0.5137 -0.0586
    9TMC1    H2  141   3.711   4.189  10.516  2.1479  2.4970 -2.6091
    9TMC1    C7  142   3.779   4.441  10.463 -0.3059  0.2379  0.4194
    9TMC1    C8  143   3.697   4.069  10.750  0.3514  0.7723 -0.5313
    9TMC1    O1  144   3.698   4.423  10.375 -0.0221 -0.1901 -0.0306
    9TMC1    O2  145   3.606   4.027  10.820 -0.6293  0.1640  0.3375
    9TMC1    O3  146   3.904   4.465  10.447  0.0737 -0.1765 -0.4660
    9TMC1    H3  147   3.953   4.442  10.529 -0.7332  0.1157  0.0930
    9TMC1    O5  148   3.830   4.049  10.784  0.6334  0.4811  0.0711
    9TMC1    H5  149   3.892   4.104  10.733 -0.7442  2.3863  0.4626
   10MPD2     C  150   3.848   4.600  11.223  0.6592  0.7654 -0.0866
   10MPD2    C1  151   3.809   4.471  11.204  0.4791  0.0008  0.2607
   10MPD2    C2  152   3.798   4.383  11.312 -0.3771  0.4020 -0.2155
   10MPD2    C3  153   3.817   4.434  11.440  0.6009  0.2006 -0.5145
   10MPD2    C4  154   3.857   4.563  11.464 -0.5605 -0.0129  0.0531
   10MPD2    C5  155   3.872   4.639  11.356  0.1561  0.6530  0.0517
   10MPD2     H  156   3.782   4.278  11.292  1.1221  0.0814  0.2250
   10MPD2    H1  157   3.877   4.609  11.560 -0.4926 -1.0022  0.5190
   10MPD2    H2  158   3.855   4.673  11.143  2.0611  0.9839  0.2441
   10MPD2    H3  159   3.892   0.005  11.369  0.7667  0.6508 -0.8871
   10MPD2     N  160   3.798   4.355  11.557  0.0340  0.1643  0.2446
   10MPD2    H5  161   3.806   4.402  11.647  1.1380 -2.0716  1.3164
   10MPD2    N1  162   3.783   4.417  11.074  0.0696 -0.1268  0.1159
   10MPD2    H7  163   3.733   4.329  11.075 -0.7381  0.2836 -3.0762
   11TCq1    O1  164   4.133   3.961  14.812  0.0623 -0.0483 -0.5022
   11TCq1    C1  165   4.261   4.002  14.793 -0.7686  0.1936  0.0843
   11TCq1    O2  166   4.348   4.035  14.869 -0.0346  0.3453 -0.2310
   11TCq1    C2  167   4.280   3.942  14.654  0.0695 -0.4917 -0.2993
   11TCq1    C3  168   4.293   3.805  14.655 -0.4809 -0.8492 -0.2162
   11TCq1    C4  169   4.254   3.736  14.545  0.3088 -0.3212  1.0274
   11TCq1    C5  170   4.201   3.791  14.436  0.0792 -0.1851 -0.0867
   11TCq1    C6  171   4.181   3.928  14.433  0.3686  1.0339  0.5259
   11TCq1    C7  172   4.212   4.000  14.548 -0.7353 -0.2063  0.3080
   11TCq1    C8  173   4.104   3.988  14.325  0.4088 -0.0262  0.7916
   11TCq1    O4  174   4.081   4.107  14.331 -0.4840  0.5222  0.0022
   11TCq1    C9  175   4.263   3.598  14.550  0.9756  0.4621 -0.6024
   11TCq1    O5  176   4.179   3.533  14.481 -0.3576 -0.3996  0.5633
   11TCq1    O6  177   4.330   3.559  14.645  0.3689  0.5102 -0.2526
   11TCq1    H1  178   4.102   3.927  14.725 -3.0333 -2.1546  1.4142
   11TCq1    H2  179   4.334   3.762  14.746 -1.5207 -0.4512  0.4446
   11TCq1    H3  180   4.186   3.729  14.348  0.5239  1.3350 -1.2172
   11TCq1    H4  181   4.198   4.107  14.556  0.4467 -0.1440  1.6650
   12MPD2     C  182   3.902   4.007  14.100  0.8515  0.9313  0.8100
   12MPD2    C1  183   3.989   3.900  14.123 -0.3871  0.4666  0.1699
   12MPD2    C2  184   3.964   3.786  14.048  0.5422  0.2120  0.2572
   12MPD2    C3  185   3.871   3.786  13.938 -0.1856  0.0651  0.8426
   12MPD2    C4  186   3.799   3.900  13.917 -0.0036 -0.8052 -0.2808
   12MPD2    C5  187   3.809   4.006  13.999 -0.1134  0.0584  0.1620
   12MPD2     H  188   4.013   3.691  14.068 -2.1887 -1.0039  1.2217
   12MPD2    H1  189   3.726   3.905  13.837  1.5284  1.9417 -1.4755
   12MPD2    H2  190   3.908   4.104  14.149  0.2301  0.0867  2.5553
   12MPD2    H3  191   3.752   4.098  13.991 -0.5696 -0.4231 -2.2365
   12MPD2     N  192   3.868   3.666  13.863 -0.4855  0.6374  0.1272
   12MPD2    H5  193   3.906   3.587  13.913  0.2100  0.9545  0.1012
   12MPD2    N1  194   4.073   3.897  14.232 -0.2097 -0.1890  0.0964
   12MPD2    H7  195   4.115   3.806  14.247 -1.4159 -0.9607 -1.3430
   13TCq1    O1  196   4.108   4.654  11.014  0.2622  0.3201  0.2801
   13TCq1    C1  197   4.164   4.562  11.096 -0.1580 -0.5466  0.6355
   13TCq1    O2  198   4.242   4.590  11.183  0.5924  0.1772 -1.1541
   13TCq1    C2  199   4.147   4.430  11.025 -0.0344 -0.1452 -0.2606
   13TCq1    C3  200   4.131   4.419  10.895  0.0952 -0.3734  0.2248
   13TCq1    C4  201   4.111   4.296  10.841 -0.0283  0.4216  0.5417
   13TCq1    C5  202   4.100   4.179  10.919 -0.4177 -0.7228  0.2270
   13TCq1    C6  203   4.120   4.194  11.051 -0.0511 -0.0055  0.1480
   13TCq1    C7  204   4.150   4.318  11.103  0.2208  1.0748 -0.4253
   13TCq1    C8  205   4.036   4.115  11.137  0.5789 -0.3338  0.1046
   13TCq1    O4  206   3.996   4.166  11.238  0.5294 -0.1427  0.6544
   13TCq1    C9  207   4.078   4.290  10.704  0.1496  0.0156 -0.0700
   13TCq1    O5  208   4.090   4.396  10.635 -0.1337 -0.1513 -0.4500
   13TCq1    O6  209   4.014   4.193  10.668  0.3705 -0.7907 -0.3312
   13TCq1    H1  210   4.035   4.615  10.962  0.9084  1.4298 -1.4687
   13TCq1    H2  211   4.126   4.506  10.830 -2.1258  0.7417  1.8628
   13TCq1    H3  212   4.091   4.080  10.876 -0.8294 -0.9341  0.8039
   13TCq1    H4  213   4.163   4.335  11.210  0.5722  0.6651 -0.4015
   14MPD2     C  214   3.878   3.806  11.046  0.0934  0.6836 -0.1952
   14MPD2    C1  215   3.899   3.919  11.121 -0.3864  0.0535 -0.0529
   14MPD2    C2  216   3.792   3.955  11.210 -0.2157  0.2450  0.0757
   14MPD2    C3  217   3.682   3.878  11.234  0.3397  0.4777  0.1382
   14MPD2    C4  218   3.671   3.759  11.154 -0.2057  0.5080 -0.1553
   14MPD2    C5  219   3.767   3.728  11.062 -0.2384 -0.1996 -0.3482
   14MPD2     H  220   3.802   4.049  11.264  0.3390 -0.8398  1.8947
   14MPD2    H1  221   3.590   3.687  11.163 -0.2532  0.6852  0.8500
   14MPD2    H2  222   3.945   3.775  10.966  0.4689 -1.2297  0.8792
   14MPD2    H3  223   3.747   3.640  11.002  2.1281 -0.3985 -0.8430
   14MPD2     N  224   3.591   3.916  11.335 -0.0663  0.5175  0.1489
   14MPD2    H5  225   3.606   4.005  11.383 -1.5072  0.2756  1.0311
   14MPD2    N1  226   4.018   3.988  11.094 -0.0905 -0.4487  0.2436
   14MPD2    H7  227   4.077   3.956  11.019  1.4287  0.7796  0.9179
   15TCq1    O1  228   0.995   3.270   1.895  0.0472  0.1187  0.0562
   15TCq1    C1  229   1.016   3.143   1.871 -0.6009  0.1427  0.1436
   15TCq1    O2  230   1.121   3.089   1.888 -0.4592 -0.2942  0.0109
   15TCq1    C2  231   0.892   3.088   1.818 -0.1213  0.7790  0.0115
   15TCq1    C3  232   0.766   3.145   1.846 -0.4160  0.6577 -0.2813
   15TCq1    C4  233   0.654   3.106   1.776  0.0658  0.3368  0.9387
   15TCq1    C5  234   0.666   3.001   1.691 -0.0638  0.2187  0.2607
   15TCq1    C6  235   0.790   2.935   1.679  0.1122 -0.2113  0.5071
   15TCq1    C7  236   0.903   2.976   1.747 -0.5234 -0.1963  1.2732
   15TCq1    C8  237   0.805   2.819   1.583 -0.0925 -0.0172  0.8178
   15TCq1    O4  238   0.920   2.785   1.564  0.1942  0.0250  0.3683
   15TCq1    C9  239   0.526   3.182   1.791 -0.4035  0.1967 -0.0679
   15TCq1    O5  240   0.434   3.146   1.711  0.4917  0.8655  0.7307
   15TCq1    O6  241   0.526   3.285   1.863 -0.0474  0.1810  0.5300
   15TCq1    H1  242   0.924   3.317   1.847 -0.0347  0.3208  0.3753
   15TCq1    H2  243   0.749   3.240   1.895 -0.0010 -0.7161  2.5913
   15TCq1    H3  244   0.578   2.971   1.636  2.0399 -2.6482 -1.5372
   15TCq1    H4  245   0.997   2.929   1.722 -1.4768 -1.6877  0.5243
   16MPD2     C  246   0.555   2.650   1.378  0.3752 -0.0260  0.1023
   16MPD2    C1  247   0.683   2.679   1.424  0.5243 -0.3854  0.3321
   16MPD2    C2  248   0.783   2.594   1.397 -0.1710 -0.2284  0.0045
   16MPD2    C3  249   0.766   2.505   1.290 -0.4071  0.1025 -0.7440
   16MPD2    C4  250   0.640   2.470   1.249  0.5697 -0.4804 -0.0220
   16MPD2    C5  251   0.537   2.541   1.289 -0.4049  0.6381 -0.1383
   16MPD2     H  252   0.881   2.600   1.444 -0.1983  0.1805  0.0031
   16MPD2    H1  253   0.631   2.392   1.175  4.7395  0.1144 -1.1459
   16MPD2    H2  254   0.476   2.720   1.400 -0.4896 -1.0719  0.3398
   16MPD2    H3  255   0.439   2.526   1.245 -0.3059  1.0292 -0.4936
   16MPD2     N  256   0.873   2.428   1.251 -0.1486  0.6027 -0.2908
   16MPD2    H5  257   0.967   2.455   1.280  0.0711 -0.1803 -0.2655
   16MPD2    N1  258   0.693   2.785   1.515  0.6327 -0.2824 -0.6364
   16MPD2    H7  259   0.604   2.821   1.547  1.1289  2.0071 -1.8434
   17TMC1    C1  260   3.321   2.262   9.986 -0.6753 -0.3935  0.5594
   17TMC1    C2  261   3.323   2.156   9.906  0.2579 -0.0172 -0.2250
   17TMC1    C3  262   3.245   2.049   9.947  0.2655  0.0104 -0.2053
   17TMC1    C4  263   3.231   2.281  10.090 -0.6483  0.2257 -0.6627
   17TMC1    C5  264   3.148   2.178  10.117  0.0314 -0.1336  0.4282
   17TMC1    C6  265   3.152   2.062  10.046 -0.0766 -0.2402  0.0771
   17TMC1     C  266   3.390   2.375   9.926 -0.2202 -0.9735 -0.1014
   17TMC1     O  267   3.435   2.372   9.814 -0.1740 -0.1590 -0.6382
   17TMC1     H  268   3.402   2.137   9.835 -1.3344 -2.1298 -1.4436
   17TMC1    H1  269   3.216   2.375  10.142  0.0182 -0.9221  1.6077
   17TMC1    H2  270   3.099   1.979  10.092 -0.9142 -0.3437 -1.0628
   17TMC1    C7  271   3.022   2.209  10.190  0.3654 -0.3588 -0.7465
   17TMC1    C8  272   3.287   1.918   9.898  0.5257 -0.0481  0.0082
   17TMC1    O1  273   2.985   2.119  10.264  0.3687  0.0113  0.0162
   17TMC1    O2  274   3.397   1.879   9.859 -0.2593  0.8942  0.3813
   17TMC1    O3  275   2.946   2.281  10.104  0.1093 -0.2437  0.4265
   17TMC1    H3  276   2.994   2.327  10.032  1.2825 -1.2975  0.5435
   17TMC1    O5  277   3.178   1.846   9.911 -0.2413 -0.1209  0.4932
   17TMC1    H5  278   3.094   1.895   9.900 -0.4750 -1.3010 -2.8091
   18MPD2     C  279   3.432   2.653   9.842 -0.2901  0.5221 -0.0526
   18MPD2    C1  280   3.419   2.618   9.978  0.7765 -0.1151  0.2570
   18MPD2    C2  281   3.425   2.711  10.075 -0.2428 -0.0910  0.2694
   18MPD2    C3  282   3.453   2.846  10.053 -0.9127  0.0257 -0.4663
   18MPD2    C4  283   3.467   2.881   9.920  0.3249 -0.1075  0.5635
   18MPD2    C5  284   3.454   2.788   9.819  0.0499  0.1422  0.5690
   18MPD2     H  285   3.412   2.676  10.176  0.6547 -1.0388  0.0512
   18MPD2    H1  286   3.484   2.984   9.889  0.2092  0.0958  1.1897
   18MPD2    H2  287   3.433   2.587   9.757  1.2815  1.2668 -0.6171
   18MPD2    H3  288   3.468   2.817   9.716 -1.4970  2.2555  0.9527
   18MPD2     N  289   3.478   2.937  10.158  0.2012  0.7224  0.0810
   18MPD2    H5  290   3.498   3.035  10.138 -0.8448  0.6173 -1.4745
   18MPD2    N1  291   3.393   2.484  10.013 -0.5720  0.3300  0.5167
   18MPD2    H7  292   3.376   2.474  10.112 -0.0328 -0.0461  0.5697
   19TMC2    C1  293   0.433   3.945  14.052  0.4800 -0.1494 -0.4659
   19TMC2    C2  294   0.408   4.047  13.958 -0.6979  0.4789 -0.4006
   19TMC2    C3  295   0.297   4.123  13.965 -0.7162  0.6384 -1.0212
   19TMC2    C4  296   0.341   3.937  14.155 -0.2590  0.2004 -0.4064
   19TMC2    C5  297   0.233   4.024  14.164 -0.8127  0.1029  0.3362
   19TMC2    C6  298   0.209   4.122  14.071 -0.2996  0.1629  0.5415
   19TMC2     C  299   0.534   3.848  14.030  0.3597  0.1027 -0.3791
   19TMC2     O  300   0.584   3.841  13.926  0.7872  0.1247  0.0403
   19TMC2     H  301   0.464   4.053  13.866 -0.4810 -2.5524 -0.4520
   19TMC2    H1  302   0.337   3.846  14.214 -1.8994  0.3184 -0.3327
   19TMC2    H2  303   0.122   4.187  14.075 -0.5080 -0.1828  1.6259
   19TMC2    C7  304   0.124   3.974  14.247  0.0316  0.1152  0.8091
   19TMC2    C8  305   0.325   4.254  13.904 -0.7763 -0.5268  0.3094
   19TMC2    O1  306   0.147   3.899  14.344 -1.0228  0.1533 -0.1303
   19TMC2    O2  307   0.441   4.272  13.859 -0.1191  0.0755 -0.0183
   19TMC2    O5  308   0.265   4.351  13.977 -0.1070 -0.7109  0.8670
   19TMC2    H5  309   0.168   4.340  13.971 -0.2665 -0.4862  2.8318
   20MPD2     C  310   0.740   3.621  14.058  0.1008 -0.5267 -0.5362
   20MPD2    C1  311   0.664   3.685  14.159  0.3082  0.2083 -0.4727
   20MPD2    C2  312   0.687   3.652  14.290 -0.0143 -0.4111 -0.3432
   20MPD2    C3  313   0.762   3.541  14.318  0.4331 -0.1048  0.9573
   20MPD2    C4  314   0.819   3.467  14.219 -0.4395 -0.0326  0.3662
   20MPD2    C5  315   0.812   3.509  14.089  0.2692 -0.4948  0.3944
   20MPD2     H  316   0.649   3.720  14.366  0.1378 -0.0782 -0.5611
   20MPD2    H1  317   0.873   3.377  14.245  0.8047  1.0005  1.3559
   20MPD2    H2  318   0.737   3.642  13.952 -0.4479 -2.8615 -0.9867
   20MPD2    H3  319   0.855   3.442  14.016 -0.2175  1.3180 -1.5312
   20MPD2     N  320   0.793   3.505  14.446  0.5521 -0.3387 -0.0339
   20MPD2    H5  321   0.874   3.444  14.456  0.1527 -1.0017 -0.9264
   20MPD2    N1  322   0.570   3.788  14.143  0.0053  0.1747  0.5408
   20MPD2    H7  323   0.535   3.846  14.218 -1.9551 -0.6221  0.2318
   21TMC2    C1  324   3.004   3.823  14.817  0.3125 -0.6575  0.3383
   21TMC2    C2  325   2.998   3.690  14.828 -0.4389 -0.3189 -0.0512
   21TMC2    C3  326   2.971   3.639  14.954 -0.4050 -1.0155  0.3530
   21TMC2    C4  327   2.981   3.913  14.923  0.7494  0.8225  0.1530
   21TMC2    C5  328   2.953   3.852  15.043 -0.2630  0.1559  0.1403
   21TMC2    C6  329   2.943   3.719  15.061  0.1970 -0.2738  0.5073
   21TMC2     C  330   3.085   3.863  14.707 -0.2459  0.3276 -0.6430
   21TMC2     O  331   3.113   3.779  14.622  0.2858  0.2364  0.9702
   21TMC2     H  332   3.028   3.636  14.739 -0.1653 -0.6797  0.2572
   21TMC2    H1  333   2.979   4.020  14.903 -1.1260  0.4552 -1.5705
   21TMC2    H2  334   2.944   3.683  15.163 -1.4309  0.2555  0.6979
   21TMC2    C7  335   2.905   3.934  15.154 -0.6458 -0.1713 -1.1281
   21TMC2    C8  336   3.037   3.512  14.989 -0.3764 -0.1768 -0.1035
   21TMC2    O1  337   2.918   3.890  15.269  0.0547 -0.1206 -0.2737
   21TMC2    O2  338   3.034   3.477  15.110 -0.0900 -0.3837  0.5053
   21TMC2    O5  339   3.149   3.498  14.917 -0.3874  0.0136 -0.2729
   21TMC2    H5  340   3.124   3.515  14.824 -1.2837  0.6458  0.0731
   22MPD2     C  341   3.398   4.176  14.466 -0.1576 -0.3182 -0.5677
   22MPD2    C1  342   3.398   4.034  14.461 -0.0889  0.2334 -0.0754
   22MPD2    C2  343   3.301   3.971  14.543  0.1229 -0.4918 -0.6834
   22MPD2    C3  344   3.221   4.047  14.629 -0.2578  0.7453 -0.1986
   22MPD2    C4  345   3.232   4.182  14.641  0.1330  0.0047 -0.2489
   22MPD2    C5  346   3.318   4.248  14.553  0.1740  0.0922 -0.3659
   22MPD2     H  347   3.318   3.864  14.538 -1.8160 -0.8177 -0.3564
   22MPD2    H1  348   3.170   4.238  14.711  1.7287  1.9363 -0.4028
   22MPD2    H2  349   3.473   4.234  14.415 -1.0664  0.9633 -0.4438
   22MPD2    H3  350   3.339   4.352  14.576 -1.5666  0.5553 -0.8153
   22MPD2     N  351   3.122   3.992  14.710  0.3153 -0.3681  0.1036
   22MPD2    H5  352   3.073   4.056  14.772 -0.7697  0.6174 -1.7558
   22MPD2    N1  353   3.500   3.962  14.395 -0.1637  0.4195  0.0859
   22MPD2    H7  354   3.483   3.862  14.400 -0.5558  0.3690 -2.2444
   23TMC2    C1  355   4.212   0.557  14.514 -1.0486 -0.5761 -0.8713
   23TMC2    C2  356   4.288   0.622  14.416 -0.0809  0.8248  0.3787
   23TMC2    C3  357   4.238   0.623  14.288 -0.0496  0.0331 -0.4560
   23TMC2    C4  358   4.091   0.503  14.484 -0.0539  0.1171 -0.5599
   23TMC2    C5  359   4.040   0.517  14.359 -1.2563 -0.2699 -0.2680
   23TMC2    C6  360   4.113   0.579  14.257  0.7695  0.3007 -0.2246
   23TMC2     C  361   4.278   0.494  14.625 -0.0262  0.1124 -0.1791
   23TMC2     O  362   4.399   0.475  14.611 -0.3481 -0.0601  0.1823
   23TMC2     H  363   4.386   0.655  14.447  0.1097 -0.6866  1.4075
   23TMC2    H1  364   4.043   0.433  14.552  0.1544  1.3523  0.8722
   23TMC2    H2  365   4.076   0.587  14.155  0.3901  1.2602 -0.0164
   23TMC2    C7  366   3.929   0.430  14.316 -0.2659  0.6818  0.6273
   23TMC2    C8  367   4.294   0.711  14.193 -0.6864  0.0723 -0.0423
   23TMC2    O1  368   3.917   0.399  14.194 -0.6323 -0.5524 -0.7102
   23TMC2    O2  369   4.217   0.801  14.151  0.3169 -0.3499 -0.1217
   23TMC2    O5  370   4.422   0.733  14.230 -0.6621 -0.6081 -0.1285
   23TMC2    H5  371   4.462   0.644  14.246  0.3512  0.3289  2.4714
   24MPD2     C  372   4.308   0.298  15.093 -0.1753 -0.5535  0.8094
   24MPD2    C1  373   4.381   0.275  14.986 -0.1826  0.7282  0.0856
   24MPD2    C2  374   4.349   0.336  14.869 -0.1942 -0.0477  0.6630
   24MPD2    C3  375   4.230   0.406  14.851  0.6689  0.5101  0.4537
   24MPD2    C4  376   4.149   0.418  14.959  0.1473  0.3867 -0.0465
   24MPD2    C5  377   4.192   0.370  15.078 -0.2888 -0.0106 -0.2671
   24MPD2     H  378   4.427   0.320  14.795 -0.5588  1.5679 -0.0838
   24MPD2    H1  379   4.064   0.486  14.961 -1.0934 -1.1466 -0.7110
   24MPD2    H2  380   4.339   0.251  15.186  1.8557  0.2852  0.5486
   24MPD2    H3  381   4.138   0.381  15.171 -0.7787  0.8228 -0.6508
   24MPD2     N  382   4.193   0.466  14.726  0.1786  0.0816  0.0455
   24MPD2    H5  383   4.105   0.515  14.718 -0.5726 -1.6433 -2.1303
   24MPD2    N1  384   4.505   0.207  15.006 -0.1648 -0.3867  0.9265
   24MPD2    H7  385   4.534   0.197  15.103  0.7634  1.2187  0.8234
   25TMC2    C1  386   2.918   2.737  11.679 -0.4604  0.2661  0.5675
   25TMC2    C2  387   2.802   2.745  11.609 -0.0361  0.9047 -0.0007
   25TMC2    C3  388   2.705   2.830  11.645  0.0223 -0.3288  0.0925
   25TMC2    C4  389   2.958   2.830  11.764 -0.0286 -0.8232 -0.7557
   25TMC2    C5  390   2.858   2.923  11.795  0.2864 -0.4566  0.3355
   25TMC2    C6  391   2.742   2.928  11.733 -0.0653  0.1223 -0.1020
   25TMC2     C  392   3.009   2.629  11.658 -0.5690 -0.4845  0.7228
   25TMC2     O  393   3.124   2.659  11.683 -0.6762  0.0013  0.3959
   25TMC2     H  394   2.786   2.670  11.532 -2.1807  2.2985 -0.9194
   25TMC2    H1  395   3.049   2.824  11.822  0.3335  1.2090 -1.1469
   25TMC2    H2  396   2.658   2.988  11.769  0.6295  2.0943 -1.7543
   25TMC2    C7  397   2.845   2.941  11.935  0.2678  0.2029  0.7617
   25TMC2    C8  398   2.573   2.813  11.582 -0.5568 -0.3428  0.0224
   25TMC2    O1  399   2.905   2.855  11.999 -0.3510 -0.1776  0.3181
   25TMC2    O2  400   2.567   2.796  11.461  0.2314  0.0377 -0.1869
   25TMC2    O5  401   2.470   2.842  11.668  0.0737  0.7347  0.6909
   25TMC2    H5  402   2.497   2.857  11.761 -0.5277 -1.5964  1.2617
   26MPD2     C  403   3.131   2.170  11.461  0.4848 -1.2016 -0.2295
   26MPD2    C1  404   2.992   2.188  11.458 -1.1322  0.8464  0.8412
   26MPD2    C2  405   2.930   2.300  11.515 -0.1808 -0.0771  0.7833
   26MPD2    C3  406   3.014   2.401  11.564 -0.3678  0.1842 -0.4411
   26MPD2    C4  407   3.153   2.385  11.570  0.1369 -0.3081 -0.2797
   26MPD2    C5  408   3.210   2.270  11.510  0.2248  0.3095 -0.9342
   26MPD2     H  409   2.824   2.317  11.534 -0.8823 -2.1667 -1.3021
   26MPD2    H1  410   3.204   2.466  11.620  0.2949  1.0730 -2.7122
   26MPD2    H2  411   3.176   2.085  11.411  1.2919 -0.6548 -0.4269
   26MPD2    H3  412   3.315   2.241  11.511  0.3362  0.7515  0.0467
   26MPD2     N  413   2.947   2.514  11.615  0.0960  0.1020 -0.3974
   26MPD2    H5  414   2.846   2.512  11.611  0.1189 -0.2817 -0.8294
   26MPD2    N1  415   2.922   2.067  11.425  0.0913  0.4163  0.0990
   26MPD2    H7  416   2.978   1.993  11.384  1.0589 -0.0341  2.2200
   27TMC2    C1  417   2.237   4.455  12.495 -0.4303 -0.1066 -0.1681
   27TMC2    C2  418   2.160   4.465  12.386  0.0867  0.6045 -0.6575
   27TMC2    C3  419   2.166   4.582  12.309 -0.1579  0.1589 -0.3510
   27TMC2    C4  420   2.297   4.571  12.549 -0.1065  0.0761  0.3414
   27TMC2    C5  421   2.286   4.690  12.485  0.1497  0.0997 -0.4777
   27TMC2    C6  422   2.227   4.693  12.358 -0.4713  0.2181  0.0861
   27TMC2     C  423   2.190   4.363  12.600  0.2639 -0.2457 -0.7887
   27TMC2     O  424   2.276   4.331  12.678  0.2638  0.1856 -0.0018
   27TMC2     H  425   2.111   4.375  12.352  1.5942 -1.1118  1.7289
   27TMC2    H1  426   2.354   4.552  12.639 -1.4764 -0.5438  1.0823
   27TMC2    H2  427   2.218   0.048  12.305  1.7347 -0.0290 -0.7270
   27TMC2    C7  428   2.272   0.075  12.564 -0.4814 -0.1317  0.4231
   27TMC2    C8  429   2.081   4.599  12.195  0.3311  0.1330 -1.0051
   27TMC2    O1  430   2.229   0.170  12.503 -0.2203 -0.8188  0.8662
   27TMC2    O2  431   2.104   4.688  12.113 -0.1614  0.3508 -0.6100
   27TMC2    O5  432   1.989   4.497  12.182 -0.1857 -0.0226  0.1003
   27TMC2    H5  433   1.973   4.464  12.272  1.2132 -1.0711 -0.0382
   28MPD2     C  434   1.820   4.268  12.943 -0.4184  0.7791  1.3604
   28MPD2    C1  435   1.794   4.374  12.864 -0.1438 -0.1384  0.1112
   28MPD2    C2  436   1.865   4.389  12.751  0.1216  0.1141  0.0057
   28MPD2    C3  437   1.988   4.335  12.733  0.1713  0.0747 -0.0283
   28MPD2    C4  438   2.029   4.239  12.818 -0.0919  0.5685  0.5965
   28MPD2    C5  439   1.941   4.203  12.922 -1.0204  0.3610  0.1665
   28MPD2     H  440   1.840   4.464  12.677  2.0085  0.6588 -0.0950
   28MPD2    H1  441   2.115   4.174  12.807 -0.9953 -0.1132 -2.2706
   28MPD2    H2  442   1.777   4.234  13.036 -1.7874  1.4501  0.9648
   28MPD2    H3  443   1.987   4.138  12.995  2.2968 -0.2801 -2.5339
   28MPD2     N  444   2.056   4.375  12.617 -0.4514 -0.4184 -0.4561
   28MPD2    H5  445   1.998   4.437  12.561 -0.7497  1.3800  1.8715
   28MPD2    N1  446   1.683   4.457  12.889  0.5072 -0.4459 -0.7902
   28MPD2    H7  447   1.615   4.425  12.957  1.7321  2.6909  1.9100
   29TMC2    C1  448   1.419   2.134  14.376  0.9254  0.8133  0.2776
   29TMC2    C2  449   1.360   2.143  14.499  0.3712  0.2267 -0.2370
   29TMC2    C3  450   1.371   2.264  14.567 -0.7530  0.1194 -0.0133
   29TMC2    C4  451   1.492   2.240  14.334 -0.1341 -0.1837 -0.4810
   29TMC2    C5  452   1.511   2.351  14.413  0.2038 -0.2305  0.2444
   29TMC2    C6  453   1.446   2.372  14.527 -0.4836 -0.6630  0.4516
   29TMC2     C  454   1.435   2.003  14.317 -0.2492  0.2032 -0.1868
   29TMC2     O  455   1.529   1.996  14.242 -0.0620  0.5432  0.1698
   29TMC2     H  456   1.303   2.060  14.539  0.0225  1.3285  1.5707
   29TMC2    H1  457   1.553   2.230  14.245  0.8308  2.3712 -0.1272
   29TMC2    H2  458   1.467   2.461  14.585 -2.6059  0.9707 -1.2790
   29TMC2    C7  459   1.573   2.472  14.352  0.4667 -0.7143 -0.1341
   29TMC2    C8  460   1.302   2.272  14.693  0.0606 -0.7591 -0.9612
   29TMC2    O1  461   1.567   2.483  14.233 -0.6643 -0.2603  0.0953
   29TMC2    O2  462   1.280   2.166  14.753  0.0810  0.1494 -0.2940
   29TMC2    O5  463   1.212   2.366  14.663  0.4836 -0.7095  0.9617
   29TMC2    H5  464   1.249   2.444  14.616  0.8704 -2.1450 -1.1176
   30MPD2     C  465   1.373   1.497  14.305 -0.3572 -0.0670  0.6622
   30MPD2    C1  466   1.469   1.580  14.255  0.5765  0.3768  0.3487
   30MPD2    C2  467   1.457   1.713  14.258 -0.0330  0.3919  0.8788
   30MPD2    C3  468   1.361   1.767  14.337 -0.4561 -0.4400 -0.6288
   30MPD2    C4  469   1.282   1.684  14.415 -0.3986 -0.1456  0.5496
   30MPD2    C5  470   1.274   1.549  14.377  0.5506  0.4188  0.0569
   30MPD2     H  471   1.530   1.773  14.206 -1.8437  1.4943 -0.4087
   30MPD2    H1  472   1.224   1.730  14.495 -1.0228  0.8949 -0.4983
   30MPD2    H2  473   1.370   1.389  14.295  0.7384 -0.1670  1.4654
   30MPD2    H3  474   1.194   1.480  14.402  2.8144 -2.1937  0.1521
   30MPD2     N  475   1.358   1.904  14.369 -0.2568 -0.1957 -0.3450
   30MPD2    H5  476   1.283   1.931  14.432 -0.1312  0.4144 -0.4619
   30MPD2    N1  477   1.588   1.537  14.192 -0.0782  0.3925 -0.2625
   30MPD2    H7  478   1.648   1.610  14.154 -0.1824  0.9132  0.5597
   31TMC2    C1  479   3.786   0.960  15.660  0.3444 -0.4239 -0.4631
   31TMC2    C2  480   3.655   0.988  15.696 -0.1689  0.1301  0.4780
   31TMC2    C3  481   3.619   0.973  15.829  0.2704 -1.0874  0.1122
   31TMC2    C4  482   3.883   0.914  15.753  0.3477 -0.5299  0.1541
   31TMC2    C5  483   3.842   0.895  15.881 -0.7513 -0.3789  0.2646
   31TMC2    C6  484   3.714   0.926  15.918 -0.4193  0.1274 -0.5952
   31TMC2     C  485   3.822   1.008  15.528  0.0895  0.0831 -0.0014
   31TMC2     O  486   3.737   1.059  15.458  0.4310 -0.8452 -0.4021
   31TMC2     H  487   3.584   1.033  15.628 -0.3184  0.4009  0.8165
   31TMC2    H1  488   3.976   0.870  15.719  1.5028  2.2211 -0.2778
   31TMC2    H2  489   3.671   0.901  16.014  2.6065 -2.9122 -0.0084
   31TMC2    C7  490   3.936   0.819  15.972 -0.0531 -0.3668 -0.2692
   31TMC2    C8  491   3.487   0.937  15.874 -0.5924 -0.2864  0.1718
   31TMC2    O1  492   4.035   0.771  15.920 -0.2184  0.0914 -0.5103
   31TMC2    O2  493   3.459   0.848  15.955  0.4329  0.5575  0.5395
   31TMC2    O5  494   3.403   1.006  15.796  0.0425  0.0250 -0.0176
   31TMC2    H5  495   3.447   1.092  15.778  2.0206 -1.5400 -2.6315
   32MPD2     C  496   4.170   1.005  15.142 -0.4997 -0.6074  0.3459
   32MPD2    C1  497   4.031   1.045  15.139 -0.1079 -0.1457 -0.7045
   32MPD2    C2  498   3.960   1.053  15.257 -0.5787  0.0056  0.8055
   32MPD2    C3  499   4.020   1.015  15.379 -0.0956 -0.5558  0.2512
   32MPD2    C4  500   4.157   0.978  15.373 -0.8300  0.0089 -0.2879
   32MPD2    C5  501   4.226   0.969  15.261 -0.3479  0.0270 -0.8307
   32MPD2     H  502   3.858   1.091  15.253 -1.0375 -1.3081 -0.0915
   32MPD2    H1  503   4.210   0.956  15.465 -1.2736  0.5083  0.0903
   32MPD2    H2  504   4.234   1.001  15.054 -0.5613 -0.3612  0.2896
   32MPD2    H3  505   4.332   0.950  15.273 -0.3927 -0.1078 -0.6426
   32MPD2     N  506   3.958   0.988  15.496  0.2521 -0.2039  0.4385
   32MPD2    H5  507   4.012   0.948  15.572  0.1681 -1.2874 -0.0748
   32MPD2    N1  508   4.000   1.089  15.012  0.5888 -0.7532  0.4310
   32MPD2    H7  509   4.072   1.093  14.941  0.4018  0.9253  0.3339
   33TMC2    C1  510   3.782   3.944  10.036 -0.2570  0.3382  0.2235
   33TMC2    C2  511   3.696   3.952   9.926  0.4319 -0.2227  0.0556
   33TMC2    C3  512   3.690   4.073   9.862 -1.0336  0.3536  0.0916
   33TMC2    C4  513   3.852   4.056  10.082  0.8588  0.6216  0.3740
   33TMC2    C5  514   3.841   4.169  10.010 -0.0880  0.5217  0.0654
   33TMC2    C6  515   3.763   4.180   9.900  0.1740  0.5521  0.1491
   33TMC2     C  516   3.786   3.818  10.105  0.6089  0.7567  0.4423
   33TMC2     O  517   3.742   3.719  10.053 -0.1703 -0.4269 -0.8865
   33TMC2     H  518   3.639   3.869   9.887 -2.2724  0.8067  1.7860
   33TMC2    H1  519   3.926   4.051  10.160  1.6533  1.1650 -0.3417
   33TMC2    H2  520   3.799   4.258   9.835  0.2690  0.8893  0.6009
   33TMC2    C7  521   3.889   4.291  10.082  0.2811 -0.4377 -0.2380
   33TMC2    C8  522   3.622   4.062   9.741 -0.5987  0.2000  0.0344
   33TMC2    O1  523   3.975   4.275  10.174 -0.0408 -0.0171  0.3648
   33TMC2    O2  524   3.621   3.960   9.676 -0.6296  0.1019 -0.3387
   33TMC2    O5  525   3.611   4.187   9.690  0.0336 -0.8856 -0.0135
   33TMC2    H5  526   3.621   4.254   9.761 -0.1100 -1.0657  0.1754
   34MPD2     C  527   3.963   3.546  10.512 -0.1355  0.3898  0.5974
   34MPD2    C1  528   3.889   3.502  10.402 -0.1882 -0.1438 -0.3877
   34MPD2    C2  529   3.849   3.596  10.305  0.1447 -0.2595  0.2201
   34MPD2    C3  530   3.885   3.731  10.318  0.6693 -0.0306 -0.7380
   34MPD2    C4  531   3.971   3.764  10.420  0.1908 -0.0591  0.1765
   34MPD2    C5  532   4.007   3.675  10.516 -1.1531  0.3693  0.6904
   34MPD2     H  533   3.788   3.569  10.220  1.3177  0.9083 -0.9790
   34MPD2    H1  534   4.008   3.866  10.424  0.5480 -0.0603 -2.6116
   34MPD2    H2  535   3.998   3.477  10.589  1.6565  0.5599 -0.0587
   34MPD2    H3  536   4.067   3.702  10.602  0.1343 -3.0334  0.8373
   34MPD2     N  537   3.857   3.831  10.224 -0.0221  0.4161 -0.1125
   34MPD2    H5  538   3.869   3.928  10.248 -1.1555  0.2331  1.1957
   34MPD2    N1  539   3.838   3.372  10.411  0.2502 -0.7598 -0.0047
   34MPD2    H7  540   3.849   3.328  10.502  1.2707  1.4885  0.9536
   35TMC2    C1  541   1.331   0.106  11.645 -0.0077 -0.1929  0.1648
   35TMC2    C2  542   1.283   0.236  11.642  0.4104  1.0113  0.0510
   35TMC2    C3  543   1.146   0.244  11.643  0.1900 -0.0158  0.2327
   35TMC2    C4  544   1.252   4.728  11.657 -0.0369  0.6122 -0.6267
   35TMC2    C5  545   1.115   0.008  11.668  0.2718 -0.5792 -0.0502
   35TMC2    C6  546   1.063   0.134  11.654  0.0944 -0.4666  0.0958
   35TMC2     C  547   1.454   0.076  11.722  0.5988  0.5117 -0.1154
   35TMC2     O  548   1.514   4.710  11.705 -0.4932  0.0248 -0.2159
   35TMC2     H  549   1.351   0.321  11.637  1.5535  0.1000  0.0592
   35TMC2    H1  550   1.294   4.630  11.676  0.9012  1.5721  2.2195
   35TMC2    H2  551   0.956   0.151  11.659  0.6305  2.7926  0.6793
   35TMC2    C7  552   1.019   4.650  11.680 -0.1073 -0.5513 -0.0362
   35TMC2    C8  553   1.078   0.361  11.603 -0.3339  0.0626  0.1045
   35TMC2    O1  554   0.920   4.688  11.739 -0.1083 -0.1335  0.2461
   35TMC2    O2  555   0.978   0.360  11.536  0.0201 -0.3468  0.3327
   35TMC2    O5  556   1.164   0.461  11.626  0.5813  0.8756  0.1178
   35TMC2    H5  557   1.230   0.433  11.693 -0.3748 -2.2584 -0.2617
   36MPD2     C  558   1.586   4.739  12.192  0.3845  0.1577 -0.5620
   36MPD2    C1  559   1.476   0.081  12.189  0.4799 -0.7550 -0.2230
   36MPD2    C2  560   1.438   0.146  12.067  0.3613  0.3438 -0.1487
   36MPD2    C3  561   1.504   0.120  11.946  0.0931 -0.6637  0.7190
   36MPD2    C4  562   1.622   0.052  11.961  0.0182 -0.2873 -0.2991
   36MPD2    C5  563   1.653   4.732  12.079 -0.2087 -0.3162  0.5334
   36MPD2     H  564   1.349   0.206  12.052  0.6835  1.0637  0.7384
   36MPD2    H1  565   1.683   0.023  11.876 -0.2674 -0.9243 -0.2817
   36MPD2    H2  566   1.625   4.678  12.273  0.7845  0.2695 -0.6700
   36MPD2    H3  567   1.743   4.672  12.083  1.5121  2.1796 -0.6786
   36MPD2     N  568   1.447   0.155  11.827 -0.2978 -0.3045 -0.3226
   36MPD2    H5  569   1.364   0.213  11.835 -0.0406  0.2013 -1.4440
   36MPD2    N1  570   1.384   0.064  12.290 -0.0923  0.6256  0.2617
   36MPD2    H7  571   1.403   4.734  12.361  0.7493  0.7570  0.1598
   37TMC2    C1  572   2.819   0.391  11.943 -0.1356 -0.8891  0.7693
   37TMC2    C2  573   2.798   0.309  11.834  0.2684  0.2865 -0.9256
   37TMC2    C3  574   2.889   0.304  11.733  0.0316  0.3164 -0.0882
   37TMC2    C4  575   2.935   0.464  11.953  0.7279  1.3664 -0.5311
   37TMC2    C5  576   3.023   0.461  11.844  0.3211  0.8158  0.2723
   37TMC2    C6  577   3.002   0.383  11.731  0.0818  0.1228  0.6139
   37TMC2     C  578   2.741   0.355  12.058  0.0132 -0.3485 -0.4502
   37TMC2     O  579   2.621   0.340  12.042  0.3101 -0.2412  0.0252
   37TMC2     H  580   2.713   0.242  11.837  0.1366  0.4834 -0.3088
   37TMC2    H1  581   2.953   0.515  12.047  0.7245  0.6762 -0.1538
   37TMC2    H2  582   3.072   0.370  11.650 -0.2005  2.3467  0.0293
   37TMC2    C7  583   3.153   0.523  11.852 -0.0924  0.0331 -0.4191
   37TMC2    C8  584   2.857   0.215  11.626  1.2334 -0.5059 -0.8164
   37TMC2    O1  585   3.188   0.558  11.966 -0.3716  0.1626 -0.1416
   37TMC2    O2  586   2.783   0.116  11.636  0.2289  0.1209 -0.1254
   37TMC2    O5  587   2.908   0.253  11.508  0.0122 -0.3243 -0.0228
   37TMC2    H5  588   2.950   0.341  11.501 -0.0905 -0.2060  0.8648
   38MPD2     C  589   2.696   0.149  12.526 -0.5949 -0.0327 -0.3365
   38MPD2    C1  590   2.827   0.151  12.495  0.7951 -0.0788  0.5628
   38MPD2    C2  591   2.862   0.205  12.376 -0.7446  0.6095  0.3698
   38MPD2    C3  592   2.773   0.259  12.280  0.2135  0.2611  0.3730
   38MPD2    C4  593   2.634   0.249  12.314 -0.1810 -0.6511  0.1802
   38MPD2    C5  594   2.605   0.197  12.435 -0.1258 -0.6715  0.0113
   38MPD2     H  595   2.968   0.223  12.378 -0.7287  0.7928 -2.1484
   38MPD2    H1  596   2.556   0.281  12.246  0.5262 -0.3958 -0.5199
   38MPD2    H2  597   2.653   0.127  12.623  0.8483 -1.0325  0.0840
   38MPD2    H3  598   2.501   0.205  12.464  0.3060  1.2260  1.0228
   38MPD2     N  599   2.821   0.315  12.159 -0.3986 -0.3852  0.4772
   38MPD2    H5  600   2.921   0.327  12.146 -0.8204 -0.8474 -3.1340
   38MPD2    N1  601   2.925   0.100  12.584 -0.2544 -0.9046  0.3146
   38MPD2    H7  602   3.018   0.130  12.559 -1.3498  1.9261 -0.4070
   39TMC2    C1  603   1.274   2.662   1.455 -0.3023 -0.1268 -0.1417
   39TMC2    C2  604   1.195   2.776   1.424 -0.0759 -0.0722 -0.2804
   39TMC2    C3  605   1.263   2.896   1.422 -0.0715  0.5136  0.1280
   39TMC2    C4  606   1.400   2.684   1.500 -0.8769  0.6295 -0.8620
   39TMC2    C5  607   1.450   2.815   1.509 -0.0609 -0.5130  0.6191
   39TMC2    C6  608   1.382   2.926   1.474  0.9394  0.2412 -0.1269
   39TMC2     C  609   1.218   2.535   1.421 -0.1106 -0.0487  0.1276
   39TMC2     O  610   1.112   2.533   1.360 -0.0466  0.0978 -0.4558
   39TMC2     H  611   1.102   2.764   1.371 -0.8764 -0.1266  1.1544
   39TMC2    H1  612   1.468   2.604   1.526 -1.8128 -0.8134 -2.8411
   39TMC2    H2  613   1.425   3.025   1.478  2.0225 -0.1895 -0.8827
   39TMC2    C7  614   1.591   2.821   1.503 -0.5397 -0.0902 -0.9950
   39TMC2    C8  615   1.185   3.018   1.399 -0.0170 -0.3043  0.2428
   39TMC2    O1  616   1.663   2.718   1.508 -0.8680 -0.3238  0.0633
   39TMC2    O2  617   1.238   3.127   1.379  0.7417 -0.3411  0.1202
   39TMC2    O5  618   1.074   3.004   1.482 -0.5030  0.0235 -0.0791
   39TMC2    H5  619   1.049   2.916   1.519  0.4820 -0.6335 -0.9807
   40MPD2     C  620   1.365   2.195   1.438 -0.5803 -0.2417 -0.3613
   40MPD2    C1  621   1.269   2.301   1.442  0.3932  0.4564  0.4339
   40MPD2    C2  622   1.134   2.261   1.453 -0.2362 -0.0295  0.1161
   40MPD2    C3  623   1.097   2.130   1.458 -0.4322  0.3912 -0.2582
   40MPD2    C4  624   1.190   2.030   1.440 -0.6964 -0.6581 -0.1602
   40MPD2    C5  625   1.323   2.068   1.437  0.3393 -0.3453  0.0985
   40MPD2     H  626   1.059   2.339   1.462  0.4022  0.7176 -0.9217
   40MPD2    H1  627   1.165   1.927   1.464  0.2210 -0.8365  0.0430
   40MPD2    H2  628   1.471   2.216   1.432 -0.9885  1.7988 -0.1439
   40MPD2    H3  629   1.398   1.990   1.443  0.0335 -0.6297  0.2473
   40MPD2     N  630   0.962   2.092   1.486  0.1286  0.2855 -0.0334
   40MPD2    H5  631   0.938   1.994   1.498 -0.0696  0.1449 -1.6173
   40MPD2    N1  632   1.308   2.433   1.438  0.9620  0.2435  0.0580
   40MPD2    H7  633   1.407   2.443   1.453  1.1276 -1.6353  0.2315
   41TMC2    C1  634   0.574   0.523  13.800 -0.0992 -0.7687  0.0931
   41TMC2    C2  635   0.593   0.577  13.928 -0.7934  0.7194  0.5184
   41TMC2    C3  636   0.679   0.687  13.924 -0.2322 -0.1424  0.2485
   41TMC2    C4  637   0.610   0.581  13.683 -0.7510 -0.7781 -0.3854
   41TMC2    C5  638   0.685   0.698  13.692  0.0272  0.4533  0.8229
   41TMC2    C6  639   0.730   0.740  13.811 -0.5427  0.5872  0.3697
   41TMC2     C  640   0.485   0.405  13.787 -0.5016  0.2367 -0.4796
   41TMC2     O  641   0.454   0.376  13.673  0.7107  0.3973  0.2254
   41TMC2     H  642   0.569   0.524  14.020 -2.1189  1.8979  0.8543
   41TMC2    H1  643   0.568   0.547  13.589  1.2680  2.1355 -2.3369
   41TMC2    H2  644   0.790   0.829  13.825  0.7811 -0.5761  2.0748
   41TMC2    C7  645   0.712   0.781  13.576 -0.1417  0.3076 -0.4210
   41TMC2    C8  646   0.771   0.687  14.032 -0.0625  0.0916  0.3012
   41TMC2    O1  647   0.731   0.899  13.595 -0.1348  0.0311  0.3896
   41TMC2    O2  648   0.882   0.734  14.015  0.4590 -0.2651 -0.3193
   41TMC2    O5  649   0.697   0.686  14.147 -0.0835 -0.2975  0.1236
   41TMC2    H5  650   0.609   0.726  14.131  1.0219  0.6862 -3.5871
   42MPD2     C  651   0.381   0.128  13.786 -0.0095 -0.2701 -0.0980
   42MPD2    C1  652   0.405   0.203  13.904 -0.3685  0.1310 -0.0299
   42MPD2    C2  653   0.375   0.141  14.029 -0.4743 -0.2804  0.7302
   42MPD2    C3  654   0.311   0.015  14.026  0.2264 -0.0833 -0.0408
   42MPD2    C4  655   0.280   4.694  13.907 -0.1817 -0.3190  0.0156
   42MPD2    C5  656   0.318   0.008  13.784  0.2955 -0.3817 -0.0307
   42MPD2     H  657   0.404   0.188  14.123  0.5068 -1.1221  0.8473
   42MPD2    H1  658   0.226   4.602  13.889  0.9971 -1.2819  1.4224
   42MPD2    H2  659   0.412   0.165  13.689  0.5085  1.7849  0.8553
   42MPD2    H3  660   0.313   4.687  13.694 -3.9729 -0.2088  0.0786
   42MPD2     N  661   0.263   4.691  14.144  0.3261  0.2126 -0.1266
   42MPD2    H5  662   0.216   4.602  14.134  1.1941 -0.2999  0.4218
   42MPD2    N1  663   0.471   0.330  13.900 -0.2104  0.2036  0.0664
   42MPD2    H7  664   0.493   0.369  13.991  1.9755 -1.6376  0.3053
   43TMC2    C1  665   1.626   2.637   0.654 -0.5120 -0.2650 -0.3690
   43TMC2    C2  666   1.513   2.684   0.592 -0.6319  0.0242 -0.1269
   43TMC2    C3  667   1.440   2.769   0.664  0.2868  0.3268  0.4671
   43TMC2    C4  668   1.657   2.670   0.780  0.0105  0.6205 -0.1049
   43TMC2    C5  669   1.578   2.754   0.853 -0.1831  0.1039 -0.0269
   43TMC2    C6  670   1.464   2.800   0.795  0.0120  0.1218 -0.1445
   43TMC2     C  671   1.726   2.578   0.567  0.2477  0.0582 -0.3159
   43TMC2     O  672   1.838   2.583   0.606  0.0322  0.2291  0.0823
   43TMC2     H  673   1.486   2.665   0.489  1.5317 -0.0899 -0.6645
   43TMC2    H1  674   1.749   2.633   0.825 -0.3890  0.8904  0.9421
   43TMC2    H2  675   1.419   2.889   0.837 -0.2126  0.0204 -0.1712
   43TMC2    C7  676   1.648   2.836   0.957  0.9065  0.3026  0.5016
   43TMC2    C8  677   1.389   2.879   0.591  0.7135  0.5122 -0.4351
   43TMC2    O1  678   1.774   2.831   0.956  0.1375  0.7186  0.0166
   43TMC2    O2  679   1.361   2.990   0.638  0.3713  0.4451 -0.5780
   43TMC2    O5  680   1.357   2.846   0.466  0.7075  0.2143 -0.4084
   43TMC2    H5  681   1.355   2.752   0.439  0.8953 -0.1526  0.8267
   44MPD2     C  682   1.910   2.455   0.094  0.4347  0.3048  0.4372
   44MPD2    C1  683   1.980   2.466   0.209 -0.1156  0.1087 -0.4248
   44MPD2    C2  684   1.905   2.494   0.325 -0.4948 -0.6341  0.3100
   44MPD2    C3  685   1.763   2.505   0.328  0.0100 -0.6932  0.5627
   44MPD2    C4  686   1.699   2.498   0.206 -0.1005 -0.1052  0.1878
   44MPD2    C5  687   1.774   2.469   0.094  0.0971 -0.0326  0.7117
   44MPD2     H  688   1.967   2.521   0.410 -0.0975  0.5851 -0.3665
   44MPD2    H1  689   1.591   2.503   0.205 -0.1926 -1.8822  0.1601
   44MPD2    H2  690   1.958   2.444  17.754  1.6720 -0.2307  1.1185
   44MPD2    H3  691   1.724   2.476  17.753  1.7477 -0.6324 -0.1786
   44MPD2     N  692   1.681   2.542   0.439  0.2269  0.6523 -0.1574
   44MPD2    H5  693   1.586   2.567   0.416  0.5548  2.4342  0.4567
   44MPD2    N1  694   2.122   2.462   0.216  0.0973  0.1223  0.0255
   44MPD2    H7  695   2.168   2.483   0.304  0.3374  1.0914 -0.3224
   45TMC2    C1  696   2.231   4.657  10.063  0.0257 -0.0282 -0.0844
   45TMC2    C2  697   2.345   4.584  10.084 -0.7008  0.0060  0.6401
   45TMC2    C3  698   2.451   4.638  10.157 -0.2963  0.0438  0.3652
   45TMC2    C4  699   2.219   0.048  10.113  0.8260  0.0068  0.7910
   45TMC2    C5  700   2.330   0.093  10.183 -1.0511  0.7147 -0.1297
   45TMC2    C6  701   2.445   0.022  10.218 -0.0294 -0.5777 -0.0180
   45TMC2     C  702   2.113   4.592  10.007  0.1255  0.5401 -0.7660
   45TMC2     O  703   2.105   4.469  10.015 -0.0756 -0.1676  0.1289
   45TMC2     H  704   2.349   4.478  10.059 -0.5436  0.2513 -0.4032
   45TMC2    H1  705   2.124   0.100  10.114  0.2719 -1.0419  3.4079
   45TMC2    H2  706   2.525   0.074  10.270  0.8819  0.1636 -2.1760
   45TMC2    C7  707   2.331   0.232  10.228  1.0030  0.0999  0.0025
   45TMC2    C8  708   2.559   4.544  10.186  0.3528  0.1272  0.3794
   45TMC2    O1  709   2.381   0.252  10.334  0.1709  0.1067 -0.2677
   45TMC2    O2  710   2.534   4.436  10.242 -0.6773 -0.6194 -0.2065
   45TMC2    O5  711   2.673   4.614  10.212 -0.3113 -0.1295 -0.2603
   45TMC2    H5  712   2.683   4.692  10.153  1.1856 -0.1977 -0.0918
   46MPD2     C  713   1.830   4.566   9.959  0.1721 -0.8899  0.0506
   46MPD2    C1  714   1.900   4.668   9.914  0.2582  0.4390 -0.2129
   46MPD2    C2  715   1.835   0.044   9.873 -0.2831  0.3919  0.0458
   46MPD2    C3  716   1.695   0.049   9.872  0.1913 -0.0701  0.2010
   46MPD2    C4  717   1.624   4.667   9.900  0.4206  0.1500 -0.8861
   46MPD2    C5  718   1.696   4.560   9.953 -0.1650 -0.4521  0.4984
   46MPD2     H  719   1.892   0.136   9.867  0.5674 -0.0709  1.1212
   46MPD2    H1  720   1.518   4.648   9.892  0.4678 -1.8374  3.4945
   46MPD2    H2  721   1.873   4.479  10.008  1.6834  0.4435  1.0879
   46MPD2    H3  722   1.647   4.468   9.984 -0.7751  0.0898  1.1226
   46MPD2     N  723   1.628   0.169   9.850 -0.2582 -0.9595 -0.2033
   46MPD2    H5  724   1.686   0.250   9.871 -1.5435 -0.7512  2.5723
   46MPD2    N1  725   2.035   4.682   9.947  0.3651  0.1396  0.1019
   46MPD2    H7  726   2.069   0.038   9.941  0.6560 -0.0821 -1.6319
   47TMC2    C1  727   0.343   1.263   8.980  0.5042 -0.2751  0.4953
   47TMC2    C2  728   0.328   1.297   8.846  0.2790  0.8039  0.0878
   47TMC2    C3  729   0.207   1.330   8.804  0.9079  0.2412 -0.6892
   47TMC2    C4  730   0.237   1.266   9.067  0.3604  0.4447  0.2174
   47TMC2    C5  731   0.112   1.301   9.020  0.0434  0.4789 -0.4433
   47TMC2    C6  732   0.096   1.328   8.888 -0.4279  0.2278  0.1740
   47TMC2     C  733   0.471   1.202   9.026 -0.3667  0.4761  0.1697
   47TMC2     O  734   0.550   1.185   8.933  0.4128 -0.3375 -0.1766
   47TMC2     H  735   0.406   1.285   8.772  1.2228  0.6723  1.1154
   47TMC2    H1  736   0.240   1.240   9.172  1.5687 -0.6549 -0.0889
   47TMC2    H2  737   0.007   1.373   8.846  0.9350 -0.6279 -3.6137
   47TMC2    C7  738   0.026   1.351   9.120 -0.3008 -0.4382 -0.1146
   47TMC2    C8  739   0.188   1.356   8.664 -0.2699 -0.9370 -0.8981
   47TMC2    O1  740   0.054   1.340   9.237 -0.1669 -0.3091 -0.2867
   47TMC2    O2  741   0.069   1.373   8.631 -0.0374 -0.0229  0.1339
   47TMC2    O5  742   0.286   1.447   8.640  0.7214  0.1665  0.4316
   47TMC2    H5  743   0.367   1.426   8.692  1.6370  0.9750 -0.6838
   48MPD2     C  744   0.698   1.079   9.160  0.1733  0.1927  0.1292
   48MPD2    C1  745   0.579   1.112   9.225  0.1981 -0.2819  0.8398
   48MPD2    C2  746   0.569   1.082   9.359  0.6507  0.3853 -0.3664
   48MPD2    C3  747   0.667   1.020   9.429 -0.3046  0.2173  0.4611
   48MPD2    C4  748   0.782   0.977   9.361  0.7360 -0.5259 -0.1926
   48MPD2    C5  749   0.793   1.014   9.231 -0.5224  0.1684 -0.4672
   48MPD2     H  750   0.471   1.108   9.398  1.5628  0.7905  1.6944
   48MPD2    H1  751   0.862   0.923   9.412  1.1166 -0.1583 -0.3990
   48MPD2    H2  752   0.723   1.103   9.058  0.1906  1.0906  0.3454
   48MPD2    H3  753   0.883   0.982   9.179 -1.5052 -3.0351 -0.1926
   48MPD2     N  754   0.642   0.987   9.568 -0.2326 -0.7335 -0.9437
   48MPD2    H5  755   0.554   1.012   9.610  1.1129  0.6715  1.0448
   48MPD2    N1  756   0.475   1.181   9.164 -0.1830 -0.3417 -0.2727
   48MPD2    H7  757   0.399   1.215   9.222  0.5742 -0.4591  0.7667
   49TMC2    C1  758   3.194   3.191  10.445 -0.0899  0.2975 -0.0010
   49TMC2    C2  759   3.168   3.137  10.563 -0.1970 -0.0176  0.0764
   49TMC2    C3  760   3.128   3.008  10.557  0.1830  0.6342  0.3986
   49TMC2    C4  761   3.167   3.128  10.320 -0.3757  0.3647 -0.3989
   49TMC2    C5  762   3.117   3.001  10.326 -0.7940  0.5782 -0.1378
   49TMC2    C6  763   3.088   2.942  10.441  0.3897 -0.0323 -0.5839
   49TMC2     C  764   3.281   3.303  10.429 -0.3195 -0.7553  0.5061
   49TMC2     O  765   3.318   3.338  10.318 -0.2191 -0.2413 -0.0727
   49TMC2     H  766   3.192   3.187  10.657  1.2496 -1.3188  0.4009
   49TMC2    H1  767   3.174   3.177  10.223  0.4935 -1.1004 -1.0860
   49TMC2    H2  768   3.044   2.843  10.434  2.8355 -1.1041 -0.6017
   49TMC2    C7  769   3.053   2.944  10.209  0.4625  0.4063 -0.2250
   49TMC2    C8  770   3.091   2.937  10.678  0.1148 -0.0253  0.1032
   49TMC2    O1  771   2.955   2.873  10.236  0.6234  0.4517 -0.7237
   49TMC2    O2  772   2.999   2.854  10.691  0.1952 -0.1032  0.1163
   49TMC2    O5  773   3.178   2.979  10.771  0.1553  0.6144 -0.3228
   49TMC2    H5  774   3.254   3.036  10.746  0.6424  0.2046  0.2310
   50MPD2     C  775   3.459   3.533  10.449 -0.7781  0.3710 -0.5993
   50MPD2    C1  776   3.398   3.471  10.556 -0.2912  0.3334 -0.2370
   50MPD2    C2  777   3.403   3.524  10.682  0.6875  0.5572 -0.4732
   50MPD2    C3  778   3.464   3.644  10.699 -0.0805 -0.6797 -0.1691
   50MPD2    C4  779   3.551   3.689  10.603  0.1422 -0.3742  0.3845
   50MPD2    C5  780   3.536   3.642  10.475  0.0142  0.0363 -0.1019
   50MPD2     H  781   3.351   3.475  10.764  1.2949  0.8678  0.0918
   50MPD2    H1  782   3.605   3.780  10.623 -1.4730  1.0383 -1.7256
   50MPD2    H2  783   3.467   3.501  10.346 -2.6040  0.5524 -0.7935
   50MPD2    H3  784   3.585   3.694  10.393  1.0778  0.3511  0.7328
   50MPD2     N  785   3.450   3.720  10.819 -0.0250 -0.2598  0.4255
   50MPD2    H5  786   3.486   3.815  10.807  1.9218 -1.2302 -1.5153
   50MPD2    N1  787   3.317   3.357  10.547  0.2082  0.1999  0.0049
   50MPD2    H7  788   3.280   3.321  10.634 -1.0468  3.1656  0.7091
   51TMC2    C1  789   3.629   1.280   1.672  0.5177  0.7192 -0.3922
   51TMC2    C2  790   3.742   1.326   1.727  0.3040 -0.1302  0.0528
   51TMC2    C3  791   3.780   1.458   1.714  0.5523 -0.3865  0.6122
   51TMC2    C4  792   3.555   1.363   1.595 -0.2425 -0.1867  0.1683
   51TMC2    C5  793   3.593   1.493   1.580  0.5572 -0.4261 -0.1460
   51TMC2    C6  794   3.713   1.537   1.629 -0.1284 -0.1421 -0.5049
   51TMC2     C  795   3.620   1.137   1.643  0.1550 -0.3519 -0.3016
   51TMC2     O  796   3.557   1.089   1.551 -0.0906  0.2698  0.6356
   51TMC2     H  797   3.824   1.261   1.756 -2.4772 -3.7681 -0.2655
   51TMC2    H1  798   3.478   1.321   1.531  0.4397 -1.0065 -0.1155
   51TMC2    H2  799   3.756   1.631   1.598 -0.7596 -0.4056 -2.1957
   51TMC2    C7  800   3.515   1.592   1.509  1.2887 -0.2114 -0.2156
   51TMC2    C8  801   3.892   1.502   1.795 -0.0526  0.2781 -0.1219
   51TMC2    O1  802   3.576   1.687   1.470  0.1066 -0.1936  0.1116
   51TMC2    O2  803   3.990   1.430   1.805 -0.4566 -0.1061  0.8023
   51TMC2    O5  804   3.877   1.639   1.807 -0.7390  0.4615  0.0139
   51TMC2    H5  805   3.783   1.666   1.801 -1.2723 -0.9394  2.1279
   52MPD2     C  806   3.799   0.663   1.731 -0.1139 -0.4455 -0.0951
   52MPD2    C1  807   3.742   0.715   1.619 -0.7157  0.2261 -0.0231
   52MPD2    C2  808   3.697   0.845   1.620 -0.2694  0.5193 -0.1292
   52MPD2    C3  809   3.710   0.924   1.734  0.1158  0.1249  0.3023
   52MPD2    C4  810   3.758   0.867   1.850 -0.6603  0.2315  0.4761
   52MPD2    C5  811   3.803   0.737   1.845  0.0930  0.5503  0.2438
   52MPD2     H  812   3.652   0.888   1.531  1.8224 -0.0747 -1.4570
   52MPD2    H1  813   3.774   0.930   1.937  2.1532  0.7959 -0.4538
   52MPD2    H2  814   3.816   0.556   1.735 -1.2300 -0.6496 -0.5322
   52MPD2    H3  815   3.850   0.694   1.932 -0.3827  1.7125  1.0732
   52MPD2     N  816   3.679   1.063   1.744 -0.8395 -0.1395 -0.3751
   52MPD2    H5  817   3.719   1.117   1.820  1.5578  0.3473 -1.9876
   52MPD2    N1  818   3.730   0.646   1.499  0.2741  0.8640  0.0603
   52MPD2    H7  819   3.673   0.688   1.426  0.0583 -0.7894 -0.7273
   53TMC2    C1  820   3.817   0.815  11.988 -0.4993 -0.6507 -0.0442
   53TMC2    C2  821   3.953   0.808  11.990 -0.1140  0.9272 -0.0198
   53TMC2    C3  822   4.007   0.826  12.116  0.4396  0.6514 -0.2728
   53TMC2    C4  823   3.737   0.857  12.092  0.5996 -0.2835 -0.2788
   53TMC2    C5  824   3.797   0.875  12.209 -0.5841  0.1927 -0.5636
   53TMC2    C6  825   3.931   0.856  12.225 -0.2978  0.5270 -0.4081
   53TMC2     C  826   3.759   0.783  11.861  0.4917 -0.5856 -0.0919
   53TMC2     O  827   3.824   0.803  11.761  0.0865  0.1721 -0.7667
   53TMC2     H  828   4.018   0.770  11.912  0.1487  2.2918 -0.4681
   53TMC2    H1  829   3.632   0.882  12.078  0.8619  0.8568 -0.2796
   53TMC2    H2  830   3.983   0.857  12.319  0.1583  0.7134 -0.6624
   53TMC2    C7  831   3.708   0.887  12.321 -0.3237 -0.4884 -0.1763
   53TMC2    C8  832   4.134   0.764  12.145  0.1683  0.2832  0.6207
   53TMC2    O1  833   3.590   0.868  12.296  0.3005  0.4410 -0.6989
   53TMC2    O2  834   4.229   0.774  12.072 -0.2832  0.0002  0.3530
   53TMC2    O5  835   4.126   0.671  12.242 -0.3459 -0.6299 -0.0203
   53TMC2    H5  836   4.038   0.633  12.263 -1.2910  0.3725 -2.1736
   54MPD2     C  837   3.554   0.769  11.650 -0.5261  0.5691 -0.1118
   54MPD2    C1  838   3.531   0.727  11.778  0.1111 -0.4714 -0.3550
   54MPD2    C2  839   3.408   0.668  11.804  0.4778  0.0481 -0.8681
   54MPD2    C3  840   3.316   0.635  11.704  0.2315 -0.0042 -1.2761
   54MPD2    C4  841   3.342   0.674  11.573 -0.8924  0.5764 -0.7768
   54MPD2    C5  842   3.457   0.747  11.554  0.7140  0.2246 -0.4375
   54MPD2     H  843   3.389   0.636  11.906 -1.4118  0.0789 -1.1998
   54MPD2    H1  844   3.272   0.649  11.495 -0.4172  1.2169 -1.4102
   54MPD2    H2  845   3.638   0.824  11.608  1.3817 -4.2785 -2.6682
   54MPD2    H3  846   3.479   0.786  11.455 -1.7640 -1.0161 -1.4688
   54MPD2     N  847   3.197   0.559  11.723 -0.6499  0.9399 -0.4425
   54MPD2    H5  848   3.145   0.532  11.640 -1.1282  0.9921 -0.1601
   54MPD2    N1  849   3.627   0.747  11.880 -0.1323 -0.5361 -0.2665
   54MPD2    H7  850   3.595   0.717  11.972 -1.3327  2.0337  0.1443
   55TMC2    C1  851   4.433   2.828   0.229  0.0657  0.0157  0.2092
   55TMC2    C2  852   4.519   2.876   0.130 -0.5986  0.1565  0.1995
   55TMC2    C3  853   4.600   2.780   0.061 -1.2149 -0.7828 -0.2608
   55TMC2    C4  854   4.438   2.698   0.265 -0.3610 -0.4650 -0.5614
   55TMC2    C5  855   4.519   2.608   0.201  0.2370 -0.2179 -0.0366
   55TMC2    C6  856   4.603   2.646   0.100 -0.0081  0.2210 -0.1694
   55TMC2     C  857   4.335   2.908   0.294  0.3701  0.1617 -1.2065
   55TMC2     O  858   4.244   2.847   0.352 -0.0153 -0.3815 -0.4726
   55TMC2     H  859   4.504   2.977   0.095 -3.0579 -0.6123 -0.9710
   55TMC2    H1  860   4.377   2.668   0.350 -3.8004  2.7618 -1.8656
   55TMC2    H2  861   4.663   2.574   0.045  2.0837  0.5701  1.6952
   55TMC2    C7  862   4.520   2.471   0.243  0.9629  0.2878 -0.2124
   55TMC2    C8  863   4.713   2.836  17.752 -0.4829  0.3530  0.5778
   55TMC2    O1  864   4.542   2.391   0.153  0.4555  1.0708 -0.3191
   55TMC2    O2  865   0.072   2.769  17.725 -0.4491 -0.2554 -0.4677
   55TMC2    O5  866   4.682   2.964  17.704 -0.3381 -0.0563 -0.2072
   55TMC2    H5  867   4.586   2.977  17.691  0.3840  1.3171 -4.2575
   56MPD2     C  868   4.279   3.272   0.262 -0.2212 -0.5477  0.4974
   56MPD2    C1  869   4.248   3.135   0.293 -0.1678  0.0779 -0.4748
   56MPD2    C2  870   4.123   3.107   0.343  0.3014 -0.1409  0.0545
   56MPD2    C3  871   4.031   3.209   0.361 -0.0122  0.2362 -0.8145
   56MPD2    C4  872   4.065   3.341   0.333  0.5161  0.4583  0.5377
   56MPD2    C5  873   4.182   3.366   0.281  0.0578 -0.3869 -0.4166
   56MPD2     H  874   4.092   3.004   0.360  0.0039  0.1123  1.0149
   56MPD2    H1  875   3.993   3.420   0.350  0.7953  0.3584  2.1619
   56MPD2    H2  876   4.372   3.300   0.215 -1.2420  0.2501 -1.0387
   56MPD2    H3  877   4.206   3.467   0.252  0.9124 -0.7233 -0.9020
   56MPD2     N  878   3.911   3.182   0.426  0.0150 -0.0863  0.1248
   56MPD2    H5  879   3.896   3.092   0.470  1.3987  0.7828  2.4205
   56MPD2    N1  880   4.348   3.046   0.270  0.1414 -0.1044 -0.4706
   56MPD2    H7  881   4.435   3.090   0.241  1.0398 -2.2099 -0.9614
   57TMC2    C1  882   3.446   4.092  13.367  0.1280  0.4122  0.4581
   57TMC2    C2  883   3.368   4.109  13.252  0.3315  0.0964  0.0445
   57TMC2    C3  884   3.436   4.117  13.131 -0.7338  0.6379  0.1583
   57TMC2    C4  885   3.579   4.113  13.362  0.4657  0.3376 -0.3541
   57TMC2    C5  886   3.641   4.127  13.238  0.4539  0.2352 -0.1837
   57TMC2    C6  887   3.570   4.128  13.119  0.1547 -0.2019  0.1184
   57TMC2     C  888   3.369   4.097  13.498  0.2125 -0.1805 -0.0977
   57TMC2     O  889   3.249   4.129  13.492 -0.1785  0.6026  0.0011
   57TMC2     H  890   3.261   4.124  13.260 -0.4345 -4.3945 -1.9765
   57TMC2    H1  891   3.635   4.135  13.453 -1.9514 -0.0294  1.2303
   57TMC2    H2  892   3.620   4.130  13.023  0.2171 -1.6927  0.1098
   57TMC2    C7  893   3.782   4.126  13.220 -0.5446  0.0462  0.4234
   57TMC2    C8  894   3.363   4.137  13.007  0.6212 -0.0764  0.7901
   57TMC2    O1  895   3.827   4.163  13.111 -0.3490 -0.0581  0.4986
   57TMC2    O2  896   3.397   4.211  12.911  0.2224 -0.0187  0.0756
   57TMC2    O5  897   3.240   4.082  13.014 -1.0578  0.1531 -0.8501
   57TMC2    H5  898   3.226   4.024  13.092 -0.6004  1.0525 -0.0963
   58MPD2     C  899   3.347   4.179  14.002  0.3794  0.2659 -0.2797
   58MPD2    C1  900   3.262   4.217  13.902 -0.1995 -0.1824 -0.0945
   58MPD2    C2  901   3.297   4.189  13.774  0.0583  0.3973 -0.0493
   58MPD2    C3  902   3.411   4.116  13.739  0.1039 -0.1687 -0.3336
   58MPD2    C4  903   3.494   4.078  13.840  0.0494 -0.7129 -0.2486
   58MPD2    C5  904   3.471   4.124  13.964 -0.6766  0.1828  0.1230
   58MPD2     H  905   3.224   4.213  13.698 -0.2752 -2.3507 -0.5717
   58MPD2    H1  906   3.575   4.012  13.813 -0.4401 -2.3120  2.2428
   58MPD2    H2  907   3.327   4.200  14.106  1.9042 -0.6511  0.1984
   58MPD2    H3  908   3.539   4.097  14.044  1.0390  1.1836 -1.0003
   58MPD2     N  909   3.445   4.074  13.613 -0.2109  0.5252 -0.8116
   58MPD2    H5  910   3.527   4.015  13.603  1.1349  2.3938 -0.7024
   58MPD2    N1  911   3.135   4.264  13.924  0.4148  0.3346  0.4842
   58MPD2    H7  912   3.084   4.268  13.836  3.3165 -0.2736 -1.2267
   59TMC2    C1  913   1.353   3.952  13.126 -0.7155  0.2004  0.1842
   59TMC2    C2  914   1.296   3.905  13.244  0.4723 -0.1825  0.0065
   59TMC2    C3  915   1.167   3.867  13.241 -0.7328  0.3203 -0.2148
   59TMC2    C4  916   1.282   3.984  13.015  0.3068  0.5638  0.1110
   59TMC2    C5  917   1.150   3.944  13.019  1.0010 -0.2887 -0.0139
   59TMC2    C6  918   1.093   3.893  13.132  0.5075  0.4980 -0.0897
   59TMC2     C  919   1.498   3.966  13.121 -0.1499 -0.3417  0.3485
   59TMC2     O  920   1.555   3.970  13.010  0.0944 -0.0976  0.0213
   59TMC2     H  921   1.347   3.896  13.339 -0.6822  0.9467  0.7460
   59TMC2    H1  922   1.337   4.030  12.934  1.9962 -2.5150 -0.4921
   59TMC2    H2  923   0.986   3.876  13.131  0.6405 -0.7387  4.5223
   59TMC2    C7  924   1.061   3.966  12.910 -0.4203  0.1776 -0.4771
   59TMC2    C8  925   1.105   3.903  13.370  0.0903  0.4481 -0.2874
   59TMC2    O1  926   0.962   3.899  12.899 -0.3151  0.3174  0.1811
   59TMC2    O2  927   1.126   4.012  13.417 -0.1219  0.0130 -0.4702
   59TMC2    O5  928   0.991   3.828  13.389 -0.0559 -0.5063 -0.2736
   59TMC2    H5  929   0.998   3.738  13.351 -0.4823 -0.3407 -0.7408
   60MPD2     C  930   1.780   3.924  13.166  0.4911 -0.3484  0.3425
   60MPD2    C1  931   1.700   3.977  13.265 -0.4123 -0.2056 -0.3700
   60MPD2    C2  932   1.759   4.021  13.380  0.2146  0.0148  0.2516
   60MPD2    C3  933   1.896   4.013  13.412  0.2905 -0.1431 -0.3531
   60MPD2    C4  934   1.979   3.967  13.314  0.9003 -0.1837  0.5930
   60MPD2    C5  935   1.918   3.917  13.203  0.8483 -0.3817  0.0078
   60MPD2     H  936   1.691   4.063  13.453  1.5072  2.0259  0.3062
   60MPD2    H1  937   2.087   3.971  13.318  0.7467  3.1732  1.0785
   60MPD2    H2  938   1.743   3.882  13.074  0.6496  0.5202 -0.1168
   60MPD2    H3  939   1.982   3.872  13.128 -2.1483  1.7291 -3.8351
   60MPD2     N  940   1.958   4.048  13.531 -0.0143 -0.8567  0.0359
   60MPD2    H5  941   2.058   4.036  13.540  0.1355 -0.6438 -1.3643
   60MPD2    N1  942   1.554   3.986  13.249  0.3112 -0.4147  0.3432
   60MPD2    H7  943   1.498   3.999  13.333 -0.0101 -2.8413  0.5136
   61TMC2    C1  944   0.216   0.799  16.140  0.1897 -0.3553  0.3345
   61TMC2    C2  945   0.196   0.825  16.271  0.0543  0.3705 -0.3956
   61TMC2    C3  946   0.124   0.939  16.307 -0.4233  0.0331 -0.2139
   61TMC2    C4  947   0.172   0.887  16.039  0.1195  0.6099 -0.3615
   61TMC2    C5  948   0.124   1.013  16.080  0.3514  0.0936  0.1299
   61TMC2    C6  949   0.093   1.038  16.216 -0.0409  1.0920  0.1826
   61TMC2     C  950   0.297   0.681  16.105  0.2803  0.0135  0.2342
   61TMC2     O  951   0.341   0.611  16.193  0.5929  0.3609 -0.2542
   61TMC2     H  952   0.237   0.762  16.350  2.3577  0.1103 -1.8349
   61TMC2    H1  953   0.213   0.889  15.939 -1.5229  1.2553 -1.0234
   61TMC2    H2  954   0.042   1.132  16.228  0.2199  1.2201  0.2880
   61TMC2    C7  955   0.186   1.123  15.999  0.2781  0.2923 -0.7518
   61TMC2    C8  956   0.107   0.969  16.453 -0.5838 -0.9353  0.1571
   61TMC2    O1  957   0.190   1.116  15.877 -0.2401  0.4591 -0.0432
   61TMC2    O2  958   0.177   0.925  16.542  0.0985 -0.1577  0.5360
   61TMC2    O5  959   4.714   0.996  16.472 -0.3509  0.7007  0.2483
   61TMC2    H5  960   4.663   1.016  16.390  0.6785 -0.7257 -0.7319
   62MPD2     C  961   0.404   0.435  15.977 -0.0595  0.7651  0.4348
   62MPD2    C1  962   0.334   0.533  15.912  0.2932  0.0994 -0.0548
   62MPD2    C2  963   0.323   0.533  15.777  0.2314 -0.8617  0.5575
   62MPD2    C3  964   0.389   0.440  15.698  0.3796  0.8378 -0.4521
   62MPD2    C4  965   0.457   0.340  15.766 -0.2352 -0.2248 -0.5245
   62MPD2    C5  966   0.469   0.343  15.903 -0.4654 -0.1297  0.6673
   62MPD2     H  967   0.268   0.617  15.737  1.3597 -0.4560 -0.1346
   62MPD2    H1  968   0.522   0.268  15.718 -0.1613  0.2549 -1.1412
   62MPD2    H2  969   0.420   0.440  16.084 -1.0573  2.6711  0.4930
   62MPD2    H3  970   0.519   0.259  15.951 -2.7013 -1.4228  0.7299
   62MPD2     N  971   0.371   0.447  15.557 -0.7084  0.1132 -0.7467
   62MPD2    H5  972   0.418   0.375  15.504  1.8166 -0.9199  2.9048
   62MPD2    N1  973   0.287   0.649  15.975 -0.5602 -0.1580 -0.1246
   62MPD2    H7  974   0.232   0.715  15.921  2.3337  1.1166 -1.5023
   63TMC2    C1  975   0.098   1.405  10.478  0.4199  0.2936 -0.1222
   63TMC2    C2  976   0.200   1.470  10.533  0.3762  0.4294  1.1018
   63TMC2    C3  977   0.312   1.488  10.457 -0.6243 -0.0949 -0.4223
   63TMC2    C4  978   0.102   1.340  10.361 -0.3851  1.1056  0.0855
   63TMC2    C5  979   0.216   1.365  10.283 -0.3032 -0.6034 -0.3270
   63TMC2    C6  980   0.325   1.432  10.332 -0.3729  0.0631 -0.1278
   63TMC2     C  981   4.731   1.364  10.564 -0.3037  0.2416 -0.0857
   63TMC2     O  982   4.703   1.456  10.638  0.0541  0.4783 -0.2238
   63TMC2     H  983   0.193   1.501  10.637 -0.1537  0.5882  1.0212
   63TMC2    H1  984   0.020   1.286  10.317  0.2937  1.7500 -1.9509
   63TMC2    H2  985   0.416   1.451  10.276  1.2595 -2.3822  1.6774
   63TMC2    C7  986   0.200   1.354  10.140  0.7361  0.8305  0.0968
   63TMC2    C8  987   0.436   1.513  10.514 -0.2389  0.4626 -0.1634
   63TMC2    O1  988   0.115   1.274  10.099  0.0571 -0.3776  0.3551
   63TMC2    O2  989   0.533   1.450  10.478 -0.4093 -0.5250 -0.0445
   63TMC2    O5  990   0.416   1.560  10.638  0.0930 -0.1146 -0.7206
   63TMC2    H5  991   0.338   1.620  10.639  1.0098  1.0339  1.2436
   64MPD2     C  992   4.510   0.998  10.825 -0.3060  0.3419 -0.1512
   64MPD2    C1  993   4.587   0.937  10.729  0.2969 -0.1584 -0.5436
   64MPD2    C2  994   4.656   1.010  10.643  0.0707 -0.3130 -0.0516
   64MPD2    C3  995   4.644   1.147  10.650  0.3015 -1.1181  1.2067
   64MPD2    C4  996   4.562   1.203  10.743  0.3812 -0.3576  0.2215
   64MPD2    C5  997   4.485   1.130  10.821  0.1282 -0.1790 -0.1617
   64MPD2     H  998   4.728   0.964  10.575  1.1006 -2.2793  2.3864
   64MPD2    H1  999   4.558   1.311  10.752  0.6855 -0.2707 -0.6566
   64MPD2    H2 1000   4.447   0.942  10.894 -1.3708  0.4610 -1.0253
   64MPD2    H3 1001   4.417   1.173  10.893 -0.3491 -1.9051  0.4011
   64MPD2     N 1002   4.733   1.222  10.567 -0.0977 -0.0498  0.0858
   64MPD2    H5 1003   0.042   1.168  10.496 -0.6555 -1.5479  0.8471
   64MPD2    N1 1004   4.596   0.799  10.708  0.1300  0.4372  0.4991
   64MPD2    H7 1005   4.672   0.769  10.648 -0.0747  2.3936 -0.7262
   65TMC2    C1 1006   1.558   0.550  15.543 -0.0360 -0.0748  0.1375
   65TMC2    C2 1007   1.536   0.467  15.427 -0.2099 -0.3538  0.4278
   65TMC2    C3 1008   1.440   0.502  15.337  0.1373  0.6852  0.1376
   65TMC2    C4 1009   1.479   0.659  15.570 -0.2659  0.1133 -0.0268
   65TMC2    C5 1010   1.392   0.689  15.471  0.5270 -0.8737 -0.3453
   65TMC2    C6 1011   1.384   0.627  15.351 -0.0377 -0.1297  0.7557
   65TMC2     C 1012   1.614   0.492  15.663 -0.1589  0.8950  0.9705
   65TMC2     O 1013   1.618   0.553  15.771  0.0059 -0.0951  0.9972
   65TMC2     H 1014   1.586   0.372  15.410  1.0598  0.3057  0.4850
   65TMC2    H1 1015   1.490   0.710  15.664  0.0616 -0.8468  0.4548
   65TMC2    H2 1016   1.314   0.654  15.273 -0.0524 -2.8711 -0.1810
   65TMC2    C7 1017   1.288   0.788  15.499  0.0578  0.1355 -0.5164
   65TMC2    C8 1018   1.466   0.462  15.202  0.2553  0.6907  0.1112
   65TMC2    O1 1019   1.226   0.840  15.406  0.0948 -0.3177  0.2371
   65TMC2    O2 1020   1.517   0.353  15.181  0.5632  0.2044 -0.3622
   65TMC2    O5 1021   1.510   0.574  15.133  0.4115  0.0171  0.6765
   65TMC2    H5 1022   1.471   0.660  15.158 -0.2790 -0.0669 -0.1112
   66MPD2     C 1023   1.663   0.275  15.859  0.0188 -0.0345  0.3180
   66MPD2    C1 1024   1.598   0.256  15.745 -0.8572  0.0031 -0.3819
   66MPD2    C2 1025   1.523   0.147  15.722  1.0419 -0.2882  0.2736
   66MPD2    C3 1026   1.509   0.047  15.819 -0.0790  0.0764  0.2923
   66MPD2    C4 1027   1.569   0.070  15.940  0.7049 -0.1715 -0.0537
   66MPD2    C5 1028   1.651   0.182  15.957  0.2562  0.4019  0.1819
   66MPD2     H 1029   1.472   0.143  15.626 -1.6975  1.0533  1.6814
   66MPD2    H1 1030   1.555   0.000  16.021  0.4603  1.0624  0.9693
   66MPD2    H2 1031   1.723   0.363  15.880 -1.1966  1.4792 -2.4692
   66MPD2    H3 1032   1.705   0.197  16.050  0.2310  1.5426  0.0069
   66MPD2     N 1033   1.416   4.679  15.812  0.5809  0.2499 -0.0339
   66MPD2    H5 1034   1.409   4.616  15.891  0.3965  1.0137  0.5594
   66MPD2    N1 1035   1.599   0.356  15.648  0.1296 -0.2561 -0.1814
   66MPD2    H7 1036   1.566   0.320  15.559  2.0456 -2.5970  0.0697
   67TMC2    C1 1037   0.969   4.112  14.559  0.2350  1.1515  0.2443
   67TMC2    C2 1038   0.899   4.094  14.674  0.1116  0.1288  0.6336
   67TMC2    C3 1039   0.969   4.102  14.785 -0.0333  0.1934  0.3039
   67TMC2    C4 1040   1.103   4.133  14.552 -0.2715  0.0496 -0.8247
   67TMC2    C5 1041   1.173   4.132  14.675  0.0042 -0.2430 -0.6665
   67TMC2    C6 1042   1.102   4.120  14.795  0.3677 -0.2555  0.1454
   67TMC2     C 1043   0.890   4.111  14.433  0.0154 -0.0339  0.2240
   67TMC2     O 1044   0.791   4.040  14.427  0.0053 -0.0754 -0.3470
   67TMC2     H 1045   0.790   4.088  14.673  0.2562 -2.4526 -2.6133
   67TMC2    H1 1046   1.154   4.155  14.459 -1.8133  1.2982 -1.3704
   67TMC2    H2 1047   1.149   4.085  14.886 -1.4034  2.5023  2.1160
   67TMC2    C7 1048   1.311   4.174  14.680  0.3099 -0.1626 -0.3466
   67TMC2    C8 1049   0.897   4.081  14.908  0.6927  0.3509  0.0810
   67TMC2    O1 1050   1.358   4.181  14.566 -0.0448  0.0743  0.4502
   67TMC2    O2 1051   0.783   4.034  14.905 -0.0645  0.3018  0.0922
   67TMC2    O5 1052   0.941   4.177  14.990 -0.2966  0.1188  0.0848
   67TMC2    H5 1053   1.012   4.220  14.938  0.2360  1.8493  2.2241
   68MPD2     C 1054   0.826   4.106  14.140  0.0896 -0.0869  0.7530
   68MPD2    C1 1055   0.877   4.218  14.209  0.3106  0.1727 -1.0000
   68MPD2    C2 1056   0.886   4.343  14.134 -0.3493 -0.2354 -0.2187
   68MPD2    C3 1057   0.826   4.355  14.011 -0.3161  0.2546 -0.9569
   68MPD2    C4 1058   0.776   4.247  13.949 -0.0756 -0.5369 -0.0646
   68MPD2    C5 1059   0.772   4.128  14.016 -0.0046  0.9954 -0.4054
   68MPD2     H 1060   0.933   4.424  14.188  1.3660 -0.4246 -1.4227
   68MPD2    H1 1061   0.727   4.250  13.853 -2.2869  0.9680  1.1104
   68MPD2    H2 1062   0.816   4.010  14.188 -3.8125  1.1064  2.3777
   68MPD2    H3 1063   0.729   4.040  13.970 -2.0633  1.7386  0.1014
   68MPD2     N 1064   0.831   4.478  13.943 -0.7829  0.5581  0.1494
   68MPD2    H5 1065   0.783   4.484  13.854 -0.5401  0.3165  0.0016
   68MPD2    N1 1066   0.935   4.203  14.340  0.2338 -0.7328 -0.1310
   68MPD2    H7 1067   1.011   4.261  14.373 -1.6277  2.0810 -0.7430
   69TMC2    C1 1068   2.911   1.034  13.129  0.5708  0.3236 -0.6220
   69TMC2    C2 1069   2.777   1.014  13.108  0.4941 -0.5225  0.6973
   69TMC2    C3 1070   2.714   1.080  13.005 -1.0232  0.9633 -0.5464
   69TMC2    C4 1071   2.982   1.131  13.057  0.1026 -0.2722 -0.4717
   69TMC2    C5 1072   2.917   1.191  12.954 -0.2143  0.4060 -0.5998
   69TMC2    C6 1073   2.785   1.166  12.928  0.2529 -0.4006  0.4390
   69TMC2     C 1074   2.983   0.936  13.206  0.2582 -0.6522  0.3240
   69TMC2     O 1075   2.916   0.856  13.270 -0.3777 -0.3491 -0.2073
   69TMC2     H 1076   2.719   0.934  13.153  1.2948 -0.2699  2.1602
   69TMC2    H1 1077   3.081   1.166  13.083 -0.5467 -0.0200  1.6386
   69TMC2    H2 1078   2.729   1.221  12.854 -0.7819 -0.2437  1.3394
   69TMC2    C7 1079   2.997   1.283  12.876 -0.1740 -0.6337 -0.2546
   69TMC2    C8 1080   2.571   1.084  13.024  0.0810 -0.0141  0.1106
   69TMC2    O1 1081   3.112   1.300  12.916  0.7883 -0.1352 -0.0690
   69TMC2    O2 1082   2.496   1.128  12.941  0.3175 -0.1344 -0.3618
   69TMC2    O5 1083   2.562   1.097  13.158  0.2945  0.5026  0.2077
   69TMC2    H5 1084   2.650   1.123  13.192  1.4996  1.2986 -3.5598
   70MPD2     C 1085   3.346   0.874  13.204 -0.3266  0.1613 -0.0315
   70MPD2    C1 1086   3.218   0.851  13.235  0.0454  0.2467  0.0387
   70MPD2    C2 1087   3.187   0.745  13.318 -0.1626  0.0959  0.0306
   70MPD2    C3 1088   3.277   0.664  13.370 -0.1360 -0.9119  0.4964
   70MPD2    C4 1089   3.406   0.684  13.332 -0.0071 -0.2277  0.4008
   70MPD2    C5 1090   3.441   0.790  13.254 -0.1743 -0.6394 -1.3741
   70MPD2     H 1091   3.081   0.726  13.336  0.4622 -1.2019  2.3496
   70MPD2    H1 1092   3.479   0.614  13.371 -0.1869 -2.0155 -2.4829
   70MPD2    H2 1093   3.385   0.961  13.153 -2.3315 -0.1118 -1.9936
   70MPD2    H3 1094   3.547   0.810  13.242 -0.4854  2.9732  2.0740
   70MPD2     N 1095   3.256   0.554  13.459  0.4364 -0.8867  0.5543
   70MPD2    H5 1096   3.332   0.488  13.476  0.1569 -1.1052  0.9417
   70MPD2    N1 1097   3.121   0.943  13.186 -0.1448 -0.0502  0.0352
   70MPD2    H7 1098   3.162   1.014  13.126  0.4116 -0.8111 -0.4794
   71TMC2    C1 1099   0.350   1.699   1.664  0.4282  0.3605  0.6917
   71TMC2    C2 1100   0.447   1.776   1.725 -0.6119  0.1777 -0.8173
   71TMC2    C3 1101   0.399   1.856   1.823 -0.1025 -0.6231 -0.1091
   71TMC2    C4 1102   0.218   1.699   1.697 -0.2408  0.5250  0.1110
   71TMC2    C5 1103   0.175   1.779   1.803  0.5637 -0.4736  0.1751
   71TMC2    C6 1104   0.267   1.859   1.865  0.4034 -0.1848 -0.7483
   71TMC2     C 1105   0.401   1.588   1.577  0.2787  0.0090 -0.2747
   71TMC2     O 1106   0.519   1.603   1.546 -0.3745 -0.7491 -0.2619
   71TMC2     H 1107   0.553   1.765   1.706 -0.6901 -2.9455  0.5788
   71TMC2    H1 1108   0.149   1.636   1.641  0.7197 -2.9099  2.7717
   71TMC2    H2 1109   0.251   1.893   1.967 -0.9292  0.0134 -1.0234
   71TMC2    C7 1110   0.037   1.795   1.847  0.3308  0.1710 -0.5269
   71TMC2    C8 1111   0.497   1.938   1.898  0.3306  0.2789 -0.7956
   71TMC2    O1 1112   0.021   1.891   1.921  0.4835 -0.2593 -0.3406
   71TMC2    O2 1113   0.618   1.920   1.897 -0.0099  0.1865  0.2497
   71TMC2    O5 1114   0.435   2.055   1.938 -0.1904  0.2946  0.3963
   71TMC2    H5 1115   0.349   2.057   1.890  0.5325 -0.5288 -0.9439
   72MPD2     C 1116   0.393   1.175   1.294  0.3807 -0.5486 -0.6987
   72MPD2    C1 1117   0.481   1.282   1.282  0.4154  0.3535 -0.0201
   72MPD2    C2 1118   0.459   1.384   1.379 -0.4328  0.4256  0.0397
   72MPD2    C3 1119   0.359   1.368   1.474 -0.1607 -0.2259 -0.0285
   72MPD2    C4 1120   0.285   1.258   1.485  0.0289  0.2494 -0.1165
   72MPD2    C5 1121   0.298   1.169   1.385  0.2997 -0.3356 -0.1464
   72MPD2     H 1122   0.502   1.483   1.361 -1.8473  0.7415 -1.6278
   72MPD2    H1 1123   0.209   1.237   1.559  0.4999  2.0142  0.8790
   72MPD2    H2 1124   0.396   1.087   1.231 -2.3003  0.2811 -2.0215
   72MPD2    H3 1125   0.239   1.079   1.400  0.2133 -0.1969  0.3478
   72MPD2     N 1126   0.329   1.477   1.558 -0.1354 -0.2660 -0.1569
   72MPD2    H5 1127   0.236   1.471   1.599  0.7467  1.4487  2.0939
   72MPD2    N1 1128   0.584   1.288   1.180 -0.1858  0.0689  0.7733
   72MPD2    H7 1129   0.648   1.366   1.178  0.8779 -0.8237  0.4319
   73TMC2    C1 1130   0.289   3.400  14.441 -0.1889 -0.5432 -0.6769
   73TMC2    C2 1131   0.321   3.504  14.533 -0.0227 -0.1279 -0.1964
   73TMC2    C3 1132   0.410   3.473  14.638  0.0174  0.2529 -0.4210
   73TMC2    C4 1133   0.330   3.269  14.453  0.0593  0.5438 -0.2662
   73TMC2    C5 1134   0.425   3.255  14.554  0.3222 -0.6158 -0.1268
   73TMC2    C6 1135   0.453   3.343  14.650 -0.3412  0.5055 -0.3282
   73TMC2     C 1136   0.302   3.425  14.298  0.4341 -0.2745  0.0171
   73TMC2     O 1137   0.370   3.338  14.241 -0.2287 -0.2341 -0.1174
   73TMC2     H 1138   0.267   3.598  14.527 -0.0698 -0.0624  1.2966
   73TMC2    H1 1139   0.296   3.183  14.398 -1.5261  1.4865 -0.7522
   73TMC2    H2 1140   0.514   3.325  14.738 -2.1047  1.2609  1.0393
   73TMC2    C7 1141   0.545   3.187  14.511 -0.2637 -0.1212  0.4925
   73TMC2    C8 1142   0.393   3.544  14.767  0.0865  0.1524  0.7856
   73TMC2    O1 1143   0.632   3.147  14.586 -0.7017 -0.0977 -0.4758
   73TMC2    O2 1144   0.386   3.480  14.872 -0.4070 -0.5647 -0.4424
   73TMC2    O5 1145   0.396   3.674  14.739 -0.4310  0.4799  0.2250
   73TMC2    H5 1146   0.420   3.692  14.646  0.6177 -0.4352  0.3225
   74MPD2     C 1147   0.255   3.660  13.860  0.1539 -0.3534 -0.0311
   74MPD2    C1 1148   0.338   3.560  13.890  0.2491  0.2203  0.2464
   74MPD2    C2 1149   0.342   3.516  14.025  1.0674 -0.1532  0.1616
   74MPD2    C3 1150   0.248   3.568  14.115  0.2852  0.2390 -0.5260
   74MPD2    C4 1151   0.162   3.660  14.073  0.7640 -0.3769 -0.7229
   74MPD2    C5 1152   0.162   3.709  13.948 -0.6305 -0.4182 -1.1642
   74MPD2     H 1153   0.430   3.460  14.054 -0.0098 -1.5187  0.7712
   74MPD2    H1 1154   0.086   3.702  14.138  0.6234 -1.4215 -0.2153
   74MPD2    H2 1155   0.234   3.684  13.756 -1.7419 -0.8612  0.2252
   74MPD2    H3 1156   0.076   3.768  13.920 -1.1147 -0.0110  1.2034
   74MPD2     N 1157   0.234   3.529  14.250 -0.8002  0.0137 -0.2509
   74MPD2    H5 1158   0.163   3.573  14.307 -2.5910 -2.5470 -0.4815
   74MPD2    N1 1159   0.420   3.500  13.792 -0.0596 -0.2157  0.0381
   74MPD2    H7 1160   0.410   3.539  13.699 -2.8579 -1.6185 -0.2651
   75TMC2    C1 1161   0.829   4.722  13.918 -0.2004  0.3023 -1.0172
   75TMC2    C2 1162   0.835   0.097  13.984 -0.6886  0.3022 -0.1271
   75TMC2    C3 1163   0.808   0.205  13.902 -0.4048 -0.7802  0.1311
   75TMC2    C4 1164   0.798   4.706  13.787  0.2870  0.3636 -0.0313
   75TMC2    C5 1165   0.780   0.078  13.707 -0.1448  0.0427  0.7495
   75TMC2    C6 1166   0.781   0.206  13.764 -0.5921  0.6720  0.2887
   75TMC2     C 1167   0.867   4.607  14.004 -0.5462 -0.6852  0.5159
   75TMC2     O 1168   0.902   4.632  14.121 -0.0563  0.2623  0.3074
   75TMC2     H 1169   0.876   0.106  14.084  0.3064 -0.8426 -0.4345
   75TMC2    H1 1170   0.791   4.609  13.738 -1.2652 -0.9182  2.7311
   75TMC2    H2 1171   0.759   0.301  13.715  0.7223 -0.4001 -2.3904
   75TMC2    C7 1172   0.726   0.055  13.572  0.0149  0.2733 -0.2684
   75TMC2    C8 1173   0.831   0.333  13.963  0.8676  0.2362 -0.1615
   75TMC2    O1 1174   0.721   4.677  13.529 -0.4645  0.4481 -0.0577
   75TMC2    O2 1175   0.862   0.429  13.895 -0.1156 -0.0787 -0.1038
   75TMC2    O5 1176   0.761   0.343  14.083  0.0069 -0.1179  0.0641
   75TMC2    H5 1177   0.712   0.263  14.110 -1.1085  1.6383  3.2985
   76TMC2    C1 1178   4.413   0.831  12.449 -0.6558 -0.5067 -0.0108
   76TMC2    C2 1179   4.471   0.868  12.330 -0.1330 -0.0809 -0.2827
   76TMC2    C3 1180   4.571   0.781  12.289 -1.1134  0.3697  0.6448
   76TMC2    C4 1181   4.443   0.714  12.518 -0.1992 -0.4111  0.5875
   76TMC2    C5 1182   4.535   0.632  12.461 -0.0921 -0.1037  0.0417
   76TMC2    C6 1183   4.613   0.670  12.359  0.2619 -0.2577 -0.7331
   76TMC2     C 1184   4.301   0.916  12.496 -0.1715  0.1828 -0.2466
   76TMC2     O 1185   4.233   0.969  12.412  0.1139  0.3316  0.0645
   76TMC2     H 1186   4.435   0.947  12.265  1.3865 -0.2662 -1.3676
   76TMC2    H1 1187   4.383   0.693  12.606  0.8391  0.4341  1.4953
   76TMC2    H2 1188   4.661   0.587  12.308 -0.6617 -0.8704 -0.6136
   76TMC2    C7 1189   4.560   0.505  12.531  0.2845  0.1026  0.8110
   76TMC2    C8 1190   4.633   0.812  12.159  0.2407 -0.5227  0.5947
   76TMC2    O1 1191   4.467   0.456  12.595  0.8626 -0.1963 -0.4940
   76TMC2    O2 1192   4.595   0.896  12.083 -0.0213 -0.1638 -0.0033
   76TMC2    O5 1193   0.018   0.763  12.169 -0.0041 -0.0083 -0.2724
   76TMC2    H5 1194   0.031   0.721  12.256 -1.0682 -2.4903 -1.3043
   77MPD2     C 1195   4.015   1.117  12.855 -0.5267 -0.5528  0.4713
   77MPD2    C1 1196   4.031   1.145  12.723  0.8451 -0.2246 -0.4108
   77MPD2    C2 1197   4.128   1.089  12.649 -0.2713  0.1064 -0.3948
   77MPD2    C3 1198   4.212   0.995  12.712  0.1447 -0.4412 -0.6317
   77MPD2    C4 1199   4.213   0.973  12.843 -0.7612 -0.3333  0.4366
   77MPD2    C5 1200   4.111   1.029  12.917 -0.0186  0.6911 -0.0782
   77MPD2     H 1201   4.144   1.113  12.544 -0.5695 -1.7899 -0.8673
   77MPD2    H1 1202   4.266   0.894  12.895 -1.7174  0.4822  2.6554
   77MPD2    H2 1203   3.938   1.156  12.920  0.4670 -1.0167  1.9203
   77MPD2    H3 1204   4.101   1.003  13.021  0.3034  0.3247 -0.1431
   77MPD2     N 1205   4.310   0.930  12.635 -0.3786  0.0231  0.6756
   77MPD2    H5 1206   4.374   0.869  12.685 -0.1898  0.2508  0.7082
   77MPD2    N1 1207   3.938   1.227  12.657  0.1551  0.3978  0.1147
   77MPD2    H7 1208   3.952   1.247  12.559 -1.4034  0.9521  0.0111
   78TMC2    C1 1209   4.553   4.382   1.009  0.7700 -0.3470 -0.0250
   78TMC2    C2 1210   4.464   4.492   1.004  0.3351 -0.3003 -0.2685
   78TMC2    C3 1211   4.514   4.620   1.026 -0.2456 -0.2211  0.1783
   78TMC2    C4 1212   4.687   4.401   1.039 -0.6633  0.2746 -0.1803
   78TMC2    C5 1213   4.725   4.526   1.069 -0.4224  0.1088  0.3244
   78TMC2    C6 1214   4.643   4.637   1.069  0.0057 -0.3438 -0.6226
   78TMC2     C 1215   4.513   4.252   0.967  0.2474  0.6440  0.7435
   78TMC2     O 1216   4.588   4.156   0.995  0.1678 -0.4985 -0.3544
   78TMC2     H 1217   4.357   4.475   1.007  0.4924 -0.6818  2.7371
   78TMC2    H1 1218   0.006   4.311   1.054 -0.8623  0.1169 -0.3486
   78TMC2    H2 1219   4.684   4.733   1.097 -0.9091  0.1894 -1.1193
   78TMC2    C7 1220   0.112   4.548   1.147  0.3427  0.5328 -0.2008
   78TMC2    C8 1221   4.421   4.733   1.027 -0.0912 -0.1527 -0.3350
   78TMC2    O1 1222   0.148   4.664   1.165  0.0921 -0.4633  0.3532
   78TMC2    O2 1223   4.310   4.722   0.975 -0.7567  0.1158 -0.4155
   78TMC2    O5 1224   4.448   0.053   1.142  0.2107  0.1214 -0.4438
   78TMC2    H5 1225   4.539   0.034   1.175 -1.0927 -1.7075  2.0692
   79MPD1     C 1226   4.199   3.968   0.689  0.1708  0.3404  0.3473
   79MPD1    C1 1227   4.251   3.936   0.812  0.7681 -0.0420 -0.0655
   79MPD1    C2 1228   4.340   4.029   0.862  0.2951  0.1567 -0.0115
   79MPD1    C3 1229   4.348   4.156   0.812 -0.3377  0.0106 -0.4550
   79MPD1    C4 1230   4.279   4.193   0.697 -0.5378 -0.8811 -0.4092
   79MPD1    C5 1231   4.208   4.093   0.634  0.4957 -0.1305 -0.0511
   79MPD1     H 1232   4.391   4.002   0.954  0.4532  0.2423 -0.0747
   79MPD1    H1 1233   4.283   4.293   0.654 -0.3206 -0.7466 -0.0723
   79MPD1    H2 1234   4.135   3.893   0.645  1.7253 -1.1225  0.5946
   79MPD1    H3 1235   4.154   4.117   0.543 -0.8816 -0.4404  0.6854
   79MPD1     N 1236   4.413   4.262   0.878 -0.0129  0.4398 -0.5033
   79MPD1    H5 1237   4.386   4.356   0.850  0.4243  0.6673 -0.1634
   79MPD1    N1 1238   4.227   3.807   0.866  0.0792 -0.4585 -0.1672
   79MPD1    H6 1239   4.235   3.806   0.968  1.3929 -0.0934 -0.2666
   79MPD1    H7 1240   4.132   3.774   0.850 -0.3475 -0.5262  2.4036
   80TMC2    C1 1241   3.943   4.642  12.520 -0.8140 -0.5473 -0.4769
   80TMC2    C2 1242   4.026   4.690  12.421 -0.8601  0.5156  0.1182
   80TMC2    C3 1243   4.006   4.651  12.298  0.1356 -0.8571  0.7213
   80TMC2    C4 1244   3.842   4.551  12.492 -0.7174 -1.2870 -0.6324
   80TMC2    C5 1245   3.832   4.504  12.363 -0.2373  0.9787  0.0708
   80TMC2    C6 1246   3.918   4.544  12.272  0.2826  0.1234  0.4316
   80TMC2     C 1247   3.946   4.715  12.644  0.6387  0.0532  0.7921
   80TMC2     O 1248   4.051   0.012  12.701  0.1405 -0.2467 -0.4350
   80TMC2     H 1249   4.096   0.023  12.460  0.2971 -0.4939 -0.0797
   80TMC2    H1 1250   3.768   4.536  12.570 -1.4120  0.5412 -0.9454
   80TMC2    H2 1251   3.912   4.511  12.169 -1.0722 -0.9896  0.8759
   80TMC2    C7 1252   3.694   4.478  12.315 -0.1794 -0.0486  1.5207
   80TMC2    C8 1253   4.117   4.684  12.215  0.2552 -0.4273 -0.4010
   80TMC2    O1 1254   3.652   4.531  12.210 -0.0398 -0.1911  0.1711
   80TMC2    O2 1255   4.225   4.727  12.248 -0.4990  0.6184 -0.4723
   80TMC2    O5 1256   4.078   4.712  12.089  0.0645 -0.4303  0.1749
   80TMC2    H5 1257   3.984   4.690  12.073  0.1771 -2.0669  1.8306
   81MPD2     C 1258   3.849   0.082  12.907  0.5731 -0.1010 -0.0190
   81MPD2    C1 1259   3.767   0.066  12.797  0.3204 -0.6430  0.3541
   81MPD2    C2 1260   3.634   0.097  12.806  0.6594  0.2045  0.3448
   81MPD2    C3 1261   3.584   0.134  12.927  0.5034  0.2688 -0.1801
   81MPD2    C4 1262   3.664   0.167  13.030  0.4650 -0.0753 -0.2174
   81MPD2    C5 1263   3.797   0.137  13.020  0.4678 -0.7371  0.1322
   81MPD2     H 1264   3.567   0.067  12.727 -0.1619  1.3461  0.6084
   81MPD2    H1 1265   3.623   0.196  13.126  1.6536 -1.4015  0.6962
   81MPD2    H2 1266   3.951   0.048  12.921  0.2950 -0.5652  0.8406
   81MPD2    H3 1267   3.865   0.155  13.102  0.3583  3.8886 -0.7659
   81MPD2     N 1268   3.445   0.114  12.951 -0.1652  0.1210 -0.0860
   81MPD2    H5 1269   3.413   0.112  13.047 -0.2344 -0.7710 -0.1311
   81MPD2    N1 1270   3.819   0.027  12.669 -0.0013 -0.1800  0.4522
   81MPD2    H7 1271   3.751   0.026  12.593 -2.3701  2.3482  2.5335
   82TMC2    C1 1272   1.757   3.635  11.048 -0.7777 -0.1322 -0.3246
   82TMC2    C2 1273   1.712   3.555  10.947 -0.2878 -0.1325 -0.4626
   82TMC2    C3 1274   1.701   3.423  10.975 -0.1644 -0.1475 -0.3971
   82TMC2    C4 1275   1.798   3.592  11.170  0.0048 -0.4109 -0.0611
   82TMC2    C5 1276   1.778   3.462  11.194  0.0707  0.2128  0.8076
   82TMC2    C6 1277   1.724   3.369  11.101 -0.0914 -0.0539 -0.2478
   82TMC2     C 1278   1.695   3.769  11.055 -0.1269  0.6554  0.0526
   82TMC2     O 1279   1.604   3.792  10.976 -0.8774 -0.1785  0.1719
   82TMC2     H 1280   1.676   3.604  10.857 -1.6954  0.0507  0.2079
   82TMC2    H1 1281   1.846   3.650  11.248  0.2969 -1.0164  0.2076
   82TMC2    H2 1282   1.709   3.264  11.119 -2.1338 -0.1733 -2.6550
   82TMC2    C7 1283   1.785   3.427  11.337  0.3767  0.1439  0.1068
   82TMC2    C8 1284   1.644   3.334  10.877 -0.6085 -0.2237 -0.4800
   82TMC2    O1 1285   1.770   3.519  11.414 -0.0831  0.4652 -0.0685
   82TMC2    O2 1286   1.575   3.374  10.786  0.0590 -0.2049 -0.1036
   82TMC2    O5 1287   1.685   3.209  10.890 -0.1088 -0.2926  0.0746
   82TMC2    H5 1288   1.762   3.196  10.949 -0.0481  0.8381  0.2516
   83MPD2     C 1289   1.581   4.196  11.295 -0.3362 -0.5861 -0.4482
   83MPD2    C1 1290   1.503   4.101  11.238 -0.0062  0.3179  0.4001
   83MPD2    C2 1291   1.568   3.992  11.180  0.2652  0.6630 -0.1113
   83MPD2    C3 1292   1.703   3.973  11.188  0.5127  0.5518 -0.1789
   83MPD2    C4 1293   1.776   4.056  11.270  0.8154 -0.1019 -0.1430
   83MPD2    C5 1294   1.714   4.169  11.312  0.2015  0.1394  0.4011
   83MPD2     H 1295   1.511   3.921  11.122 -2.5093 -0.2499  3.7713
   83MPD2    H1 1296   1.882   4.051  11.289  0.4975  0.5032  1.8038
   83MPD2    H2 1297   1.535   4.280  11.346  0.6813  0.5256 -1.3584
   83MPD2    H3 1298   1.784   4.231  11.367 -1.7516  3.7170 -1.1649
   83MPD2     N 1299   1.762   3.853  11.145 -0.1727 -0.0953  0.4888
   83MPD2    H5 1300   1.862   3.845  11.161 -0.3442 -1.6613  0.8335
   83MPD2    N1 1301   1.372   4.131  11.228  0.7044  0.2251 -0.7405
   83MPD2    H7 1302   1.339   4.222  11.260  0.7220  0.2350 -0.7507
   84TMC2    C1 1303   3.180   3.874  11.168  1.1450  0.4902 -0.4865
   84TMC2    C2 1304   3.241   3.998  11.172  0.8423 -0.2780  0.2722
   84TMC2    C3 1305   3.354   4.019  11.095  0.5310  0.2409 -0.5020
   84TMC2    C4 1306   3.215   3.777  11.086  0.1292 -0.2207 -0.3674
   84TMC2    C5 1307   3.326   3.800  11.008 -0.6169 -0.7647  0.1672
   84TMC2    C6 1308   3.394   3.914  11.010  0.1065  1.0008 -0.0012
   84TMC2     C 1309   3.103   3.847  11.282 -0.4100 -0.4710 -0.2912
   84TMC2     O 1310   3.092   3.943  11.362 -0.9339 -0.3553  0.4814
   84TMC2     H 1311   3.204   4.075  11.238 -0.6089 -0.0408 -0.8074
   84TMC2    H1 1312   3.150   3.691  11.078 -1.3797  1.0629 -1.8874
   84TMC2    H2 1313   3.477   3.935  10.944 -0.7071 -2.2777 -2.0756
   84TMC2    C7 1314   3.360   3.688  10.924  0.1721 -0.4976 -0.2746
   84TMC2    C8 1315   3.423   4.142  11.124 -0.5950  0.6767  0.3960
   84TMC2    O1 1316   3.293   3.589  10.944 -0.2642  0.4588 -0.2840
   84TMC2    O2 1317   3.404   4.210  11.226  0.0265 -0.3873  0.8497
   84TMC2    O5 1318   3.535   4.141  11.052  0.1508  0.5101  0.2128
   84TMC2    H5 1319   3.543   4.085  10.972 -1.7272 -1.7378  1.6153
   85TMC2    C1 1320   3.506   1.515  16.063 -0.1652 -0.1386 -0.6956
   85TMC2    C2 1321   3.379   1.571  16.054 -0.2944 -0.1744  0.2712
   85TMC2    C3 1322   3.369   1.692  15.984  0.5508 -0.4234  0.7661
   85TMC2    C4 1323   3.612   1.586  16.006 -0.5154 -0.3681 -0.0216
   85TMC2    C5 1324   3.594   1.703  15.935 -0.1055  0.2493 -0.3238
   85TMC2    C6 1325   3.467   1.751  15.909  0.7680  0.5866  0.3432
   85TMC2     C 1326   3.522   1.404  16.151 -0.0239 -1.1906  0.5053
   85TMC2     O 1327   3.627   1.394  16.212 -0.4906  0.1061 -0.3817
   85TMC2     H 1328   3.299   1.535  16.118  0.7523 -1.1062  1.0537
   85TMC2    H1 1329   3.711   1.543  16.017 -0.2323  0.0975 -0.6610
   85TMC2    H2 1330   3.444   1.842  15.856  0.6039 -0.1514 -0.8450
   85TMC2    C7 1331   3.690   1.706  15.820 -0.6332  0.0200  0.6693
   85TMC2    C8 1332   3.247   1.772  15.995  0.4164  0.6165 -0.7383
   85TMC2    O1 1333   3.772   1.620  15.817  0.0607 -0.5665  0.0992
   85TMC2    O2 1334   3.192   1.845  15.917  0.3505  0.5911  0.3008
   85TMC2    O5 1335   3.239   1.782  16.131  0.2711 -0.0037 -0.3936
   85TMC2    H5 1336   3.292   1.726  16.192  1.5845  0.0325 -1.4962
   86MPD2     C 1337   3.348   0.991  16.403  0.3309  0.7213  0.5314
   86MPD2    C1 1338   3.278   1.001  16.283 -0.2877  0.3663 -0.3490
   86MPD2    C2 1339   3.303   1.114  16.208  0.4779  0.0496  0.5580
   86MPD2    C3 1340   3.397   1.209  16.241 -0.4833 -0.5169 -0.3631
   86MPD2    C4 1341   3.484   1.189  16.352 -0.2572 -0.2808  0.0106
   86MPD2    C5 1342   3.457   1.080  16.430  0.7717 -0.1884 -0.2402
   86MPD2     H 1343   3.238   1.139  16.124  0.2055  0.1349  0.7944
   86MPD2    H1 1344   3.555   1.258  16.396  0.5600 -0.3239 -1.2362
   86MPD2    H2 1345   3.321   0.910  16.469 -0.8039  0.1112 -0.6748
   86MPD2    H3 1346   3.513   1.071  16.523  0.9362 -1.7906 -0.4987
   86MPD2     N 1347   3.416   1.321  16.159 -0.2910  0.4739  0.2384
   86MPD2    H5 1348   3.340   1.329  16.092 -1.1920 -0.0396  1.1934
   86MPD2    N1 1349   3.203   0.897  16.225  0.4099 -0.4904  0.0790
   86MPD2    H7 1350   3.202   0.907  16.124 -0.6026  1.6393  0.2856
   87TMC2    C1 1351   1.274   3.873   0.934 -0.0662  0.4382  0.1084
   87TMC2    C2 1352   1.387   3.935   0.945  0.7318 -0.1749  0.0477
   87TMC2    C3 1353   1.391   4.058   1.007 -0.4448  1.2053  0.6773
   87TMC2    C4 1354   1.156   3.926   0.990 -0.3828 -0.0499  0.3592
   87TMC2    C5 1355   1.164   4.054   1.044 -0.1672  0.1766  0.6582
   87TMC2    C6 1356   1.283   4.121   1.053  0.2643  0.1654 -1.1904
   87TMC2     C 1357   1.282   3.756   0.855 -0.1963  0.0972 -0.1212
   87TMC2     O 1358   1.363   3.763   0.767 -0.1542  0.1598 -0.0232
   87TMC2     H 1359   1.476   3.910   0.888  0.7781  1.1578 -0.4643
   87TMC2    H1 1360   1.063   3.870   0.992  0.1614 -0.9211  1.1497
   87TMC2    H2 1361   1.281   4.223   1.089 -1.2585 -0.8274  1.5140
   87TMC2    C7 1362   1.039   4.128   1.062 -0.5838 -0.1291 -0.2389
   87TMC2    C8 1363   1.513   4.136   0.988  0.2131 -0.4339 -0.3690
   87TMC2    O1 1364   1.044   4.248   1.061  0.0647 -0.7453  0.7436
   87TMC2    O2 1365   1.584   4.124   0.890 -0.2495 -0.3047  0.3941
   87TMC2    O5 1366   1.531   4.225   1.087  0.0714  0.3978  0.0690
   87TMC2    H5 1367   1.480   4.206   1.168 -1.2189 -2.4949 -1.4219
   88MPD2     C 1368   0.699   4.001   1.110  0.1652 -0.1951  0.2024
   88MPD2    C1 1369   0.797   4.092   1.082 -0.6648  0.1767 -0.4868
   88MPD2    C2 1370   0.762   4.220   1.051  0.1258 -0.3253  0.0998
   88MPD2    C3 1371   0.626   4.248   1.047  0.0486  0.2231 -0.1340
   88MPD2    C4 1372   0.532   4.159   1.081 -0.5477 -0.2091  0.1048
   88MPD2    C5 1373   0.573   4.034   1.114  0.2210 -0.0276  0.1947
   88MPD2     H 1374   0.837   4.296   1.033  0.9466 -0.8419  1.3955
   88MPD2    H1 1375   0.424   4.169   1.075 -0.7461 -1.5574  1.3916
   88MPD2    H2 1376   0.720   3.904   1.153 -1.4444 -0.3949  0.5583
   88MPD2    H3 1377   0.497   3.961   1.139 -0.5735  0.8831  0.4680
   88MPD2     N 1378   0.577   4.380   1.016  0.2116  0.2419  0.3283
   88MPD2    H5 1379   0.477   4.380   0.996  0.3954  0.3523 -0.5863
   88MPD2    N1 1380   0.930   4.052   1.098 -0.9191 -0.2805 -0.2723
   88MPD2    H7 1381   0.965   3.958   1.118  0.4292 -0.1625 -2.0828
   89TMC2    C1 1382   2.000   3.544   1.581 -0.6368 -0.3377  0.0693
   89TMC2    C2 1383   1.872   3.580   1.611 -0.0617  0.7386 -0.5442
   89TMC2    C3 1384   1.847   3.710   1.600 -0.4053 -0.1383 -0.3348
   89TMC2    C4 1385   2.092   3.635   1.545 -0.0472  0.7095 -0.4872
   89TMC2    C5 1386   2.059   3.765   1.527  0.1549  0.2663  0.2239
   89TMC2    C6 1387   1.933   3.803   1.563  0.1387 -0.3069  0.3287
   89TMC2     C 1388   2.036   3.405   1.568  0.2819 -0.3081 -0.4986
   89TMC2     O 1389   2.153   3.378   1.578 -0.0906 -0.2077 -0.1790
   89TMC2     H 1390   1.788   3.519   1.641  0.2015  0.7407  0.1804
   89TMC2    H1 1391   2.192   3.595   1.547  0.1092  1.0466 -1.8672
   89TMC2    H2 1392   1.918   3.909   1.585 -2.5110 -0.3154 -1.4540
   89TMC2    C7 1393   2.157   3.861   1.506  0.6137  0.3388 -0.1221
   89TMC2    C8 1394   1.705   3.738   1.608  0.0070 -0.0975 -0.0821
   89TMC2    O1 1395   2.142   3.976   1.547 -0.0959  0.0630  0.2189
   89TMC2    O2 1396   1.647   3.701   1.708  0.3569  0.0882  0.3528
   89TMC2    O5 1397   1.669   3.727   1.476 -0.2573  0.6151 -0.4032
   89TMC2    H5 1398   1.736   3.727   1.404 -1.2045  0.1476 -1.2869
   90MPD2     C 1399   1.895   2.915   1.504  0.1498  0.4299  0.2252
   90MPD2    C1 1400   1.782   2.992   1.517  0.1105  0.2832 -0.2494
   90MPD2    C2 1401   1.802   3.130   1.537 -0.6113  0.2921 -0.4261
   90MPD2    C3 1402   1.925   3.191   1.531 -0.1202 -1.4144  0.1787
   90MPD2    C4 1403   2.029   3.107   1.524  0.5456  0.1340 -0.0289
   90MPD2    C5 1404   2.015   2.969   1.522 -0.6065 -0.0837  0.0630
   90MPD2     H 1405   1.714   3.188   1.564 -2.5176 -2.3595 -0.9243
   90MPD2    H1 1406   2.131   3.142   1.519  0.2390  0.7044 -2.3375
   90MPD2    H2 1407   1.890   2.807   1.495 -1.6265  0.4283  1.3772
   90MPD2    H3 1408   2.094   2.894   1.526 -1.5343 -1.1467 -1.7398
   90MPD2     N 1409   1.928   3.332   1.541 -0.6987  0.3913 -0.5005
   90MPD2    H5 1410   1.838   3.381   1.537 -0.9523 -0.0517 -0.2233
   90MPD2    N1 1411   1.644   2.954   1.514 -0.0958 -0.3796  0.0681
   90MPD2    H7 1412   1.573   3.020   1.546  1.2205  0.4488  1.2811
   91TMC2    C1 1413   2.978   2.068  16.166  0.0949 -0.1415 -0.2144
   91TMC2    C2 1414   3.052   2.019  16.269  0.0917 -0.5853  0.5043
   91TMC2    C3 1415   2.984   1.953  16.370 -0.2389  0.1310 -0.0207
   91TMC2    C4 1416   2.847   2.052  16.150 -0.0377  0.4723  0.0065
   91TMC2    C5 1417   2.779   1.987  16.253 -0.1068  0.0185 -0.4852
   91TMC2    C6 1418   2.847   1.936  16.364  0.3105  0.0383  0.3740
   91TMC2     C 1419   3.045   2.144  16.058  0.1134 -0.5020  0.3460
   91TMC2     O 1420   2.968   2.174  15.966  0.3617 -0.2385 -1.0591
   91TMC2     H 1421   3.159   2.035  16.278  0.2459 -1.3580  0.0800
   91TMC2    H1 1422   2.790   2.106  16.076  1.8295  1.1052 -0.9698
   91TMC2    H2 1423   2.790   1.902  16.450 -1.4428  1.8594 -0.0598
   91TMC2    C7 1424   2.650   1.934  16.227  0.2883  0.1121  0.2341
   91TMC2    C8 1425   3.052   1.939  16.504  0.2278  0.2423 -0.2085
   91TMC2    O1 1426   2.581   1.888  16.317  0.5489 -0.3108  0.1578
   91TMC2    O2 1427   3.149   2.003  16.535  0.0415 -0.6642  0.3731
   91TMC2    O5 1428   2.997   1.847  16.576  0.0705 -0.4882 -0.1836
   91TMC2    H5 1429   2.937   1.792  16.521  1.2043 -1.7970 -0.1161
   92MPD2     C 1430   3.194   2.315  15.875 -0.1353  0.2565  0.3395
   92MPD2    C1 1431   3.248   2.214  15.954  0.4394  0.8843 -0.0399
   92MPD2    C2 1432   3.386   2.177  15.933 -0.6580  0.4079 -0.4743
   92MPD2    C3 1433   3.459   2.237  15.830  0.3502 -1.2964  0.3464
   92MPD2    C4 1434   3.396   2.336  15.763  0.1743  0.4815  0.3694
   92MPD2    C5 1435   3.268   2.379  15.783 -0.2558 -0.0139  0.3666
   92MPD2     H 1436   3.437   2.107  15.999 -0.4603  0.1676 -0.8727
   92MPD2    H1 1437   3.461   2.391  15.696 -0.7337 -0.3755 -1.2032
   92MPD2    H2 1438   3.090   2.343  15.889 -0.1414  0.5498 -0.3003
   92MPD2    H3 1439   3.226   2.459  15.723 -0.0786  0.1856  0.5087
   92MPD2     N 1440   3.591   2.199  15.806  0.2815  0.4635  0.2596
   92MPD2    H5 1441   3.642   2.136  15.867  0.4535 -0.5875 -0.9754
   92MPD2    N1 1442   3.181   2.153  16.062  0.5865  0.1457 -0.2440
   92MPD2    H7 1443   3.234   2.099  16.130  1.7010  0.7720 -0.6221
   93TMC2    C1 1444   0.733   2.501  14.458  0.2104  0.5524  0.8369
   93TMC2    C2 1445   0.723   2.373  14.516  0.0390 -0.4578  0.5861
   93TMC2    C3 1446   0.833   2.297  14.511 -0.2653 -0.1005  0.1449
   93TMC2    C4 1447   0.848   2.537  14.387  0.4858  0.3635 -0.2549
   93TMC2    C5 1448   0.960   2.455  14.392 -0.1316 -0.0761 -0.2831
   93TMC2    C6 1449   0.950   2.330  14.451  0.0446 -0.1364  0.5164
   93TMC2     C 1450   0.614   2.581  14.444  0.8184 -0.2628 -0.0220
   93TMC2     O 1451   0.636   2.704  14.429  0.3812  0.6297  0.4017
   93TMC2     H 1452   0.628   2.329  14.546 -2.0059  2.0895 -2.1666
   93TMC2    H1 1453   0.847   2.632  14.335  0.7517  1.0396  0.9885
   93TMC2    H2 1454   1.034   2.263  14.442 -1.6936 -2.1980 -0.3977
   93TMC2    C7 1455   1.077   2.490  14.309  0.1601  0.4069  0.8258
   93TMC2    C8 1456   0.837   2.168  14.580  0.6986 -0.5330 -0.2348
   93TMC2    O1 1457   1.168   2.412  14.324 -0.0600 -0.0032 -0.6792
   93TMC2    O2 1458   0.906   2.073  14.542 -0.4833  0.3400 -0.3264
   93TMC2    O5 1459   0.742   2.152  14.669  0.1943  0.1390  0.0196
   93TMC2    H5 1460   0.714   2.239  14.706 -0.0523  1.5082 -3.3360
   94MPD2     C 1461   0.350   2.696  14.426 -0.4476  0.0823  0.3010
   94MPD2    C1 1462   0.376   2.561  14.394 -0.5900 -0.4551  0.2416
   94MPD2    C2 1463   0.267   2.486  14.341 -0.2856 -0.3231  0.7891
   94MPD2    C3 1464   0.153   2.550  14.299 -0.1018 -0.4416 -0.5928
   94MPD2    C4 1465   0.139   2.682  14.323  0.5805 -0.3099  0.2202
   94MPD2    C5 1466   0.233   2.748  14.390  0.6287  0.3413 -0.2703
   94MPD2     H 1467   0.281   2.380  14.322 -1.4725 -0.2425 -0.5655
   94MPD2    H1 1468   0.060   2.747  14.287  0.4973 -1.9951 -2.6294
   94MPD2    H2 1469   0.417   2.763  14.479  0.2000 -0.3695  0.0589
   94MPD2    H3 1470   0.226   2.854  14.411 -0.2428  0.0287  0.9985
   94MPD2     N 1471   0.046   2.481  14.240  0.0935 -0.2214  0.7157
   94MPD2    H5 1472   4.710   2.547  14.222  1.5996  1.3012 -0.0432
   94MPD2    N1 1473   0.503   2.502  14.420  0.2143  0.2209 -0.5755
   94MPD2    H7 1474   0.517   2.402  14.410 -1.7776 -0.1095 -0.1318
   95TMC2    C1 1475   1.068   4.299  16.683  0.1409 -0.5620  0.0322
   95TMC2    C2 1476   1.123   4.199  16.758  0.2863  0.8444  0.0702
   95TMC2    C3 1477   1.164   4.232  16.883 -0.1682  0.4796 -0.0084
   95TMC2    C4 1478   1.046   4.425  16.732 -0.6070 -0.5808 -0.2152
   95TMC2    C5 1479   1.065   4.442  16.865  0.0664 -0.4179 -0.4186
   95TMC2    C6 1480   1.115   4.342  16.941  0.3630  0.5873 -0.3187
   95TMC2     C 1481   1.052   4.293  16.539 -1.0173 -0.1305  0.2357
   95TMC2     O 1482   1.050   4.399  16.474  0.8769 -0.7320  0.2479
   95TMC2     H 1483   1.146   4.100  16.721 -0.9007  0.0319  1.4994
   95TMC2    H1 1484   0.993   4.500  16.675 -1.1347  0.0571  1.1181
   95TMC2    H2 1485   1.133   4.368  17.044 -2.2281  1.7891 -0.1616
   95TMC2    C7 1486   1.001   4.553  16.941 -0.2802  1.2074 -0.0892
   95TMC2    C8 1487   1.221   4.122  16.952 -0.4372  0.2020 -0.3412
   95TMC2    O1 1488   0.976   4.536  17.059  0.1425  0.0674  0.1850
   95TMC2    O2 1489   1.210   4.008  16.914  0.0263 -0.1015  0.1531
   95TMC2    O5 1490   1.309   4.165  17.044 -0.5166  0.8509 -0.1237
   95TMC2    H5 1491   1.314   4.262  17.057  0.5822  0.7868 -0.1204
   96MPD2     C 1492   0.923   4.065  16.096 -0.1156  0.3869 -0.2535
   96MPD2    C1 1493   1.001   4.177  16.119 -0.4298  0.1442  0.4102
   96MPD2    C2 1494   1.046   4.214  16.245 -0.0733  0.5190  0.6220
   96MPD2    C3 1495   1.019   4.127  16.351  0.3977 -0.0435  0.1326
   96MPD2    C4 1496   0.954   4.006  16.330  1.4646 -0.7251  0.3635
   96MPD2    C5 1497   0.906   3.976  16.203  0.0866 -0.3255  0.7621
   96MPD2     H 1498   1.100   4.305  16.268 -1.0252  1.3417 -0.4592
   96MPD2    H1 1499   0.920   3.935  16.404  0.2269 -1.3416 -0.7930
   96MPD2    H2 1500   0.899   4.035  15.995 -2.2583  3.3448 -0.6289
   96MPD2    H3 1501   0.859   3.880  16.182  0.8776 -0.4406 -0.4513
   96MPD2     N 1502   1.046   4.158  16.486 -0.2222 -0.4814  0.1462
   96MPD2    H5 1503   1.041   4.088  16.560 -3.0185 -1.6862 -1.2073
   96MPD2    N1 1504   1.006   4.262  16.012 -0.1280 -0.1801  0.0203
   96MPD2    H7 1505   0.955   4.239  15.928 -2.4998 -3.2115  2.2821
   97TMC2    C1 1506   2.561   1.292   0.146 -0.5149 -0.5616  0.5293
   97TMC2    C2 1507   2.550   1.298   0.011 -0.0383  1.0877  0.4239
   97TMC2    C3 1508   2.638   1.378  17.699  0.6495  0.7774  0.2181
   97TMC2    C4 1509   2.666   1.349   0.211 -0.5347  0.0133  0.5224
   97TMC2    C5 1510   2.746   1.430   0.147 -0.1944 -0.0106 -0.4807
   97TMC2    C6 1511   2.729   1.452   0.011 -0.2518 -0.7527  0.5809
   97TMC2     C 1512   2.485   1.199   0.225 -0.5998  0.3233 -0.0572
   97TMC2     O 1513   2.510   1.192   0.345 -0.1593 -0.1271  0.3426
   97TMC2     H 1514   2.477   1.243  17.709 -0.6517  2.5325 -0.1789
   97TMC2    H1 1515   2.672   1.335   0.318  2.4849  1.4795  0.5429
   97TMC2    H2 1516   2.798   1.514  17.710  1.3562 -1.3067  1.9467
   97TMC2    C7 1517   2.870   1.475   0.204 -0.7070  0.7773 -0.7190
   97TMC2    C8 1518   2.632   1.370  17.555  0.2667  1.0141 -0.6598
   97TMC2    O1 1519   2.928   1.561   0.144 -0.2005  0.0590 -0.0590
   97TMC2    O2 1520   2.536   1.321  17.502  0.3313  0.0738 -0.0339
   97TMC2    O5 1521   2.762   1.359  17.509  0.0500  0.1929  0.1323
   97TMC2    H5 1522   2.837   1.388  17.566  1.7289  1.2880 -2.6548
   98MPD2     C 1523   2.096   0.893   0.322 -0.5051 -0.2014  0.0080
   98MPD2    C1 1524   2.146   0.992   0.407  0.9211  0.0881 -0.3128
   98MPD2    C2 1525   2.242   1.070   0.351  0.6052  0.4438  0.0020
   98MPD2    C3 1526   2.277   1.063   0.219  0.6054  0.5474 -0.3648
   98MPD2    C4 1527   2.215   0.974   0.133  1.4999  0.4676  0.5655
   98MPD2    C5 1528   2.127   0.883   0.187  0.3944  0.0878  0.2856
   98MPD2     H 1529   2.292   1.145   0.412  1.2834  0.7781 -0.9612
   98MPD2    H1 1530   2.238   0.971   0.027 -0.0761 -0.2824  0.2458
   98MPD2    H2 1531   2.019   0.824   0.356 -1.0179  0.6112  0.4933
   98MPD2    H3 1532   2.091   0.802   0.125  1.6124 -0.2691  0.0562
   98MPD2     N 1533   2.381   1.147   0.156  0.6149 -0.3888 -0.5898
   98MPD2    H5 1534   2.368   1.159   0.056  0.3262  1.5520 -0.3248
   98MPD2    N1 1535   2.109   0.991   0.543 -0.3662  0.1781 -0.3896
   98MPD2    H7 1536   2.042   0.917   0.561 -0.4271 -0.2265 -2.2976
   99TMC2    C1 1537   1.414   3.397   1.540 -0.0976 -0.1953  0.5204
   99TMC2    C2 1538   1.447   3.440   1.663  0.3195 -0.5771  0.0172
   99TMC2    C3 1539   1.342   3.490   1.748  0.4554  0.0016 -0.3373
   99TMC2    C4 1540   1.283   3.400   1.498 -0.4085  0.3944  0.0914
   99TMC2    C5 1541   1.191   3.453   1.583 -0.0022 -0.1568  0.6207
   99TMC2    C6 1542   1.214   3.496   1.714  0.7122 -1.1697 -0.4629
   99TMC2     C 1543   1.518   3.371   1.446 -0.5279 -0.2103 -0.1728
   99TMC2     O 1544   1.631   3.412   1.482  0.0513  0.6383 -0.2160
   99TMC2     H 1545   1.551   3.444   1.694  0.6406 -1.0400 -1.0013
   99TMC2    H1 1546   1.246   3.376   1.399 -1.7612 -1.4051  1.0364
   99TMC2    H2 1547   1.133   3.530   1.777  0.1191 -0.7529 -1.4669
   99TMC2    C7 1548   1.058   3.475   1.536 -0.9386 -0.3128 -0.2577
   99TMC2    C8 1549   1.369   3.540   1.879 -0.4332  0.2771 -0.1565
   99TMC2    O1 1550   0.999   3.571   1.590 -0.4690 -0.1776  0.1151
   99TMC2    O2 1551   1.306   3.507   1.975 -0.1627 -0.0910 -0.2478
   99TMC2    O5 1552   1.499   3.568   1.876  0.1573 -0.3860 -0.3441
   99TMC2    H5 1553   1.531   3.605   1.791 -0.4519  2.7411  0.7722
  100MPD2     C 1554   1.698   3.266   1.240  0.3362  0.8221 -0.2294
  100MPD2    C1 1555   1.571   3.218   1.254 -0.4391  0.5017  1.0910
  100MPD2    C2 1556   1.529   3.105   1.186 -0.1191 -0.5078  0.1468
  100MPD2    C3 1557   1.614   3.032   1.108 -0.5811 -0.3696  0.4061
  100MPD2    C4 1558   1.744   3.083   1.096  0.5338 -0.5416 -0.6192
  100MPD2    C5 1559   1.782   3.199   1.151  0.0030 -0.1144 -0.1873
  100MPD2     H 1560   1.424   3.080   1.191 -0.5948  1.4926  0.4693
  100MPD2    H1 1561   1.815   3.049   1.021 -2.2107 -1.2510 -2.8772
  100MPD2    H2 1562   1.737   3.350   1.296  1.1385  0.6339 -0.5147
  100MPD2    H3 1563   1.881   3.238   1.131 -1.0570  1.6762 -1.8782
  100MPD2     N 1564   1.565   2.920   1.033  0.6267  0.6240  0.3571
  100MPD2    H5 1565   1.464   2.904   1.036  0.7092  0.3511  1.7347
  100MPD2    N1 1566   1.487   3.268   1.355 -0.3636 -0.6063 -0.1416
  100MPD2    H7 1567   1.394   3.231   1.372  0.1623 -2.2199 -0.7012
  101TMC2    C1 1568   2.340   0.184  13.572  0.3394  0.6379 -1.1856
  101TMC2    C2 1569   2.228   0.260  13.578  0.2417 -0.3083 -0.7870
  101TMC2    C3 1570   2.235   0.372  13.491 -0.2415 -0.5496  0.8216
  101TMC2    C4 1571   2.454   0.221  13.500 -0.1402 -0.1247  0.1020
  101TMC2    C5 1572   2.448   0.325  13.408  0.4069  1.2201  0.3907
  101TMC2    C6 1573   2.336   0.397  13.402 -1.2857  0.7908  0.1975
  101TMC2     C 1574   2.325   0.046  13.609 -0.3580 -1.0218  0.4433
  101TMC2     O 1575   2.237   0.028  13.687 -0.5827  0.5925  0.0689
  101TMC2     H 1576   2.144   0.228  13.638  1.5110 -1.1198  0.5327
  101TMC2    H1 1577   2.543   0.160  13.502 -0.8382 -1.0875  2.3970
  101TMC2    H2 1578   2.316   0.487  13.345  0.1790  1.2536  0.4013
  101TMC2    C7 1579   2.554   0.330  13.307 -0.0711  0.2549 -0.0912
  101TMC2    C8 1580   2.125   0.464  13.476 -0.0533 -0.0721 -0.2424
  101TMC2    O1 1581   2.660   0.277  13.328  0.3553 -0.4252 -0.5138
  101TMC2    O2 1582   2.102   0.522  13.374 -0.2461 -0.4527 -1.0100
  101TMC2    O5 1583   2.024   0.422  13.563  0.0552  0.6434 -0.5223
  101TMC2    H5 1584   2.062   0.374  13.639  2.0315  0.5243 -1.5624
  102MPD2     C 1585   2.543   4.497  13.499 -0.7277  1.1271  0.0557
  102MPD2    C1 1586   2.445   4.564  13.577  0.0380 -0.0772 -0.6991
  102MPD2    C2 1587   2.381   4.497  13.675  0.2810 -0.2221  0.3521
  102MPD2    C3 1588   2.400   4.360  13.692  0.4232 -0.3137  0.0048
  102MPD2    C4 1589   2.489   4.290  13.610  0.0879  0.1447 -1.0643
  102MPD2    C5 1590   2.563   4.362  13.520  1.0835  0.0860 -0.3617
  102MPD2     H 1591   2.300   4.545  13.731 -1.6180  0.2125 -2.7614
  102MPD2    H1 1592   2.495   4.181  13.607  1.9455  0.1803  1.2790
  102MPD2    H2 1593   2.595   4.560  13.429 -0.2842  3.3573  2.4248
  102MPD2    H3 1594   2.632   4.305  13.459  1.9503  1.0864 -0.2971
  102MPD2     N 1595   2.314   4.297  13.782  0.2686 -0.0580  0.5568
  102MPD2    H5 1596   2.241   4.353  13.826  1.3871  1.6625  0.1986
  102MPD2    N1 1597   2.412   4.699  13.546  1.2511 -0.7168  0.3743
  102MPD2    H7 1598   2.464   4.739  13.469  0.9256  1.3824  1.2504
  103TMC2    C1 1599   0.553   0.293  12.755 -0.2271 -0.1290  0.2524
  103TMC2    C2 1600   0.586   0.161  12.780 -0.0834  0.4562  0.2126
  103TMC2    C3 1601   0.693   0.138  12.865  0.2158  0.1476  0.2179
  103TMC2    C4 1602   0.609   0.395  12.822  0.9872 -0.1250 -0.4026
  103TMC2    C5 1603   0.714   0.367  12.906  0.0024  0.7553 -0.7213
  103TMC2    C6 1604   0.757   0.237  12.931  0.6260 -0.5874 -0.1902
  103TMC2     C 1605   0.429   0.325  12.685 -0.3828 -0.1609  1.1835
  103TMC2     O 1606   0.413   0.442  12.648 -0.0456 -0.3136 -0.0441
  103TMC2     H 1607   0.536   0.080  12.728  2.4635 -0.1056 -1.3695
  103TMC2    H1 1608   0.567   0.495  12.823 -2.0875 -1.3671 -2.2713
  103TMC2    H2 1609   0.848   0.213  12.985  0.0160 -0.5582  0.8567
  103TMC2    C7 1610   0.751   0.455  13.012 -0.4979  0.9598  0.3684
  103TMC2    C8 1611   0.766   0.018  12.834  0.3491 -0.1185 -0.9511
  103TMC2    O1 1612   0.821   0.410  13.100  0.1624 -0.0903  0.0804
  103TMC2    O2 1613   0.722   4.684  12.746 -0.1545  0.0238 -0.0084
  103TMC2    O5 1614   0.804   4.710  12.957  0.6943 -0.3483 -0.5373
  103TMC2    H5 1615   0.828   0.039  13.023  0.3165  0.2271 -0.9987
  104MPD2     C 1616   0.123   0.139  12.718  0.5793  0.3874  0.5237
  104MPD2    C1 1617   0.196   0.245  12.683 -0.5151 -0.4343 -0.7595
  104MPD2    C2 1618   0.137   0.355  12.624 -0.3625  0.2205  0.5502
  104MPD2    C3 1619   0.000   0.353  12.597 -0.4888  0.4218  0.5254
  104MPD2    C4 1620   4.662   0.239  12.627 -0.1383 -0.1152  0.2311
  104MPD2    C5 1621   4.730   0.134  12.692  0.4807 -0.2381  0.4201
  104MPD2     H 1622   0.184   0.445  12.588  0.4035 -0.3133  0.2340
  104MPD2    H1 1623   4.559   0.226  12.594 -1.1184  2.6375  2.1086
  104MPD2    H2 1624   0.173   0.052  12.760  1.6782  0.9424  0.3535
  104MPD2    H3 1625   4.675   0.044  12.716  1.5081 -0.5198  1.7340
  104MPD2     N 1626   4.690   0.470  12.535 -0.3719  0.4470  0.5185
  104MPD2    H5 1627   0.014   0.544  12.507 -0.1289 -0.3692 -1.1370
  104MPD2    N1 1628   0.332   0.236  12.718 -0.0510 -0.5080 -0.1014
  104MPD2    H7 1629   0.361   0.154  12.771 -1.1424 -1.0591 -0.3319
  105TMC2    C1 1630   1.626   3.230   0.219  0.4165 -0.4335 -0.0860
  105TMC2    C2 1631   1.554   3.128   0.167 -0.8805 -0.2766  0.1271
  105TMC2    C3 1632   1.438   3.096   0.228  0.1208 -0.8772 -0.5361
  105TMC2    C4 1633   1.568   3.320   0.309  0.0263  0.3783  0.4179
  105TMC2    C5 1634   1.445   3.292   0.353 -0.7726 -1.0174 -0.3126
  105TMC2    C6 1635   1.387   3.173   0.328 -0.7804  0.5664  0.5135
  105TMC2     C 1636   1.761   3.238   0.167  0.0459 -0.5161  0.0691
  105TMC2     O 1637   1.833   3.143   0.204  0.3563  0.0928 -0.1419
  105TMC2     H 1638   1.586   3.063   0.087  1.0198 -2.2773  2.4972
  105TMC2    H1 1639   1.624   3.409   0.336  2.5324 -1.1906  0.4222
  105TMC2    H2 1640   1.289   3.149   0.367 -0.2618  1.4664  2.3346
  105TMC2    C7 1641   1.396   3.381   0.455 -0.6764 -0.2880 -0.1933
  105TMC2    C8 1642   1.357   2.995   0.170  0.2992 -0.7857  0.1458
  105TMC2    O1 1643   1.469   3.470   0.489 -0.1574 -0.7825  0.0757
  105TMC2    O2 1644   1.235   3.007   0.150  0.3055  0.4318  0.0688
  105TMC2    O5 1645   1.428   2.882   0.157 -0.3134 -0.3100 -0.4850
  105TMC2    H5 1646   1.519   2.887   0.192 -0.4703  0.3911 -0.1553
  106MPD2     C 1647   2.098   3.466  17.603  0.8895 -0.1174 -0.9597
  106MPD2    C1 1648   2.001   3.561  17.632  0.5271  0.1345 -0.0575
  106MPD2    C2 1649   1.897   3.509  17.705  0.7991 -0.3339  0.2406
  106MPD2    C3 1650   1.893   3.388   0.016  0.1613 -0.3083 -0.2842
  106MPD2    C4 1651   1.997   3.304  17.750  0.5170 -0.3609  0.4289
  106MPD2    C5 1652   2.100   3.347  17.665 -0.4113  1.0178 -0.4798
  106MPD2     H 1653   1.814   3.577  17.724  0.3002 -1.1491  0.9679
  106MPD2    H1 1654   2.003   3.212   0.050 -2.0319 -1.7601 -1.6203
  106MPD2    H2 1655   2.192   3.497  17.558  0.4406  1.9588 -0.4610
  106MPD2    H3 1656   2.182   3.281  17.639 -0.0852  1.4705 -0.5914
  106MPD2     N 1657   1.780   3.355   0.088 -0.0505  0.1857  0.0135
  106MPD2    H5 1658   1.709   3.428   0.083 -0.3022  0.0227  1.2707
  106MPD2    N1 1659   1.995   3.693  17.584 -0.1816 -0.8388  0.3689
  106MPD2    H7 1660   1.914   3.751  17.605 -0.3247 -0.2345 -1.8636
  107TMC2    C1 1661   2.507   4.052  11.916  0.0179  0.6766  0.2711
  107TMC2    C2 1662   2.602   4.144  11.916  0.0033  0.6488 -0.2580
  107TMC2    C3 1663   2.716   4.121  11.844 -0.2668 -0.4870 -0.0899
  107TMC2    C4 1664   2.510   3.936  11.850 -0.3722  0.3582  0.6877
  107TMC2    C5 1665   2.629   3.910  11.781  0.6201 -0.3770 -0.3056
  107TMC2    C6 1666   2.735   4.001  11.776  0.3479  0.4726 -0.0415
  107TMC2     C 1667   2.378   4.092  11.973 -0.0063 -0.2463 -0.5652
  107TMC2     O 1668   2.386   4.144  12.085 -0.6436 -0.2720 -0.2942
  107TMC2     H 1669   2.599   4.229  11.983  0.5854  0.6865 -0.2804
  107TMC2    H1 1670   2.424   3.871  11.839 -1.2828  1.7178 -0.2124
  107TMC2    H2 1671   2.834   3.975  11.740 -0.8217 -1.3436 -1.9189
  107TMC2    C7 1672   2.626   3.793  11.697  1.1095 -0.2256 -0.2467
  107TMC2    C8 1673   2.839   4.203  11.844 -0.0375  0.2973 -0.2953
  107TMC2    O1 1674   2.538   3.706  11.714 -0.2027  0.1126  0.3004
  107TMC2    O2 1675   2.948   4.169  11.803  0.0072  0.3437  0.2750
  107TMC2    O5 1676   2.790   4.331  11.852 -0.3977  0.3539 -0.1074
  107TMC2    H5 1677   2.695   4.336  11.831 -0.4702  2.9879  0.8496
  108MPD2     C 1678   2.032   4.026  11.849 -0.0200 -0.0377  0.4325
  108MPD2    C1 1679   2.131   4.062  11.938  0.7257 -0.4180 -0.2043
  108MPD2    C2 1680   2.098   4.099  12.072  0.2538  0.3576  0.8552
  108MPD2    C3 1681   1.964   4.084  12.108  0.3901 -0.0560 -0.1485
  108MPD2    C4 1682   1.868   4.062  12.009  0.0228  0.1566  0.1484
  108MPD2    C5 1683   1.904   4.039  11.879  0.4002 -0.0885 -0.2853
  108MPD2     H 1684   2.171   4.136  12.143  1.2468  1.1187 -0.5476
  108MPD2    H1 1685   1.761   4.060  12.026 -0.1085  0.6158 -0.6381
  108MPD2    H2 1686   2.055   3.994  11.748 -1.4894  1.9240 -0.5098
  108MPD2    H3 1687   1.845   4.012  11.793  0.8410 -1.8307 -0.0468
  108MPD2     N 1688   1.923   4.089  12.245 -0.4387 -0.2169  0.0356
  108MPD2    H5 1689   1.826   4.066  12.260 -0.0517 -0.8156  1.6479
  108MPD2    N1 1690   2.267   4.048  11.898 -0.1745  0.2975  0.3309
  108MPD2    H7 1691   2.301   4.019  11.807 -0.6420  2.8341 -0.6578
  109TMC2    C1 1692   0.929   1.153   1.368 -0.0000 -0.4572 -0.1292
  109TMC2    C2 1693   0.939   1.274   1.437 -0.4792 -0.2790  0.3806
  109TMC2    C3 1694   1.046   1.354   1.415  0.0226  0.1881  0.6328
  109TMC2    C4 1695   1.019   1.118   1.272 -0.5312 -0.1450 -0.2506
  109TMC2    C5 1696   1.127   1.199   1.251  0.2221 -0.1282 -0.2285
  109TMC2    C6 1697   1.142   1.320   1.323 -0.8017 -0.1067  0.0999
  109TMC2     C 1698   0.824   1.064   1.421  0.1919  0.3073 -0.6102
  109TMC2     O 1699   0.750   1.113   1.503  0.0080 -0.3108  0.6089
  109TMC2     H 1700   0.875   1.315   1.515 -1.3103 -1.7312  0.4490
  109TMC2    H1 1701   1.001   1.034   1.207 -0.0527 -0.0923 -0.4513
  109TMC2    H2 1702   1.226   1.386   1.306  0.0382 -0.8238  1.4541
  109TMC2    C7 1703   1.240   1.145   1.184  0.6258 -0.2312  1.0470
  109TMC2    C8 1704   1.083   1.435   1.528  0.0289 -0.0155  0.0759
  109TMC2    O1 1705   1.333   1.223   1.181  0.5192  0.0323 -0.2436
  109TMC2    O2 1706   1.082   1.399   1.646  0.3415 -0.5883  0.3601
  109TMC2    O5 1707   1.164   1.530   1.497 -0.0828  0.1572 -0.0533
  109TMC2    H5 1708   1.131   1.574   1.416 -1.9842 -0.9463  0.1192
  110MPD2     C 1709   0.542   0.637   1.427  0.5894 -0.2007 -1.0829
  110MPD2    C1 1710   0.672   0.605   1.390  0.2831  0.0757  0.6606
  110MPD2    C2 1711   0.761   0.710   1.361 -0.0626  0.0968 -0.1353
  110MPD2    C3 1712   0.729   0.844   1.390  0.7349  0.5288 -0.0758
  110MPD2    C4 1713   0.601   0.876   1.432  0.0052  0.1565 -0.6248
  110MPD2    C5 1714   0.505   0.770   1.444 -0.0690  0.2387 -0.3203
  110MPD2     H 1715   0.866   0.689   1.341 -0.1037  1.0508 -1.3367
  110MPD2    H1 1716   0.568   0.977   1.454 -0.2032  0.0726 -0.5447
  110MPD2    H2 1717   0.471   0.558   1.447 -0.2065  0.0246 -3.0260
  110MPD2    H3 1718   0.401   0.777   1.475 -0.0388  1.0258 -0.3857
  110MPD2     N 1719   0.832   0.937   1.376 -0.0461  0.2891 -0.6993
  110MPD2    H5 1720   0.924   0.904   1.351  0.2680 -0.4952  1.5745
  110MPD2    N1 1721   0.696   0.472   1.360 -0.3970 -1.2124  0.8948
  110MPD2    H7 1722   0.619   0.406   1.357 -1.8090  0.3656  2.5449
  111TMC2    C1 1723   2.245   0.769  12.427  0.1596  0.0792 -0.0415
  111TMC2    C2 1724   2.184   0.759  12.547  0.2323  0.4503 -0.2516
  111TMC2    C3 1725   2.242   0.676  12.636 -0.7933  0.0299  0.3591
  111TMC2    C4 1726   2.351   0.682  12.396 -0.0717 -0.1945  0.0987
  111TMC2    C5 1727   2.406   0.605  12.495  0.4193 -0.0272  0.2174
  111TMC2    C6 1728   2.355   0.608  12.618  0.0287  0.4413  0.1505
  111TMC2     C 1729   2.186   0.851  12.319  0.2284  0.4713 -0.2509
  111TMC2     O 1730   2.260   0.885  12.231  0.0867 -0.1935 -0.5477
  111TMC2     H 1731   2.097   0.818  12.572  0.4489  0.7016 -0.0871
  111TMC2    H1 1732   2.396   0.691  12.298 -1.2628  0.7965 -0.3616
  111TMC2    H2 1733   2.391   0.543  12.696 -2.1328 -1.6341 -0.5742
  111TMC2    C7 1734   2.547   0.566  12.487 -1.1717  0.1267 -0.2390
  111TMC2    C8 1735   2.176   0.664  12.763 -0.3364 -0.5712  0.5170
  111TMC2    O1 1736   2.593   0.517  12.587  0.4880  0.4120 -0.1775
  111TMC2    O2 1737   2.243   0.655  12.865  0.5027  0.6593  0.1501
  111TMC2    O5 1738   2.049   0.631  12.737  1.0943 -0.7529 -0.2623
  111TMC2    H5 1739   2.027   0.633  12.642  1.0578  0.4262 -0.2386
  112MPD2     C 1740   1.816   1.121  12.091 -0.0096  0.7897  0.0218
  112MPD2    C1 1741   1.938   1.072  12.045 -0.6851 -0.5975  0.8028
  112MPD2    C2 1742   2.026   1.010  12.131  0.7007  1.1388 -0.1017
  112MPD2    C3 1743   1.983   0.971  12.256  0.2205 -0.2590 -0.7685
  112MPD2    C4 1744   1.865   1.029  12.302 -0.1324 -0.1743 -0.5123
  112MPD2    C5 1745   1.777   1.092  12.222 -0.4368  0.2885 -0.9286
  112MPD2     H 1746   2.121   0.988  12.083 -0.4119  2.1120 -2.7503
  112MPD2    H1 1747   1.835   1.022  12.406  1.3334 -0.7217 -0.1232
  112MPD2    H2 1748   1.746   1.172  12.026 -0.5995  0.4985  0.4304
  112MPD2    H3 1749   1.683   1.134  12.254  0.6501  1.2359  1.0741
  112MPD2     N 1750   2.059   0.888  12.336 -0.1531 -0.5149  0.3390
  112MPD2    H5 1751   2.009   0.858  12.420 -0.6281 -0.8512 -0.0647
  112MPD2    N1 1752   1.981   1.101  11.913  0.5088 -0.1495  0.2855
  112MPD2    H7 1753   2.067   1.063  11.876  0.8256  0.0299  0.8390
  113TMC2    C1 1754   0.271   3.038   0.495 -0.4286 -0.3303 -0.0415
  113TMC2    C2 1755   0.191   3.118   0.416 -0.7977 -0.5714 -0.2825
  113TMC2    C3 1756   0.086   3.060   0.355 -0.6711  1.0212 -0.3793
  113TMC2    C4 1757   0.242   2.914   0.522 -0.3451  0.3366  0.3048
  113TMC2    C5 1758   0.140   2.858   0.451  0.3574 -0.3268  0.1150
  113TMC2    C6 1759   0.056   2.929   0.369  0.2950 -0.2311  0.3916
  113TMC2     C 1760   0.373   3.110   0.574 -0.5566  0.1208 -0.2867
  113TMC2     O 1761   0.384   3.230   0.557 -0.3129  0.0596  0.5278
  113TMC2     H 1762   0.209   3.225   0.413  1.2424 -0.8785  0.9884
  113TMC2    H1 1763   0.300   2.846   0.584 -1.0327  0.2078  0.8205
  113TMC2    H2 1764   4.704   2.883   0.333  0.0544  1.3921 -1.0583
  113TMC2    C7 1765   0.086   2.735   0.509 -0.2679 -0.2011 -0.6024
  113TMC2    C8 1766   4.729   3.142   0.287  0.3239  0.0261  0.5523
  113TMC2    O1 1767   0.003   2.678   0.433  0.8248  0.3809 -0.2268
  113TMC2    O2 1768   4.615   3.100   0.275  0.7778  0.1003 -0.1748
  113TMC2    O5 1769   0.062   3.217   0.194 -0.3074  0.6661 -0.4958
  113TMC2    H5 1770   0.157   3.235   0.212 -0.7518  1.0420  1.5065
  114MPD2     C 1771   0.778   3.076   0.887 -0.7566 -0.3591  0.0315
  114MPD2    C1 1772   0.692   3.180   0.862  0.3204  0.1021 -1.1629
  114MPD2    C2 1773   0.594   3.157   0.764 -0.8603  0.1475  0.1490
  114MPD2    C3 1774   0.581   3.039   0.690  0.5410  1.0714  0.1472
  114MPD2    C4 1775   0.675   2.942   0.710 -0.6848  1.1686 -0.7978
  114MPD2    C5 1776   0.773   2.965   0.810 -0.1565 -0.4198 -0.1304
  114MPD2     H 1777   0.513   3.226   0.746 -0.6075  0.1691 -0.8600
  114MPD2    H1 1778   0.674   2.843   0.666  0.3023  0.2893  1.1594
  114MPD2    H2 1779   0.848   3.071   0.970  1.3523 -0.2979 -1.7441
  114MPD2    H3 1780   0.854   2.895   0.819 -0.7164 -1.1067 -0.3959
  114MPD2     N 1781   0.470   3.022   0.608  0.1248 -0.3432  0.0311
  114MPD2    H5 1782   0.469   2.941   0.546  3.8170 -0.4551  0.1241
  114MPD2    N1 1783   0.684   3.291   0.938 -0.0943  0.1156  0.1660
  114MPD2    H7 1784   0.610   3.353   0.908 -0.5113  1.3025  3.5921
  115TMC2    C1 1785   1.290   0.729   0.065  0.0574  0.6025  0.3580
  115TMC2    C2 1786   1.339   0.620   0.127  0.0536  0.7128 -0.3361
  115TMC2    C3 1787   1.406   0.640   0.247  0.0902  0.7793 -0.0207
  115TMC2    C4 1788   1.309   0.856   0.120  0.2690 -0.8184 -0.6341
  115TMC2    C5 1789   1.403   0.876   0.216 -0.5232 -0.8680 -0.0199
  115TMC2    C6 1790   1.442   0.766   0.285  0.8469 -0.3422  0.3422
  115TMC2     C 1791   1.217   0.710  17.703  0.5169 -0.2464  0.7127
  115TMC2     O 1792   1.236   0.608  17.640  0.2736  0.3328  0.7107
  115TMC2     H 1793   1.339   0.519   0.090 -0.1305  0.5854  0.0060
  115TMC2    H1 1794   1.264   0.940   0.069 -2.4030 -2.1014 -0.3735
  115TMC2    H2 1795   1.498   0.796   0.372  0.4536 -0.7563  0.7403
  115TMC2    C7 1796   1.409   1.008   0.290  0.4210  0.5146 -0.7523
  115TMC2    C8 1797   1.482   0.526   0.284  0.1731  0.0875  0.8115
  115TMC2    O1 1798   1.393   1.009   0.414  0.1105 -0.4588  0.3253
  115TMC2    O2 1799   1.549   0.467   0.202  0.3673  0.0472 -0.7877
  115TMC2    O5 1800   1.524   0.560   0.409 -0.7758 -0.4069 -0.0466
  115TMC2    H5 1801   1.453   0.600   0.464  0.4011 -0.3712  1.4432
  116MPD2     C 1802   0.827   0.787  17.387 -0.2362  0.2858 -0.0267
  116MPD2    C1 1803   0.939   0.707  17.363 -0.7809  0.1587  0.1222
  116MPD2    C2 1804   1.030   0.699  17.463 -0.2336 -0.5789 -0.6369
  116MPD2    C3 1805   1.015   0.776  17.578  0.2698  0.4340 -0.0969
  116MPD2    C4 1806   0.904   0.855  17.597  0.4807  0.3195  0.2983
  116MPD2    C5 1807   0.806   0.853  17.505 -0.1634  0.1139  0.1986
  116MPD2     H 1808   1.120   0.642  17.440 -0.8488 -0.9079 -2.1768
  116MPD2    H1 1809   0.879   0.900  17.693  0.1906 -0.1294  0.4359
  116MPD2    H2 1810   0.754   0.805  17.310 -1.0084  2.4694  1.2079
  116MPD2    H3 1811   0.715   0.911  17.501 -0.0777  0.1003 -1.6247
  116MPD2     N 1812   1.113   0.793  17.677 -0.2149 -1.0585  0.0980
  116MPD2    H5 1813   1.096   0.865  17.746  0.9600  1.3133 -2.1090
  116MPD2    N1 1814   0.951   0.641  17.238  0.2538 -0.1388 -0.0553
  116MPD2    H7 1815   0.878   0.644  17.168 -2.2172 -0.0029  2.5211
  117TMC2    C1 1816   4.427   3.190  14.290  0.9526 -0.4487  0.0294
  117TMC2    C2 1817   4.528   3.103  14.325  0.1192  0.5189 -0.5176
  117TMC2    C3 1818   4.639   3.155  14.390 -0.3499  0.1550 -0.1007
  117TMC2    C4 1819   4.443   3.326  14.298  0.0068 -0.0572 -0.0952
  117TMC2    C5 1820   4.561   3.372  14.350 -0.1263  0.0665 -0.0521
  117TMC2    C6 1821   4.654   3.288  14.414  0.6084  0.3748 -0.0068
  117TMC2     C 1822   4.328   3.160  14.189 -0.3201  0.4004 -0.1270
  117TMC2     O 1823   4.257   3.252  14.152  0.4061 -0.1604 -0.0437
  117TMC2     H 1824   4.529   2.995  14.330  0.2176  0.4406 -2.5997
  117TMC2    H1 1825   4.365   3.400  14.285 -1.4984 -1.3972  1.3367
  117TMC2    H2 1826   0.005   3.331  14.456 -0.8611  1.4564  2.0094
  117TMC2    C7 1827   4.591   3.510  14.342 -0.2801 -1.4848 -0.2103
  117TMC2    C8 1828   0.015   3.081  14.373  0.0928 -0.7683  0.1316
  117TMC2    O1 1829   4.709   3.532  14.373 -0.0386  0.0179 -0.1953
  117TMC2    O2 1830   0.031   2.990  14.292  0.4455 -0.4690 -0.8960
  117TMC2    O5 1831   0.069   3.079  14.500 -0.5118 -0.1386  0.3861
  117TMC2    H5 1832   0.018   3.129  14.567 -0.9767  0.4712 -0.4256
  118MPD2     C 1833   4.395   3.782  14.172  0.2645  0.0788  0.0712
  118MPD2    C1 1834   4.500   3.723  14.241 -0.4685 -0.8632  0.5843
  118MPD2    C2 1835   4.619   3.805  14.259 -0.5009  0.4453 -0.5408
  118MPD2    C3 1836   4.629   3.926  14.190  0.7323 -0.3362  0.5498
  118MPD2    C4 1837   4.529   3.977  14.112 -0.1932 -0.0194  0.4320
  118MPD2    C5 1838   4.410   3.907  14.110  0.7511 -0.5731  0.8263
  118MPD2     H 1839   4.697   3.755  14.316 -0.3139  1.1468 -0.1894
  118MPD2    H1 1840   4.538   4.073  14.061  1.3210 -1.8631 -2.7595
  118MPD2    H2 1841   4.302   3.729  14.155  0.0215  0.4753  0.1588
  118MPD2    H3 1842   4.319   3.949  14.069 -0.0603 -2.2961  0.8523
  118MPD2     N 1843   0.011   3.996  14.181  0.5192 -0.9212  0.1163
  118MPD2    H5 1844   0.014   4.077  14.120 -1.3073 -2.5929 -2.1675
  118MPD2    N1 1845   4.485   3.592  14.295  0.2474 -0.3909  0.0893
  118MPD2    H7 1846   4.401   3.541  14.270 -1.5870  2.9963 -0.5970
  119TMC2    C1 1847   2.959   3.950  13.620 -0.2680 -0.0241  0.1909
  119TMC2    C2 1848   3.059   3.897  13.549 -0.0690 -0.0615 -0.3340
  119TMC2    C3 1849   3.145   3.811  13.615 -0.8448  0.2395  0.2618
  119TMC2    C4 1850   2.934   3.916  13.748  0.6100  0.5114  0.3772
  119TMC2    C5 1851   3.009   3.813  13.800  1.0534  0.4201 -0.5353
  119TMC2    C6 1852   3.125   3.770  13.744  0.4849  0.4680  0.2745
  119TMC2     C 1853   2.900   4.080  13.580  1.0183  0.0580  0.5643
  119TMC2     O 1854   2.790   4.107  13.631  0.4718 -0.2904  0.1415
  119TMC2     H 1855   3.083   3.934  13.449 -1.9701 -1.3152 -1.2424
  119TMC2    H1 1856   2.862   3.970  13.808  0.0119  0.2324 -0.0891
  119TMC2    H2 1857   3.194   3.695  13.781  1.3010  0.8062 -0.5369
  119TMC2    C7 1858   3.027   3.818  13.944  0.1319 -0.3162 -0.0648
  119TMC2    C8 1859   3.239   3.723  13.541  0.2412  0.0265 -0.5228
  119TMC2    O1 1860   3.144   3.809  13.980  0.6002 -0.1967  0.2722
  119TMC2    O2 1861   3.353   3.698  13.574 -0.1395 -0.4115  0.2722
  119TMC2    O5 1862   3.156   3.644  13.467 -0.2170 -0.2285  0.5175
  119TMC2    H5 1863   3.066   3.684  13.459  0.3667  0.9102 -0.2845
  120MPD2     C 1864   2.991   4.589  13.558 -0.1219  0.3567 -0.7721
  120MPD2    C1 1865   2.891   4.513  13.617 -0.1850  0.3073 -0.6589
  120MPD2    C2 1866   2.879   4.377  13.588  0.5166 -0.2689  0.4651
  120MPD2    C3 1867   2.980   4.306  13.521  0.4749 -0.0206  0.1798
  120MPD2    C4 1868   3.083   4.382  13.473  0.4596 -0.1536  0.4432
  120MPD2    C5 1869   3.088   4.519  13.491 -0.7429 -0.3114  0.5767
  120MPD2     H 1870   2.794   4.320  13.622 -0.6804  0.9333 -0.5149
  120MPD2    H1 1871   3.169   4.351  13.415  1.8356  0.4730  2.1594
  120MPD2    H2 1872   3.004   4.695  13.575  0.9048 -0.0302  0.8811
  120MPD2    H3 1873   3.175   4.571  13.455 -0.0665 -1.5756  0.3686
  120MPD2     N 1874   2.987   4.166  13.516  0.5763  0.7647 -0.2016
  120MPD2    H5 1875   3.079   4.132  13.490 -0.2428  0.1951 -2.4147
  120MPD2    N1 1876   2.812   4.574  13.717  0.0046 -0.2998  0.2972
  120MPD2    H7 1877   2.817   4.675  13.718  1.5632 -0.3813  0.2414
  121TMC2    C1 1878   4.081   0.958  14.434  0.9542 -0.5012  0.3269
  121TMC2    C2 1879   4.016   0.905  14.543  0.5896 -0.1952  0.6350
  121TMC2    C3 1880   3.880   0.898  14.538  0.0095  0.8186  0.2978
  121TMC2    C4 1881   4.016   1.007  14.330  0.4753  0.0213 -0.6637
  121TMC2    C5 1882   3.876   1.014  14.345  0.3763 -0.0857  0.4442
  121TMC2    C6 1883   3.806   0.960  14.448 -0.2465 -0.2648 -0.8595
  121TMC2     C 1884   4.216   0.994  14.457  0.4505 -0.1504 -0.4012
  121TMC2     O 1885   4.247   0.990  14.576 -0.5659  0.3118 -0.0829
  121TMC2     H 1886   4.071   0.849  14.617  0.3916  0.3651  1.2022
  121TMC2    H1 1887   4.064   1.036  14.238  1.3194 -1.9129 -0.8407
  121TMC2    H2 1888   3.700   0.937  14.448  0.0183 -1.4451  0.7231
  121TMC2    C7 1889   3.805   1.049  14.225  0.7294 -0.0122  0.1454
  121TMC2    C8 1890   3.824   0.811  14.634 -0.1049  0.1633 -0.0417
  121TMC2    O1 1891   3.877   1.092  14.138  0.1449 -0.7619 -0.2987
  121TMC2    O2 1892   3.862   0.823  14.751 -0.3476 -0.2991 -0.0052
  121TMC2    O5 1893   3.807   0.692  14.573  0.1246 -0.1628  0.0078
  121TMC2    H5 1894   3.779   0.709  14.480  0.6699  0.5371 -0.0305
  122MPD2     C 1895   4.471   1.151  14.469  0.9356 -0.3063 -0.4678
  122MPD2    C1 1896   4.421   1.100  14.348 -0.2616  0.1109 -0.1285
  122MPD2    C2 1897   4.469   1.136  14.225  0.8984  0.9222 -0.0955
  122MPD2    C3 1898   4.574   1.225  14.222  0.1887  0.6020 -0.6426
  122MPD2    C4 1899   4.634   1.269  14.340 -0.2666 -0.0786 -0.7994
  122MPD2    C5 1900   4.586   1.227  14.459 -0.0821  0.2997 -0.2368
  122MPD2     H 1901   4.429   1.093  14.135  1.6343 -0.6683  0.3278
  122MPD2    H1 1902   4.727   1.325  14.332 -0.9000  1.2748  1.4708
  122MPD2    H2 1903   4.432   1.133  14.568  1.8006  0.1695 -0.0316
  122MPD2    H3 1904   4.639   1.260  14.548 -1.7451  1.6771  0.2280
  122MPD2     N 1905   4.633   1.265  14.098  0.3954  0.1808  0.0910
  122MPD2    H5 1906   4.691   1.348  14.091  2.6930 -1.4231  0.1929
  122MPD2    N1 1907   4.299   1.025  14.347  0.4731  0.4294 -1.3874
  122MPD2    H7 1908   4.254   1.010  14.257 -0.3924  0.0905 -0.8989
  123TMC2    C1 1909   3.062   4.493  11.341 -0.2011  0.0989  0.4991
  123TMC2    C2 1910   3.052   4.629  11.331 -0.5667  0.3426  0.7365
  123TMC2    C3 1911   3.103   4.692  11.227 -0.1958  0.1928  0.1917
  123TMC2    C4 1912   3.137   4.421  11.254 -0.1315  0.0641  0.8254
  123TMC2    C5 1913   3.195   4.490  11.148  0.3515 -0.5932  0.6442
  123TMC2    C6 1914   3.179   4.624  11.137 -0.1316 -0.5720  0.1966
  123TMC2     C 1915   2.952   4.430  11.408  0.3826 -0.7957  0.2522
  123TMC2     O 1916   2.902   4.487  11.505 -0.4080 -0.1425  0.3066
  123TMC2     H 1917   2.990   4.690  11.396 -2.0025 -0.5021  0.1593
  123TMC2    H1 1918   3.143   4.312  11.254  0.9599  0.1272 -0.7392
  123TMC2    H2 1919   3.224   4.675  11.053 -0.7006  2.0646  1.4739
  123TMC2    C7 1920   3.247   4.411  11.046 -0.1179 -0.0580 -0.4002
  123TMC2    C8 1921   3.124   0.096  11.231 -0.3778  0.1388  0.4427
  123TMC2    O1 1922   3.172   4.316  11.029 -0.0477  0.1036  0.6703
  123TMC2    O2 1923   3.131   0.164  11.132 -0.0067  0.0718  0.2973
  123TMC2    O5 1924   3.185   0.129  11.344 -0.2172 -0.0416  0.3076
  123TMC2    H5 1925   3.154   0.076  11.420 -1.1718  0.5491  0.3338
  124MPD2     C 1926   2.613   4.045  11.424  0.1947 -0.2497  0.4957
  124MPD2    C1 1927   2.695   4.026  11.317  0.1765 -0.0888  1.3427
  124MPD2    C2 1928   2.798   4.113  11.301 -0.0809 -0.4429 -0.3697
  124MPD2    C3 1929   2.818   4.219  11.387  0.0572  0.4938  0.1201
  124MPD2    C4 1930   2.730   4.246  11.487 -0.6027  0.6588  0.5825
  124MPD2    C5 1931   2.630   4.150  11.506 -0.0106 -0.0341 -0.2717
  124MPD2     H 1932   2.869   4.112  11.219 -0.4426  1.7399 -0.7177
  124MPD2    H1 1933   2.730   4.330  11.555  2.1797  3.4669 -2.8606
  124MPD2    H2 1934   2.527   3.983  11.443 -0.2864  0.1686 -0.2981
  124MPD2    H3 1935   2.557   4.164  11.585 -0.3998  0.9280 -0.8014
  124MPD2     N 1936   2.921   4.312  11.352 -0.3123  0.0155 -0.0170
  124MPD2    H5 1937   2.965   4.294  11.263  1.0298  1.4775  0.3256
  124MPD2    N1 1938   2.685   3.909  11.237 -0.6643  0.4317 -0.4151
  124MPD2    H7 1939   2.607   3.851  11.268  1.1934 -0.4286  2.6072
  125TMC2    C1 1940   4.203   1.462   9.908  1.3984 -0.0316  0.6291
  125TMC2    C2 1941   4.191   1.327   9.904  0.3520 -0.4246 -0.0335
  125TMC2    C3 1942   4.233   1.261   9.787  0.5755  0.1291 -0.5392
  125TMC2    C4 1943   4.249   1.534   9.799  0.0220  0.5700  0.0093
  125TMC2    C5 1944   4.291   1.464   9.687 -0.2136  0.1568  0.4488
  125TMC2    C6 1945   4.286   1.327   9.680 -0.0060  0.3031 -0.0537
  125TMC2     C 1946   4.135   1.546  10.004 -0.5589 -0.0861  0.1351
  125TMC2     O 1947   4.170   1.662  10.003 -0.2243 -0.5483  0.2493
  125TMC2     H 1948   4.155   1.265   9.985  0.8247  0.2787  0.7106
  125TMC2    H1 1949   4.256   1.642   9.804  1.9368  0.4917 -0.9528
  125TMC2    H2 1950   4.315   1.272   9.591 -0.9067  0.0489 -0.1912
  125TMC2    C7 1951   4.316   1.539   9.564 -0.1780 -0.0222 -0.4445
  125TMC2    C8 1952   4.250   1.120   9.784  0.2663 -0.4143  0.6067
  125TMC2    O1 1953   4.225   1.615   9.539  0.1246 -0.3420 -0.2868
  125TMC2    O2 1954   4.315   1.066   9.698 -0.0871  0.1731  0.1086
  125TMC2    O5 1955   4.134   1.075   9.827 -0.5791  0.6047  0.5314
  125TMC2    H5 1956   4.076   1.148   9.858 -0.5533  1.0085 -0.3737
  126MPD1     C 1957   3.789   1.625  10.369  1.0168 -0.0576 -0.0428
  126MPD1    C1 1958   3.831   1.491  10.378  0.2380 -0.2110 -0.8593
  126MPD1    C2 1959   3.917   1.439  10.283  0.5551  1.0234  1.1315
  126MPD1    C3 1960   3.965   1.527  10.183 -0.3851  0.0331  0.2872
  126MPD1    C4 1961   3.928   1.660  10.182  0.2208 -0.0530 -0.2071
  126MPD1    C5 1962   3.830   1.709  10.269  0.0312 -0.5553 -0.4787
  126MPD1     H 1963   3.947   1.335  10.286 -0.4775  0.7080  0.6692
  126MPD1    H1 1964   3.960   1.730  10.106  2.8737 -1.4972 -0.4304
  126MPD1    H2 1965   3.721   1.674  10.439 -3.8353 -2.9754 -2.6914
  126MPD1    H3 1966   3.792   1.810  10.272  1.0620 -0.1764 -0.0331
  126MPD1     N 1967   4.054   1.475  10.087  0.1276 -0.0077 -0.4030
  126MPD1    H5 1968   4.054   1.373  10.083 -0.1496 -0.0442  0.6877
  126MPD1    N1 1969   3.767   1.406  10.472 -0.0090  0.0490  0.6795
  126MPD1    H6 1970   3.684   1.359  10.436  0.4104  0.7785 -1.2433
  126MPD1    H7 1971   3.728   1.471  10.539  1.3969  0.4085  1.1624
  127TMC2    C1 1972   4.655   0.145  10.159  0.2438  1.0604  0.3281
  127TMC2    C2 1973   4.708   0.053  10.244 -0.6912  0.1475  0.1451
  127TMC2    C3 1974   4.621   4.711  10.311 -0.3967 -0.0125 -0.3333
  127TMC2    C4 1975   4.522   0.153  10.134  0.2244  0.2087  0.9664
  127TMC2    C5 1976   4.434   0.072  10.208 -0.5420  0.1085  0.4892
  127TMC2    C6 1977   4.485   4.713  10.293  0.5318  0.1857 -0.6004
  127TMC2     C 1978   0.007   0.211  10.068 -0.0207  0.9378 -0.6789
  127TMC2     O 1979   0.110   0.246  10.123  0.0363  0.7669 -0.3582
  127TMC2     H 1980   0.073   0.025  10.250 -0.9652 -1.0126 -0.4896
  127TMC2    H1 1981   4.487   0.234  10.072 -0.3378 -0.7595  0.0197
  127TMC2    H2 1982   4.434   4.627  10.334 -1.0533  0.0588 -2.8191
  127TMC2    C7 1983   4.297   0.071  10.158  0.6578  0.6457  0.3518
  127TMC2    C8 1984   4.677   4.631  10.416  0.2271 -0.2526 -0.4838
  127TMC2    O1 1985   4.268   0.179  10.106  0.4409  0.3528  0.0804
  127TMC2    O2 1986   0.052   4.605  10.425 -0.0348 -0.3395  0.0853
  127TMC2    O5 1987   4.610   4.672  10.524  0.1320 -0.2289 -0.2555
  127TMC2    H5 1988   4.540   0.000  10.513  1.4593  0.8288 -2.2121
  128MPD2     C 1989   4.685   0.349   9.724  0.0101  0.2906 -0.4470
  128MPD2    C1 1990   0.013   0.320   9.840  0.5787  0.0644 -0.1385
  128MPD2    C2 1991   0.123   0.398   9.867  0.2464 -0.4907  0.4328
  128MPD2    C3 1992   0.164   0.493   9.776 -0.6860 -0.0596 -0.6601
  128MPD2    C4 1993   0.094   0.512   9.660 -1.1125 -0.5822 -0.0213
  128MPD2    C5 1994   4.723   0.442   9.635  0.5699  0.1630 -0.0014
  128MPD2     H 1995   0.176   0.398   9.962  0.8711 -1.4766  0.0913
  128MPD2    H1 1996   0.119   0.591   9.589  1.7929 -1.8948 -0.4556
  128MPD2    H2 1997   4.603   0.295   9.679 -0.9997  0.8669  0.6946
  128MPD2    H3 1998   4.667   0.461   9.544  0.5588  0.0856 -0.0105
  128MPD2     N 1999   0.294   0.554   9.804 -0.3169  0.1818  0.5317
  128MPD2    H5 2000   0.338   0.532   9.893  0.9264  0.0482 -0.1161
  128MPD2    N1 2001   4.698   0.236   9.939  0.2424 -0.4798  0.7514
  128MPD2    H7 2002   4.604   0.201   9.920  1.0074 -2.0768 -0.0741
  129TMC2    C1 2003   3.628   4.167   1.291  0.4760  1.0679  0.2379
  129TMC2    C2 2004   3.651   4.033   1.300  0.1091  0.3707  0.1629
  129TMC2    C3 2005   3.542   3.951   1.304 -0.7330 -0.5792  0.0217
  129TMC2    C4 2006   3.504   4.227   1.274 -0.5900  0.2033 -0.1112
  129TMC2    C5 2007   3.403   4.136   1.279 -0.1934  0.0618  0.0543
  129TMC2    C6 2008   3.413   3.998   1.300 -0.1755  1.1478  0.0325
  129TMC2     C 2009   3.752   4.252   1.282 -1.2966 -0.9084  0.6542
  129TMC2     O 2010   3.858   4.192   1.282 -0.1500 -0.5119 -0.2426
  129TMC2     H 2011   3.744   3.987   1.329 -0.7767 -1.0799  0.7148
  129TMC2    H1 2012   3.487   4.330   1.244  1.3298  0.7196  0.5308
  129TMC2    H2 2013   3.327   3.933   1.289 -0.9218  1.9129  1.3805
  129TMC2    C7 2014   3.265   4.179   1.248 -0.9040  0.1405 -0.3598
  129TMC2    C8 2015   3.571   3.824   1.360 -0.5835  0.0879  0.7401
  129TMC2    O1 2016   3.180   4.094   1.235 -0.3941 -0.0956  0.1987
  129TMC2    O2 2017   3.681   3.774   1.347  0.3326 -0.1051 -0.0583
  129TMC2    O5 2018   3.501   3.800   1.471 -0.4763 -0.0226  0.6362
  129TMC2    H5 2019   3.419   3.854   1.475 -0.0672  0.5566  1.0954
  130MPD2     C 2020   3.960   4.458   1.200  0.0842 -0.5633  0.1828
  130MPD2    C1 2021   3.832   4.479   1.248 -0.0802 -0.5017 -0.4236
  130MPD2    C2 2022   3.788   4.609   1.252 -0.0690 -0.0982 -0.8014
  130MPD2    C3 2023   3.866   4.714   1.219 -0.3955 -0.4759  0.5549
  130MPD2    C4 2024   4.002   4.688   1.191  0.1589 -0.4248  0.0579
  130MPD2    C5 2025   4.052   4.556   1.179  0.6141  0.3839 -0.1193
  130MPD2     H 2026   3.685   4.618   1.285 -0.0902  3.1406 -1.8084
  130MPD2    H1 2027   4.074   0.029   1.176 -0.6148  0.1868 -0.3571
  130MPD2    H2 2028   3.998   4.356   1.206  0.2341 -0.7560 -3.5027
  130MPD2    H3 2029   4.153   4.524   1.158 -0.0460  0.2241 -3.0371
  130MPD2     N 2030   3.816   0.104   1.217 -0.8521 -0.0877 -0.3906
  130MPD2    H5 2031   3.723   0.117   1.255 -0.0624  1.9476  0.8418
  130MPD2    N1 2032   3.737   4.386   1.293  0.0939 -0.0749 -0.1431
  130MPD2    H7 2033   3.645   4.427   1.302 -0.1636 -0.9336  1.2022
  131TMC2    C1 2034   2.434   4.500  10.734 -0.0066 -0.7106  0.3448
  131TMC2    C2 2035   2.318   4.568  10.726 -0.2645  0.1040 -0.2993
  131TMC2    C3 2036   2.320   4.689  10.672 -0.1313 -0.0591  0.4135
  131TMC2    C4 2037   2.556   4.560  10.700  0.2865  0.1779  0.1499
  131TMC2    C5 2038   2.547   4.686  10.654 -0.6445  0.6930  0.4309
  131TMC2    C6 2039   2.431   0.014  10.631 -0.2879  0.4223  0.3773
  131TMC2     C 2040   2.439   4.356  10.760  0.1358  0.3128 -1.2032
  131TMC2     O 2041   2.510   4.325  10.851 -0.0868 -0.2968 -0.0216
  131TMC2     H 2042   2.223   4.526  10.757 -0.3398  0.4095 -0.1072
  131TMC2    H1 2043   2.649   4.505  10.706  1.3205  1.9284 -0.0974
  131TMC2    H2 2044   2.417   0.115  10.596 -0.0400  0.2948 -0.0947
  131TMC2    C7 2045   2.669   4.739  10.584  0.4484 -0.6385  0.3133
  131TMC2    C8 2046   2.204   0.038  10.685 -0.2324  0.5336 -0.7607
  131TMC2    O1 2047   2.754   4.662  10.561 -0.5024 -0.1714  0.1912
  131TMC2    O2 2048   2.206   0.159  10.707 -0.1703 -0.0950  0.8392
  131TMC2    O5 2049   2.093   4.704  10.675  0.4179 -0.3542 -0.0930
  131TMC2    H5 2050   2.085   4.612  10.641  3.5360 -0.7642  0.3591
  132MPD2     C 2051   2.226   4.108  10.597 -0.6050  0.0166 -0.2517
  132MPD2    C1 2052   2.339   4.155  10.663 -0.1743  0.6455 -0.3332
  132MPD2    C2 2053   2.422   4.067  10.718  0.2575 -0.4680 -0.2171
  132MPD2    C3 2054   2.407   3.932  10.702  0.4041 -0.1374  0.2182
  132MPD2    C4 2055   2.295   3.887  10.634  0.3026  0.1036  0.4100
  132MPD2    C5 2056   2.202   3.974  10.590  0.2289 -0.4539 -0.5296
  132MPD2     H 2057   2.508   4.106  10.771  2.0301 -1.6280 -2.2374
  132MPD2    H1 2058   2.267   3.782  10.637 -1.8908  0.6331 -1.7957
  132MPD2    H2 2059   2.153   4.170  10.546  0.2199  0.6085 -0.7071
  132MPD2    H3 2060   2.120   3.933  10.533  0.9980 -1.8553 -0.6301
  132MPD2     N 2061   2.515   3.849  10.757  0.3042  0.3371  0.1119
  132MPD2    H5 2062   2.581   3.905  10.811  0.3993  1.2988 -0.9834
  132MPD2    N1 2063   2.358   4.292  10.667 -1.1165  0.1908 -0.3370
  132MPD2    H7 2064   2.303   4.348  10.602  0.0322  2.3370  0.5408
  133TMC2    C1 2065   2.177   0.979   9.812 -0.0766 -0.4513  0.5520
  133TMC2    C2 2066   2.200   1.075   9.911 -0.1077  0.1249  0.2852
  133TMC2    C3 2067   2.318   1.066   9.977  0.2033  0.3888 -0.1095
  133TMC2    C4 2068   2.275   0.889   9.775 -0.2225  0.9992 -0.2247
  133TMC2    C5 2069   2.390   0.895   9.854  0.0795 -0.3033 -0.4724
  133TMC2    C6 2070   2.418   0.977   9.959  0.2829 -0.2733  0.7406
  133TMC2     C 2071   2.038   0.952   9.758  0.2390 -0.7942  0.0849
  133TMC2     O 2072   2.021   0.835   9.726 -0.0229  0.4601  0.2444
  133TMC2     H 2073   2.120   1.136   9.951  0.6699  2.5070 -1.7716
  133TMC2    H1 2074   2.243   0.814   9.704  0.4735 -0.1719  0.6963
  133TMC2    H2 2075   2.512   0.976  10.013  0.8929 -1.4215 -0.3548
  133TMC2    C7 2076   2.471   0.778   9.871 -0.1384  0.0916  0.4749
  133TMC2    C8 2077   2.336   1.168  10.087 -0.7287  0.5634 -0.2006
  133TMC2    O1 2078   2.561   0.774   9.952 -0.6425  0.0683  0.3715
  133TMC2    O2 2079   2.241   1.227  10.139  0.1546  0.2879  0.1715
  133TMC2    O5 2080   2.467   1.204  10.094 -0.2348 -0.3552 -0.9192
  133TMC2    H5 2081   2.521   1.157  10.028  1.9435  1.6233 -0.5185
  134MPD2     C 2082   1.727   1.139   9.850 -0.2024 -0.2261 -0.3933
  134MPD2    C1 2083   1.805   1.029   9.816 -0.8459 -0.2911 -0.4054
  134MPD2    C2 2084   1.732   0.911   9.799 -0.3374  0.0057 -0.4916
  134MPD2    C3 2085   1.592   0.900   9.812  0.2638 -0.5634  0.2269
  134MPD2    C4 2086   1.520   1.017   9.817 -0.2870 -0.0856 -0.5433
  134MPD2    C5 2087   1.590   1.129   9.838 -0.4369  0.1796 -0.0786
  134MPD2     H 2088   1.795   0.825   9.782  0.0328  0.1878 -0.0447
  134MPD2    H1 2089   1.413   1.019   9.799 -0.2933 -0.7008 -0.5844
  134MPD2    H2 2090   1.773   1.235   9.870  0.1903 -0.5425  0.2406
  134MPD2    H3 2091   1.536   1.222   9.849  1.0768  1.0305  0.0118
  134MPD2     N 2092   1.524   0.778   9.822  0.0248  0.2834  0.4316
  134MPD2    H5 2093   1.423   0.785   9.825 -0.2535 -3.3878 -0.3666
  134MPD2    N1 2094   1.945   1.046   9.804  0.6650 -0.3603  0.3391
  134MPD2    H7 2095   1.981   1.138   9.825 -0.6231 -0.0114  0.9897
  135TMC2    C1 2096   4.206   1.814  10.343 -0.1959 -0.0791 -0.2147
  135TMC2    C2 2097   4.262   1.695  10.320  0.9508  0.6259 -0.3511
  135TMC2    C3 2098   4.238   1.601  10.412 -0.4530  0.8563  0.2669
  135TMC2    C4 2099   4.119   1.825  10.448 -0.6892  0.0533 -0.6488
  135TMC2    C5 2100   4.101   1.726  10.540 -0.1028 -0.0090 -0.3083
  135TMC2    C6 2101   4.153   1.601  10.520  0.0682  0.1411 -0.0752
  135TMC2     C 2102   4.227   1.930  10.256 -0.6441 -0.8781  0.8567
  135TMC2     O 2103   4.194   2.034  10.310 -0.2073 -0.0606  0.3805
  135TMC2     H 2104   4.330   1.678  10.237  0.8879 -1.7062  0.0648
  135TMC2    H1 2105   4.082   1.922  10.480  1.4480  0.9356 -0.8367
  135TMC2    H2 2106   4.139   1.509  10.574 -0.6681  1.3486  1.7997
  135TMC2    C7 2107   4.014   1.743  10.648  0.0516  0.6363 -0.3222
  135TMC2    C8 2108   4.304   1.471  10.385  0.5412  0.4122 -0.4756
  135TMC2    O1 2109   3.988   1.859  10.682  0.0527  0.6984 -0.1774
  135TMC2    O2 2110   4.293   1.406  10.280 -0.0985  0.1111  0.4258
  135TMC2    O5 2111   4.420   1.460  10.463  0.7146  0.2747  0.5378
  135TMC2    H5 2112   4.416   1.498  10.553  1.3015 -0.9371  1.0767
  136MPD2     C 2113   4.275   2.115  10.033 -0.9081  0.0309  0.1423
  136MPD2    C1 2114   4.286   1.979  10.016  0.2197  0.5048 -0.0638
  136MPD2    C2 2115   4.331   1.926   9.894 -0.2878 -0.6920  0.0332
  136MPD2    C3 2116   4.365   2.009   9.792  0.1382 -0.3021 -0.1491
  136MPD2    C4 2117   4.350   2.146   9.811  0.2563 -0.5043 -0.9746
  136MPD2    C5 2118   4.308   2.200   9.932 -0.2512 -1.0239 -0.6115
  136MPD2     H 2119   4.328   1.820   9.868 -0.9490 -0.6252 -0.1648
  136MPD2    H1 2120   4.380   2.212   9.730  1.8165  0.9511  0.7871
  136MPD2    H2 2121   4.258   2.159  10.130  1.9556  0.7874  0.2891
  136MPD2    H3 2122   4.307   2.309   9.937  1.7009 -1.0453  0.0174
  136MPD2     N 2123   4.412   1.966   9.668  0.8262 -0.7456 -0.4319
  136MPD2    H5 2124   4.419   2.041   9.599 -1.2352 -1.3625 -1.3033
  136MPD2    N1 2125   4.259   1.886  10.124 -0.1787 -0.6565 -0.6135
  136MPD2    H7 2126   4.262   1.786  10.105  0.9476 -1.0097  1.5062
  137TMC2    C1 2127   3.570   1.036   9.561 -1.0784 -0.9490  0.1252
  137TMC2    C2 2128   3.623   1.098   9.449  0.0236  0.0281 -0.0184
  137TMC2    C3 2129   3.522   1.141   9.363  0.2013  0.7916  0.0745
  137TMC2    C4 2130   3.439   1.009   9.572 -0.5941  0.4213  0.0553
  137TMC2    C5 2131   3.347   1.063   9.485 -0.5436 -0.3652 -0.3103
  137TMC2    C6 2132   3.392   1.125   9.379 -0.2387 -0.4339 -0.1325
  137TMC2     C 2133   3.654   0.954   9.649 -0.2837  0.6022 -0.2729
  137TMC2     O 2134   3.607   0.876   9.725 -0.2452  0.1718  0.1189
  137TMC2     H 2135   3.721   1.136   9.426  0.4947 -1.0037  0.2941
  137TMC2    H1 2136   3.410   0.920   9.626  1.0176 -0.6088 -0.7879
  137TMC2    H2 2137   3.332   1.162   9.296 -0.8004 -0.0275  0.4517
  137TMC2    C7 2138   3.220   0.995   9.475 -0.1677 -0.0498  0.1746
  137TMC2    C8 2139   3.562   1.230   9.262 -0.1115  0.4424  0.7022
  137TMC2    O1 2140   3.166   0.999   9.366 -0.1921  0.4526  0.2892
  137TMC2    O2 2141   3.666   1.229   9.197 -0.0285  0.1797 -0.4582
  137TMC2    O5 2142   3.486   1.345   9.273  0.5580  0.2083 -0.2085
  137TMC2    H5 2143   3.433   1.352   9.355  1.8036 -0.6599  0.6617
  138MPD2     C 2144   4.016   0.892   9.586  0.3024  0.1810 -0.3755
  138MPD2    C1 2145   3.893   0.876   9.648  0.1357  0.0929  0.1111
  138MPD2    C2 2146   3.894   0.791   9.756  0.6310 -0.2810  0.4545
  138MPD2    C3 2147   3.998   0.717   9.798 -0.2342 -0.0104  0.0808
  138MPD2    C4 2148   4.119   0.732   9.732 -0.3677 -0.4634 -0.0384
  138MPD2    C5 2149   4.122   0.820   9.628  0.1643 -0.9306 -1.0258
  138MPD2     H 2150   3.798   0.784   9.806  0.3562 -2.7827 -0.4283
  138MPD2    H1 2151   4.210   0.690   9.773 -1.3643 -0.5613  2.0788
  138MPD2    H2 2152   4.035   0.969   9.512 -0.8610  0.1242 -0.7372
  138MPD2    H3 2153   4.218   0.841   9.584 -0.0735 -1.6479 -1.8999
  138MPD2     N 2154   3.998   0.623   9.900 -0.6235 -0.5289  0.2487
  138MPD2    H5 2155   4.088   0.575   9.904  0.0716  0.6869 -1.2805
  138MPD2    N1 2156   3.786   0.966   9.606 -0.2627  0.5696 -0.0385
  138MPD2    H7 2157   3.813   1.026   9.529  1.6257 -0.2727 -0.0334
  139TMC2    C1 2158   4.540   3.940  13.567 -1.4556  1.4627 -0.8398
  139TMC2    C2 2159   4.592   4.016  13.462  0.2073 -0.3088  0.1415
  139TMC2    C3 2160   4.525   4.125  13.416  0.2640  0.2793  0.0063
  139TMC2    C4 2161   4.434   3.994  13.644  0.4680  0.1696 -0.0587
  139TMC2    C5 2162   4.387   4.118  13.611  0.0471 -0.6245  0.2599
  139TMC2    C6 2163   4.420   4.182  13.491 -0.3427  0.0090 -1.0649
  139TMC2     C 2164   4.624   3.828  13.606  0.1068  0.6720  0.8254
  139TMC2     O 2165   4.731   3.825  13.548  0.1256 -1.1677  0.1544
  139TMC2     H 2166   4.673   3.983  13.399  0.9464  0.0959  0.8683
  139TMC2    H1 2167   4.397   3.940  13.731  1.3770 -2.1427 -1.1080
  139TMC2    H2 2168   4.354   4.259  13.451  0.1112  0.8088 -0.2864
  139TMC2    C7 2169   4.306   4.192  13.707 -0.2408 -0.5948 -0.1174
  139TMC2    C8 2170   4.551   4.164  13.278 -0.3664  0.0313 -0.0144
  139TMC2    O1 2171   4.210   4.261  13.668  0.2205 -0.1759  0.2237
  139TMC2    O2 2172   4.524   4.091  13.184 -0.2104  0.3428  0.7264
  139TMC2    O5 2173   4.543   4.301  13.283  0.4912  0.4626 -0.1531
  139TMC2    H5 2174   4.557   4.330  13.376 -0.5747  0.9947 -0.1598
  140MPD2     C 2175   4.584   3.570  13.872  0.2569 -0.1135  0.8138
  140MPD2    C1 2176   4.614   3.616  13.744 -0.3529 -0.0241 -0.4573
  140MPD2    C2 2177   4.719   3.552  13.676  0.0825 -0.0248  0.0584
  140MPD2    C3 2178   0.034   3.430  13.719 -0.6736  0.6715  0.0126
  140MPD2    C4 2179   4.724   3.380  13.838  0.0971 -0.0996 -0.6367
  140MPD2    C5 2180   4.644   3.455  13.919 -0.0542 -0.2692  0.3775
  140MPD2     H 2181   0.020   3.602  13.588 -2.1513  0.6442 -0.5736
  140MPD2    H1 2182   4.738   3.279  13.876  0.1511  0.8698  1.9408
  140MPD2    H2 2183   4.521   3.625  13.941  0.3587  0.6162  0.3272
  140MPD2    H3 2184   4.617   3.411  14.014  0.6812  0.5365  0.9550
  140MPD2     N 2185   0.114   3.349  13.639  0.0861 -0.1713 -0.1906
  140MPD2    H5 2186   0.150   3.395  13.556  0.0905  1.4418  0.7016
  140MPD2    N1 2187   4.566   3.743  13.697  0.8350  0.2825 -0.3483
  140MPD2    H7 2188   4.475   3.772  13.730 -0.1251 -2.3115 -0.6662
  141TMC2    C1 2189   0.208   4.641  14.366  0.2958  0.1838 -0.1920
  141TMC2    C2 2190   0.168   4.520  14.318 -0.1471  0.0702  0.1277
  141TMC2    C3 2191   0.094   4.446  14.405  0.3231 -0.1210  0.0132
  141TMC2    C4 2192   0.202   4.685  14.492 -0.3580 -0.3146  0.1576
  141TMC2    C5 2193   0.137   4.608  14.586 -0.1023 -0.0841  0.4899
  141TMC2    C6 2194   0.082   4.488  14.540 -0.3993  0.8848 -0.3137
  141TMC2     C 2195   0.286   4.730  14.274  0.1891 -0.1001  0.0866
  141TMC2     O 2196   0.338   0.091  14.317 -0.3177  0.3669 -0.2274
  141TMC2     H 2197   0.189   4.476  14.221  1.5653  1.5672 -0.1696
  141TMC2    H1 2198   0.246   0.038  14.527  0.6891 -0.7945  0.1060
  141TMC2    H2 2199   0.042   4.415  14.609  0.4799 -0.9727 -1.7617
  141TMC2    C7 2200   0.191   4.606  14.718 -0.0134 -0.3804  0.7103
  141TMC2    C8 2201   0.052   4.315  14.376 -1.2090 -0.2073  0.0265
  141TMC2    O1 2202   0.164   4.498  14.773  0.1980  0.1256 -0.2587
  141TMC2    O2 2203   0.048   4.223  14.454  0.0126 -0.2795 -0.3125
  141TMC2    O5 2204   0.023   4.316  14.247  0.2104 -0.6827  0.5678
  141TMC2    H5 2205   0.020   4.409  14.216  1.0253 -0.9921 -0.4293
  142TMC2    C1 2206   3.194   3.766  10.510 -0.1549 -0.0576  0.7281
  142TMC2    C2 2207   3.237   3.766  10.380 -0.1742 -0.0652  0.1258
  142TMC2    C3 2208   3.300   3.878  10.333 -0.3405  0.4794 -0.1675
  142TMC2    C4 2209   3.220   3.864  10.600 -0.2429  0.0197  0.4919
  142TMC2    C5 2210   3.289   3.967  10.551  0.1820 -0.2748  0.7414
  142TMC2    C6 2211   3.330   3.978  10.422 -0.7639  0.0157  0.5270
  142TMC2     C 2212   3.104   3.652  10.537  0.6737 -0.2056 -0.7920
  142TMC2     O 2213   3.075   3.568  10.454 -0.3554 -0.2433 -0.0682
  142TMC2     H 2214   3.230   3.684  10.310 -1.6230 -0.2547  0.4918
  142TMC2    H1 2215   3.180   3.866  10.701  3.7425  0.9781  2.0337
  142TMC2    H2 2216   3.395   4.060  10.394  0.0023 -0.5476  0.6154
  142TMC2    C7 2217   3.310   4.078  10.644 -0.1805  0.2740  0.3343
  142TMC2    C8 2218   3.324   3.896  10.195  0.2028 -0.7952 -0.4199
  142TMC2    O1 2219   3.289   4.049  10.760 -0.6535 -0.4064  0.0467
  142TMC2    O2 2220   3.243   3.885  10.102  0.2434 -0.3816 -0.1830
  142TMC2    O5 2221   3.457   3.921  10.177 -0.0950 -0.8952 -0.5944
  142TMC2    H5 2222   3.492   3.915  10.268 -1.2352  0.8907 -0.0463
  143MPD2     C 2223   2.861   3.359  10.886  0.2628 -0.0351  0.0931
  143MPD2    C1 2224   2.899   3.333  10.751  0.3620 -0.0446 -0.3752
  143MPD2    C2 2225   2.965   3.428  10.679  0.2027  0.6932 -1.2814
  143MPD2    C3 2226   2.996   3.548  10.737 -0.8103  0.1309  0.0189
  143MPD2    C4 2227   2.968   3.564  10.865 -0.3874  0.1779  0.4083
  143MPD2    C5 2228   2.904   3.477  10.948 -0.4966 -0.2935  0.1682
  143MPD2     H 2229   3.012   3.411  10.583  1.0357 -0.3551 -0.6930
  143MPD2    H1 2230   2.998   3.656  10.913  2.9232 -0.1088 -1.1127
  143MPD2    H2 2231   2.800   3.281  10.929  1.4326 -0.9585  0.0629
  143MPD2    H3 2232   2.883   3.512  11.049 -2.2715  0.4437 -0.4652
  143MPD2     N 2233   3.066   3.650  10.672  0.3702  0.2487  0.0259
  143MPD2    H5 2234   3.092   3.730  10.730 -0.5127  1.3657 -1.1325
  143MPD2    N1 2235   2.845   3.223  10.694  0.0932 -0.3835 -0.3656
  143MPD2    H7 2236   2.800   3.146  10.743  0.7958 -1.2910 -1.1263
  144TMC2    C1 2237   0.735   1.894   0.657  0.1393  0.1826  0.2503
  144TMC2    C2 2238   0.792   1.774   0.637  0.7258 -0.3463 -0.5573
  144TMC2    C3 2239   0.928   1.770   0.643 -0.0001 -0.2096 -0.1452
  144TMC2    C4 2240   0.801   2.013   0.668  0.1357  0.0513 -0.0843
  144TMC2    C5 2241   0.941   2.001   0.669  0.4321  0.3948 -0.1482
  144TMC2    C6 2242   1.003   1.878   0.651  0.2729  0.2151  0.3927
  144TMC2     C 2243   0.586   1.891   0.638 -0.1585  0.1471 -0.4823
  144TMC2     O 2244   0.549   1.801   0.567  0.9803  0.4547  0.1365
  144TMC2     H 2245   0.742   1.678   0.647 -1.2826  0.7674 -0.0381
  144TMC2    H1 2246   0.748   2.107   0.670  0.4227  0.1560  2.0035
  144TMC2    H2 2247   1.108   1.863   0.674  0.2893  1.8914  1.4856
  144TMC2    C7 2248   1.014   2.119   0.701  0.5729 -0.0495  0.3140
  144TMC2    C8 2249   0.987   1.638   0.650 -0.1106 -0.1296 -0.1947
  144TMC2    O1 2250   1.139   2.107   0.691 -0.4882  1.0222 -0.5648
  144TMC2    O2 2251   0.923   1.537   0.663  0.3425  0.6322  0.0674
  144TMC2    O5 2252   1.095   1.647   0.571 -0.3853 -0.1808 -0.1113
  144TMC2    H5 2253   1.122   1.735   0.534 -0.7515 -0.2905 -0.6353
  145MPD2     C 2254   0.186   2.186   0.527  0.4829  0.3187 -0.4816
  145MPD2    C1 2255   0.259   2.103   0.444  0.6249  0.0291  0.3073
  145MPD2    C2 2256   0.371   2.040   0.499 -0.3075 -0.2234  0.7841
  145MPD2    C3 2257   0.405   2.060   0.632 -0.2146  0.0916 -0.3318
  145MPD2    C4 2258   0.333   2.143   0.704 -0.1175 -0.3320  0.7014
  145MPD2    C5 2259   0.225   2.203   0.655 -0.1011  0.1640 -0.0539
  145MPD2     H 2260   0.425   1.968   0.439  1.4796 -0.4993  2.7233
  145MPD2    H1 2261   0.362   2.161   0.807  0.5428  3.0266 -0.0608
  145MPD2    H2 2262   0.101   2.243   0.491 -0.7395 -0.6649  0.8482
  145MPD2    H3 2263   0.178   2.285   0.708  0.4222  0.6621 -0.3640
  145MPD2     N 2264   0.519   2.003   0.688 -0.2794 -0.0116  0.5294
  145MPD2    H5 2265   0.553   2.055   0.768  0.5365 -1.4333  1.0868
  145MPD2    N1 2266   0.230   2.076   0.308  0.2223 -0.1177 -0.0597
  145MPD2    H7 2267   0.270   1.990   0.269 -0.7841 -0.3737 -0.5172
  146TMC2    C1 2268   1.968   1.542  12.380  0.7103 -0.4607 -0.5414
  146TMC2    C2 2269   1.846   1.541  12.322 -0.1455  0.0170  1.1724
  146TMC2    C3 2270   1.839   1.479  12.205  0.2123  0.7433 -0.7235
  146TMC2    C4 2271   2.081   1.484  12.335  0.3195 -0.1008 -0.5763
  146TMC2    C5 2272   2.066   1.418  12.220 -0.1389  0.2166  1.2434
  146TMC2    C6 2273   1.947   1.422  12.146 -0.3307 -0.2076  0.1044
  146TMC2     C 2274   1.983   1.634  12.494  0.6770  0.1436 -0.2463
  146TMC2     O 2275   1.911   1.734  12.503  0.0647  0.1524  0.0237
  146TMC2     H 2276   1.767   1.609  12.351  0.9685  1.2072  1.4106
  146TMC2    H1 2277   2.173   1.479  12.393  0.9908  1.6269 -1.5164
  146TMC2    H2 2278   1.942   1.360  12.057 -0.0156 -1.8697  1.2295
  146TMC2    C7 2279   2.180   1.340  12.175  0.1485  0.2049 -0.2612
  146TMC2    C8 2280   1.707   1.470  12.145 -0.9861 -0.8017  0.3266
  146TMC2    O1 2281   2.187   1.310  12.058  0.3840 -0.4854 -0.2008
  146TMC2    O2 2282   1.682   1.484  12.030  0.5791 -0.3792  0.4615
  146TMC2    O5 2283   1.627   1.416  12.240 -0.6625 -0.5933 -0.8052
  146TMC2    H5 2284   1.662   1.391  12.328  0.1547 -2.0087 -1.5114
  147MPD2     C 2285   2.593   1.058  12.248  0.1855 -0.2975 -0.2448
  147MPD2    C1 2286   2.529   1.057  12.371  0.4541  0.3341  0.0962
  147MPD2    C2 2287   2.418   1.142  12.385  0.0935 -0.3433 -0.7104
  147MPD2    C3 2288   2.367   1.212  12.274 -0.2101 -0.2074  0.7118
  147MPD2    C4 2289   2.429   1.205  12.150  0.3029 -0.9610 -0.1658
  147MPD2    C5 2290   2.546   1.141  12.149 -0.2848  0.3184  0.2737
  147MPD2     H 2291   2.362   1.148  12.477 -1.5338 -0.8587 -1.6695
  147MPD2    H1 2292   2.406   1.262  12.061 -0.8507 -2.5493 -0.8602
  147MPD2    H2 2293   2.680   0.998  12.223 -0.0132 -0.5590 -0.3110
  147MPD2    H3 2294   2.604   1.157  12.059 -2.2911 -0.0892 -1.0950
  147MPD2     N 2295   2.246   1.281  12.280 -0.1814 -0.1226  0.3746
  147MPD2    H5 2296   2.199   1.277  12.370 -1.2336  1.1055 -0.1225
  147MPD2    N1 2297   2.587   0.984  12.475 -0.2036  0.2980  0.5098
  147MPD2    H7 2298   2.672   0.936  12.446 -0.9905 -1.1589  0.6132
  148TMC2    C1 2299   2.063   0.294  11.059 -0.6449 -0.2258  0.1169
  148TMC2    C2 2300   2.202   0.308  11.071 -0.3894 -0.7022  0.1172
  148TMC2    C3 2301   2.282   0.192  11.069 -0.4574  1.2155 -0.1403
  148TMC2    C4 2302   2.000   0.176  11.059 -0.2442  0.8282 -0.3521
  148TMC2    C5 2303   2.079   0.066  11.090  0.2093 -0.6370 -0.5460
  148TMC2    C6 2304   2.219   0.072  11.089  0.7175  0.0028  0.0933
  148TMC2     C 2305   1.996   0.401  10.992 -0.4850  0.0661  0.6259
  148TMC2     O 2306   2.037   0.515  11.018  0.0361 -0.5733  0.0281
  148TMC2     H 2307   2.246   0.405  11.049  0.0381 -0.6558  1.1651
  148TMC2    H1 2308   1.892   0.170  11.066 -0.1394 -0.6225  0.0775
  148TMC2    H2 2309   2.276   4.720  11.086  0.8312  0.0785 -0.0461
  148TMC2    C7 2310   2.024   4.682  11.037  0.1956  0.1984 -0.1916
  148TMC2    C8 2311   2.420   0.193  11.024  0.3077 -0.0666  0.6103
  148TMC2    O1 2312   1.951   4.703  10.940  0.3523 -0.1624  0.1211
  148TMC2    O2 2313   2.490   0.092  11.016  0.3650  0.6666 -0.3093
  148TMC2    O5 2314   2.443   0.299  10.950 -0.0737 -0.2049  0.1328
  148TMC2    H5 2315   2.369   0.357  10.923  1.4226  1.0616 -1.2744
  149MPD2     C 2316   1.804   0.568  10.836  0.2025  0.0455  0.5796
  149MPD2    C1 2317   1.822   0.436  10.827  0.2630  0.5695  0.4699
  149MPD2    C2 2318   1.739   0.373  10.739  0.4528  0.3412  0.3740
  149MPD2    C3 2319   1.645   0.439  10.654 -0.3144  0.1530 -0.2103
  149MPD2    C4 2320   1.645   0.575  10.653 -0.1578 -0.4928  0.5518
  149MPD2    C5 2321   1.723   0.637  10.743 -0.6759  0.6091 -0.3159
  149MPD2     H 2322   1.737   0.265  10.746  2.4894  0.2806  0.0426
  149MPD2    H1 2323   1.582   0.634  10.588  3.1263  1.9282 -0.4702
  149MPD2    H2 2324   1.852   0.625  10.915 -1.8492 -0.9095  2.5167
  149MPD2    H3 2325   1.709   0.745  10.739  0.0289  0.6857 -0.6856
  149MPD2     N 2326   1.555   0.366  10.568 -0.0519 -0.8427 -0.3177
  149MPD2    H5 2327   1.476   0.422  10.537 -0.4016 -1.2044 -0.0742
  149MPD2    N1 2328   1.916   0.354  10.899 -0.3291 -0.1602 -0.0032
  149MPD2    H7 2329   1.893   0.255  10.889  0.7154 -0.6854  3.0651
  150TMC2    C1 2330   4.615   4.389  12.277  0.0290 -0.6540 -0.7068
  150TMC2    C2 2331   4.574   4.516  12.229 -0.4562 -0.5831  0.2828
  150TMC2    C3 2332   4.669   4.609  12.189  0.0452  0.0967  0.6755
  150TMC2    C4 2333   0.006   4.374  12.305  0.0739 -0.0442 -0.2101
  150TMC2    C5 2334   0.096   4.472  12.270 -0.0935 -0.6682 -0.3102
  150TMC2    C6 2335   0.063   4.590  12.218 -0.3992 -0.1336 -0.2754
  150TMC2     C 2336   4.514   4.307  12.337 -0.8924  0.2541  0.0866
  150TMC2     O 2337   4.550   4.220  12.415  0.0074  0.5112  0.4676
  150TMC2     H 2338   4.469   4.544  12.231 -0.6565 -1.2534 -1.0888
  150TMC2    H1 2339   0.036   4.275  12.338 -3.2958 -0.4975  1.5739
  150TMC2    H2 2340   0.134   4.661  12.177 -0.3921 -0.3592 -0.6543
  150TMC2    C7 2341   0.236   4.456  12.319 -0.4211  0.0885 -0.2954
  150TMC2    C8 2342   4.629   4.730  12.117  0.6056 -0.0477  0.4762
  150TMC2    O1 2343   0.329   4.523  12.279  0.1069  0.6296  0.5026
  150TMC2    O2 2344   4.701   0.026  12.024  0.3168 -0.2192 -0.4897
  150TMC2    O5 2345   4.584   0.072  12.210  0.4768  0.0292  0.1729
  150TMC2    H5 2346   4.538   0.018  12.277  1.6637 -0.0062  0.9500
  151MPD2     C 2347   4.037   4.119  12.344  0.2665  0.1678 -0.6891
  151MPD2    C1 2348   4.053   4.198  12.233  0.1737 -0.3962  0.1142
  151MPD2    C2 2349   4.172   4.266  12.212  0.2152  0.1505  0.0975
  151MPD2    C3 2350   4.277   4.259  12.304  0.2848  0.1138 -0.2636
  151MPD2    C4 2351   4.263   4.175  12.415  0.0412  0.3592  0.0240
  151MPD2    C5 2352   4.139   4.111  12.437  0.3745  0.5153 -0.0909
  151MPD2     H 2353   4.191   4.311  12.115 -1.3899  0.9933  0.1780
  151MPD2    H1 2354   4.336   4.165  12.494 -0.2995 -0.6239  0.2223
  151MPD2    H2 2355   3.942   4.072  12.367  1.5433 -3.2333 -2.4086
  151MPD2    H3 2356   4.111   4.057  12.527  2.6078  0.8790  0.8235
  151MPD2     N 2357   4.397   4.334  12.275 -0.0823 -0.8558 -0.1548
  151MPD2    H5 2358   4.392   4.392  12.192  2.0969  0.8083  0.8831
  151MPD2    N1 2359   3.948   4.184  12.144 -0.2672 -1.0491  0.8662
  151MPD2    H7 2360   3.872   4.123  12.171 -0.0093 -2.0540 -0.6506
  152TMC2    C1 2361   4.030   3.903  12.977  0.1279  0.1434 -0.2218
  152TMC2    C2 2362   4.099   3.797  13.032  0.8406  0.2687  0.3089
  152TMC2    C3 2363   4.231   3.811  13.011 -0.1173 -0.9669 -0.4390
  152TMC2    C4 2364   4.079   4.027  12.945  0.0297 -0.5470 -1.2937
  152TMC2    C5 2365   4.216   4.039  12.948  0.1981  0.5411  0.0074
  152TMC2    C6 2366   4.290   3.927  12.984  0.1085  0.7774 -0.4213
  152TMC2     C 2367   3.884   3.880  12.968 -0.3775 -1.5654  0.0870
  152TMC2     O 2368   3.816   3.934  12.887  0.5749 -0.0253 -0.7250
  152TMC2     H 2369   4.064   3.700  13.064 -0.6469  0.8329  0.3833
  152TMC2    H1 2370   4.022   4.108  12.901 -1.4792 -2.0320 -2.0825
  152TMC2    H2 2371   4.399   3.929  12.985  0.1114  0.5312 -0.3739
  152TMC2    C7 2372   4.273   4.153  12.879 -0.7238 -0.1604  0.1443
  152TMC2    C8 2373   4.300   3.682  13.031  0.0305 -0.5780 -0.4611
  152TMC2    O1 2374   4.195   4.192  12.793  0.4321 -0.0506 -0.1033
  152TMC2    O2 2375   4.251   3.586  13.083 -0.7780  0.1177 -0.2175
  152TMC2    O5 2376   4.361   3.666  12.910  0.3011  1.0016 -0.1020
  152TMC2    H5 2377   4.388   3.752  12.870 -0.9735  0.8051 -1.3915
  153MPD2     C 2378   3.695   3.728  13.252  0.1537  0.2136  0.1787
  153MPD2    C1 2379   3.717   3.769  13.123  0.9189 -0.3912  0.3969
  153MPD2    C2 2380   3.610   3.771  13.031 -0.5810  0.2340 -0.0886
  153MPD2    C3 2381   3.478   3.733  13.067  0.0701 -0.1754 -0.2337
  153MPD2    C4 2382   3.455   3.688  13.193 -0.1903  0.2207 -0.2720
  153MPD2    C5 2383   3.566   3.685  13.281  0.2833 -0.0676 -0.2322
  153MPD2     H 2384   3.623   3.796  12.926  1.3375  3.6698  0.9662
  153MPD2    H1 2385   3.363   3.651  13.235 -0.9238 -0.5006 -2.5089
  153MPD2    H2 2386   3.779   3.718  13.320  0.8542  0.4044 -0.6658
  153MPD2    H3 2387   3.550   3.646  13.380  0.3568 -1.2270 -0.6851
  153MPD2     N 2388   3.384   3.737  12.967 -0.4129  0.1795  0.3193
  153MPD2    H5 2389   3.424   3.761  12.877 -0.5009  1.0521  0.5189
  153MPD2    N1 2390   3.851   3.802  13.076 -0.9940 -0.3968  0.2006
  153MPD2    H7 2391   3.927   3.786  13.141 -0.2156  1.8625 -0.1528
  154TMC2    C1 2392   0.767   3.679   0.425  0.1632  0.0764 -0.7571
  154TMC2    C2 2393   0.825   3.768   0.516 -0.1050  0.2295 -0.5919
  154TMC2    C3 2394   0.959   3.767   0.522 -0.1404  0.1935  0.5188
  154TMC2    C4 2395   0.839   3.587   0.354 -0.8557 -0.1934  0.2838
  154TMC2    C5 2396   0.975   3.587   0.367 -0.1236  0.1117 -0.5857
  154TMC2    C6 2397   1.038   3.686   0.441 -0.2640 -0.3396  0.1623
  154TMC2     C 2398   0.621   3.693   0.412  0.5016  0.0390  0.0707
  154TMC2     O 2399   0.551   3.734   0.502  0.2224  0.5407  0.2499
  154TMC2     H 2400   0.762   3.835   0.574  0.1548  0.3050 -0.3939
  154TMC2    H1 2401   0.791   3.512   0.292  1.1281 -1.4208  0.2569
  154TMC2    H2 2402   1.145   3.673   0.457 -0.2630 -0.8529 -0.2789
  154TMC2    C7 2403   1.048   3.498   0.268 -0.3237  0.0734  0.4196
  154TMC2    C8 2404   1.031   3.871   0.604 -0.0672 -0.3257  0.4545
  154TMC2    O1 2405   0.991   3.401   0.223  0.0304 -0.2852  0.6243
  154TMC2    O2 2406   0.966   3.943   0.674  0.2328  0.2056  0.0792
  154TMC2    O5 2407   1.120   3.921   0.521 -0.3395  0.0534  0.5797
  154TMC2    H5 2408   1.163   3.867   0.451  1.5291  0.8297  1.1177
  155MPD2     C 2409   0.423   3.689   0.104  0.0547  0.5743 -0.1372
  155MPD2    C1 2410   0.446   3.711   0.231 -0.3469  0.2065 -0.5943
  155MPD2    C2 2411   0.339   3.734   0.317 -0.9073 -0.2620  0.0792
  155MPD2    C3 2412   0.212   3.754   0.271 -0.2496  0.5749  0.6907
  155MPD2    C4 2413   0.191   3.751   0.131  0.1558 -0.7636  0.4128
  155MPD2    C5 2414   0.298   3.712   0.056 -0.2867  0.7347  0.0989
  155MPD2     H 2415   0.354   3.753   0.422 -1.7349 -0.0417  0.1558
  155MPD2    H1 2416   0.097   3.778   0.083  0.7183  1.7978  0.7672
  155MPD2    H2 2417   0.504   3.669   0.035 -1.4024  0.2022 -1.7226
  155MPD2    H3 2418   0.278   3.689  17.708 -0.1755  0.6546  0.0960
  155MPD2     N 2419   0.111   3.789   0.365 -0.2859  0.4262 -0.1460
  155MPD2    H5 2420   0.136   3.799   0.463  0.6074 -0.6045 -0.2737
  155MPD2    N1 2421   0.579   3.680   0.283  0.1821 -0.9333  0.0070
  155MPD2    H7 2422   0.654   3.668   0.216  0.1920 -0.0247 -0.1457
  156TMC2    C1 2423   4.393   1.809  11.638  0.7233  0.2597 -0.0780
  156TMC2    C2 2424   4.501   1.771  11.560  0.7249  0.5265 -0.5258
  156TMC2    C3 2425   4.501   1.810  11.425  0.2017  0.0270  1.0228
  156TMC2    C4 2426   4.286   1.876  11.587 -0.0621 -0.3591  0.2246
  156TMC2    C5 2427   4.297   1.918  11.456 -0.2553 -0.5445 -0.2253
  156TMC2    C6 2428   4.404   1.892  11.374  0.2903 -0.5814 -0.0091
  156TMC2     C 2429   4.386   1.777  11.781  0.3720 -0.0080 -0.2221
  156TMC2     O 2430   4.283   1.814  11.835 -0.6112 -0.0698 -0.4591
  156TMC2     H 2431   4.574   1.701  11.600  1.2432 -0.0680 -2.5260
  156TMC2    H1 2432   4.200   1.907  11.644  0.2838 -0.2147  0.6714
  156TMC2    H2 2433   4.406   1.927  11.272  0.4477  0.5272  0.3746
  156TMC2    C7 2434   4.188   1.995  11.408 -0.5069  0.1981  0.5663
  156TMC2    C8 2435   4.615   1.757  11.347 -0.4595 -0.2130  0.0796
  156TMC2    O1 2436   4.198   2.097  11.338  0.2395  0.1439  0.3145
  156TMC2    O2 2437   4.652   1.806  11.244 -0.2710  0.1131 -0.2965
  156TMC2    O5 2438   4.603   1.628  11.367 -0.3269  0.1535  0.5257
  156TMC2    H5 2439   4.548   1.591  11.440 -0.2335  2.5663  1.8318
  157MPD2     C 2440   4.597   1.565  11.998  0.4286 -0.3923  0.0472
  157MPD2    C1 2441   4.508   1.668  11.969 -0.0873 -0.3799 -0.6409
  157MPD2    C2 2442   4.429   1.721  12.068 -0.2602 -0.3204 -0.3536
  157MPD2    C3 2443   4.443   1.684  12.199 -0.0847  0.2304  0.1858
  157MPD2    C4 2444   4.525   1.578  12.233 -0.2554  0.3750  0.2828
  157MPD2    C5 2445   4.604   1.525  12.133  0.0760 -0.5872 -0.6690
  157MPD2     H 2446   4.352   1.795  12.048  1.9980  1.8600 -0.9430
  157MPD2    H1 2447   4.530   1.542  12.335 -1.8906 -2.1568 -0.5265
  157MPD2    H2 2448   4.650   1.515  11.917 -2.4885 -0.4124 -1.8318
  157MPD2    H3 2449   4.666   1.437  12.144  1.3956  0.3018 -1.0506
  157MPD2     N 2450   4.363   1.753  12.292 -0.4187  0.1572 -0.4708
  157MPD2    H5 2451   4.324   1.840  12.256  0.1209  0.4475 -0.3459
  157MPD2    N1 2452   4.489   1.705  11.832  0.0437  0.2640  0.5401
  157MPD2    H7 2453   4.563   1.677  11.768  1.0987 -0.5645  2.0942
  158TMC2    C1 2454   4.099   0.628  13.545 -1.3294 -0.0533  0.2764
  158TMC2    C2 2455   4.083   0.685  13.419 -0.0639 -0.4537 -0.0165
  158TMC2    C3 2456   3.957   0.718  13.377 -0.3025 -0.4352 -0.1828
  158TMC2    C4 2457   3.985   0.579  13.614 -0.5782 -0.9704  0.0642
  158TMC2    C5 2458   3.864   0.604  13.564  0.5416  0.4509 -0.0015
  158TMC2    C6 2459   3.845   0.676  13.444  0.1174 -0.0768 -0.0600
  158TMC2     C 2460   4.224   0.564  13.571 -0.5093 -0.0377  0.1238
  158TMC2     O 2461   4.290   0.527  13.475  0.5439 -0.1114  0.1766
  158TMC2     H 2462   4.169   0.718  13.361  0.2823 -0.4393  0.5001
  158TMC2    H1 2463   3.994   0.533  13.712  0.1820 -0.3786  0.2728
  158TMC2    H2 2464   3.744   0.699  13.413 -0.4905 -0.8823  1.3405
  158TMC2    C7 2465   3.750   0.517  13.584 -0.0471 -0.2086 -0.3252
  158TMC2    C8 2466   3.947   0.831  13.288  0.5018 -0.7068 -0.7394
  158TMC2    O1 2467   3.656   0.529  13.503  0.2102  0.5898 -0.5473
  158TMC2    O2 2468   4.020   0.926  13.285  0.2897  0.1782  0.0918
  158TMC2    O5 2469   3.822   0.833  13.235  0.1643 -0.2786 -0.1463
  158TMC2    H5 2470   3.781   0.744  13.234  0.2607 -0.2919 -3.3454
  159MPD2     C 2471   4.561   0.312  13.868 -0.2174 -0.0791  0.1655
  159MPD2    C1 2472   4.441   0.335  13.942  0.7489  0.3651 -0.1319
  159MPD2    C2 2473   4.342   0.421  13.888  0.1808 -0.5228 -0.5637
  159MPD2    C3 2474   4.351   0.467  13.756 -0.2472  0.4149 -0.3709
  159MPD2    C4 2475   4.465   0.432  13.682  0.9469 -0.2365 -0.4170
  159MPD2    C5 2476   4.567   0.356  13.743  0.0839 -0.0072  0.3116
  159MPD2     H 2477   4.258   0.456  13.946  0.2739  1.4954 -1.6642
  159MPD2    H1 2478   4.480   0.453  13.576 -1.1809 -1.2664 -0.9224
  159MPD2    H2 2479   4.645   0.258  13.910 -0.7221 -1.5580 -0.7243
  159MPD2    H3 2480   4.654   0.329  13.686  0.3686  4.2402 -1.2607
  159MPD2     N 2481   4.241   0.547  13.704 -0.2041 -0.1453 -0.5229
  159MPD2    H5 2482   4.171   0.580  13.770  0.3482  2.3783 -1.1905
  159MPD2    N1 2483   4.438   0.278  14.074  0.4698 -0.3166 -0.0447
  159MPD2    H7 2484   4.519   0.224  14.102  1.6354  1.9851  1.0088
  160TMC2    C1 2485   4.628   3.798   1.409  0.2765  0.0072  0.6811
  160TMC2    C2 2486   4.710   3.820   1.513 -0.7301  0.6427  0.1963
  160TMC2    C3 2487   0.027   3.720   1.591  1.2446  0.5397 -0.4739
  160TMC2    C4 2488   4.598   3.667   1.380  0.1107 -0.0269 -0.7050
  160TMC2    C5 2489   4.644   3.570   1.470 -0.4347  0.4663 -0.1888
  160TMC2    C6 2490   4.728   3.589   1.574  0.1731  0.4937 -0.5487
  160TMC2     C 2491   4.537   3.901   1.368 -0.4192 -0.2539 -0.4127
  160TMC2     O 2492   4.571   4.014   1.401 -0.1860  0.3018 -0.5130
  160TMC2     H 2493   0.013   3.918   1.532  1.8482 -0.1485 -1.3995
  160TMC2    H1 2494   4.525   3.643   1.304 -0.9210 -1.2532  0.6639
  160TMC2    H2 2495   0.043   3.508   1.622 -1.4068 -0.0152  0.3626
  160TMC2    C7 2496   4.602   3.430   1.455 -0.4794 -0.3220  0.3169
  160TMC2    C8 2497   0.149   3.757   1.667 -0.1959  0.0188  0.3914
  160TMC2    O1 2498   4.638   3.354   1.547 -0.2697  0.1094  0.2494
  160TMC2    O2 2499   0.217   3.855   1.638  0.1732 -0.3558 -0.3040
  160TMC2    O5 2500   0.164   3.677   1.779 -0.2461  0.0131 -0.0324
  160TMC2    H5 2501   0.083   3.626   1.805 -0.2554 -1.0380 -2.0978
  161MPD2     C 2502   4.358   4.101   1.244 -0.0932 -0.0477  0.3401
  161MPD2    C1 2503   4.339   3.960   1.245  0.2633 -0.3851 -1.0710
  161MPD2    C2 2504   4.219   3.914   1.184 -0.1720  0.1904  0.0874
  161MPD2    C3 2505   4.127   4.003   1.123 -0.5796 -0.1925 -0.4345
  161MPD2    C4 2506   4.145   4.137   1.113 -0.2112 -0.0563 -0.0672
  161MPD2    C5 2507   4.256   4.183   1.185 -0.0342 -0.2870  0.0165
  161MPD2     H 2508   4.200   3.808   1.172  0.0960  0.1194  0.2821
  161MPD2    H1 2509   4.069   4.208   1.084 -0.2622  0.0063  0.2202
  161MPD2    H2 2510   4.439   4.154   1.292 -1.6812  0.1676  2.7563
  161MPD2    H3 2511   4.278   4.289   1.190  2.0124 -0.8275  2.2125
  161MPD2     N 2512   4.004   3.952   1.077  0.5147 -0.4000  0.4535
  161MPD2    H5 2513   3.944   4.017   1.027 -1.5789  0.2318  3.7962
  161MPD2    N1 2514   4.428   3.864   1.297  0.0696  0.0675  0.2934
  161MPD2    H7 2515   4.407   3.766   1.286 -0.6367  0.1884  0.5227
  162TMC2    C1 2516   1.369   4.481   0.835 -0.3091 -0.2394  0.4481
  162TMC2    C2 2517   1.250   4.532   0.876  0.2622  0.2653 -0.6945
  162TMC2    C3 2518   1.247   4.613   0.989 -0.0124 -0.3031 -0.1030
  162TMC2    C4 2519   1.494   4.496   0.900 -0.1858 -0.0720 -0.7428
  162TMC2    C5 2520   1.486   4.590   1.009 -0.2366 -0.5748  0.3074
  162TMC2    C6 2521   1.364   4.637   1.054 -0.4196  0.1544 -0.4658
  162TMC2     C 2522   1.364   4.366   0.756  0.6197 -0.1792 -0.0494
  162TMC2     O 2523   1.266   4.288   0.765  0.7170  0.1034  0.5695
  162TMC2     H 2524   1.158   4.489   0.838  0.3240 -1.0329  0.6675
  162TMC2    H1 2525   1.585   4.446   0.869 -0.8398 -0.7353 -1.6059
  162TMC2    H2 2526   1.351   4.692   1.147 -0.9745 -0.6430 -0.0778
  162TMC2    C7 2527   1.572   4.560   1.123 -0.7747  0.3331 -0.1595
  162TMC2    C8 2528   1.126   4.659   1.042 -0.1512 -0.4970  0.1316
  162TMC2    O1 2529   1.522   4.590   1.230 -0.1350  0.3325 -0.4179
  162TMC2    O2 2530   1.125   4.699   1.159  0.5788  0.2184 -0.2649
  162TMC2    O5 2531   1.053   4.706   0.941 -0.2523 -0.0061  0.3030
  162TMC2    H5 2532   1.089   4.672   0.856  5.0954  3.2814  1.2229
  163MPD2     C 2533   1.480   4.149   0.297 -0.3291  0.2049 -0.3754
  163MPD2    C1 2534   1.562   4.259   0.309 -0.1844  0.1991  0.1950
  163MPD2    C2 2535   1.534   4.334   0.422 -1.0174 -0.2617  1.0168
  163MPD2    C3 2536   1.449   4.305   0.530 -0.1586  0.1980  0.1154
  163MPD2    C4 2537   1.371   4.190   0.511 -0.3074  1.1970 -0.7636
  163MPD2    C5 2538   1.387   4.116   0.393 -0.3977 -0.5822  0.8468
  163MPD2     H 2539   1.590   4.426   0.433  0.8190 -1.2136 -0.5839
  163MPD2    H1 2540   1.292   4.157   0.577 -0.8409  2.3775 -0.8087
  163MPD2    H2 2541   1.513   4.073   0.227  0.4804 -0.9948  1.3194
  163MPD2    H3 2542   1.321   4.032   0.376  1.4478 -1.4744 -2.0171
  163MPD2     N 2543   1.444   4.385   0.647 -0.6143 -0.3862  0.1565
  163MPD2    H5 2544   1.500   4.470   0.651  0.7021 -1.3043  1.1566
  163MPD2    N1 2545   1.686   4.263   0.239  1.4084  0.0287  0.1387
  163MPD2    H7 2546   1.700   4.186   0.174 -0.7083  0.9403 -1.3859
  164TMC2    C1 2547   2.618   4.464  11.144  0.0034 -0.3768 -0.0016
  164TMC2    C2 2548   2.573   4.333  11.162  0.5745 -0.8762 -0.2591
  164TMC2    C3 2549   2.463   4.313  11.237 -0.0314  0.6206 -1.0023
  164TMC2    C4 2550   2.544   4.572  11.193 -0.2411 -0.4488  0.4681
  164TMC2    C5 2551   2.441   4.540  11.284  0.3158  0.1091  0.0800
  164TMC2    C6 2552   2.392   4.413  11.301 -0.0771  0.0218 -0.0102
  164TMC2     C 2553   2.744   4.477  11.069 -0.1501 -0.8894 -0.2568
  164TMC2     O 2554   2.808   4.368  11.059 -0.0481 -0.1170 -0.1438
  164TMC2     H 2555   2.630   4.252  11.117 -2.1573 -3.2160  0.5456
  164TMC2    H1 2556   2.576   4.674  11.176  1.2231 -1.1134 -0.7595
  164TMC2    H2 2557   2.312   4.383  11.367 -0.6219  1.4040 -0.0495
  164TMC2    C7 2558   2.366   4.645  11.330 -0.6184 -0.0642 -0.0648
  164TMC2    C8 2559   2.392   4.191  11.198  0.3031 -0.0316  0.6931
  164TMC2    O1 2560   2.242   4.645  11.336  0.5613  0.8123 -0.0725
  164TMC2    O2 2561   2.320   4.120  11.271 -0.3051  0.4885 -0.5183
  164TMC2    O5 2562   2.425   4.171  11.070 -0.5425 -1.0468 -0.4568
  164TMC2    H5 2563   2.473   4.231  11.010 -0.1036 -1.2535 -0.3136
  165TMC2    C1 2564   3.391   2.196   1.318  0.5636  0.2922  0.2231
  165TMC2    C2 2565   3.309   2.249   1.224  0.0443  0.1712  0.2634
  165TMC2    C3 2566   3.352   2.370   1.166  0.3205  0.2856  0.2575
  165TMC2    C4 2567   3.501   2.257   1.355 -0.3072  0.3043  0.4083
  165TMC2    C5 2568   3.539   2.376   1.301 -0.0701  0.5570 -0.5031
  165TMC2    C6 2569   3.471   2.433   1.195 -0.7952  0.6192  0.5922
  165TMC2     C 2570   3.349   2.082   1.392  0.4038  0.0663  0.3054
  165TMC2     O 2571   3.410   2.068   1.497 -0.0507 -0.0807  0.2740
  165TMC2     H 2572   3.210   2.208   1.206 -0.1589  1.0320 -0.5624
  165TMC2    H1 2573   3.572   2.187   1.397  0.8085  2.9795  2.9990
  165TMC2    H2 2574   3.504   2.530   1.159  1.2353 -0.9150 -1.7108
  165TMC2    C7 2575   3.670   2.428   1.321 -0.4196  0.0802  0.6306
  165TMC2    C8 2576   3.267   2.439   1.080 -0.5099  0.2802  0.5486
  165TMC2    O1 2577   3.724   2.483   1.227 -0.0949 -0.1883 -0.0567
  165TMC2    O2 2578   3.268   2.559   1.069  0.0041 -0.6580  0.5988
  165TMC2    O5 2579   3.199   2.350   1.003 -0.5001  0.1319  0.3733
  165TMC2    H5 2580   3.234   2.259   1.012  0.9191  0.6756  0.4364
  166MPD2     C 2581   3.178   1.597   1.401 -0.1309 -0.0133 -1.6447
  166MPD2    C1 2582   3.296   1.646   1.438 -0.0466  0.6282 -0.2561
  166MPD2    C2 2583   3.306   1.785   1.422 -0.1495 -0.6767  0.2906
  166MPD2    C3 2584   3.217   1.869   1.358  0.0399  0.7550 -0.2080
  166MPD2    C4 2585   3.103   1.809   1.308  0.3148  0.3649  0.0362
  166MPD2    C5 2586   3.083   1.676   1.339  0.4580  0.2469 -0.1540
  166MPD2     H 2587   3.381   1.836   1.482 -1.0344  0.6204  0.2915
  166MPD2    H1 2588   3.023   1.859   1.254 -1.1758 -0.3514  1.5422
  166MPD2    H2 2589   3.166   1.489   1.408 -2.3785  0.2757 -1.1458
  166MPD2    H3 2590   2.989   1.639   1.298  1.9953 -1.3267 -2.2339
  166MPD2     N 2591   3.248   2.008   1.333  0.6563  0.0833 -0.5574
  166MPD2    H5 2592   3.180   2.054   1.274  1.0669  0.8887 -0.4084
  166MPD2    N1 2593   3.388   1.555   1.492  0.5637 -0.3887  0.1975
  166MPD2    H7 2594   3.353   1.462   1.514 -0.7780  0.3648  1.2211
  167TMC2    C1 2595   2.153   4.675  13.324  0.2349 -0.5196 -0.2259
  167TMC2    C2 2596   2.079   4.664  13.436  0.2975  0.0798  0.0035
  167TMC2    C3 2597   2.063   4.544  13.493 -0.0153 -0.4996 -0.4730
  167TMC2    C4 2598   2.224   4.566  13.277 -0.2698  0.0201  0.0464
  167TMC2    C5 2599   2.223   4.450  13.355 -0.4431  0.1447 -0.4603
  167TMC2    C6 2600   2.136   4.439  13.460 -0.0132  0.1292 -0.0664
  167TMC2     C 2601   2.147   0.064  13.260 -0.1435 -0.4638 -0.0440
  167TMC2     O 2602   2.063   0.148  13.291 -0.0174 -0.3340  0.0840
  167TMC2     H 2603   2.021   0.008  13.472 -1.5662 -0.8896 -0.7079
  167TMC2    H1 2604   2.293   4.566  13.193  0.6344 -1.2666  0.8054
  167TMC2    H2 2605   2.119   4.343  13.507  2.4349 -0.1067  0.3564
  167TMC2    C7 2606   2.282   4.317  13.310  0.2113 -0.5332 -0.0701
  167TMC2    C8 2607   2.017   4.546  13.627  0.0552 -0.3217  0.1674
  167TMC2    O1 2608   2.266   4.224  13.387  0.2979  0.5008  0.6991
  167TMC2    O2 2609   2.067   4.475  13.713  0.2575 -0.2312 -0.0889
  167TMC2    O5 2610   1.898   4.610  13.639  0.0378 -0.1281 -0.3101
  167TMC2    H5 2611   1.867   4.640  13.551 -1.2094 -1.1041 -0.1934
  168MPD2     C 2612   2.149   0.257  13.038  0.8944 -0.3717 -0.2199
  168MPD2    C1 2613   2.224   0.141  13.045  0.1891 -0.5414  0.3718
  168MPD2    C2 2614   2.289   0.095  12.939  0.3650 -0.2491  0.0854
  168MPD2    C3 2615   2.263   0.145  12.812  0.1860  0.5729  0.2265
  168MPD2    C4 2616   2.179   0.255  12.801 -0.4296 -0.5890 -0.0370
  168MPD2    C5 2617   2.133   0.317  12.916  0.3509  0.3056  0.3843
  168MPD2     H 2618   2.354   0.008  12.942  1.1795  0.2985 -2.0615
  168MPD2    H1 2619   2.157   0.303  12.707 -1.3861 -1.5918 -0.3244
  168MPD2    H2 2620   2.112   0.298  13.132 -0.3109 -0.3090 -0.7243
  168MPD2    H3 2621   2.082   0.413  12.911 -2.2027 -0.9218  2.6549
  168MPD2     N 2622   2.308   0.065  12.699  0.2370 -0.0448 -0.2279
  168MPD2    H5 2623   2.345   4.715  12.729  1.7520  0.3472 -0.9613
  168MPD2    N1 2624   2.235   0.063  13.156  0.0091  0.6552  0.0172
  168MPD2    H7 2625   2.283   4.713  13.144  0.3911  0.6261  1.7443
  169MPD1     C 2626   3.762   0.497   9.487 -1.3121  0.4571 -0.5227
  169MPD1    C1 2627   3.701   0.372   9.482 -0.2232  0.0350 -0.5779
  169MPD1    C2 2628   3.769   0.265   9.536 -0.4578 -0.2866  0.0447
  169MPD1    C3 2629   3.886   0.285   9.609  0.5020  0.1578 -0.7447
  169MPD1    C4 2630   3.943   0.412   9.610 -0.6158  0.3644 -0.4839
  169MPD1    C5 2631   3.878   0.514   9.548  0.2726 -0.0048  0.0779
  169MPD1     H 2632   3.726   0.166   9.538  0.3578 -0.6341  0.6509
  169MPD1    H1 2633   4.038   0.429   9.661 -0.5544  0.4819 -0.6374
  169MPD1    H2 2634   3.724   0.582   9.430  0.0589  0.4443 -1.4370
  169MPD1    H3 2635   3.921   0.614   9.548 -0.3728  0.2706 -0.2537
  169MPD1     N 2636   3.946   0.173   9.670  0.6311 -0.0350  0.2288
  169MPD1    H5 2637   3.892   0.087   9.676  1.7188 -0.7431 -0.1851
  169MPD1    N1 2638   3.590   0.349   9.400 -0.4405  0.3774 -0.0383
  169MPD1    H6 2639   3.538   0.271   9.439 -1.4463  1.0076 -0.1329
  169MPD1    H7 2640   3.532   0.432   9.405 -0.6700  0.3605 -2.5533
  170MPD1     C 2641   2.896   2.075  13.088 -1.0671 -0.0118 -0.1404
  170MPD1    C1 2642   2.833   2.194  13.090  0.4343 -0.7332 -1.0038
  170MPD1    C2 2643   2.859   2.269  13.208 -0.8823  0.3647  0.5403
  170MPD1    C3 2644   2.926   2.223  13.317  0.8203  0.2839  0.0992
  170MPD1    C4 2645   2.978   2.099  13.310 -0.7058 -0.3145  0.0227
  170MPD1    C5 2646   2.967   2.027  13.192 -0.8151 -0.5386 -0.5153
  170MPD1     H 2647   2.826   2.372  13.212 -3.0925 -0.3307  0.2110
  170MPD1    H1 2648   3.027   2.050  13.393  0.5383  2.3821  0.8945
  170MPD1    H2 2649   2.873   2.010  13.004 -0.5690 -1.4910  0.8549
  170MPD1    H3 2650   3.018   1.932  13.185 -0.1182 -0.1820 -0.3043
  170MPD1     N 2651   2.941   2.304  13.426  0.2048  0.5003 -0.1997
  170MPD1    H5 2652   2.920   2.403  13.430 -5.0091 -0.7176  2.6437
  170MPD1    N1 2653   2.785   2.255  12.974 -0.2919 -0.2895 -0.6319
  170MPD1    H6 2654   2.858   2.321  12.949 -1.9548  0.7056 -2.8140
  170MPD1    H7 2655   2.707   2.317  12.996  2.6698  3.6445 -1.0679
  171MPD1     C 2656   1.071   2.983  15.294  0.6592 -0.1978  0.1478
  171MPD1    C1 2657   1.210   2.961  15.284 -1.0905  0.4749 -0.2620
  171MPD1    C2 2658   1.268   2.904  15.394  0.4864  0.0742  0.6574
  171MPD1    C3 2659   1.199   2.841  15.500 -0.5124  0.9250 -0.3318
  171MPD1    C4 2660   1.059   2.842  15.493 -0.4414 -0.1382  0.2361
  171MPD1    C5 2661   1.001   2.924  15.394  0.7968  0.2781 -1.3287
  171MPD1     H 2662   1.376   2.901  15.399  0.5607  3.1410  0.8479
  171MPD1    H1 2663   1.000   2.786  15.565 -1.1706 -0.5216 -0.6587
  171MPD1    H2 2664   1.009   3.045  15.230  1.5367  1.3147  0.7405
  171MPD1    H3 2665   0.892   2.919  15.400  0.7757  1.3063 -0.9096
  171MPD1     N 2666   1.264   2.772  15.607 -0.3407 -0.1979  0.0245
  171MPD1    H5 2667   1.203   2.741  15.681  0.1184  2.6464  1.5974
  171MPD1    N1 2668   1.284   3.033  15.188  0.4410  0.1828 -0.0402
  171MPD1    H6 2669   1.369   2.978  15.172 -1.0264 -1.9401 -0.5649
  171MPD1    H7 2670   1.232   3.039  15.101  0.2891  2.0835  0.1946
  172MPD1     C 2671   0.596   2.044  17.513  0.4331  0.4737 -0.5215
  172MPD1    C1 2672   0.571   2.176  17.539  1.1976  0.3377 -0.1359
  172MPD1    C2 2673   0.553   2.213  17.677 -1.0055 -0.2587 -0.2653
  172MPD1    C3 2674   0.560   2.121   0.021  0.4186  0.2489 -0.0036
  172MPD1    C4 2675   0.592   1.989  17.744  0.1905  0.2901 -0.0942
  172MPD1    C5 2676   0.604   1.953  17.610 -0.3255 -0.1861  0.2879
  172MPD1     H 2677   0.528   2.316  17.703  2.1999  0.9286 -1.9641
  172MPD1    H1 2678   0.594   1.916   0.069 -2.0134  3.6005  3.0070
  172MPD1    H2 2679   0.617   2.007  17.413  1.3063  1.5649 -0.7370
  172MPD1    H3 2680   0.637   1.851  17.591  0.8402  0.6150 -2.0802
  172MPD1     N 2681   0.542   2.149   0.161  0.1331 -0.5385  0.2832
  172MPD1    H5 2682   0.586   2.085   0.225  2.7787 -0.3610 -1.3730
  172MPD1    N1 2683   0.575   2.277  17.436  0.8794 -0.2252  0.3151
  172MPD1    H6 2684   0.513   2.356  17.450 -1.0531 -1.6423 -0.3361
  172MPD1    H7 2685   0.541   2.242  17.347 -0.0967 -0.3036  0.7285
  173MPD1     C 2686   2.188   2.494  14.232 -0.0658  0.0082 -0.2528
  173MPD1    C1 2687   2.241   2.370  14.258  0.0555  0.1635 -0.1422
  173MPD1    C2 2688   2.160   2.281  14.322  0.4360  0.0751  0.2252
  173MPD1    C3 2689   2.042   2.325  14.378  0.8952 -0.3422  0.0022
  173MPD1    C4 2690   2.002   2.455  14.368 -0.4296  0.2610 -0.9584
  173MPD1    C5 2691   2.077   2.542  14.290  0.0088 -0.5142  0.0244
  173MPD1     H 2692   2.176   2.174  14.324  0.5268  0.0797 -0.3350
  173MPD1    H1 2693   1.918   2.498  14.422  0.6939 -0.3187  1.2606
  173MPD1    H2 2694   2.238   2.561  14.163  1.0187 -1.1046 -0.5366
  173MPD1    H3 2695   2.042   2.643  14.272  0.3899 -0.1348  1.4503
  173MPD1     N 2696   1.966   2.226  14.451 -0.1144  0.1240  0.9141
  173MPD1    H5 2697   2.000   2.131  14.441  0.5850  0.6465 -1.6484
  173MPD1    N1 2698   2.360   2.331  14.192  0.7096  0.9114 -0.4101
  173MPD1    H6 2699   2.421   2.413  14.196  0.8790  0.5848  3.6479
  173MPD1    H7 2700   2.398   2.254  14.246 -0.9925  0.2720 -0.1219
  174MPD1     C 2701   2.110   1.410  14.416  0.0511  0.1410  0.3402
  174MPD1    C1 2702   1.968   1.401  14.408 -1.2164 -0.3406 -1.3909
  174MPD1    C2 2703   1.899   1.523  14.403  0.5523  0.0677 -0.4613
  174MPD1    C3 2704   1.959   1.645  14.426  0.5694 -0.1547 -0.3807
  174MPD1    C4 2705   2.100   1.646  14.436 -0.1885  0.2825 -0.1507
  174MPD1    C5 2706   2.173   1.524  14.435 -0.4194  0.9037  0.9656
  174MPD1     H 2707   1.792   1.510  14.399  0.0961  3.6736  0.4960
  174MPD1    H1 2708   2.159   1.736  14.440 -0.7942  0.7410 -1.3845
  174MPD1    H2 2709   2.166   1.317  14.415 -0.9302 -0.4393 -1.2882
  174MPD1    H3 2710   2.281   1.519  14.435 -0.3478  2.4603  0.9382
  174MPD1     N 2711   1.886   1.767  14.441 -0.6345 -0.2040  0.2071
  174MPD1    H5 2712   1.931   1.857  14.452 -1.1952 -0.0155  0.9895
  174MPD1    N1 2713   1.907   1.278  14.374  0.1438  0.3153  0.1505
  174MPD1    H6 2714   1.954   1.200  14.420  0.2314  0.2659 -0.0235
  174MPD1    H7 2715   1.814   1.280  14.414 -0.6537  0.2884 -1.7038
  175MPD1     C 2716   0.408   3.090  15.434  0.2428 -0.1381  0.3252
  175MPD1    C1 2717   0.413   2.962  15.497 -0.1308  0.0442  0.1006
  175MPD1    C2 2718   0.409   2.960  15.637 -0.0252  0.0679  0.4763
  175MPD1    C3 2719   0.387   3.080  15.711  0.6081  0.5109  0.0029
  175MPD1    C4 2720   0.372   3.199  15.642 -0.2873  0.2897  0.1886
  175MPD1    C5 2721   0.371   3.202  15.510  0.8704  1.1705 -0.3768
  175MPD1     H 2722   0.419   2.861  15.681  0.1580  1.0327  2.5980
  175MPD1    H1 2723   0.355   3.285  15.705 -1.7671  1.8890 -2.4053
  175MPD1    H2 2724   0.415   3.098  15.326 -0.5546 -0.3431  0.2559
  175MPD1    H3 2725   0.361   3.292  15.451  2.2171 -0.1118 -2.5498
  175MPD1     N 2726   0.361   3.072  15.848  0.4244 -0.4990  0.4726
  175MPD1    H5 2727   0.353   3.160  15.898 -0.1340  0.4272 -1.2457
  175MPD1    N1 2728   0.435   2.842  15.426 -0.3511 -0.5397 -1.1186
  175MPD1    H6 2729   0.423   2.869  15.329 -0.2610 -2.1686 -1.5922
  175MPD1    H7 2730   0.364   2.773  15.446  1.3234 -1.9071  0.1209
  176MPD1     C 2731   1.523   0.617  16.607 -0.3025  0.4005 -0.3341
  176MPD1    C1 2732   1.500   0.675  16.729  0.0305 -0.3459 -0.3028
  176MPD1    C2 2733   1.576   0.625  16.838 -0.0815  0.1472 -0.0204
  176MPD1    C3 2734   1.662   0.518  16.837  1.0769 -0.2183 -0.1939
  176MPD1    C4 2735   1.668   0.453  16.713  0.7327 -0.7079 -0.0250
  176MPD1    C5 2736   1.602   0.506  16.603  0.3372 -0.0825 -0.8759
  176MPD1     H 2737   1.563   0.676  16.933 -0.0875  1.7692 -0.8826
  176MPD1    H1 2738   1.729   0.365  16.694 -1.4714 -1.8749 -1.7705
  176MPD1    H2 2739   1.487   0.648  16.510 -0.7212 -0.0496 -0.3251
  176MPD1    H3 2740   1.630   0.460  16.510 -3.7986 -2.1258 -1.0910
  176MPD1     N 2741   1.725   0.473  16.949  0.1524 -0.3152 -0.2388
  176MPD1    H5 2742   1.708   0.527  17.033 -0.8890  0.0439 -0.6881
  176MPD1    N1 2743   1.431   0.796  16.739 -0.6745 -0.2540 -0.2443
  176MPD1    H6 2744   1.381   0.789  16.827 -0.6262 -2.1793 -0.3641
  176MPD1    H7 2745   1.349   0.793  16.678 -0.3898  0.0230 -0.6359
  177MPD1     C 2746   0.775   1.015  10.553  0.1472  0.8387 -0.1416
  177MPD1    C1 2747   0.836   1.084  10.452  0.0050 -0.0755  0.3224
  177MPD1    C2 2748   0.808   1.040  10.324 -0.2425  0.2842 -0.5543
  177MPD1    C3 2749   0.730   0.931  10.294  0.2688 -0.2767 -0.2226
  177MPD1    C4 2750   0.677   0.855  10.398  0.0392  0.0706  0.0658
  177MPD1    C5 2751   0.699   0.899  10.530  0.1421 -0.2390  0.3824
  177MPD1     H 2752   0.845   1.100  10.242  2.2815 -2.1516 -1.1822
  177MPD1    H1 2753   0.630   0.758  10.385 -0.1066  0.1916 -0.3157
  177MPD1    H2 2754   0.786   1.054  10.654  2.0470 -1.8948  0.7007
  177MPD1    H3 2755   0.668   0.851  10.622  0.0740  0.4924  0.7357
  177MPD1     N 2756   0.718   0.885  10.151  0.3748  0.3474 -0.8622
  177MPD1    H5 2757   0.768   0.941  10.083  1.1575  0.6207 -0.0600
  177MPD1    N1 2758   0.908   1.204  10.480 -0.0204  0.2902 -0.1357
  177MPD1    H6 2759   0.943   1.191  10.575  0.9384  1.3991 -0.3336
  177MPD1    H7 2760   0.988   1.229  10.422 -0.3997  0.8192 -0.4180
  178MPD1     C 2761   2.147   0.698  17.555 -0.4173 -0.0908  0.0876
  178MPD1    C1 2762   2.248   0.702  17.648 -0.9680 -0.5222  0.0458
  178MPD1    C2 2763   2.359   0.784  17.632  0.0040 -0.1307  0.7476
  178MPD1    C3 2764   2.367   0.873  17.526  0.2575 -0.1022  0.3754
  178MPD1    C4 2765   2.263   0.878  17.440  0.4250 -0.7046 -0.2510
  178MPD1    C5 2766   2.151   0.793  17.457 -0.0387  0.0526 -0.0454
  178MPD1     H 2767   2.440   0.765  17.702  0.3654 -0.0358  0.3595
  178MPD1    H1 2768   2.267   0.942  17.353  1.7430 -1.3760 -0.6830
  178MPD1    H2 2769   2.062   0.630  17.559  0.0873 -0.6689  0.9580
  178MPD1    H3 2770   2.074   0.802  17.382 -0.6571 -2.9215  0.2606
  178MPD1     N 2771   2.475   0.945  17.486  0.2754  0.7954  0.3444
  178MPD1    H5 2772   2.474   0.986  17.393  1.5700  1.4624  0.6200
  178MPD1    N1 2773   2.251   0.600  17.747  0.7184 -0.6223 -0.6254
  178MPD1    H6 2774   2.308   0.629   0.070 -1.5435 -2.7132  1.7981
  178MPD1    H7 2775   2.159   0.567   0.022  0.6097  2.1809  2.0990
  179MPD1     C 2776   2.640   4.580  15.765  0.7933  0.3199 -0.8336
  179MPD1    C1 2777   2.576   4.512  15.662  0.3812  0.4645 -0.1000
  179MPD1    C2 2778   2.554   4.380  15.681 -0.5453 -0.0589  0.2231
  179MPD1    C3 2779   2.568   4.315  15.804  0.5372  0.3795 -0.7985
  179MPD1    C4 2780   2.622   4.383  15.910 -0.6092 -0.2643 -0.3156
  179MPD1    C5 2781   2.667   4.508  15.880  0.2702 -0.3521 -0.1895
  179MPD1     H 2782   2.507   4.324  15.602  1.0719 -0.7356 -0.2596
  179MPD1    H1 2783   2.638   4.341  16.009  2.1067  0.2906 -0.5300
  179MPD1    H2 2784   2.678   4.682  15.758  1.8184 -0.0651 -0.8165
  179MPD1    H3 2785   2.733   4.558  15.950  1.4387  0.4288 -1.8117
  179MPD1     N 2786   2.542   4.181  15.831 -0.5867 -0.4913  0.6194
  179MPD1    H5 2787   2.552   4.148  15.927 -0.9382  0.9953  1.1743
  179MPD1    N1 2788   2.565   4.567  15.532  0.1428  0.0692 -0.7037
  179MPD1    H6 2789   2.565   4.668  15.540  0.4862 -0.2394  3.0296
  179MPD1    H7 2790   2.483   4.531  15.483 -0.0264  1.2047 -1.2369
  180MPD1     C 2791   2.491   1.066  15.614 -0.1378 -0.9026 -0.8078
  180MPD1    C1 2792   2.591   1.043  15.529  0.0776  0.2334  0.3262
  180MPD1    C2 2793   2.555   1.034  15.393 -0.8355 -0.0556  0.2964
  180MPD1    C3 2794   2.426   1.055  15.345  0.8170 -0.4565  0.3572
  180MPD1    C4 2795   2.324   1.068  15.437  0.3502  0.0815  0.0748
  180MPD1    C5 2796   2.362   1.091  15.565  0.2573  0.5660  0.3397
  180MPD1     H 2797   2.632   1.017  15.319  0.3394  0.4019  1.4136
  180MPD1    H1 2798   2.220   1.088  15.416  0.7054 -0.4383 -2.1663
  180MPD1    H2 2799   2.502   1.080  15.720  0.9605 -0.7191 -0.9449
  180MPD1    H3 2800   2.295   1.128  15.641 -1.8222 -1.4004 -0.5300
  180MPD1     N 2801   2.418   1.053  15.202  0.2566  0.6751 -0.2723
  180MPD1    H5 2802   2.504   1.038  15.150 -0.4317  1.2987 -1.5795
  180MPD1    N1 2803   2.718   1.004  15.576  0.6716  0.2947  0.6697
  180MPD1    H6 2804   2.797   1.004  15.512 -0.0724 -1.6177 -0.2645
  180MPD1    H7 2805   2.732   1.044  15.669  2.0596  0.1342  0.5282
  181MPD1     C 2806   4.036   2.387  10.437 -0.0803  0.3378  0.1049
  181MPD1    C1 2807   4.037   2.506  10.503  0.0807 -0.2451 -0.2741
  181MPD1    C2 2808   4.135   2.595  10.477 -0.6165  1.0022  0.4211
  181MPD1    C3 2809   4.220   2.576  10.362 -0.2312 -0.0146  0.5544
  181MPD1    C4 2810   4.210   2.459  10.287 -0.2681 -0.6225  0.2687
  181MPD1    C5 2811   4.114   2.365  10.324 -0.3297  0.1577 -0.6924
  181MPD1     H 2812   4.147   2.687  10.534 -2.5829  0.2956  1.9590
  181MPD1    H1 2813   4.270   2.432  10.202 -0.6821  1.9216 -0.8258
  181MPD1    H2 2814   3.960   2.314  10.459 -0.5375  1.2233  1.4598
  181MPD1    H3 2815   4.109   2.273  10.268 -2.4639 -0.9522  1.3308
  181MPD1     N 2816   4.322   2.665  10.325  0.4756 -0.5077 -0.4109
  181MPD1    H5 2817   4.397   2.625  10.269  0.3526 -0.7247 -0.4217
  181MPD1    N1 2818   3.975   2.511  10.628  0.1454 -0.0707  0.0200
  181MPD1    H6 2819   3.886   2.464  10.643 -0.7432  1.6147  0.0336
  181MPD1    H7 2820   3.988   2.592  10.688  1.9132 -0.1220 -0.2801
  182MPD1     C 2821   4.655   2.412   1.974 -0.2302 -0.3527 -0.1435
  182MPD1    C1 2822   0.011   2.413   1.867 -0.2837  0.4629  0.1474
  182MPD1    C2 2823   4.700   2.393   1.737 -0.3096 -0.0831 -0.2709
  182MPD1    C3 2824   4.563   2.356   1.716  0.5708  1.1830  0.3288
  182MPD1    C4 2825   4.482   2.349   1.831  0.1788 -0.0288  1.3524
  182MPD1    C5 2826   4.528   2.374   1.949  0.6049 -0.6614  0.1887
  182MPD1     H 2827   0.027   2.422   1.656 -1.5143  1.1670 -0.8205
  182MPD1    H1 2828   4.378   2.322   1.822  0.8353 -1.4443 -2.2894
  182MPD1    H2 2829   4.681   2.439   2.076  0.2100 -0.5547 -0.2014
  182MPD1    H3 2830   4.459   2.359   2.031  1.7100 -0.0348  1.2322
  182MPD1     N 2831   4.510   2.326   1.589 -0.3626  0.0252  0.0430
  182MPD1    H5 2832   4.419   2.280   1.585  0.0044 -0.8512  1.6085
  182MPD1    N1 2833   0.153   2.417   1.883  0.1559  0.7125 -0.2304
  182MPD1    H6 2834   0.203   2.464   1.808  0.9277  0.1921 -0.0478
  182MPD1    H7 2835   0.188   2.452   1.972  2.0240 -0.1908 -0.6149
  183MPD1     C 2836   0.603   1.902   8.894 -0.4061  0.0114 -0.0468
  183MPD1    C1 2837   0.693   1.954   8.991 -0.5085  0.1443 -0.3676
  183MPD1    C2 2838   0.660   2.072   9.058 -0.2880 -0.1310  0.4181
  183MPD1    C3 2839   0.543   2.138   9.028  0.6238 -0.2018  0.1551
  183MPD1    C4 2840   0.454   2.087   8.931 -0.0262  0.3801 -0.4591
  183MPD1    C5 2841   0.486   1.975   8.867 -0.7576 -0.7691  0.3126
  183MPD1     H 2842   0.726   2.111   9.136  1.0155 -0.9626 -0.2762
  183MPD1    H1 2843   0.352   2.118   8.910 -0.3142 -0.0303  0.3213
  183MPD1    H2 2844   0.625   1.806   8.850 -1.9239  0.3509 -1.5570
  183MPD1    H3 2845   0.412   1.938   8.798  1.3361 -3.8531 -0.2617
  183MPD1     N 2846   0.509   2.246   9.113 -0.5962 -0.5535  0.5397
  183MPD1    H5 2847   0.567   2.272   9.191 -0.1866  0.3400 -0.0675
  183MPD1    N1 2848   0.810   1.883   9.009 -0.4217 -0.0400 -0.1215
  183MPD1    H6 2849   0.884   1.941   9.047 -0.2836 -1.5912  2.0009
  183MPD1    H7 2850   0.842   1.841   8.922 -2.2953  1.5813 -1.6055
  184MPD1     C 2851   4.367   0.487  10.104  0.5543 -0.1403  0.1901
  184MPD1    C1 2852   4.344   0.476   9.968 -0.4796 -0.3421 -0.1449
  184MPD1    C2 2853   4.412   0.568   9.890 -0.1927  0.3421 -0.3947
  184MPD1    C3 2854   4.523   0.636   9.943 -0.2549  0.5840  0.1238
  184MPD1    C4 2855   4.560   0.623  10.073 -0.1333 -0.0170  0.0363
  184MPD1    C5 2856   4.478   0.551  10.152 -0.0628  0.3342 -0.9278
  184MPD1     H 2857   4.379   0.583   9.787 -1.4250 -1.9819 -0.3540
  184MPD1    H1 2858   4.636   0.685  10.118  0.9511 -0.9751 -0.4937
  184MPD1    H2 2859   4.305   0.426  10.168  0.6291  0.6077  0.9824
  184MPD1    H3 2860   4.485   0.569  10.259  0.3058 -0.5095 -0.8028
  184MPD1     N 2861   4.598   0.729   9.876 -0.4374  0.7173  0.5300
  184MPD1    H5 2862   4.692   0.739   9.914 -0.2006  0.2722  0.0766
  184MPD1    N1 2863   4.224   0.409   9.924 -0.4109 -1.4567  0.0452
  184MPD1    H6 2864   4.213   0.331   9.988  1.7378 -1.1825  0.7521
  184MPD1    H7 2865   4.225   0.361   9.835  1.5451 -1.3070 -0.0069
  185MPD1     C 2866   0.070   0.896   8.866  0.3378  0.0900  0.7812
  185MPD1    C1 2867   4.707   0.967   8.919  0.3759 -0.5055 -0.3480
  185MPD1    C2 2868   4.709   0.999   9.054 -0.5170 -1.2949  0.1205
  185MPD1    C3 2869   0.082   0.985   9.131 -0.4473 -0.7722  0.0180
  185MPD1    C4 2870   0.194   0.929   9.072 -0.2081  0.4991  1.0584
  185MPD1    C5 2871   0.184   0.877   8.943 -0.1833  1.0219  0.4113
  185MPD1     H 2872   4.623   1.039   9.107 -0.0057  1.3572 -1.0950
  185MPD1    H1 2873   0.286   0.907   9.126  1.3958  1.2695 -1.3554
  185MPD1    H2 2874   0.072   0.863   8.763 -0.0885  0.3611  0.6836
  185MPD1    H3 2875   0.269   0.821   8.905 -0.7700  0.7477 -0.5203
  185MPD1     N 2876   0.092   0.990   9.274 -0.2292  0.0245  0.3167
  185MPD1    H5 2877   0.176   0.951   9.315 -0.9160 -2.3749 -0.5798
  185MPD1    N1 2878   4.582   0.962   8.857 -0.3609 -0.6032 -0.1399
  185MPD1    H6 2879   4.587   0.972   8.756  0.4596 -1.3681 -0.1687
  185MPD1    H7 2880   4.512   1.029   8.889  0.3279 -1.1484  2.5298
  186MPD1     C 2881   2.988   4.014  15.716  0.7623 -0.1387 -0.2289
  186MPD1    C1 2882   3.069   4.007  15.829  0.4966  0.4814  0.0052
  186MPD1    C2 2883   3.113   4.121  15.879  0.1244 -0.2054 -0.3486
  186MPD1    C3 2884   3.065   4.248  15.841 -0.3312  0.0889  0.2422
  186MPD1    C4 2885   2.979   4.250  15.735 -0.0249  0.1952  0.6174
  186MPD1    C5 2886   2.955   4.135  15.665 -0.2780 -0.2148  0.0559
  186MPD1     H 2887   3.193   4.128  15.952  0.4966  2.4930 -1.0094
  186MPD1    H1 2888   2.936   4.344  15.701 -0.4509  0.6962  2.5319
  186MPD1    H2 2889   2.956   3.923  15.666  1.9581 -0.7779  0.1542
  186MPD1    H3 2890   2.889   4.151  15.581 -0.8281  0.8672  0.7062
  186MPD1     N 2891   3.094   4.369  15.906  0.4301 -0.0021  0.0729
  186MPD1    H5 2892   3.049   4.447  15.860  1.7506  0.3053 -0.6762
  186MPD1    N1 2893   3.137   3.888  15.867 -0.7315 -0.6638  0.4241
  186MPD1    H6 2894   3.081   3.805  15.851  0.9034 -1.7371  0.2666
  186MPD1    H7 2895   3.169   3.890  15.963 -0.0437  0.2554  0.1760
  187MPD1     C 2896   2.466   1.690   0.334  0.6539  0.3322 -0.0835
  187MPD1    C1 2897   2.366   1.607   0.289 -0.2211 -0.3592 -0.4632
  187MPD1    C2 2898   2.356   1.595   0.151 -0.6381 -0.4788 -0.3741
  187MPD1    C3 2899   2.433   1.666   0.063  0.5343 -0.2889  0.4302
  187MPD1    C4 2900   2.540   1.740   0.112  0.0216  0.0776  0.5704
  187MPD1    C5 2901   2.550   1.748   0.249  1.0203 -0.4517 -0.0528
  187MPD1     H 2902   2.288   1.523   0.107 -2.1580 -0.7926  2.4877
  187MPD1    H1 2903   2.598   1.801   0.043 -0.0250  0.0648  0.5193
  187MPD1    H2 2904   2.482   1.709   0.440  0.4869 -2.1196  0.3732
  187MPD1    H3 2905   2.631   1.811   0.282  1.1171 -0.3123 -0.5436
  187MPD1     N 2906   2.409   1.663  17.677 -0.3485  0.6129 -0.2857
  187MPD1    H5 2907   2.474   1.706  17.613 -1.3516  3.5770  0.6749
  187MPD1    N1 2908   2.301   1.518   0.374 -0.3646 -0.0126 -0.1286
  187MPD1    H6 2909   2.281   1.562   0.464 -0.8371 -0.8580  0.1758
  187MPD1    H7 2910   2.218   1.486   0.325 -0.3450  0.8678 -0.7259
  188MPD1     C 2911   2.544   2.022  10.975 -0.6315 -0.5418  0.1717
  188MPD1    C1 2912   2.510   2.021  10.839  0.2758  0.5217  0.0376
  188MPD1    C2 2913   2.431   1.915  10.805 -0.3088 -0.5458 -0.3263
  188MPD1    C3 2914   2.359   1.832  10.892  0.2704 -1.2242  0.3004
  188MPD1    C4 2915   2.378   1.863  11.026 -0.0367 -0.5455 -0.3556
  188MPD1    C5 2916   2.474   1.951  11.059  0.1103 -0.4053 -0.4620
  188MPD1     H 2917   2.419   1.893  10.699 -0.1730  1.1035 -0.6781
  188MPD1    H1 2918   2.325   1.810  11.105  1.3093 -0.9766  0.2554
  188MPD1    H2 2919   2.606   2.099  11.021  1.1368 -1.0087 -1.4509
  188MPD1    H3 2920   2.495   1.970  11.163  1.0862  0.6566 -0.8581
  188MPD1     N 2921   2.270   1.726  10.855  0.2406  0.4069 -0.9533
  188MPD1    H5 2922   2.243   1.658  10.926  0.5564  0.8031 -0.4578
  188MPD1    N1 2923   2.585   2.093  10.742 -0.9996 -0.0948  0.0208
  188MPD1    H6 2924   2.622   2.180  10.779  0.7533  1.1437 -4.5372
  188MPD1    H7 2925   2.530   2.114  10.658 -0.6423  0.1595 -0.1493
  189MPD1     C 2926   4.116   1.684   0.671 -0.4449  0.1630  0.5575
  189MPD1    C1 2927   3.995   1.620   0.668 -1.0661  0.5045 -0.0849
  189MPD1    C2 2928   3.889   1.686   0.607 -0.2179  0.5786 -0.7354
  189MPD1    C3 2929   3.895   1.810   0.551  0.1439 -0.3232  0.2232
  189MPD1    C4 2930   4.017   1.871   0.549  0.6108 -0.3778 -0.0340
  189MPD1    C5 2931   4.123   1.808   0.610 -0.6288 -0.1927 -0.5389
  189MPD1     H 2932   3.806   1.619   0.590  0.3394  0.3325 -2.5022
  189MPD1    H1 2933   4.040   1.966   0.501  0.9474 -0.9003 -0.9109
  189MPD1    H2 2934   4.201   1.636   0.719 -1.3697 -1.7644  0.2864
  189MPD1    H3 2935   4.222   1.852   0.615 -0.1117 -1.3277 -0.7088
  189MPD1     N 2936   3.779   1.851   0.500 -0.6593  0.1510  0.0040
  189MPD1    H5 2937   3.698   1.793   0.517 -0.2491 -0.0340  1.3259
  189MPD1    N1 2938   3.981   1.486   0.694 -0.1991  0.8088 -0.4455
  189MPD1    H6 2939   4.042   1.448   0.767 -1.5650 -1.1224 -0.3258
  189MPD1    H7 2940   3.886   1.457   0.714 -0.2179  0.3136 -1.2649
  190MPD1     C 2941   2.510   0.482  15.185 -0.4901  0.2992 -0.0826
  190MPD1    C1 2942   2.474   0.603  15.237 -0.3548  0.1940  0.3828
  190MPD1    C2 2943   2.547   0.659  15.343  0.1982  0.2003  0.3810
  190MPD1    C3 2944   2.656   0.598  15.394  0.4741  0.1809  0.4689
  190MPD1    C4 2945   2.694   0.476  15.340 -0.1345 -0.2944  0.1571
  190MPD1    C5 2946   2.614   0.419  15.247 -0.6159  0.2623  0.2763
  190MPD1     H 2947   2.511   0.753  15.384  0.6480 -0.2818  1.8379
  190MPD1    H1 2948   2.782   0.423  15.377 -0.5368 -1.3378 -0.3675
  190MPD1    H2 2949   2.456   0.441  15.100 -2.5547  0.1224  1.3036
  190MPD1    H3 2950   2.619   0.315  15.218  1.7950  0.8568 -1.4083
  190MPD1     N 2951   2.733   0.675  15.488 -0.5062 -0.1157  0.1629
  190MPD1    H5 2952   2.704   0.762  15.531  0.6459 -0.7201  2.1162
  190MPD1    N1 2953   2.375   0.682  15.173 -0.2128 -0.1439  0.2551
  190MPD1    H6 2954   2.316   0.726  15.243  1.0801  1.5596  0.2922
  190MPD1    H7 2955   2.309   0.623  15.124  0.7931 -0.5082 -0.6429
  191MPD1     C 2956   1.791   2.748  13.298  0.1689 -0.5852  0.7203
  191MPD1    C1 2957   1.688   2.817  13.251  0.0020 -0.4139  0.2772
  191MPD1    C2 2958   1.713   2.943  13.198  0.1744 -0.5156  0.0267
  191MPD1    C3 2959   1.838   2.978  13.156  0.3210  0.1469  0.9973
  191MPD1    C4 2960   1.946   2.897  13.194 -0.2270  0.0178 -0.5933
  191MPD1    C5 2961   1.923   2.781  13.261 -0.1453  0.1792 -0.3869
  191MPD1     H 2962   1.636   3.014  13.169  0.7752  0.5951  1.1865
  191MPD1    H1 2963   2.050   2.923  13.175  0.7638 -2.9936  0.7282
  191MPD1    H2 2964   1.779   2.662  13.363  0.2440  1.6104  3.6376
  191MPD1    H3 2965   2.001   2.711  13.290  1.1337  2.1303  0.8940
  191MPD1     N 2966   1.849   3.093  13.069  0.9358 -0.1322 -0.2839
  191MPD1    H5 2967   1.764   3.128  13.026  0.7569 -1.8643 -1.3490
  191MPD1    N1 2968   1.555   2.777  13.269  0.5531  0.5145  0.3336
  191MPD1    H6 2969   1.529   2.678  13.268  1.2475  0.3560 -1.3158
  191MPD1    H7 2970   1.493   2.836  13.215  0.2139 -0.6088 -0.5077
  192MPD1     C 2971   1.267   3.742  12.735 -0.0561 -0.4364  0.9081
  192MPD1    C1 2972   1.273   3.614  12.777 -0.0621  0.4252 -0.2573
  192MPD1    C2 2973   1.401   3.557  12.799 -0.0458  0.0905  0.5614
  192MPD1    C3 2974   1.518   3.619  12.749 -0.3428  0.8926 -0.0753
  192MPD1    C4 2975   1.507   3.742  12.701  0.2336 -0.2161  0.1999
  192MPD1    C5 2976   1.385   3.807  12.697 -0.2800  0.3840  0.2011
  192MPD1     H 2977   1.402   3.463  12.853  0.8273 -0.5205 -0.5222
  192MPD1    H1 2978   1.596   3.791  12.663 -0.7479  1.5015  0.0947
  192MPD1    H2 2979   1.170   3.784  12.714 -0.1569 -0.9841  0.2741
  192MPD1    H3 2980   1.388   3.900  12.641 -0.1005  0.6649  0.6793
  192MPD1     N 2981   1.647   3.566  12.761  0.3284  0.0620  0.0213
  192MPD1    H5 2982   1.727   3.627  12.749  0.2454  0.6049  2.1107
  192MPD1    N1 2983   1.156   3.549  12.824  0.3298  0.2140 -0.2931
  192MPD1    H6 2984   1.171   3.449  12.813 -1.4653 -0.2466  1.6075
  192MPD1    H7 2985   1.071   3.590  12.786  1.3387 -0.2738 -3.0719
  193MPD1     C 2986   1.062   2.796  16.881 -0.4158 -0.0533 -0.0959
  193MPD1    C1 2987   1.170   2.730  16.819 -0.5419 -0.0790  0.2555
  193MPD1    C2 2988   1.290   2.797  16.825  0.1830  0.1190  0.0586
  193MPD1    C3 2989   1.311   2.912  16.900  0.0106  0.2710  0.0592
  193MPD1    C4 2990   1.208   2.971  16.957 -0.4340 -0.1593  0.2042
  193MPD1    C5 2991   1.083   2.914  16.948  0.6277 -0.3166 -0.4135
  193MPD1     H 2992   1.368   2.762  16.757  0.9116  0.3273  0.7894
  193MPD1    H1 2993   1.215   3.069  17.002 -0.2968  0.2450 -0.6944
  193MPD1    H2 2994   0.962   2.759  16.861  0.1515 -1.1701 -0.7896
  193MPD1    H3 2995   0.993   2.967  16.978  1.5317  0.3582  1.0719
  193MPD1     N 2996   1.438   2.976  16.923  0.1889 -0.2423 -0.1172
  193MPD1    H5 2997   1.433   3.075  16.945 -0.5836 -0.1644 -0.6514
  193MPD1    N1 2998   1.157   2.622  16.729 -0.5839 -0.3721  0.2805
  193MPD1    H6 2999   1.078   2.559  16.736 -0.5386 -0.2088  2.2737
  193MPD1    H7 3000   1.244   2.570  16.714 -0.8808 -1.0274  0.8337
  194MPD1     C 3001   3.719   0.583  17.011 -0.1311  0.6859 -0.1347
  194MPD1    C1 3002   3.815   0.559  16.920 -0.1096  0.2503  0.7603
  194MPD1    C2 3003   3.911   0.458  16.940 -0.3013  0.3586 -0.6762
  194MPD1    C3 3004   3.903   0.382  17.052 -0.4791  0.8140  0.1857
  194MPD1    C4 3005   3.804   0.404  17.143  0.1520  0.0088 -0.0553
  194MPD1    C5 3006   3.714   0.501  17.119 -0.1365  0.0719 -0.5008
  194MPD1     H 3007   3.985   0.450  16.860 -0.2222 -1.5659 -0.4136
  194MPD1    H1 3008   3.796   0.341  17.231  2.1585 -0.5812 -0.2943
  194MPD1    H2 3009   3.641   0.656  16.992  0.2707  1.5997  1.7039
  194MPD1    H3 3010   3.627   0.498  17.183  0.9629 -0.2283  0.9621
  194MPD1     N 3011   4.011   0.304  17.094  0.0612 -0.4087 -0.0327
  194MPD1    H5 3012   4.013   0.254  17.182  0.5310 -0.3803 -0.0278
  194MPD1    N1 3013   3.837   0.664  16.832  0.5546 -0.3369 -0.0692
  194MPD1    H6 3014   3.881   0.626  16.748  0.6659 -0.2848 -0.0347
  194MPD1    H7 3015   3.743   0.694  16.810  0.2218 -0.6367  0.9727
  195MPD1     C 3016   1.988   2.091   0.048  0.0741 -0.0773  0.2341
  195MPD1    C1 3017   1.921   2.031   0.154 -0.8304 -0.2394 -0.6048
  195MPD1    C2 3018   1.947   1.898   0.174  0.3043 -0.3135 -0.2968
  195MPD1    C3 3019   2.025   1.823   0.091 -0.4404  0.2527 -0.3146
  195MPD1    C4 3020   2.077   1.881  17.738 -0.3671  0.1213 -0.7958
  195MPD1    C5 3021   2.070   2.016  17.714 -0.7713 -0.3040 -0.3614
  195MPD1     H 3022   1.915   1.857   0.269  0.8513 -1.9202 -0.8195
  195MPD1    H1 3023   2.150   1.824  17.682 -0.2594  0.0119 -0.5456
  195MPD1    H2 3024   1.972   2.196   0.024 -0.9528 -0.5029 -0.9109
  195MPD1    H3 3025   2.133   2.057  17.637 -0.4741 -2.8133 -1.4586
  195MPD1     N 3026   2.033   1.677   0.103 -0.3823  0.4878  0.1040
  195MPD1    H5 3027   2.076   1.628   0.024 -0.1104 -0.0055  0.5540
  195MPD1    N1 3028   1.854   2.111   0.250 -0.0592 -0.1052  0.4758
  195MPD1    H6 3029   1.790   2.061   0.312 -0.3292 -0.0551  0.2419
  195MPD1    H7 3030   1.791   2.175   0.201 -1.2552  0.7714  3.1420
  196MPD1     C 3031   0.761   0.628   0.436 -0.2238  0.3241 -0.0877
  196MPD1    C1 3032   0.813   0.739   0.382 -0.7834  0.4452 -0.0153
  196MPD1    C2 3033   0.823   0.846   0.469  0.4622 -0.1245 -0.3231
  196MPD1    C3 3034   0.773   0.853   0.607 -0.3956 -0.5103  0.3111
  196MPD1    C4 3035   0.716   0.740   0.652  0.8872  0.3152  0.0291
  196MPD1    C5 3036   0.711   0.631   0.568  0.0055  0.3165  0.4128
  196MPD1     H 3037   0.862   0.935   0.420  1.2499 -1.0010 -1.2744
  196MPD1    H1 3038   0.680   0.732   0.754 -1.8982  1.6748 -0.8400
  196MPD1    H2 3039   0.752   0.535   0.381  2.1146  1.0747 -1.7536
  196MPD1    H3 3040   0.678   0.533   0.598  0.3947 -0.3862 -1.4354
  196MPD1     N 3041   0.777   0.956   0.698 -0.1043 -0.6034  0.5932
  196MPD1    H5 3042   0.747   0.938   0.793 -1.2643 -0.1380  0.3122
  196MPD1    N1 3043   0.858   0.746   0.250 -0.0562  0.0376 -0.7032
  196MPD1    H6 3044   0.887   0.657   0.212 -1.5884 -0.9156  0.3365
  196MPD1    H7 3045   0.937   0.808   0.233  1.2992 -1.8793 -1.2578
  197MPD1     C 3046   0.320   3.589  17.450 -0.6999  0.1138 -0.2086
  197MPD1    C1 3047   0.327   3.614  17.319  0.2900 -0.5950 -0.2076
  197MPD1    C2 3048   0.410   3.539  17.235  0.3338 -0.4566 -0.6820
  197MPD1    C3 3049   0.486   3.437  17.294 -0.6640 -0.0129  0.0670
  197MPD1    C4 3050   0.478   3.404  17.428  0.0602 -0.3038 -0.9432
  197MPD1    C5 3051   0.399   3.483  17.503  0.6375 -0.0663  0.5554
  197MPD1     H 3052   0.417   3.569  17.131 -0.9799 -2.7808 -1.4465
  197MPD1    H1 3053   0.528   3.319  17.473 -0.8911 -0.4644 -0.2081
  197MPD1    H2 3054   0.256   3.646  17.516 -1.3882 -0.6908 -0.1749
  197MPD1    H3 3055   0.388   3.464  17.609  1.5319  0.3209  0.7202
  197MPD1     N 3056   0.580   3.367  17.220  0.7980 -0.0926  0.2352
  197MPD1    H5 3057   0.646   3.305  17.266  0.3022 -2.2126 -1.8950
  197MPD1    N1 3058   0.262   3.729  17.273  0.0166 -0.0986  0.2809
  197MPD1    H6 3059   0.183   3.757  17.331  1.2087  0.6770  1.5214
  197MPD1    H7 3060   0.242   3.720  17.174  1.6829 -1.8605  0.1077
  198MPD1     C 3061   2.353   1.811  14.626 -0.2813 -0.6206 -0.0223
  198MPD1    C1 3062   2.395   1.937  14.657 -0.3839 -0.3715 -0.6115
  198MPD1    C2 3063   2.393   1.972  14.792 -0.0823 -0.0232 -0.0987
  198MPD1    C3 3064   2.353   1.891  14.896 -0.2826  0.1507  0.3087
  198MPD1    C4 3065   2.321   1.762  14.862  0.4863  0.2130 -0.5988
  198MPD1    C5 3066   2.318   1.729  14.731  0.1159 -0.0961  0.4216
  198MPD1     H 3067   2.411   2.077  14.811 -0.1812  0.2872 -1.6786
  198MPD1    H1 3068   2.295   1.693  14.942  2.1470 -0.6334 -0.7882
  198MPD1    H2 3069   2.365   1.771  14.526  1.3306  1.0289 -0.5072
  198MPD1    H3 3070   2.293   1.626  14.705  2.7277 -0.6137  0.0102
  198MPD1     N 3071   2.352   1.938  15.026 -0.4369 -0.3844  0.3672
  198MPD1    H5 3072   2.397   2.027  15.042 -1.6835  0.1342  0.9351
  198MPD1    N1 3073   2.405   2.035  14.556 -0.7174  0.0979  0.1241
  198MPD1    H6 3074   2.460   2.009  14.475  0.2550 -0.4541  0.9615
  198MPD1    H7 3075   2.451   2.114  14.601 -1.5872  0.3774  0.5364
  199MPD1     C 3076   4.455   3.915  10.846 -0.3726 -0.2429  0.0388
  199MPD1    C1 3077   4.449   3.774  10.836 -0.5187  0.0976 -0.1854
  199MPD1    C2 3078   4.436   3.708  10.713 -0.1243  0.2117  0.2467
  199MPD1    C3 3079   4.395   3.788  10.609  0.4646 -0.1359 -0.5575
  199MPD1    C4 3080   4.383   3.926  10.628  0.1880 -0.0292  0.0184
  199MPD1    C5 3081   4.413   3.992  10.744  0.1495 -0.2909  0.0023
  199MPD1     H 3082   4.435   3.601  10.697 -0.7653  0.3108 -0.4009
  199MPD1    H1 3083   4.339   3.988  10.550  0.8663  1.3763  0.7552
  199MPD1    H2 3084   4.484   3.960  10.941 -1.6901 -1.5450  1.0595
  199MPD1    H3 3085   4.406   4.099  10.753  0.1096 -0.2200 -0.9314
  199MPD1     N 3086   4.356   3.742  10.481 -0.0665 -0.2916  0.2250
  199MPD1    H5 3087   4.315   3.814  10.422 -0.3890 -0.0501  0.7371
  199MPD1    N1 3088   4.494   3.695  10.952 -0.2348  0.0737 -0.4093
  199MPD1    H6 3089   4.476   3.742  11.040  0.3857  1.8733 -1.2529
  199MPD1    H7 3090   4.459   3.599  10.959  0.8286 -0.1950  1.2137
  200MPD1     C 3091   3.052   3.183  15.456  0.5835  0.0044 -0.1536
  200MPD1    C1 3092   3.047   3.234  15.332 -1.1006 -0.1468  0.7619
  200MPD1    C2 3093   3.156   3.208  15.245 -0.1068 -0.2607 -0.9561
  200MPD1    C3 3094   3.267   3.138  15.288 -0.3338 -0.1148  0.3006
  200MPD1    C4 3095   3.276   3.116  15.424  0.2335 -0.5085  0.0188
  200MPD1    C5 3096   3.171   3.139  15.504  0.0495 -0.4574  0.3111
  200MPD1     H 3097   3.150   3.227  15.138  4.0846 -0.0673 -1.1583
  200MPD1    H1 3098   3.364   3.066  15.465 -1.5205 -1.0733  3.1203
  200MPD1    H2 3099   2.975   3.186  15.532 -0.2808  1.4931 -1.0874
  200MPD1    H3 3100   3.179   3.118  15.610 -0.3795 -0.4174  0.3494
  200MPD1     N 3101   3.374   3.116  15.194 -0.0784  0.4924  0.4154
  200MPD1    H5 3102   3.354   3.166  15.108  0.2565  1.4217  0.8797
  200MPD1    N1 3103   2.926   3.266  15.287  0.1248  0.2805  0.1655
  200MPD1    H6 3104   2.875   3.315  15.359 -0.4666 -0.6958  0.4073
  200MPD1    H7 3105   2.934   3.320  15.201  0.6376 -1.4368 -0.8661
  201MPD1     C 3106   0.595   2.673  13.377  0.6651  0.3780 -0.3667
  201MPD1    C1 3107   0.534   2.562  13.337  0.1471 -0.5995  0.0890
  201MPD1    C2 3108   0.614   2.447  13.329  0.1041  0.3747  0.2362
  201MPD1    C3 3109   0.751   2.454  13.332 -0.2400  0.0582 -0.4543
  201MPD1    C4 3110   0.814   2.578  13.356  0.3388  0.0858 -0.0625
  201MPD1    C5 3111   0.730   2.682  13.383  0.3737  0.4173 -0.5184
  201MPD1     H 3112   0.571   2.349  13.311 -0.7351  0.8803 -0.4970
  201MPD1    H1 3113   0.920   2.599  13.351  0.0851  1.0206 -1.3498
  201MPD1    H2 3114   0.540   2.764  13.396  2.5491  1.5640 -0.6491
  201MPD1    H3 3115   0.771   2.780  13.407  1.3224 -0.2174  0.4197
  201MPD1     N 3116   0.828   2.332  13.318  0.0175 -0.6899  1.0708
  201MPD1    H5 3117   0.775   2.251  13.287 -0.6661 -0.0364  0.5340
  201MPD1    N1 3118   0.394   2.556  13.336 -0.5317 -0.5801 -0.1419
  201MPD1    H6 3119   0.346   2.645  13.319  0.0883 -0.1433  0.3922
  201MPD1    H7 3120   0.351   2.477  13.288 -0.3345  1.9931 -4.6375
  202MPD1     C 3121   1.386   1.412   9.325 -0.4203 -0.0542 -1.4598
  202MPD1    C1 3122   1.273   1.479   9.291 -0.2853  0.4238  0.5634
  202MPD1    C2 3123   1.204   1.543   9.397  0.3318  0.4239 -0.1707
  202MPD1    C3 3124   1.229   1.511   9.526 -0.7854  0.2610  0.0493
  202MPD1    C4 3125   1.336   1.428   9.560 -0.1024 -0.0878 -0.3687
  202MPD1    C5 3126   1.415   1.382   9.458 -0.2528  1.4914 -0.5347
  202MPD1     H 3127   1.128   1.617   9.376 -0.3051 -0.2699 -0.2883
  202MPD1    H1 3128   1.355   1.401   9.663 -1.6821  2.0402  0.4974
  202MPD1    H2 3129   1.444   1.354   9.255 -0.5991  0.3779 -1.9706
  202MPD1    H3 3130   1.496   1.314   9.481  1.3468  4.4658  2.5758
  202MPD1     N 3131   1.157   1.568   9.639  0.7071  0.2257 -0.0028
  202MPD1    H5 3132   1.183   1.542   9.734  0.0831 -1.4420 -0.2845
  202MPD1    N1 3133   1.268   1.534   9.161 -0.2309 -0.2598 -0.1246
  202MPD1    H6 3134   1.172   1.552   9.134 -0.0724 -0.2687 -0.7165
  202MPD1    H7 3135   1.306   1.468   9.093 -1.9422 -0.4989 -0.8509
  203MPD1     C 3136   3.908   2.593  12.846  0.4458 -0.5065 -0.2611
  203MPD1    C1 3137   3.910   2.466  12.797  0.2291  0.2997  0.4075
  203MPD1    C2 3138   4.014   2.385  12.843  0.0549  0.5751 -0.1130
  203MPD1    C3 3139   4.099   2.427  12.949  0.8257 -0.0399  0.2789
  203MPD1    C4 3140   4.089   2.555  12.988 -0.0584  0.6368 -0.4993
  203MPD1    C5 3141   3.997   2.636  12.937  0.0433 -0.2026  0.2737
  203MPD1     H 3142   4.019   2.284  12.806 -1.8784  0.8183 -1.0322
  203MPD1    H1 3143   4.157   2.596  13.062 -1.8701  0.7407  1.1057
  203MPD1    H2 3144   3.842   2.664  12.796  3.0007  0.6436 -2.0380
  203MPD1    H3 3145   3.997   2.742  12.963  0.8208 -0.3698  0.9423
  203MPD1     N 3146   4.197   2.332  12.993 -0.1623  0.2660  0.5225
  203MPD1    H5 3147   4.199   2.242  12.947  3.1854  0.7189 -0.2777
  203MPD1    N1 3148   3.838   2.430  12.678  0.1748 -0.0975 -0.2955
  203MPD1    H6 3149   3.745   2.471  12.677  0.4610  0.5593  1.0183
  203MPD1    H7 3150   3.831   2.331  12.654 -3.5254  0.0363  0.1364
  204MPD1     C 3151   3.642   3.875   0.248 -0.8482 -1.0834  0.1723
  204MPD1    C1 3152   3.676   3.756   0.302  0.3449 -0.1754 -1.4417
  204MPD1    C2 3153   3.741   3.671   0.222  0.2283  0.2085  0.2677
  204MPD1    C3 3154   3.802   3.714   0.103 -0.5905  0.2651  0.7719
  204MPD1    C4 3155   3.775   3.842   0.061 -0.0451 -0.4489  0.3025
  204MPD1    C5 3156   3.693   3.921   0.136  0.0890  0.4935 -0.5311
  204MPD1     H 3157   3.761   3.569   0.254 -0.7345  0.2341  0.9601
  204MPD1    H1 3158   3.817   3.873  17.722 -0.7006 -2.9325 -0.7809
  204MPD1    H2 3159   3.577   3.946   0.297  1.4695  0.7290  0.6073
  204MPD1    H3 3160   3.660   4.018   0.098  1.5859  0.7450 -1.1932
  204MPD1     N 3161   3.886   3.626   0.038  0.7683  0.4056 -0.0370
  204MPD1    H5 3162   3.868   3.527   0.044 -0.2110  0.4819 -1.6924
  204MPD1    N1 3163   3.590   3.696   0.403 -0.1122  0.5737 -0.0842
  204MPD1    H6 3164   3.633   3.620   0.454  1.5439  1.0192 -0.8195
  204MPD1    H7 3165   3.563   3.765   0.473  1.2801  0.9653  0.0717
  205MPD1     C 3166   4.310   2.045  16.916 -0.1643  0.5958  0.7000
  205MPD1    C1 3167   4.323   2.181  16.924 -0.2560  0.0287  0.2469
  205MPD1    C2 3168   4.337   2.237  17.046  0.4260 -0.7060 -0.0285
  205MPD1    C3 3169   4.320   2.160  17.163 -0.2401 -0.3951 -0.2906
  205MPD1    C4 3170   4.309   2.023  17.152 -1.0619 -0.0122  0.3311
  205MPD1    C5 3171   4.302   1.963  17.029  0.0448 -0.1185  0.3037
  205MPD1     H 3172   4.352   2.344  17.051  2.3261 -0.9300 -0.8309
  205MPD1    H1 3173   4.275   1.964  17.236 -0.9787  0.8553  0.9673
  205MPD1    H2 3174   4.317   1.990  16.823  0.4335 -1.3144  1.8678
  205MPD1    H3 3175   4.283   1.857  17.016  0.8177  0.0426 -2.0567
  205MPD1     N 3176   4.306   2.212  17.295 -0.1744  0.3113  0.2296
  205MPD1    H5 3177   4.301   2.153  17.377 -2.4600  0.5429  0.2572
  205MPD1    N1 3178   4.355   2.255  16.810 -0.2341 -0.3151 -0.0460
  205MPD1    H6 3179   4.327   2.353  16.810  0.1426 -0.1973 -1.8809
  205MPD1    H7 3180   4.305   2.210  16.734  0.5928  0.6285 -1.1611
  206MPD1     C 3181   0.028   0.213  17.114 -0.2743 -0.4119 -0.2086
  206MPD1    C1 3182   0.125   0.227  17.012  0.1361  1.1583 -0.1663
  206MPD1    C2 3183   0.080   0.228  16.880 -0.0284 -0.2040 -0.5008
  206MPD1    C3 3184   4.681   0.238  16.854 -0.4704  0.1170 -0.4833
  206MPD1    C4 3185   4.596   0.239  16.962  0.3186  0.3158  0.0654
  206MPD1    C5 3186   4.636   0.222  17.090 -0.3317 -0.7420 -0.2503
  206MPD1     H 3187   0.144   0.222  16.792 -1.9385 -2.6745 -1.7439
  206MPD1    H1 3188   4.491   0.238  16.936 -0.2142  0.9725  2.1649
  206MPD1    H2 3189   0.058   0.231  17.216 -0.4048  2.7903 -0.7242
  206MPD1    H3 3190   4.558   0.247  17.162 -0.2242 -0.5857 -0.1893
  206MPD1     N 3191   4.614   0.254  16.727 -0.0412 -0.3253 -0.3975
  206MPD1    H5 3192   4.512   0.253  16.726 -0.0734  0.1194  2.4785
  206MPD1    N1 3193   0.262   0.203  17.040  0.0902  0.4238  0.2786
  206MPD1    H6 3194   0.299   0.232  17.131  3.9939  0.3129 -1.2558
  206MPD1    H7 3195   0.311   0.254  16.967  1.1007  0.2023  0.7940
  207MPD1     C 3196   2.603   3.081   9.737  0.8858  0.0490  1.0430
  207MPD1    C1 3197   2.579   2.946   9.778 -0.4706 -0.0280  0.0799
  207MPD1    C2 3198   2.575   2.920   9.920 -0.1743  0.5232 -0.2195
  207MPD1    C3 3199   2.626   3.022  10.008 -0.3296  0.1779  0.0964
  207MPD1    C4 3200   2.658   3.149   9.962 -0.5634 -0.7357 -0.3858
  207MPD1    C5 3201   2.637   3.182   9.826  0.2960  0.4695 -0.2346
  207MPD1     H 3202   2.558   2.822   9.963  0.8327  0.1133 -0.7759
  207MPD1    H1 3203   2.699   3.228  10.024 -0.3745  0.1062 -1.5850
  207MPD1    H2 3204   2.616   3.101   9.631  0.6799 -0.2707  0.9543
  207MPD1    H3 3205   2.656   3.282   9.789 -0.7621  0.9918  0.6417
  207MPD1     N 3206   2.654   3.009  10.142  0.1501  0.6931  0.1138
  207MPD1    H5 3207   2.700   3.092  10.180 -2.0989  1.2659  1.5724
  207MPD1    N1 3208   2.553   2.848   9.685  0.2201  0.9882 -0.6953
  207MPD1    H6 3209   2.579   2.873   9.590 -0.8179 -0.2533 -1.3103
  207MPD1    H7 3210   2.577   2.752   9.710  2.4178  1.1096 -2.4365
  208MPD1     C 3211   0.813   1.593   0.181 -0.4399 -0.0455 -0.0959
  208MPD1    C1 3212   0.789   1.557   0.310  0.7677 -0.9084  0.5684
  208MPD1    C2 3213   0.656   1.569   0.347  0.7879  0.0361  0.6801
  208MPD1    C3 3214   0.556   1.627   0.268  0.4011  0.3548 -0.4268
  208MPD1    C4 3215   0.587   1.675   0.148 -0.5595 -0.1340 -0.2046
  208MPD1    C5 3216   0.713   1.653   0.104 -0.0718  0.4052 -0.3427
  208MPD1     H 3217   0.635   1.529   0.446 -1.9448 -0.4922 -0.1195
  208MPD1    H1 3218   0.516   1.710   0.074 -1.5590 -2.4181 -0.3111
  208MPD1    H2 3219   0.908   1.568   0.135  2.1218  0.9005  4.6936
  208MPD1    H3 3220   0.734   1.686   0.003  2.0794 -1.4602 -0.5207
  208MPD1     N 3221   0.424   1.643   0.330  0.4308 -0.1913  0.3213
  208MPD1    H5 3222   0.411   1.607   0.424 -1.3720 -1.2948 -0.3473
  208MPD1    N1 3223   0.872   1.467   0.377  0.3085  0.1487  0.2473
  208MPD1    H6 3224   0.874   1.486   0.478  0.2377 -2.6668  0.7701
  208MPD1    H7 3225   0.969   1.471   0.346 -0.2728  0.5690 -1.4872
  209MPD1     C 3226   1.965   1.743  11.320  0.4002  1.0466  0.1283
  209MPD1    C1 3227   1.987   1.814  11.205  0.1984  0.7403  0.2985
  209MPD1    C2 3228   2.081   1.904  11.204 -0.8474 -0.2061 -0.4237
  209MPD1    C3 3229   2.141   1.941  11.319  0.6010  0.4153  0.1715
  209MPD1    C4 3230   2.120   1.868  11.436  0.1208 -0.8043  0.3059
  209MPD1    C5 3231   2.026   1.765  11.440 -0.2669 -0.1679  0.0306
  209MPD1     H 3232   2.112   1.952  11.112  0.8323 -1.8453 -0.7234
  209MPD1    H1 3233   2.169   1.896  11.528  0.1394 -2.5051  0.8124
  209MPD1    H2 3234   1.907   1.651  11.317  2.4944 -0.2919  0.9918
  209MPD1    H3 3235   2.015   1.706  11.530  1.9597  0.7999  0.9539
  209MPD1     N 3236   2.241   2.047  11.316  0.1423 -0.5712  0.1832
  209MPD1    H5 3237   2.234   2.115  11.241 -1.2943 -1.2160 -0.2683
  209MPD1    N1 3238   1.938   1.762  11.081  0.9403 -0.3135 -0.6087
  209MPD1    H6 3239   1.941   1.830  11.006  2.8615 -0.3250 -0.5366
  209MPD1    H7 3240   1.849   1.713  11.092  0.4378  0.6597 -0.3377
  210MPD1     C 3241   2.566   2.508  12.143  0.5063  1.1695  0.2606
  210MPD1    C1 3242   2.649   2.561  12.047 -0.0468  0.2693 -0.2432
  210MPD1    C2 3243   2.623   2.531  11.910  0.5175  0.3405  0.3704
  210MPD1    C3 3244   2.509   2.461  11.876 -1.1685  0.1865 -0.7677
  210MPD1    C4 3245   2.415   2.438  11.975  0.2621  0.1123 -0.8791
  210MPD1    C5 3246   2.446   2.457  12.108 -0.5451 -0.1393 -0.1125
  210MPD1     H 3247   2.704   2.555  11.842  0.6297  3.1247  1.4472
  210MPD1    H1 3248   2.325   2.385  11.947 -0.7942  1.1596  0.5264
  210MPD1    H2 3249   2.574   2.521  12.250  0.6505  1.7838  0.1723
  210MPD1    H3 3250   2.380   2.422  12.187 -1.1641 -0.5171 -0.7968
  210MPD1     N 3251   2.480   2.421  11.741 -0.0405 -0.0995  0.4783
  210MPD1    H5 3252   2.391   2.375  11.725 -0.2906  1.1092 -1.5771
  210MPD1    N1 3253   2.779   2.598  12.088 -0.4431  0.5229  0.1402
  210MPD1    H6 3254   2.793   2.636  12.182  6.8256 -0.3304 -0.5983
  210MPD1    H7 3255   2.819   2.667  12.024 -0.3836 -0.8243 -1.2641
  211MPD1     C 3256   4.522   1.997  15.272  0.6940 -0.1591  0.9273
  211MPD1    C1 3257   4.560   2.037  15.395 -0.6054 -0.0945  0.6804
  211MPD1    C2 3258   4.456   2.057  15.484 -0.1766  0.2244 -0.4435
  211MPD1    C3 3259   4.320   2.065  15.449 -0.5248 -0.2687 -0.5837
  211MPD1    C4 3260   4.288   2.042  15.318 -0.7762  0.0862  0.7350
  211MPD1    C5 3261   4.393   2.003  15.235  0.5601  0.6365  0.4721
  211MPD1     H 3262   4.487   2.088  15.583  2.2301 -0.7270 -0.8836
  211MPD1    H1 3263   4.191   2.045  15.271 -0.1232  0.7477 -0.5501
  211MPD1    H2 3264   4.586   1.982  15.185 -0.6738 -0.4874 -0.0198
  211MPD1    H3 3265   4.363   1.994  15.131  1.1815  1.1051  0.2560
  211MPD1     N 3266   4.219   2.103  15.544  0.3381  0.1092  0.1672
  211MPD1    H5 3267   4.253   2.125  15.637  1.5191  1.0467 -0.4771
  211MPD1    N1 3268   4.694   2.022  15.433  0.1407 -0.2038  0.5637
  211MPD1    H6 3269   4.724   2.081  15.510 -0.6808  0.8550  0.0707
  211MPD1    H7 3270   0.025   2.033  15.361 -0.9993 -0.7112 -0.6398
  212MPD1     C 3271   3.491   0.722  16.703 -0.1311  0.5575 -0.0451
  212MPD1    C1 3272   3.419   0.743  16.814 -0.1171 -0.1952 -0.1888
  212MPD1    C2 3273   3.377   0.633  16.883  0.3521  0.3016 -0.2282
  212MPD1    C3 3274   3.420   0.511  16.842  0.3126  0.2325  0.1943
  212MPD1    C4 3275   3.488   0.488  16.724  0.0814 -0.3402 -0.1329
  212MPD1    C5 3276   3.535   0.601  16.657  0.2523 -0.3995 -0.3754
  212MPD1     H 3277   3.319   0.639  16.974  0.8627  1.6440  0.0157
  212MPD1    H1 3278   3.497   0.387  16.685  0.1206  0.0762 -1.1986
  212MPD1    H2 3279   3.498   0.801  16.628  1.4461  1.8831  1.5104
  212MPD1    H3 3280   3.580   0.588  16.559  1.6448 -0.6115  0.2906
  212MPD1     N 3281   3.387   0.388  16.914 -0.0899 -0.2415  0.1907
  212MPD1    H5 3282   3.410   0.295  16.880  1.1808 -0.7165  2.3308
  212MPD1    N1 3283   3.372   0.865  16.852  0.0605 -0.5874 -0.2337
  212MPD1    H6 3284   3.433   0.946  16.845 -0.5250 -0.0850  0.4379
  212MPD1    H7 3285   3.336   0.860  16.947  2.5458  1.9296  0.8368
  213MPD1     C 3286   2.013   0.837  15.773 -0.1109 -0.4754  0.3714
  213MPD1    C1 3287   1.888   0.784  15.763 -0.2041  0.4459 -0.0046
  213MPD1    C2 3288   1.814   0.834  15.649 -0.5777  0.1064 -0.1789
  213MPD1    C3 3289   1.851   0.954  15.592  0.3393 -0.8490 -0.6595
  213MPD1    C4 3290   1.955   1.027  15.645  0.2813 -0.0445 -0.1292
  213MPD1    C5 3291   2.041   0.965  15.728  0.2474  0.1060  0.4876
  213MPD1     H 3292   1.732   0.771  15.615  1.3686 -1.9808 -1.0289
  213MPD1    H1 3293   1.991   1.119  15.601 -1.7010  2.3826  3.3518
  213MPD1    H2 3294   2.094   0.792  15.828 -0.5902  1.0243  2.3193
  213MPD1    H3 3295   2.135   1.013  15.751 -0.2972  2.0314 -1.2963
  213MPD1     N 3296   1.774   0.987  15.481  0.3970  0.1852  0.2362
  213MPD1    H5 3297   1.703   0.916  15.468  1.7804 -1.2262  0.3180
  213MPD1    N1 3298   1.886   0.656  15.804  0.3740 -0.0029 -0.2517
  213MPD1    H6 3299   1.793   0.616  15.800  0.6257 -0.6796  0.5873
  213MPD1    H7 3300   1.932   0.652  15.895  0.2452 -2.0787 -0.2998
  214MPD1     C 3301   1.273   0.804  14.643  0.6508  0.4781  0.3635
  214MPD1    C1 3302   1.347   0.922  14.620  0.2893  0.1524 -1.1088
  214MPD1    C2 3303   1.404   0.987  14.725 -0.4604 -0.2720 -0.0815
  214MPD1    C3 3304   1.397   0.934  14.855 -0.8646  0.0789  0.2248
  214MPD1    C4 3305   1.338   0.808  14.861  0.1906  0.7563 -1.0730
  214MPD1    C5 3306   1.280   0.739  14.759 -0.5214 -0.0423  0.1584
  214MPD1     H 3307   1.474   1.068  14.712 -0.1905 -0.9722 -3.1304
  214MPD1    H1 3308   1.317   0.764  14.958 -1.7074 -0.6986 -2.1615
  214MPD1    H2 3309   1.221   0.761  14.558  0.6500 -1.4906  1.3567
  214MPD1    H3 3310   1.227   0.646  14.776 -1.3569  0.6511  1.2927
  214MPD1     N 3311   1.454   1.001  14.967  0.0084 -0.0248  0.3313
  214MPD1    H5 3312   1.500   1.090  14.950  2.6486 -1.0114  2.3164
  214MPD1    N1 3313   1.344   0.990  14.500 -0.2595 -0.7940 -0.0857
  214MPD1    H6 3314   1.363   0.934  14.417  2.0982 -0.0429 -0.0474
  214MPD1    H7 3315   1.405   1.071  14.499 -0.3130 -0.7542 -0.1294
  215MPD1     C 3316   1.895   2.010  10.759 -0.7673  0.2019 -0.1831
  215MPD1    C1 3317   1.786   2.085  10.803  0.7690  0.5478 -0.0874
  215MPD1    C2 3318   1.813   2.195  10.884  0.0714  0.0893  0.3320
  215MPD1    C3 3319   1.941   2.221  10.929  0.6413 -0.2728  0.0741
  215MPD1    C4 3320   2.045   2.130  10.897 -0.4375  0.4394  0.0385
  215MPD1    C5 3321   2.022   2.029  10.808  0.2399  0.0293  0.0657
  215MPD1     H 3322   1.740   2.274  10.895  1.0841  0.7359  2.4058
  215MPD1    H1 3323   2.147   2.140  10.932 -0.6001 -1.1527  0.9590
  215MPD1    H2 3324   1.882   1.936  10.681  2.8435 -0.7359  0.1098
  215MPD1    H3 3325   2.108   1.971  10.777 -1.8214 -2.1411 -1.6188
  215MPD1     N 3326   1.958   2.330  11.019  0.1631  0.3278  0.9170
  215MPD1    H5 3327   1.886   2.397  11.041 -0.9828  0.3131 -2.9694
  215MPD1    N1 3328   1.669   2.084  10.725  0.6193  0.0615  0.3530
  215MPD1    H6 3329   1.662   1.995  10.677 -0.4118 -0.4455  1.4462
  215MPD1    H7 3330   1.578   2.102  10.767  0.2351  2.0439 -1.2987
  216MPD1     C 3331   4.140   0.092  16.498  0.3922 -0.6224  0.3265
  216MPD1    C1 3332   4.211   4.713  16.480 -0.0254 -0.4158 -0.2218
  216MPD1    C2 3333   4.210   4.623  16.586 -0.3797 -0.4027 -0.1599
  216MPD1    C3 3334   4.138   4.637  16.703 -0.1198 -0.6842 -0.1880
  216MPD1    C4 3335   4.068   0.015  16.711 -0.2205 -0.3036 -0.3468
  216MPD1    C5 3336   4.073   0.113  16.610  0.3358 -0.3494  0.1595
  216MPD1     H 3337   4.257   4.526  16.573 -0.4084 -0.1577 -2.0107
  216MPD1    H1 3338   3.989   0.036  16.782  0.3907 -0.3473  0.3597
  216MPD1    H2 3339   4.122   0.166  16.420  3.4227 -2.3388 -1.9836
  216MPD1    H3 3340   4.011   0.202  16.619  0.9452 -0.1361  2.3113
  216MPD1     N 3341   4.118   4.523  16.778 -0.2889 -0.5262 -0.4155
  216MPD1    H5 3342   4.153   4.436  16.741 -1.2349 -1.5661  1.1628
  216MPD1    N1 3343   4.313   4.702  16.383 -0.2216  0.0765 -0.1757
  216MPD1    H6 3344   4.330   4.602  16.372 -1.4967 -0.1357 -0.2755
  216MPD1    H7 3345   4.284   4.727  16.289 -1.5895  1.0364  0.4969
  217MPD1     C 3346   4.199   2.051   8.758 -0.3106  0.1353  0.3383
  217MPD1    C1 3347   4.195   2.139   8.862 -0.4532 -0.6138  0.2768
  217MPD1    C2 3348   4.298   2.124   8.961  0.0806 -0.2158  0.1100
  217MPD1    C3 3349   4.382   2.011   8.955 -0.4840  0.0964 -0.4423
  217MPD1    C4 3350   4.384   1.929   8.837  0.3873  0.2547  0.1240
  217MPD1    C5 3351   4.298   1.957   8.736 -0.0296 -0.5240 -0.2416
  217MPD1     H 3352   4.305   2.184   9.051 -1.8215 -2.2559  1.6012
  217MPD1    H1 3353   4.462   1.856   8.818  1.5161  1.7059 -0.8723
  217MPD1    H2 3354   4.131   2.071   8.677 -1.5907  0.8005  1.5760
  217MPD1    H3 3355   4.296   1.892   8.649 -1.2582  1.1544 -1.4592
  217MPD1     N 3356   4.461   1.969   9.065 -1.1291  1.1103  0.5307
  217MPD1    H5 3357   4.527   1.893   9.050  0.5912  2.3628  1.7144
  217MPD1    N1 3358   4.102   2.248   8.852  0.6133 -0.3365 -0.6878
  217MPD1    H6 3359   4.014   2.220   8.809  0.8666 -1.6468 -0.3457
  217MPD1    H7 3360   4.086   2.293   8.942 -0.2882 -1.1963 -0.4085
  218MPD1     C 3361   1.089   2.459  13.034 -0.0410 -0.2177 -0.1946
  218MPD1    C1 3362   1.170   2.372  12.969  0.1306  0.1670 -0.1235
  218MPD1    C2 3363   1.291   2.425  12.926 -0.6966  0.5730  0.4235
  218MPD1    C3 3364   1.336   2.549  12.959 -0.2442 -0.4609  0.5352
  218MPD1    C4 3365   1.252   2.637  13.025  0.3061 -0.0587 -0.2144
  218MPD1    C5 3366   1.133   2.583  13.060  1.0162  0.1464  0.3674
  218MPD1     H 3367   1.363   2.360  12.878  0.3427 -0.6461  3.5917
  218MPD1    H1 3368   1.282   2.734  13.064 -0.7013 -0.6621  2.0893
  218MPD1    H2 3369   1.001   2.435  13.094  1.3202 -0.1231  1.8371
  218MPD1    H3 3370   1.077   2.633  13.137 -1.4157  0.9331 -1.9165
  218MPD1     N 3371   1.474   2.583  12.929 -0.2321  0.5278  0.0600
  218MPD1    H5 3372   1.527   2.516  12.874 -0.1466  0.3446  0.3699
  218MPD1    N1 3373   1.142   2.236  12.961 -0.6238  0.1559 -0.1012
  218MPD1    H6 3374   1.045   2.205  12.962 -0.7214  0.4586 -1.5435
  218MPD1    H7 3375   1.189   2.185  12.887  0.2630  1.2626 -0.3004
  219MPD1     C 3376   2.210   3.166  12.410  0.5133  0.1482  0.6292
  219MPD1    C1 3377   2.069   3.182  12.433 -0.0247  0.4411  1.2017
  219MPD1    C2 3378   2.017   3.104  12.529  0.2223 -0.0417 -0.0650
  219MPD1    C3 3379   2.084   3.018  12.613  0.6102  0.1867  0.3729
  219MPD1    C4 3380   2.218   3.016  12.598  0.0684  0.3104 -0.4817
  219MPD1    C5 3381   2.278   3.088  12.501  0.2335 -0.3100  0.0690
  219MPD1     H 3382   1.908   3.104  12.534  0.1663 -0.3723 -1.2730
  219MPD1    H1 3383   2.289   2.965  12.660 -0.1540  2.0880  1.2397
  219MPD1    H2 3384   2.272   3.205  12.330  0.1261 -3.7221 -1.5893
  219MPD1    H3 3385   2.385   3.083  12.490 -0.1670 -1.7575 -2.9894
  219MPD1     N 3386   2.030   2.936  12.720 -0.1025 -0.9590 -0.0774
  219MPD1    H5 3387   2.093   2.871  12.766  2.2062  0.9186 -0.5740
  219MPD1    N1 3388   1.990   3.257  12.349 -0.2101  0.3815  0.2592
  219MPD1    H6 3389   2.043   3.334  12.311  0.7006 -1.1136 -1.4978
  219MPD1    H7 3390   1.907   3.289  12.399 -1.8147  0.4803 -2.4533
  220MPD1     C 3391   1.435   2.038  10.237 -0.1595 -1.4052  0.3488
  220MPD1    C1 3392   1.303   2.073  10.213 -0.1519  0.6596  0.1641
  220MPD1    C2 3393   1.237   2.151  10.302 -0.0404  0.5369  0.7163
  220MPD1    C3 3394   1.296   2.191  10.424 -0.1600 -0.2013  0.1122
  220MPD1    C4 3395   1.425   2.153  10.444 -0.5047  0.2863 -0.3243
  220MPD1    C5 3396   1.497   2.080  10.352 -0.7276 -0.7049 -0.1018
  220MPD1     H 3397   1.134   2.180  10.284  0.8508  1.7473 -2.3854
  220MPD1    H1 3398   1.479   2.179  10.535 -2.2673  1.4542  0.3947
  220MPD1    H2 3399   1.475   1.957  10.176  0.0296 -1.7212  0.8938
  220MPD1    H3 3400   1.602   2.062  10.373 -0.2596 -0.1844 -2.0102
  220MPD1     N 3401   1.212   2.275  10.505  0.7129 -0.1269  0.2782
  220MPD1    H5 3402   1.130   2.313  10.459 -0.0305 -0.3510  1.4259
  220MPD1    N1 3403   1.250   2.010  10.097  0.3468 -0.0188  0.4723
  220MPD1    H6 3404   1.180   2.066  10.050  0.5489  0.3487  0.6148
  220MPD1    H7 3405   1.317   1.975  10.028 -1.5142 -1.7642 -0.4677
  221MPD1     C 3406   3.472   1.986  16.541  0.1889 -0.1416  0.2567
  221MPD1    C1 3407   3.472   1.863  16.607  1.0619  0.2442  0.0001
  221MPD1    C2 3408   3.590   1.794  16.628  0.1764 -0.3993  0.0327
  221MPD1    C3 3409   3.712   1.839  16.589  0.2667 -0.2231  0.0384
  221MPD1    C4 3410   3.712   1.973  16.550  0.1666  0.1489  0.0282
  221MPD1    C5 3411   3.596   2.038  16.515 -0.0858  0.2875 -0.0616
  221MPD1     H 3412   3.587   1.691  16.660  0.2621 -0.1545  0.8338
  221MPD1    H1 3413   3.801   2.035  16.539 -0.8224  1.2110 -1.8701
  221MPD1    H2 3414   3.383   2.037  16.507 -0.3809 -1.3604 -0.0911
  221MPD1    H3 3415   3.606   2.143  16.488  1.9872  0.1055  0.0407
  221MPD1     N 3416   3.838   1.765  16.596  0.9739  0.4432 -0.4719
  221MPD1    H5 3417   3.924   1.816  16.578 -0.6492  3.2278 -0.2472
  221MPD1    N1 3418   3.349   1.789  16.607 -0.3511 -0.3528  0.6293
  221MPD1    H6 3419   3.274   1.858  16.600  0.3474  0.1438 -1.7304
  221MPD1    H7 3420   3.338   1.739  16.695 -0.9335  0.2844  0.9168
  222MPD1     C 3421   2.168   0.340   0.921  0.0984 -0.7241  0.1220
  222MPD1    C1 3422   2.148   0.413   0.810  0.1501 -0.1624 -0.3773
  222MPD1    C2 3423   2.249   0.417   0.716 -0.5912 -0.5104  0.0241
  222MPD1    C3 3424   2.359   0.338   0.724 -0.6058 -0.3903 -0.4976
  222MPD1    C4 3425   2.364   0.249   0.826  0.3077 -0.3013  0.4144
  222MPD1    C5 3426   2.269   0.251   0.915  0.7533 -0.1687 -0.2629
  222MPD1     H 3427   2.238   0.487   0.634 -4.8396 -1.9440 -0.6514
  222MPD1    H1 3428   2.441   0.172   0.829  3.6338  3.0852  1.8867
  222MPD1    H2 3429   2.095   0.346   1.001  1.3255  1.6227  1.0645
  222MPD1    H3 3430   2.263   0.178   0.994  1.1292 -1.2307 -1.2212
  222MPD1     N 3431   2.470   0.334   0.634 -0.1471 -0.8154 -0.2073
  222MPD1    H5 3432   2.542   0.264   0.644  0.3465 -0.3600 -0.5838
  222MPD1    N1 3433   2.048   0.505   0.805 -0.2530  0.4113  0.6509
  222MPD1    H6 3434   1.970   0.477   0.865 -0.3681 -1.7426 -0.4890
  222MPD1    H7 3435   2.019   0.533   0.711 -1.9186 -0.3769  0.9223
  223MPD1     C 3436   3.035   4.547   0.010 -0.3830  0.6470  0.1017
  223MPD1    C1 3437   3.067   4.668  17.715  0.3066  0.3203 -0.4635
  223MPD1    C2 3438   3.019   0.043   0.031 -0.1707  0.3773 -0.5337
  223MPD1    C3 3439   2.914   0.023   0.124  0.0699  0.1970 -0.1253
  223MPD1    C4 3440   2.859   4.634   0.140 -0.3586  0.4774 -0.3504
  223MPD1    C5 3441   2.917   4.528   0.075 -0.0525  1.0806  0.4226
  223MPD1     H 3442   3.063   0.141   0.013 -0.4401  0.1026 -2.7274
  223MPD1    H1 3443   2.775   4.623   0.207  0.0769 -0.8410 -0.0317
  223MPD1    H2 3444   3.088   4.458  17.733  0.5072  0.2064  2.8078
  223MPD1    H3 3445   2.879   4.430   0.101  2.4877  0.4876  1.9482
  223MPD1     N 3446   2.869   0.141   0.188 -0.0203  0.2792 -0.1812
  223MPD1    H5 3447   2.923   0.225   0.170 -1.6046  1.0631 -1.2302
  223MPD1    N1 3448   3.180   4.678  17.630  0.5463 -0.0305  0.3470
  223MPD1    H6 3449   3.190   4.603  17.562 -0.9060 -0.0614  0.1584
  223MPD1    H7 3450   3.171   0.022  17.571  0.4911  0.2836  0.7985
  224MPD1     C 3451   0.065   2.138   9.065  0.0655 -0.0156 -0.2461
  224MPD1    C1 3452   0.001   2.228   9.154  0.4805  0.2399  0.2750
  224MPD1    C2 3453   0.052   2.234   9.281  0.5785  0.0173 -0.1618
  224MPD1    C3 3454   0.145   2.141   9.332  0.1884  0.7585  0.3083
  224MPD1    C4 3455   0.187   2.039   9.247 -0.0319 -0.0204  0.2414
  224MPD1    C5 3456   0.151   2.044   9.112  0.0634  0.1013  0.5718
  224MPD1     H 3457   0.004   2.303   9.349  0.8955  0.6283 -0.5524
  224MPD1    H1 3458   0.259   1.962   9.273 -0.0890  1.1549  3.9445
  224MPD1    H2 3459   0.031   2.140   8.962 -0.5172  3.5335  0.0135
  224MPD1    H3 3460   0.196   1.973   9.044 -3.7455 -1.1241 -0.6838
  224MPD1     N 3461   0.192   2.144   9.467 -0.4772 -0.1517 -0.2981
  224MPD1    H5 3462   0.239   2.060   9.502 -0.0527  0.3247  0.2839
  224MPD1    N1 3463   4.660   2.327   9.101 -0.7759  0.1098 -0.2451
  224MPD1    H6 3464   4.602   2.378   9.167 -2.2971  1.9145 -2.9799
  224MPD1    H7 3465   4.601   2.290   9.027  2.1850 -3.4931 -0.8045
  225MPD1     C 3466   1.903   2.764  12.350 -0.4910 -1.2749 -0.6289
  225MPD1    C1 3467   1.820   2.675  12.426 -0.1177  0.3566 -0.2469
  225MPD1    C2 3468   1.702   2.723  12.478  0.2467 -0.0978  0.6496
  225MPD1    C3 3469   1.656   2.850  12.452 -0.4186  0.0277 -0.0391
  225MPD1    C4 3470   1.740   2.935  12.381  0.6504  0.0800  0.3304
  225MPD1    C5 3471   1.856   2.894  12.329 -0.2091  0.2445  0.0445
  225MPD1     H 3472   1.643   2.650  12.532 -0.8265  0.9316  0.8563
  225MPD1    H1 3473   1.705   3.038  12.382  3.6641  1.0778  0.6436
  225MPD1    H2 3474   2.007   2.746  12.324 -0.3232 -0.3564 -0.5869
  225MPD1    H3 3475   1.915   2.964  12.272 -0.3913  0.3799  0.0237
  225MPD1     N 3476   1.549   2.899  12.523 -0.4875 -0.4671 -0.1562
  225MPD1    H5 3477   1.530   2.999  12.524 -1.8928 -0.7439  0.2058
  225MPD1    N1 3478   1.875   2.547  12.458 -0.0683 -0.4926 -0.3528
  225MPD1    H6 3479   1.918   2.505  12.376  0.1286  1.7851 -1.4407
  225MPD1    H7 3480   1.802   2.485  12.491  0.7485 -0.0434  2.3268
  226MPD1     C 3481   4.060   2.422   9.945  0.1109  0.1222  0.1340
  226MPD1    C1 3482   4.085   2.424   9.811 -0.2307  0.9294 -0.0216
  226MPD1    C2 3483   4.113   2.540   9.734  1.0144 -0.0622 -0.0610
  226MPD1    C3 3484   4.139   2.648   9.806  0.4853 -0.5117 -0.3925
  226MPD1    C4 3485   4.113   2.657   9.943 -0.8498  0.0944  0.0786
  226MPD1    C5 3486   4.074   2.540  10.012  1.1979  0.1307  0.2937
  226MPD1     H 3487   4.118   2.538   9.626 -2.9769  0.2601 -0.2459
  226MPD1    H1 3488   4.127   2.752   9.994  0.6007  0.3908 -0.8902
  226MPD1    H2 3489   4.021   2.341  10.005  2.0944 -0.1579  1.0372
  226MPD1    H3 3490   4.040   2.547  10.114  0.2627  1.9425 -0.1296
  226MPD1     N 3491   4.174   2.772   9.737 -0.6635  0.2713  0.1377
  226MPD1    H5 3492   4.169   2.767   9.636  3.0032 -1.6941  0.0496
  226MPD1    N1 3493   4.049   2.308   9.748 -0.6031  0.6602  0.0670
  226MPD1    H6 3494   4.044   2.221   9.801  1.7380 -0.5394 -1.6462
  226MPD1    H7 3495   4.107   2.287   9.667  0.1459 -1.6559  1.2073
  227MPD1     C 3496   4.396   3.845   9.610 -0.3568  0.0989  0.0452
  227MPD1    C1 3497   4.311   3.791   9.515 -0.0904 -0.6282 -0.6779
  227MPD1    C2 3498   4.286   3.653   9.512  0.0803 -0.1129  0.3835
  227MPD1    C3 3499   4.332   3.573   9.616  0.3447 -0.3896 -0.7264
  227MPD1    C4 3500   4.373   3.638   9.734  0.1460 -0.0324  0.4570
  227MPD1    C5 3501   4.414   3.771   9.726  0.4148  0.2715 -0.3896
  227MPD1     H 3502   4.232   3.619   9.425 -0.5672  2.3438 -0.1794
  227MPD1    H1 3503   4.389   3.588   9.829  0.4940  0.7844  0.8295
  227MPD1    H2 3504   4.418   3.951   9.609 -1.9113  0.3844 -3.9007
  227MPD1    H3 3505   4.453   3.825   9.812  1.9470  0.0459 -0.9584
  227MPD1     N 3506   4.308   3.437   9.617  0.2559  0.1673 -0.1095
  227MPD1    H5 3507   4.261   3.400   9.534  0.7834 -1.0517  0.1366
  227MPD1    N1 3508   4.291   3.867   9.399  0.5212  0.6138  0.8108
  227MPD1    H6 3509   4.222   3.828   9.334  2.0545 -0.2678 -0.2744
  227MPD1    H7 3510   4.272   3.965   9.418 -0.6219  0.2851  1.4506
  228MPD1     C 3511   3.364   1.105  12.649 -0.2275 -0.9262  0.3179
  228MPD1    C1 3512   3.321   1.053  12.527  0.7011 -0.1912 -0.7129
  228MPD1    C2 3513   3.202   0.984  12.522  0.0742  0.1348 -0.8062
  228MPD1    C3 3514   3.131   0.957  12.640  0.2034  0.1261 -0.3326
  228MPD1    C4 3515   3.173   1.016  12.757  0.1670 -0.6054 -0.4838
  228MPD1    C5 3516   3.286   1.090  12.762 -0.3261  0.5751 -0.3829
  228MPD1     H 3517   3.172   0.928  12.434 -0.4059  0.3484 -0.7801
  228MPD1    H1 3518   3.127   1.002  12.855  0.7916  0.7155 -0.0075
  228MPD1    H2 3519   3.455   1.165  12.653 -1.3793  0.5778  3.6901
  228MPD1    H3 3520   3.313   1.126  12.860  1.6000  2.1091 -1.4687
  228MPD1     N 3521   3.019   0.868  12.637 -0.3886  0.4530  0.8892
  228MPD1    H5 3522   2.977   0.840  12.549  1.1037  0.0912  0.2910
  228MPD1    N1 3523   3.398   1.089  12.415  0.2040 -0.4294 -0.1667
  228MPD1    H6 3524   3.493   1.118  12.439 -1.2155  3.2515  0.9794
  228MPD1    H7 3525   3.411   1.017  12.344  0.1667  2.5166 -3.1740
  229MPD1     C 3526   2.546   0.005  15.025 -0.2785 -0.4057 -0.6034
  229MPD1    C1 3527   2.595   4.649  14.948 -0.5432 -0.1060 -0.1072
  229MPD1    C2 3528   2.697   4.570  15.001 -0.3215 -0.0599  0.0361
  229MPD1    C3 3529   2.753   4.603  15.119  0.1335  0.0231  0.1284
  229MPD1    C4 3530   2.697   4.704  15.197  0.1903 -0.0051 -0.5704
  229MPD1    C5 3531   2.595   0.034  15.145 -0.2793  0.0138 -0.6615
  229MPD1     H 3532   2.734   4.487  14.941 -0.7521  0.0342 -0.3602
  229MPD1    H1 3533   2.735   4.726  15.297  1.1691  0.2218 -0.9860
  229MPD1    H2 3534   2.458   0.056  14.987  0.4242  1.6659  0.5622
  229MPD1    H3 3535   2.550   0.102  15.216 -0.4854  1.0688 -1.7933
  229MPD1     N 3536   2.846   4.519  15.191 -0.0083  1.1144 -0.9209
  229MPD1    H5 3537   2.853   4.524  15.292 -0.2976  1.1716 -0.9015
  229MPD1    N1 3538   2.534   4.604  14.831  0.8993 -0.4112  0.1732
  229MPD1    H6 3539   2.484   4.678  14.781  0.0226 -0.3442  1.1606
  229MPD1    H7 3540   2.606   4.574  14.766  1.5286 -1.2508  1.2818
  230MPD1     C 3541   3.567   4.401  15.907 -0.5028 -0.1217  0.2316
  230MPD1    C1 3542   3.574   4.282  15.834 -0.1464 -0.3319  0.0936
  230MPD1    C2 3543   3.474   4.262  15.733 -0.6112  0.0252 -0.3085
  230MPD1    C3 3544   3.392   4.366  15.694  0.1796 -0.6163  0.7421
  230MPD1    C4 3545   3.399   4.489  15.753 -0.2241 -0.4154  0.1993
  230MPD1    C5 3546   3.493   4.501  15.859  0.6485  0.0467  0.6352
  230MPD1     H 3547   3.459   4.167  15.683 -0.2042 -1.3098  2.1475
  230MPD1    H1 3548   3.342   4.575  15.722 -1.0166 -1.3031 -0.8054
  230MPD1    H2 3549   3.631   4.429  15.990 -1.6174  0.7278  0.7958
  230MPD1    H3 3550   3.485   4.601  15.900 -1.4201  0.9261 -1.9383
  230MPD1     N 3551   3.305   4.330  15.589  0.0856  0.0627  0.5856
  230MPD1    H5 3552   3.298   4.230  15.571  0.1206  0.0574  0.6014
  230MPD1    N1 3553   3.654   4.178  15.882  0.7431  0.5653 -0.3327
  230MPD1    H6 3554   3.646   4.103  15.814  0.0705 -0.5513  0.9802
  230MPD1    H7 3555   3.744   4.196  15.927  0.5740  1.5291 -0.3908
  231MPD1     C 3556   0.560   1.244  15.869  0.0297 -0.5869 -0.1067
  231MPD1    C1 3557   0.533   1.219  15.742  0.2214 -0.6687  0.0862
  231MPD1    C2 3558   0.640   1.246  15.654  0.9347  0.1114  0.3641
  231MPD1    C3 3559   0.753   1.317  15.697  0.6167  0.3022  1.2988
  231MPD1    C4 3560   0.770   1.344  15.828 -0.4011  0.4643 -0.4491
  231MPD1    C5 3561   0.672   1.313  15.916  0.0886 -0.1101  0.5960
  231MPD1     H 3562   0.631   1.218  15.550 -0.7033  0.0815  0.5105
  231MPD1    H1 3563   0.851   1.408  15.861  0.0582 -0.9038  1.0665
  231MPD1    H2 3564   0.480   1.222  15.939 -0.0763 -0.2996 -0.1373
  231MPD1    H3 3565   0.675   1.342  16.021 -1.3250 -0.5817  0.7665
  231MPD1     N 3566   0.844   1.353  15.592  0.3930 -0.3626 -0.0828
  231MPD1    H5 3567   0.820   1.328  15.497 -1.9709 -1.5056  0.8184
  231MPD1    N1 3568   0.421   1.143  15.702 -0.2158 -0.0757  0.1162
  231MPD1    H6 3569   0.394   1.159  15.605  1.1317  1.0014 -0.0815
  231MPD1    H7 3570   0.340   1.157  15.762  0.7283  2.4686  0.7706
  232MPD1     C 3571   3.328   3.575   0.124 -0.1862  0.0242  0.2408
  232MPD1    C1 3572   3.352   3.480   0.219  0.0776 -0.5166 -0.4629
  232MPD1    C2 3573   3.246   3.386   0.232  0.1113 -0.3643 -0.3863
  232MPD1    C3 3574   3.130   3.389   0.157  0.2996  0.0746 -0.7178
  232MPD1    C4 3575   3.113   3.484   0.062 -0.4623  0.1478 -0.6971
  232MPD1    C5 3576   3.206   3.586   0.057 -0.3165 -1.0841 -0.5203
  232MPD1     H 3577   3.249   3.302   0.300  1.1169 -1.4845 -1.8385
  232MPD1    H1 3578   3.015   3.493   0.017 -0.3151  3.0936 -0.4565
  232MPD1    H2 3579   3.406   3.642   0.087 -1.0643 -0.3091 -2.2135
  232MPD1    H3 3580   3.195   3.666  17.740 -0.6948 -0.6268  0.0438
  232MPD1     N 3581   3.030   3.293   0.184  0.4184  0.3687  0.1158
  232MPD1    H5 3582   3.043   3.233   0.266 -0.0395  0.0144 -0.0745
  232MPD1    N1 3583   3.473   3.457   0.277 -0.3862  0.2347  0.0087
  232MPD1    H6 3584   3.455   3.418   0.369 -1.1252  0.1046 -0.1944
  232MPD1    H7 3585   3.530   3.541   0.290 -0.1506  0.2019 -0.8024
  233MPD1     C 3586   2.993   2.026   0.544  0.2447 -0.2084 -1.1111
  233MPD1    C1 3587   3.034   2.126   0.632  0.1392 -0.4528  0.1028
  233MPD1    C2 3588   3.107   2.076   0.739 -0.0372  0.4876  0.1746
  233MPD1    C3 3589   3.143   1.943   0.758 -0.0633  0.1417  0.0745
  233MPD1    C4 3590   3.112   1.852   0.661  0.2588  0.2548  0.4274
  233MPD1    C5 3591   3.033   1.893   0.560 -0.0445  0.7342 -0.6697
  233MPD1     H 3592   3.141   2.146   0.815 -0.2844 -0.0686  0.7935
  233MPD1    H1 3593   3.147   1.750   0.674  1.1707  0.5799  0.4836
  233MPD1    H2 3594   2.939   2.057   0.455 -0.4538 -0.9028 -0.9350
  233MPD1    H3 3595   3.001   1.822   0.484 -0.7612  1.8476 -1.3981
  233MPD1     N 3596   3.234   1.904   0.855  0.3323  0.3237 -0.4026
  233MPD1    H5 3597   3.252   1.804   0.852  0.7937  0.3423  2.3361
  233MPD1    N1 3598   2.990   2.259   0.618 -0.2060 -0.0369  0.4622
  233MPD1    H6 3599   3.002   2.284   0.520 -0.9729  2.3398  0.9844
  233MPD1    H7 3600   3.062   2.316   0.661 -0.2940  1.3324 -1.2146
  234MPD1     C 3601   1.412   1.004   9.279 -0.4508 -0.7580  0.7837
  234MPD1    C1 3602   1.392   1.018   9.416 -0.3008 -0.2906 -0.0034
  234MPD1    C2 3603   1.273   1.083   9.450 -0.8903 -0.3297  0.3906
  234MPD1    C3 3604   1.192   1.145   9.357  0.9428 -0.0438 -0.3201
  234MPD1    C4 3605   1.207   1.119   9.219  0.3645  0.5119 -0.1797
  234MPD1    C5 3606   1.321   1.052   9.184 -0.8783 -0.0027 -0.2112
  234MPD1     H 3607   1.245   1.082   9.554 -2.0281 -0.0504  0.0926
  234MPD1    H1 3608   1.144   1.153   9.137  1.0437  1.3822 -0.3384
  234MPD1    H2 3609   1.496   0.948   9.240  0.5374  0.4955  1.1179
  234MPD1    H3 3610   1.347   1.043   9.079 -3.0234  3.8092 -1.0814
  234MPD1     N 3611   1.086   1.219   9.411 -0.0955 -0.1853  0.0870
  234MPD1    H5 3612   1.080   1.211   9.512 -1.1035 -1.0958 -0.0436
  234MPD1    N1 3613   1.465   0.949   9.509 -0.4624 -0.7042 -1.1027
  234MPD1    H6 3614   1.462   1.002   9.596 -1.5165  1.9567 -2.7421
  234MPD1    H7 3615   1.563   0.952   9.482 -0.3923  2.4539 -0.5812
  235MPD1     C 3616   2.455   3.202  11.589 -0.6648  0.2164  0.3653
  235MPD1    C1 3617   2.413   3.335  11.604 -0.7131  0.4162  0.8545
  235MPD1    C2 3618   2.440   3.424  11.497  0.4746  0.3844 -0.0534
  235MPD1    C3 3619   2.514   3.380  11.383 -0.2890  0.6392 -0.1507
  235MPD1    C4 3620   2.549   3.245  11.370 -0.2027  0.2720  0.2422
  235MPD1    C5 3621   2.524   3.165  11.476 -0.1847 -0.2097  0.1491
  235MPD1     H 3622   2.413   3.526  11.519  0.7876  0.2081  1.1313
  235MPD1    H1 3623   2.609   3.206  11.289 -0.2382  0.1518  0.2737
  235MPD1    H2 3624   2.423   3.129  11.662  1.4109 -0.1038  0.9327
  235MPD1    H3 3625   2.548   3.059  11.470 -0.0497 -0.1147 -0.8974
  235MPD1     N 3626   2.532   3.469  11.279 -0.2824 -0.4326  0.5611
  235MPD1    H5 3627   2.515   3.567  11.300 -0.6683 -0.7573  1.7768
  235MPD1    N1 3628   2.314   3.352  11.700 -0.4970 -0.2450 -0.1289
  235MPD1    H6 3629   2.312   3.452  11.721  0.3746 -0.4237  0.7807
  235MPD1    H7 3630   2.326   3.307  11.790 -1.9831 -0.9829 -0.2866
  236MPD1     C 3631   0.598   0.081  10.628 -0.7508  0.2261  0.5457
  236MPD1    C1 3632   0.674   0.196  10.612 -0.4155  0.3441  0.0106
  236MPD1    C2 3633   0.810   0.184  10.575  0.0895  0.7470  0.1066
  236MPD1    C3 3634   0.870   0.058  10.598 -0.7820 -0.2247 -0.3141
  236MPD1    C4 3635   0.796   4.680  10.620  0.0925 -0.1628 -0.0390
  236MPD1    C5 3636   0.658   4.700  10.634 -0.0011 -0.2078  0.1844
  236MPD1     H 3637   0.865   0.276  10.556  1.2056  0.9121  4.1467
  236MPD1    H1 3638   0.839   4.580  10.623  1.6282  0.4722 -0.4771
  236MPD1    H2 3639   0.491   0.085  10.644 -1.1016  3.5073 -2.7103
  236MPD1    H3 3640   0.598   4.612  10.652 -1.6997  0.9415  0.1632
  236MPD1     N 3641   1.012   0.036  10.592 -0.3962  0.0675 -0.2874
  236MPD1    H5 3642   1.041   4.679  10.608  0.6188  0.5873  0.9730
  236MPD1    N1 3643   0.616   0.320  10.586 -0.1554  0.3914  1.1179
  236MPD1    H6 3644   0.683   0.393  10.611 -1.4878  1.8017  0.6376
  236MPD1    H7 3645   0.540   0.343  10.649  0.9526  2.2733  1.7620
  237MPD1     C 3646   1.732   2.849  14.854 -0.1248  0.1571  0.0380
  237MPD1    C1 3647   1.777   2.788  14.970  0.0077 -0.2768  0.0794
  237MPD1    C2 3648   1.683   2.735  15.057  0.0513 -0.0226  0.1885
  237MPD1    C3 3649   1.550   2.733  15.017  0.2732  0.0698 -0.2602
  237MPD1    C4 3650   1.507   2.782  14.902  0.5533 -0.5572 -0.5550
  237MPD1    C5 3651   1.600   2.835  14.813 -0.2500 -0.1199  0.0246
  237MPD1     H 3652   1.717   2.711  15.158  1.6945  0.6538 -0.2034
  237MPD1    H1 3653   1.404   2.788  14.868 -0.7705 -2.2006  3.2524
  237MPD1    H2 3654   1.801   2.906  14.792 -0.2604 -2.1791 -2.2377
  237MPD1    H3 3655   1.569   2.861  14.713 -0.4936 -0.9153 -0.1131
  237MPD1     N 3656   1.441   2.678  15.096 -0.1880 -0.0641  0.1600
  237MPD1    H5 3657   1.350   2.693  15.054 -0.0713 -1.7487 -0.6980
  237MPD1    N1 3658   1.909   2.806  15.017 -0.9012 -0.1511  0.2219
  237MPD1    H6 3659   1.938   2.731  15.080  0.2165  2.7099  3.1213
  237MPD1    H7 3660   1.977   2.812  14.942 -0.8393 -0.0347  0.2874
  238MPD1     C 3661   3.090   1.127  15.708  0.1376 -0.3449  0.4348
  238MPD1    C1 3662   2.976   1.181  15.765 -0.6018  0.2090 -0.5092
  238MPD1    C2 3663   2.900   1.262  15.683 -0.0488 -0.0249  0.1607
  238MPD1    C3 3664   2.922   1.270  15.550  0.6704 -0.2754 -0.1986
  238MPD1    C4 3665   3.037   1.220  15.491 -0.0583 -0.7314  0.5953
  238MPD1    C5 3666   3.112   1.141  15.573 -0.0855 -0.3673  0.2808
  238MPD1     H 3667   2.807   1.302  15.721  0.0714 -0.1076  0.5424
  238MPD1    H1 3668   3.068   1.229  15.388  0.2242  0.4844  0.7933
  238MPD1    H2 3669   3.171   1.081  15.762 -0.3123 -0.0228  1.3893
  238MPD1    H3 3670   3.202   1.102  15.528  0.5633  1.0983  0.2906
  238MPD1     N 3671   2.824   1.316  15.460 -0.4534  0.1094  0.7243
  238MPD1    H5 3672   2.856   1.315  15.363 -0.4590 -1.6330  0.7511
  238MPD1    N1 3673   2.961   1.185  15.902  0.4937 -0.1951  0.2063
  238MPD1    H6 3674   2.864   1.199  15.930 -0.0687 -1.3045 -1.1828
  238MPD1    H7 3675   2.980   1.092  15.939  0.1437 -0.8193 -1.1956
  239MPD1     C 3676   3.068   2.005  15.250  0.9189 -0.4220  0.1269
  239MPD1    C1 3677   3.179   2.021  15.172 -0.0201 -0.2527  0.1911
  239MPD1    C2 3678   3.174   2.111  15.071  0.4629  0.1609 -0.3230
  239MPD1    C3 3679   3.059   2.183  15.043 -0.5875  0.3119 -1.3313
  239MPD1    C4 3680   2.952   2.175  15.135  0.2453  0.0765 -0.8290
  239MPD1    C5 3681   2.955   2.081  15.229  0.0311 -0.1085 -1.2876
  239MPD1     H 3682   3.256   2.110  14.999  0.0297 -0.0290 -0.8168
  239MPD1    H1 3683   2.859   2.230  15.134  0.4969  0.5331  1.6939
  239MPD1    H2 3684   3.065   1.934  15.332 -2.9417 -0.4128  0.0031
  239MPD1    H3 3685   2.874   2.077  15.302  1.0178 -0.0435 -0.1879
  239MPD1     N 3686   3.056   2.279  14.939 -0.0982  0.0724 -0.2088
  239MPD1    H5 3687   2.963   2.315  14.919 -0.2485  0.1602  0.6500
  239MPD1    N1 3688   3.295   1.955  15.212  0.5588  0.0580 -0.1702
  239MPD1    H6 3689   3.370   1.939  15.145  1.7506  2.5171  0.5947
  239MPD1    H7 3690   3.264   1.864  15.247 -0.9695  1.0720  1.1210
  240MPD1     C 3691   1.424   2.350  13.240 -1.2121 -0.1217 -0.4859
  240MPD1    C1 3692   1.488   2.229  13.213  0.2216  0.5320  0.6968
  240MPD1    C2 3693   1.616   2.219  13.266 -0.3327  0.0495 -0.7306
  240MPD1    C3 3694   1.680   2.324  13.328 -0.1773 -0.2481 -0.0496
  240MPD1    C4 3695   1.604   2.435  13.356  0.5920  0.3685 -0.5586
  240MPD1    C5 3696   1.479   2.453  13.304  0.0569  0.2080  0.0519
  240MPD1     H 3697   1.671   2.127  13.253 -2.4538 -0.9738 -2.3285
  240MPD1    H1 3698   1.635   2.519  13.417 -0.9591  0.2162  0.4382
  240MPD1    H2 3699   1.331   2.371  13.187 -1.1823  1.5923  0.1357
  240MPD1    H3 3700   1.418   2.533  13.343  0.7144  1.4104 -1.3827
  240MPD1     N 3701   1.808   2.302  13.383  0.6038  0.0629  0.6541
  240MPD1    H5 3702   1.837   2.205  13.376 -2.4670 -0.9738  1.8872
  240MPD1    N1 3703   1.440   2.147  13.107 -0.7377  0.1165  0.7422
  240MPD1    H6 3704   1.456   2.048  13.119  0.7935  0.2387 -0.3161
  240MPD1    H7 3705   1.346   2.167  13.075 -0.5080  2.0301  1.2528
  241MPD1     C 3706   2.558   2.975  13.463  0.5150  0.1121 -0.3534
  241MPD1    C1 3707   2.594   2.887  13.564  0.6995  0.1396 -0.3291
  241MPD1    C2 3708   2.521   2.766  13.562  0.0643 -0.0298  0.0478
  241MPD1    C3 3709   2.407   2.741  13.488  0.2621 -0.3987 -0.0174
  241MPD1    C4 3710   2.379   2.834  13.385  0.0111  0.8604  0.0983
  241MPD1    C5 3711   2.457   2.945  13.375 -0.5239 -1.1584  0.1678
  241MPD1     H 3712   2.575   2.684  13.607  1.8821  1.3565  0.4030
  241MPD1    H1 3713   2.283   2.823  13.335 -0.1706 -1.5487  0.9540
  241MPD1    H2 3714   2.606   3.071  13.448  1.2660  0.1267  2.1877
  241MPD1    H3 3715   2.434   3.022  13.302 -0.3242 -1.0098  0.2630
  241MPD1     N 3716   2.319   2.631  13.495  0.1552  0.5824 -0.2724
  241MPD1    H5 3717   2.246   2.621  13.425 -0.1674  0.2545  0.1126
  241MPD1    N1 3718   2.707   2.908  13.647 -0.0121  0.4707  0.5260
  241MPD1    H6 3719   2.708   3.006  13.675 -0.3689  0.4486  0.6164
  241MPD1    H7 3720   2.702   2.856  13.734  0.7010 -0.9125 -0.2501
  242MPD1     C 3721   2.553   0.493  16.344 -0.0343  0.0984  0.0732
  242MPD1    C1 3722   2.643   0.572  16.286 -0.6141  0.0658  0.5147
  242MPD1    C2 3723   2.663   0.549  16.153  0.2106  0.8556 -0.2592
  242MPD1    C3 3724   2.596   0.465  16.068  0.0315  0.7855 -0.5351
  242MPD1    C4 3725   2.507   0.378  16.135 -0.8593  0.0193 -0.2804
  242MPD1    C5 3726   2.485   0.395  16.266  0.3631 -0.4367  0.2855
  242MPD1     H 3727   2.733   0.616  16.105  0.2125 -0.3840 -1.9946
  242MPD1    H1 3728   2.459   0.296  16.083 -0.7441  0.9296 -1.8281
  242MPD1    H2 3729   2.522   0.516  16.445  1.4076  0.6253  0.3831
  242MPD1    H3 3730   2.426   0.318  16.315 -0.0837  0.1430  0.6634
  242MPD1     N 3731   2.622   0.439  15.932  0.1252 -0.6051 -0.0081
  242MPD1    H5 3732   2.556   0.379  15.882  0.8851 -0.1569 -1.5410
  242MPD1    N1 3733   2.721   0.655  16.363 -0.9464  0.1538 -0.0212
  242MPD1    H6 3734   2.688   0.669  16.458 -2.0418  0.3503 -0.4300
  242MPD1    H7 3735   2.751   0.737  16.311 -0.3904  1.1325  1.8423
  243MPD1     C 3736   3.643   3.671  17.536 -0.2035  0.2326  0.0374
  243MPD1    C1 3737   3.732   3.690  17.435  0.6868 -0.2360 -1.0045
  243MPD1    C2 3738   3.803   3.585  17.396 -0.7906 -0.6126 -0.5458
  243MPD1    C3 3739   3.784   3.460  17.445  0.2824 -0.8970  0.4235
  243MPD1    C4 3740   3.690   3.440  17.545 -0.6985 -0.3003  0.7261
  243MPD1    C5 3741   3.620   3.550  17.591 -0.5666 -0.3423  0.1874
  243MPD1     H 3742   3.878   3.598  17.319  0.4621 -0.6437  0.6638
  243MPD1    H1 3743   3.654   3.347  17.587  1.3481 -0.8130  1.3494
  243MPD1    H2 3744   3.594   3.755  17.585  1.5371  0.9022  0.6588
  243MPD1    H3 3745   3.551   3.540  17.674  1.8030  1.8009  2.3965
  243MPD1     N 3746   3.862   3.353  17.400 -0.0928 -0.3719 -0.4785
  243MPD1    H5 3747   3.930   3.368  17.326 -0.0205  1.8097  0.0299
  243MPD1    N1 3748   3.747   3.813  17.372 -0.4423 -0.5124 -0.1962
  243MPD1    H6 3749   3.713   3.897  17.418  0.4497 -0.5474  0.5414
  243MPD1    H7 3750   3.841   3.828  17.336 -0.1995  1.1551  1.1241
  244MPD1     C 3751   3.798   2.378  17.628  0.2810 -0.1493  0.2753
  244MPD1    C1 3752   3.748   2.486  17.690  0.0496 -0.1512 -0.7371
  244MPD1    C2 3753   3.799   2.614  17.647  0.2831  0.6289  0.0084
  244MPD1    C3 3754   3.878   2.623  17.534  0.5654  0.4126  0.2611
  244MPD1    C4 3755   3.916   2.512  17.463 -0.4416  0.7709 -0.5842
  244MPD1    C5 3756   3.877   2.390  17.519  0.3381  0.6015  0.2242
  244MPD1     H 3757   3.770   2.710  17.688 -2.6417 -0.0330 -0.4988
  244MPD1    H1 3758   3.972   2.519  17.371  0.1714  1.8695 -0.1267
  244MPD1    H2 3759   3.768   2.281  17.668  1.9145 -0.6504  0.2990
  244MPD1    H3 3760   3.890   2.298  17.464 -0.3931  1.2827 -1.0919
  244MPD1     N 3761   3.923   2.751  17.501  0.0310 -1.1518 -0.2189
  244MPD1    H5 3762   3.880   2.825  17.556  0.5227 -3.1696  2.8774
  244MPD1    N1 3763   3.677   2.473   0.055 -0.4641 -0.2182  0.4429
  244MPD1    H6 3764   3.622   2.556   0.079  1.1570  0.7839  0.7286
  244MPD1    H7 3765   3.622   2.391   0.077  0.9180 -0.8765  1.4194
  245MPD1     C 3766   0.223   4.089  13.362  0.1773 -0.2905  0.1943
  245MPD1    C1 3767   0.325   4.015  13.421  0.2148 -0.3009  0.4767
  245MPD1    C2 3768   0.454   4.078  13.418 -0.2661 -0.1813  0.8602
  245MPD1    C3 3769   0.476   4.192  13.338  0.1622 -0.7842 -0.3057
  245MPD1    C4 3770   0.379   4.243  13.257  0.2170 -0.0306 -0.5577
  245MPD1    C5 3771   0.253   4.195  13.276  0.7127  0.1159 -0.5942
  245MPD1     H 3772   0.531   4.033  13.481  0.1586 -0.1579  0.3577
  245MPD1    H1 3773   0.390   4.329  13.192 -2.5809  0.2242 -0.6938
  245MPD1    H2 3774   0.126   4.042  13.357  0.7483 -1.6365  1.7263
  245MPD1    H3 3775   0.170   4.241  13.224 -0.3370  0.8459  1.7612
  245MPD1     N 3776   0.601   4.259  13.359  0.0911  0.0573  0.1079
  245MPD1    H5 3777   0.675   4.209  13.407  0.6125 -1.1240 -1.9778
  245MPD1    N1 3778   0.289   3.916  13.517 -0.9706 -0.0379  0.3551
  245MPD1    H6 3779   0.364   3.850  13.538 -0.1197  1.7327  2.9195
  245MPD1    H7 3780   0.201   3.869  13.494 -1.1217  0.3983  0.0375
  246MPD1     C 3781   2.570   0.280   9.812 -0.2104 -0.3326  0.1754
  246MPD1    C1 3782   2.493   0.329   9.703  0.3963  0.9039 -0.7362
  246MPD1    C2 3783   2.457   0.458   9.709  0.6387  0.5626  0.5137
  246MPD1    C3 3784   2.476   0.537   9.813 -0.6818 -0.9705  0.4790
  246MPD1    C4 3785   2.540   0.489   9.926 -0.4921 -0.3413  0.6633
  246MPD1    C5 3786   2.578   0.352   9.922  0.3064 -0.2707  0.4791
  246MPD1     H 3787   2.417   0.504   9.620  0.0051 -0.8689  0.0505
  246MPD1    H1 3788   2.540   0.546  10.018 -1.2437 -0.3456  0.6724
  246MPD1    H2 3789   2.616   0.182   9.811  0.0474 -0.1667 -2.7222
  246MPD1    H3 3790   2.633   0.309  10.005  0.5632  1.6986  1.3202
  246MPD1     N 3791   2.423   0.667   9.808 -0.4736 -0.5127 -0.4107
  246MPD1    H5 3792   2.353   0.680   9.735  0.6165  1.5176 -1.1091
  246MPD1    N1 3793   2.500   0.256   9.575  0.3207 -1.2218  0.2774
  246MPD1    H6 3794   2.427   0.274   9.506  0.9343  4.1570  0.9980
  246MPD1    H7 3795   2.509   0.155   9.584  0.0644 -1.4678 -2.0345
  247MPD1     C 3796   0.806   0.286  16.972  0.5633 -0.6700 -0.5896
  247MPD1    C1 3797   0.806   0.183  17.061 -0.0587 -0.1217  0.3291
  247MPD1    C2 3798   0.867   0.069  17.029 -0.1157  0.1196 -0.5569
  247MPD1    C3 3799   0.937   0.050  16.910 -0.1933  0.1470 -0.5006
  247MPD1    C4 3800   0.945   0.161  16.818  0.2753 -0.3934 -0.4869
  247MPD1    C5 3801   0.872   0.270  16.848 -0.2885 -0.3261  0.1076
  247MPD1     H 3802   0.848   4.718  17.085  2.3280  0.0113  0.1117
  247MPD1    H1 3803   0.992   0.159  16.720  1.0605  0.8028 -0.1317
  247MPD1    H2 3804   0.744   0.371  16.996 -0.2374 -0.1902 -4.3193
  247MPD1    H3 3805   0.863   0.358  16.785  0.3004 -0.4389 -0.1341
  247MPD1     N 3806   0.989   4.671  16.866 -0.5018 -0.7536  1.0865
  247MPD1    H5 3807   1.040   4.672  16.778  0.1866 -0.0704  1.4837
  247MPD1    N1 3808   0.713   0.194  17.170  0.1505  0.3636 -0.0208
  247MPD1    H6 3809   0.700   0.290  17.200  0.2370  0.5408 -0.5487
  247MPD1    H7 3810   0.744   0.135  17.247  0.9017 -1.0317 -1.3913
  248MPD1     C 3811   1.416   3.406  17.685 -0.6186  0.0849  0.3379
  248MPD1    C1 3812   1.442   3.520  17.753 -0.6172 -0.4850 -0.2287
  248MPD1    C2 3813   1.369   3.558   0.109  0.9522  0.0333 -0.1252
  248MPD1    C3 3814   1.257   3.483   0.140  0.9021 -0.8172  0.4139
  248MPD1    C4 3815   1.229   3.362   0.076  0.5883 -0.0853  0.4706
  248MPD1    C5 3816   1.313   3.330  17.723  0.6421 -0.1896  0.4875
  248MPD1     H 3817   1.401   3.641   0.172  1.0705  0.8671 -1.2938
  248MPD1    H1 3818   1.150   3.291   0.100 -0.6647  1.9133  2.2199
  248MPD1    H2 3819   1.478   3.378  17.600  1.4277  1.4169  1.3977
  248MPD1    H3 3820   1.281   3.243  17.667 -1.6897  0.3687  0.9613
  248MPD1     N 3821   1.174   3.544   0.235 -0.1489  0.1572  0.4193
  248MPD1    H5 3822   1.202   3.637   0.266  2.2992 -0.1253 -1.0378
  248MPD1    N1 3823   1.566   3.576  17.723 -0.6890  0.3211  0.2250
  248MPD1    H6 3824   1.586   3.671  17.755  0.5459  0.0556  0.2354
  248MPD1    H7 3825   1.593   3.576  17.625 -0.0877  1.2066  0.3849
  249MPD1     C 3826   3.009   2.911   9.691 -0.2063  0.4514 -0.5033
  249MPD1    C1 3827   3.141   2.943   9.727 -0.4582  0.6417  0.0630
  249MPD1    C2 3828   3.153   2.981   9.857 -0.0438 -0.0349  0.2147
  249MPD1    C3 3829   3.068   2.946   9.961 -0.1078  0.0056 -0.0370
  249MPD1    C4 3830   2.951   2.886   9.929  0.0604  0.1100 -0.7102
  249MPD1    C5 3831   2.919   2.879   9.795 -0.1971  0.0630  0.0196
  249MPD1     H 3832   3.241   3.038   9.884 -0.5373  0.7296  0.1937
  249MPD1    H1 3833   2.879   2.854  10.004 -0.9644  0.9472 -1.3388
  249MPD1    H2 3834   2.972   2.919   9.589  0.2803  1.7232 -0.5826
  249MPD1    H3 3835   2.826   2.831   9.769  0.9850 -2.7325  0.9466
  249MPD1     N 3836   3.117   2.976  10.092  0.0586  0.2496 -0.0164
  249MPD1    H5 3837   3.210   3.015  10.104  1.2265 -3.0745  1.7773
  249MPD1    N1 3838   3.222   2.993   9.628 -0.6117 -0.3526 -0.1519
  249MPD1    H6 3839   3.322   2.998   9.643 -0.5703  0.2347 -0.6014
  249MPD1    H7 3840   3.211   2.946   9.538  0.3162 -1.8938  0.5375
  250MPD2     C 3841   4.391   2.863  13.521 -0.0891  0.4266  0.1796
  250MPD2    C1 3842   4.295   2.933  13.458 -0.3371 -0.7574  0.3697
  250MPD2    C2 3843   4.183   2.865  13.413 -0.3747 -0.6676  0.5321
  250MPD2    C3 3844   4.180   2.721  13.426 -0.1199  0.3856 -0.3275
  250MPD2    C4 3845   4.273   2.654  13.496 -0.5926  0.0947  0.2324
  250MPD2    C5 3846   4.375   2.728  13.548 -0.5492 -0.0070 -0.2135
  250MPD2     H 3847   4.105   2.917  13.359  1.9785  2.4188  0.0984
  250MPD2    H1 3848   4.264   2.550  13.526 -2.6092  1.0054  2.8534
  250MPD2    H2 3849   4.485   2.911  13.546 -0.5157  2.5113 -2.2072
  250MPD2    H3 3850   4.453   2.675  13.601  1.7778  3.6602 -0.0280
  250MPD2     N 3851   4.080   2.639  13.377 -0.4529  0.1795 -0.4453
  250MPD2    H5 3852   4.112   2.543  13.381  0.9867  0.7097  0.7222
  250MPD2    N1 3853   4.317   3.068  13.428 -0.1734  0.9022  0.4642
  250MPD2    H7 3854   4.395   3.111  13.476  0.3577 -0.2797  0.6601
  251TMC3    C1 3855   4.275   3.292  13.359  0.3018 -0.2176  0.4755
  251TMC3    C2 3856   4.187   3.396  13.371  0.4383  0.7604  0.2772
  251TMC3    C3 3857   4.244   3.517  13.382 -0.4434  0.2480  0.6564
  251TMC3    C4 3858   4.412   3.306  13.353 -0.4596  0.0796 -1.2320
  251TMC3    C5 3859   4.461   3.431  13.354  0.6940  0.1900 -0.4578
  251TMC3    C6 3860   4.382   3.545  13.369  0.3792  0.0222  0.0110
  251TMC3     C 3861   4.225   3.156  13.374  0.2761  0.1778 -0.0139
  251TMC3     O 3862   4.114   3.137  13.338 -0.1431  0.0026  0.1691
  251TMC3     H 3863   4.081   3.378  13.386  0.4501 -0.0533 -0.6400
  251TMC3    H1 3864   4.470   3.222  13.317  1.8189  1.9383 -1.9500
  251TMC3    H2 3865   4.427   3.641  13.393  3.0018 -0.9950 -0.8735
  251TMC3    C7 3866   4.609   3.430  13.345  0.7695  0.1875 -0.0390
  251TMC3    C8 3867   4.152   3.626  13.397 -0.7549  1.0798  0.3367
  251TMC3    O1 3868   4.668   3.325  13.363  0.4462 -0.1476  0.1629
  251TMC3    O2 3869   4.035   3.603  13.417  0.2486  0.1337 -0.2562
  252TMC3    C1 3870   4.135   0.030   9.741  0.3481  0.1462  0.1234
  252TMC3    C2 3871   4.261   0.025   9.794 -0.2332 -0.2179  0.6946
  252TMC3    C3 3872   4.319   4.648   9.841 -0.4686  0.2388 -0.8254
  252TMC3    C4 3873   4.057   4.653   9.744  0.0334  0.1035  0.9956
  252TMC3    C5 3874   4.113   4.537   9.787  0.0792  0.2983  0.1642
  252TMC3    C6 3875   4.242   4.534   9.845  0.4103  0.7438  0.3543
  252TMC3     C 3876   4.082   0.170   9.703  0.5437 -0.6241 -0.2326
  252TMC3     O 3877   4.167   0.253   9.682 -0.0092  0.3282 -0.4444
  252TMC3     H 3878   4.319   0.117   9.790  0.2912 -0.4025  4.6300
  252TMC3    H1 3879   3.965   4.644   9.687 -0.1501 -0.5151  1.3893
  252TMC3    H2 3880   4.279   4.434   9.864 -2.3735 -0.3431 -0.0466
  252TMC3    C7 3881   4.054   4.409   9.750 -0.5546  0.0182  0.0292
  252TMC3    C8 3882   4.462   4.655   9.883 -0.0710  0.5398  0.3105
  252TMC3    O1 3883   3.955   4.411   9.685  0.4018 -0.9763  0.5607
  252TMC3    O2 3884   4.509   0.032   9.876 -0.2522 -0.8259  0.4651
  253MPD2     C 3885   0.399   2.382  15.182  0.4552  0.1893 -1.1678
  253MPD2    C1 3886   0.322   2.497  15.191  0.2603  0.3890  0.1905
  253MPD2    C2 3887   0.288   2.545  15.314  0.7157 -0.2972  0.2713
  253MPD2    C3 3888   0.331   2.486  15.429  0.4036 -0.2710 -0.4104
  253MPD2    C4 3889   0.401   2.368  15.421  0.4898  0.4278  1.1580
  253MPD2    C5 3890   0.436   2.321  15.301 -0.0899 -0.9054 -0.1684
  253MPD2     H 3891   0.211   2.621  15.313 -0.2336 -1.2479  1.4713
  253MPD2    H1 3892   0.440   2.320  15.510 -1.2984 -2.1699  0.5504
  253MPD2    H2 3893   0.420   2.327  15.091  2.1834  0.0308 -0.6633
  253MPD2    H3 3894   0.507   2.239  15.303  0.6432 -0.1959  2.7348
  253MPD2     N 3895   0.318   2.538  15.565 -0.1999  0.1704  0.2705
  253MPD2    H5 3896   0.340   2.468  15.636  1.1199  1.4831  1.1574
  253MPD2    N1 3897   0.279   2.576  15.078 -0.5010 -0.5561  0.1748
  253MPD2    H7 3898   0.219   2.655  15.097  0.7917  1.0358 -2.4560
  254TMC3    C1 3899   0.212   2.665  15.738 -1.0180  0.3425  0.5767
  254TMC3    C2 3900   0.127   2.766  15.773  0.6494 -0.5154  0.0471
  254TMC3    C3 3901   0.085   2.772  15.907 -0.1945  1.0131  0.5479
  254TMC3    C4 3902   0.267   2.583  15.836 -0.4066 -0.1118 -1.0731
  254TMC3    C5 3903   0.215   2.589  15.965  0.0129 -0.2460 -0.3403
  254TMC3    C6 3904   0.122   2.684  16.002  0.2297 -0.1745 -0.6009
  254TMC3     C 3905   0.234   2.642  15.598 -0.7800  0.4394 -1.2119
  254TMC3     O 3906   0.191   2.729  15.525  0.7283  0.3965  0.0257
  254TMC3     H 3907   0.102   2.844  15.703  2.3027  1.2184  1.3906
  254TMC3    H1 3908   0.347   2.517  15.807  0.5276 -0.3975  2.1789
  254TMC3    H2 3909   0.077   2.678  16.101  3.4404  0.0042  0.8919
  254TMC3    C7 3910   0.286   2.515  16.066 -0.1301  0.3933  0.0287
  254TMC3    C8 3911   4.724   2.853  15.959 -0.2031 -0.2101  0.5182
  254TMC3    O1 3912   0.228   2.469  16.166  0.1830 -0.0848 -0.3973
  254TMC3    O2 3913   4.675   2.830  16.063  0.2675  0.2758  0.0650
  255MPD2     C 3914   3.391   0.532  10.747 -0.1154 -0.2089  0.4332
  255MPD2    C1 3915   3.481   0.638  10.746  0.6159  0.5059  0.2312
  255MPD2    C2 3916   3.590   0.625  10.660 -0.4104 -0.3699  0.4583
  255MPD2    C3 3917   3.610   0.515  10.577  0.2604  0.4498  0.6039
  255MPD2    C4 3918   3.510   0.424  10.576 -0.7111 -0.6561 -0.1067
  255MPD2    C5 3919   3.404   0.424  10.664  0.0651  0.4604  0.5302
  255MPD2     H 3920   3.671   0.697  10.651  0.1941 -0.9557  1.2186
  255MPD2    H1 3921   3.519   0.339  10.509 -1.3422  1.3831 -2.7686
  255MPD2    H2 3922   3.317   0.538  10.826  0.3260  0.5035  0.8073
  255MPD2    H3 3923   3.335   0.342  10.657  1.6171 -0.7112 -0.9425
  255MPD2     N 3924   3.731   0.507  10.495  0.4480  0.5974 -0.0171
  255MPD2    H5 3925   3.803   0.575  10.517  0.7831  0.5773 -1.0445
  255MPD2    N1 3926   3.453   0.747  10.828  0.6286 -0.0278 -0.0968
  255MPD2    H7 3927   3.368   0.746  10.884 -0.0957  1.8105 -1.1639
  256TMC3    C1 3928   3.491   0.964  10.923 -0.5448  0.1701 -0.3741
  256TMC3    C2 3929   3.563   1.070  10.968 -0.6081 -0.4239 -0.4650
  256TMC3    C3 3930   3.507   1.186  11.007  0.7654  0.6093  0.0612
  256TMC3    C4 3931   3.349   0.977  10.915  0.5693  0.0580 -0.2145
  256TMC3    C5 3932   3.295   1.098  10.942  0.1114 -0.7672  0.3137
  256TMC3    C6 3933   3.370   1.201  10.995  0.7138 -1.1566  0.1077
  256TMC3     C 3934   3.547   0.843  10.862  0.7527 -0.4028 -0.2723
  256TMC3     O 3935   3.668   0.837  10.867  0.0916 -0.3402 -0.3019
  256TMC3     H 3936   3.671   1.070  10.957 -0.4595 -1.8836  1.0183
  256TMC3    H1 3937   3.285   0.892  10.893  0.9902 -0.4277  0.4047
  256TMC3    H2 3938   3.326   1.299  11.015  1.4448 -0.6840 -0.6087
  256TMC3    C7 3939   3.167   1.109  10.882 -0.5977 -0.6825 -0.5369
  256TMC3    C8 3940   3.576   1.305  11.042  0.5339  0.4963 -0.7246
  256TMC3    O1 3941   3.114   1.010  10.836  0.0962 -0.5243  0.3123
  256TMC3    O2 3942   3.499   1.377  11.105  0.0862  0.2668 -0.5127
  257MPD2     C 3943   3.241   3.110  13.468  0.1090  0.2331  0.4047
  257MPD2    C1 3944   3.146   3.046  13.390 -0.0637 -0.0654 -0.7238
  257MPD2    C2 3945   3.089   2.931  13.440  0.5037 -0.3519 -0.2694
  257MPD2    C3 3946   3.132   2.879  13.558 -0.2764  0.0948  0.4250
  257MPD2    C4 3947   3.233   2.938  13.629 -0.3757 -0.1453 -0.5831
  257MPD2    C5 3948   3.282   3.056  13.585 -0.4915 -0.2898  0.4382
  257MPD2     H 3949   3.017   2.885  13.374 -0.0719 -0.6203  0.5466
  257MPD2    H1 3950   3.262   2.896  13.725 -1.3789  0.5381  0.0185
  257MPD2    H2 3951   3.279   3.207  13.436  1.8580 -0.2340  1.0693
  257MPD2    H3 3952   3.349   3.113  13.648  2.0734 -0.8916 -1.7593
  257MPD2     N 3953   3.063   2.760  13.603  0.2794 -0.1947 -0.4593
  257MPD2    H5 3954   2.991   2.724  13.541 -1.6847 -1.5206  2.5946
  257MPD2    N1 3955   3.113   3.103  13.266  0.2577  0.5865  0.5382
  257MPD2    H7 3956   3.160   3.190  13.246 -0.5391  0.6656 -0.9627
  258TMC3    C1 3957   3.000   2.579  13.739 -0.3713  0.3474  1.1007
  258TMC3    C2 3958   3.003   2.494  13.635 -0.3886  0.6501  0.3808
  258TMC3    C3 3959   2.998   2.359  13.657 -0.2261  0.3885 -0.9684
  258TMC3    C4 3960   2.996   2.537  13.870 -0.4884  0.0184  0.7157
  258TMC3    C5 3961   2.987   2.399  13.890 -0.2232  0.6076 -0.1247
  258TMC3    C6 3962   2.995   2.314  13.785 -0.5439  0.4992 -0.1896
  258TMC3     C 3963   3.082   2.695  13.725 -1.0765  0.1077  0.0201
  258TMC3     O 3964   3.178   2.694  13.799  0.6609 -0.0148 -0.8944
  258TMC3     H 3965   3.025   2.530  13.535  0.4837  0.3495  0.4697
  258TMC3    H1 3966   2.982   2.614  13.945 -0.9896  0.5305  0.1042
  258TMC3    H2 3967   2.969   2.209  13.797 -0.3791  0.4287 -0.4411
  258TMC3    C7 3968   2.970   2.350  14.025  0.3060  0.0194 -0.1231
  258TMC3    C8 3969   2.985   2.260  13.547 -0.4488  0.3460 -0.0690
  258TMC3    O1 3970   2.954   2.436  14.111 -0.2703  0.1757 -0.2568
  258TMC3    O2 3971   3.010   2.147  13.589 -0.4198 -0.0414  0.4286
  259MPD2     C 3972   1.715   3.772   0.433 -0.2560 -0.5847  0.0234
  259MPD2    C1 3973   1.776   3.652   0.473  0.5940 -0.0194 -0.5510
  259MPD2    C2 3974   1.881   3.604   0.397  0.3271  0.6549  0.3159
  259MPD2    C3 3975   1.941   3.681   0.297 -0.0428  0.0060  0.5925
  259MPD2    C4 3976   1.886   3.801   0.264 -0.4859 -0.7763  0.6301
  259MPD2    C5 3977   1.778   3.853   0.334 -0.6862 -0.3783  0.3714
  259MPD2     H 3978   1.929   3.515   0.436  0.2763 -0.2103 -1.5944
  259MPD2    H1 3979   1.941   3.875   0.207 -3.3093  1.7092  1.1322
  259MPD2    H2 3980   1.633   3.816   0.489 -0.6796 -0.7459 -0.4694
  259MPD2    H3 3981   1.746   3.952   0.305  1.1305 -0.0263 -0.4140
  259MPD2     N 3982   2.056   3.626   0.234 -0.2388  0.0096 -0.7318
  259MPD2    H5 3983   2.082   3.531   0.258  1.7343  0.5691 -0.7218
  259MPD2    N1 3984   1.738   3.588   0.591  0.4265  0.3583 -0.4579
  259MPD2    H7 3985   1.672   3.640   0.648 -1.4255 -1.2657 -1.1138
  260TMC3    C1 3986   2.262   3.623   0.120  0.0742 -0.4286 -0.4274
  260TMC3    C2 3987   2.329   3.648   0.005 -0.0762  0.2162  0.5395
  260TMC3    C3 3988   2.453   3.587  17.748  0.9296  0.2261 -0.1122
  260TMC3    C4 3989   2.310   3.548   0.220  0.2245 -0.5417  0.2566
  260TMC3    C5 3990   2.441   3.503   0.209  0.0458 -0.3446  0.2081
  260TMC3    C6 3991   2.509   3.520   0.096  0.4602  0.4663 -0.9569
  260TMC3     C 3992   2.130   3.692   0.142  0.3245  0.3175  0.0424
  260TMC3     O 3993   2.107   3.800   0.087 -0.0646 -0.5843  0.4589
  260TMC3     H 3994   2.278   3.716  17.692  0.8953 -0.8275 -1.2113
  260TMC3    H1 3995   2.256   3.528   0.312 -0.9012 -2.8371 -0.9189
  260TMC3    H2 3996   2.610   3.483   0.090  0.5864  0.7784 -0.7080
  260TMC3    C7 3997   2.456   3.370   0.256 -0.3172 -0.0206  0.4031
  260TMC3    C8 3998   2.468   3.503  17.628  0.2943  0.6634 -0.3027
  260TMC3    O1 3999   2.504   3.294   0.174 -0.1214  0.0866  0.5694
  260TMC3    O2 4000   2.461   3.548  17.514 -0.0350 -0.1964  0.4811
  261MPD2     C 4001   3.410   2.677  12.873  0.2649 -0.6028  0.1373
  261MPD2    C1 4002   3.540   2.711  12.907 -1.0175 -0.0363 -0.0798
  261MPD2    C2 4003   3.598   2.811  12.845  0.2562  0.6029 -0.2495
  261MPD2    C3 4004   3.536   2.894  12.747 -0.0834  0.2529 -1.0364
  261MPD2    C4 4005   3.414   2.852  12.702 -0.9127  0.1787  0.0841
  261MPD2    C5 4006   3.353   2.754  12.773  0.3828  0.1851 -0.0915
  261MPD2     H 4007   3.697   2.837  12.879  0.4902 -1.4972  0.6688
  261MPD2    H1 4008   3.370   2.896  12.613  0.8636  0.6450 -0.5570
  261MPD2    H2 4009   3.355   2.615  12.943 -2.1136 -1.5798 -2.5894
  261MPD2    H3 4010   3.250   2.740  12.741  0.9720 -0.7710 -1.5594
  261MPD2     N 4011   3.613   2.996  12.690 -0.3953 -0.2023 -0.0080
  261MPD2    H5 4012   3.708   3.006  12.726 -1.1218 -0.4897  2.0227
  261MPD2    N1 4013   3.624   2.652  13.010  0.2450  0.6199 -0.4977
  261MPD2    H7 4014   3.713   2.697  13.028  0.3255 -0.0524  0.8555
  262TMC3    C1 4015   3.660   3.168  12.537 -0.0052 -0.1494  0.3148
  262TMC3    C2 4016   3.616   3.293  12.502  0.1295  1.1654  0.4359
  262TMC3    C3 4017   3.717   3.378  12.471 -0.0525 -0.2418  0.4107
  262TMC3    C4 4018   3.794   3.136  12.536  0.0203 -0.3609  0.2072
  262TMC3    C5 4019   3.888   3.225  12.491  0.1677 -0.3274 -0.2083
  262TMC3    C6 4020   3.850   3.352  12.475  0.6101 -0.9304 -0.4983
  262TMC3     C 4021   3.562   3.076  12.584  0.1075 -0.1944 -0.0525
  262TMC3     O 4022   3.448   3.092  12.539  0.0949  0.3111  0.3993
  262TMC3     H 4023   3.509   3.314  12.501 -0.0715  0.1047 -0.5912
  262TMC3    H1 4024   3.825   3.036  12.564 -2.8737 -1.9397 -2.2451
  262TMC3    H2 4025   3.929   3.426  12.466 -0.8211  0.6941  0.1229
  262TMC3    C7 4026   3.960   3.178  12.376 -0.3870 -0.1734  0.2341
  262TMC3    C8 4027   3.690   3.485  12.378 -0.2104  0.7391 -0.3796
  262TMC3    O1 4028   3.994   3.061  12.379  0.4179 -0.2501 -0.1753
  262TMC3    O2 4029   3.788   3.548  12.347  0.7463  0.3714 -0.6431
  263MPD2     C 4030   4.239   2.136  11.932 -0.9107 -0.4195  0.1810
  263MPD2    C1 4031   4.367   2.134  11.879 -0.1746  0.6370 -0.3748
  263MPD2    C2 4032   4.403   2.206  11.766  0.2750 -0.8161 -0.0948
  263MPD2    C3 4033   4.301   2.267  11.690  0.1897  0.2811  0.5829
  263MPD2    C4 4034   4.177   2.274  11.746  0.2299  0.2529  0.4213
  263MPD2    C5 4035   4.146   2.207  11.863  0.1261  0.1099  0.3281
  263MPD2     H 4036   4.506   2.216  11.734  0.1948  0.5677  0.0747
  263MPD2    H1 4037   4.092   2.327  11.704  1.9433  3.1582  0.6814
  263MPD2    H2 4038   4.210   2.076  12.017  0.2032 -1.8370 -0.4410
  263MPD2    H3 4039   4.042   2.199  11.891 -0.0605 -0.6120 -0.5518
  263MPD2     N 4040   4.335   2.347  11.572  0.5063 -0.8610 -0.0681
  263MPD2    H5 4041   4.420   2.329  11.520  0.5278  0.7343 -0.5968
  263MPD2    N1 4042   4.465   2.059  11.956 -0.0462  0.8143 -0.8198
  263MPD2    H7 4043   4.448   2.035  12.053  1.7958 -2.8012 -1.4173
  264TMC3    C1 4044   4.304   2.498  11.399  0.5269 -0.4167  0.3975
  264TMC3    C2 4045   4.291   2.628  11.395  0.4898  0.2208 -0.0092
  264TMC3    C3 4046   4.345   2.697  11.291  0.3620 -0.2745  0.3485
  264TMC3    C4 4047   4.369   2.426  11.303 -0.5708 -0.0720  0.0377
  264TMC3    C5 4048   4.427   2.497  11.198  0.5627 -0.3253 -0.0605
  264TMC3    C6 4049   4.422   2.633  11.194 -0.4422  0.7933 -0.6357
  264TMC3     C 4050   4.240   2.419  11.504 -0.2350  0.1845  0.1450
  264TMC3     O 4051   4.137   2.473  11.545 -0.2737  0.0644  0.2488
  264TMC3     H 4052   4.231   2.681  11.468  2.0252  0.4986  1.0589
  264TMC3    H1 4053   4.346   2.321  11.303  0.6134 -0.3344  0.5875
  264TMC3    H2 4054   4.478   2.684  11.117 -1.6950  0.7093 -1.5991
  264TMC3    C7 4055   4.491   2.435  11.086 -0.8025 -0.3688 -0.5551
  264TMC3    C8 4056   4.377   2.834  11.306  0.0675 -0.0005  0.0466
  264TMC3    O1 4057   4.541   2.518  11.008  0.2433  0.5881 -0.2837
  264TMC3    O2 4058   4.453   2.885  11.227 -0.3162 -0.4189 -0.6025
  265MPD2     C 4059   1.715   2.092  15.702 -0.8676 -0.5623 -0.8229
  265MPD2    C1 4060   1.731   2.210  15.639 -0.3080  0.1401  0.1200
  265MPD2    C2 4061   1.818   2.226  15.530 -0.6963  0.2139  0.0139
  265MPD2    C3 4062   1.865   2.115  15.462 -0.3193 -0.4982  0.0435
  265MPD2    C4 4063   1.845   1.993  15.522  0.0379 -0.4540  0.2929
  265MPD2    C5 4064   1.777   1.983  15.643  0.1940 -0.2407  0.5456
  265MPD2     H 4065   1.838   2.326  15.494 -1.8042 -0.5055 -2.6273
  265MPD2    H1 4066   1.894   1.907  15.477  0.4435 -0.9097  1.6113
  265MPD2    H2 4067   1.648   2.075  15.786  1.4373  2.3749  1.6018
  265MPD2    H3 4068   1.769   1.885  15.689  0.2317 -0.4059  0.2008
  265MPD2     N 4069   1.937   2.115  15.338  0.4730  0.0668  0.1290
  265MPD2    H5 4070   1.947   2.028  15.285 -1.9238 -1.7326  2.6012
  265MPD2    N1 4071   1.670   2.335  15.685  0.4688 -0.1318 -0.0584
  265MPD2    H7 4072   1.695   2.416  15.629  0.5953 -0.4837 -0.5083
  266TMC3    C1 4073   1.509   2.468  15.809  0.0313 -0.5480  0.0324
  266TMC3    C2 4074   1.458   2.499  15.933  0.9092  0.0178  0.1670
  266TMC3    C3 4075   1.386   2.612  15.949 -0.3381 -0.5592 -0.0874
  266TMC3    C4 4076   1.489   2.548  15.704  0.3624 -0.1282 -0.3632
  266TMC3    C5 4077   1.431   2.670  15.730 -0.4496 -0.1723  0.1848
  266TMC3    C6 4078   1.379   2.702  15.852 -0.3427 -0.6246 -0.6857
  266TMC3     C 4079   1.581   2.340  15.792 -0.2444 -0.5204  0.2538
  266TMC3     O 4080   1.546   2.252  15.867 -0.1306 -0.2537  0.0964
  266TMC3     H 4081   1.445   2.432  16.017  0.3272 -0.3412 -0.2108
  266TMC3    H1 4082   1.525   2.527  15.604 -0.0558 -2.0306 -0.1027
  266TMC3    H2 4083   1.314   2.788  15.857 -0.9984 -1.1965  0.5484
  266TMC3    C7 4084   1.398   2.743  15.613 -0.4841 -0.2615  0.4310
  266TMC3    C8 4085   1.341   2.643  16.083  0.2248 -0.1026  0.6061
  266TMC3    O1 4086   1.489   2.742  15.527  0.0915  0.1927 -0.3655
  266TMC3    O2 4087   1.271   2.561  16.143 -0.4376 -0.1180 -0.3713
  267MPD2     C 4088   4.629   4.063  17.353  0.4624  0.0262  0.1477
  267MPD2    C1 4089   4.502   4.037  17.397 -0.0868  0.1422  0.6204
  267MPD2    C2 4090   4.399   4.058  17.308 -0.8125  0.2680 -0.5403
  267MPD2    C3 4091   4.416   4.102  17.181 -0.0126  0.0243 -0.7700
  267MPD2    C4 4092   4.544   4.120  17.137  0.3973  0.8624 -0.2972
  267MPD2    C5 4093   4.648   4.118  17.226 -0.1960 -0.1320 -0.2271
  267MPD2     H 4094   4.303   4.031  17.350  0.1763 -2.1029  0.1930
  267MPD2    H1 4095   4.564   4.160  17.039  2.1451  2.3356  0.6495
  267MPD2    H2 4096   4.711   4.050  17.422  0.4609  1.1124  0.3576
  267MPD2    H3 4097   0.009   4.149  17.198  0.0751 -0.6983  0.1323
  267MPD2     N 4098   4.311   4.127  17.088  0.1133 -0.1406 -0.0599
  267MPD2    H5 4099   4.340   4.156  16.995 -1.3668 -0.9529 -0.7688
  267MPD2    N1 4100   4.487   4.004  17.533  0.3271  0.3126  1.0680
  267MPD2    H7 4101   4.570   4.018  17.590  0.6610 -0.3517  0.7553
  268TMC3    C1 4102   4.377   3.964  17.726 -0.2116 -0.1833  0.0905
  268TMC3    C2 4103   4.390   4.093   0.018 -0.1995  0.1593 -0.3456
  268TMC3    C3 4104   4.350   4.127   0.142  0.0957  0.4507  0.4816
  268TMC3    C4 4105   4.306   3.877   0.052 -0.2159 -0.5467  0.1749
  268TMC3    C5 4106   4.270   3.912   0.180 -0.4698  0.0953 -0.4407
  268TMC3    C6 4107   4.286   4.043   0.225 -0.0130 -0.5783 -0.8471
  268TMC3     C 4108   4.368   3.959  17.586  0.1463  0.4186  0.6682
  268TMC3     O 4109   4.285   3.888  17.535  0.8050  0.2887  0.0115
  268TMC3     H 4110   4.446   4.167  17.717 -0.0213  1.2119  1.2218
  268TMC3    H1 4111   4.299   3.771   0.029 -0.5525 -0.2335 -1.1743
  268TMC3    H2 4112   4.261   4.068   0.328  0.3885  1.3775 -1.2294
  268TMC3    C7 4113   4.243   3.797   0.268  0.1229  0.1290  0.4682
  268TMC3    C8 4114   4.327   4.271   0.154 -0.7023  0.1192 -0.3790
  268TMC3    O1 4115   4.318   3.700   0.257 -0.5511  0.3923 -0.3536
  268TMC3    O2 4116   4.267   4.295   0.257 -0.4612 -0.0602 -0.2953
  269MPD2     C 4117   4.474   3.113  15.446  0.3181 -0.1987  0.0974
  269MPD2    C1 4118   4.419   3.152  15.572 -0.5863  0.3167  0.7236
  269MPD2    C2 4119   4.401   3.285  15.596  0.2530 -0.4400 -1.1190
  269MPD2    C3 4120   4.418   3.375  15.491  0.2821 -0.7140  0.6094
  269MPD2    C4 4121   4.456   3.331  15.365 -0.5031  0.3702 -0.2738
  269MPD2    C5 4122   4.486   3.201  15.342  0.2004 -0.1081 -0.2087
  269MPD2     H 4123   4.372   3.326  15.692  2.4863  1.5591 -1.3010
  269MPD2    H1 4124   4.465   3.399  15.281  1.3050 -0.7726 -0.9933
  269MPD2    H2 4125   4.503   3.012  15.418 -0.0616 -0.0960 -0.6533
  269MPD2    H3 4126   4.512   3.155  15.248 -0.5791  1.4286 -1.1690
  269MPD2     N 4127   4.403   3.512  15.520 -0.5758  0.0497  0.1462
  269MPD2    H5 4128   4.402   3.540  15.618  3.3985 -0.9881  0.4796
  269MPD2    N1 4129   4.396   3.045  15.662 -0.4385 -0.1100 -0.2363
  269MPD2    H7 4130   4.434   2.956  15.634  0.0713  0.2134 -0.5563
  270TMC3    C1 4131   4.299   2.919  15.838 -0.2824 -0.2226  0.7589
  270TMC3    C2 4132   4.168   2.891  15.860 -0.1801 -0.4025 -0.5402
  270TMC3    C3 4133   4.138   2.759  15.875  0.1127 -0.5901  0.2272
  270TMC3    C4 4134   4.401   2.821  15.829  0.0703  0.2544  0.0468
  270TMC3    C5 4135   4.364   2.695  15.857  0.1476 -0.2650  1.0501
  270TMC3    C6 4136   4.237   2.663  15.882  0.1243 -0.1189 -0.0559
  270TMC3     C 4137   4.317   3.051  15.777  0.3552 -0.2850 -0.7402
  270TMC3     O 4138   4.233   3.134  15.803  0.1445  0.4529  0.4219
  270TMC3     H 4139   4.083   2.959  15.849  1.5019  1.3711 -2.6510
  270TMC3    H1 4140   4.504   2.848  15.806 -0.1897  0.4483 -0.9289
  270TMC3    H2 4141   4.211   2.559  15.899 -0.1401 -0.1672 -0.7477
  270TMC3    C7 4142   4.451   2.583  15.842  0.1441  0.2824 -0.8600
  270TMC3    C8 4143   4.017   2.720  15.807  0.2263  0.2168 -0.1666
  270TMC3    O1 4144   4.435   2.480  15.906  0.2045 -0.1096  0.0340
  270TMC3    O2 4145   3.916   2.780  15.838  0.2200  0.0726 -0.2930
  271MPD2     C 4146   3.492   2.955  14.056  0.0546 -0.3085 -0.4157
  271MPD2    C1 4147   3.410   2.897  14.151  0.2357 -0.3898 -0.2699
  271MPD2    C2 4148   3.274   2.917  14.138  0.4295  0.2581  0.1866
  271MPD2    C3 4149   3.221   3.017  14.053  0.0103  1.4910 -0.5702
  271MPD2    C4 4150   3.306   3.087  13.972  0.0632 -0.4722 -0.3754
  271MPD2    C5 4151   3.437   3.046  13.969  0.4090  0.1435 -0.0303
  271MPD2     H 4152   3.207   2.858  14.199 -1.0333  2.2648  0.5135
  271MPD2    H1 4153   3.282   3.167  13.903 -0.4652  1.7643  2.3577
  271MPD2    H2 4154   3.593   2.925  14.034  1.0644  1.7275  1.3878
  271MPD2    H3 4155   3.499   3.103  13.900 -0.1822 -0.2492 -0.8928
  271MPD2     N 4156   3.082   3.049  14.052  0.1065 -0.1603 -0.0192
  271MPD2    H5 4157   3.072   3.136  14.000 -1.2959  0.6079  1.5544
  271MPD2    N1 4158   3.460   2.798  14.239 -0.3587  0.4362  0.9136
  271MPD2    H7 4159   3.394   2.755  14.304  1.1724 -0.8420  1.6286
  272TMC3    C1 4160   3.610   2.629  14.306 -0.1332 -0.0012  0.3736
  272TMC3    C2 4161   3.732   2.569  14.300  0.2756  0.2516 -0.7219
  272TMC3    C3 4162   3.774   2.485  14.395  0.2709 -0.5802 -0.6381
  272TMC3    C4 4163   3.535   2.616  14.424  0.3939 -0.3243  0.1607
  272TMC3    C5 4164   3.594   2.547  14.525  0.6787  0.2072  0.2746
  272TMC3    C6 4165   3.709   2.473  14.512  0.0332  0.3609 -0.1893
  272TMC3     C 4166   3.583   2.741  14.219  0.3346 -0.2201 -0.1049
  272TMC3     O 4167   3.673   2.762  14.138  0.0025 -0.2713 -0.9023
  272TMC3     H 4168   3.802   2.586  14.219  1.8343 -0.2752  0.5023
  272TMC3    H1 4169   3.439   2.666  14.438  1.9406  2.8898 -0.6072
  272TMC3    H2 4170   3.747   2.410  14.592 -1.5179  1.2306  1.2313
  272TMC3    C7 4171   3.525   2.562  14.657 -0.2431 -0.5581 -0.2746
  272TMC3    C8 4172   3.913   2.461  14.396  0.2258 -0.8113 -0.0430
  272TMC3    O1 4173   3.408   2.584  14.658 -0.4936  0.1292  0.6462
  272TMC3    O2 4174   3.983   2.526  14.318  0.0810  0.2720  0.2225
  273MPD2     C 4175   0.567   0.654  12.171 -0.1492 -0.5683 -0.5552
  273MPD2    C1 4176   0.688   0.732  12.177 -0.3401  0.4176 -0.0833
  273MPD2    C2 4177   0.718   0.814  12.074 -0.0135 -0.2257 -0.3463
  273MPD2    C3 4178   0.632   0.835  11.971  0.0990 -0.3122 -0.1217
  273MPD2    C4 4179   0.527   0.750  11.954  0.3608  0.7935 -0.5408
  273MPD2    C5 4180   0.496   0.662  12.056 -0.3614 -0.2440 -0.6731
  273MPD2     H 4181   0.798   0.885  12.092 -0.1508 -0.8134  2.6521
  273MPD2    H1 4182   0.461   0.763  11.870 -2.1829  0.7484  1.4517
  273MPD2    H2 4183   0.547   0.583  12.251 -2.2360  0.8524  0.1828
  273MPD2    H3 4184   0.413   0.595  12.041  1.1034 -2.0766 -0.6344
  273MPD2     N 4185   0.663   0.935  11.876 -0.3006 -0.3337 -0.3692
  273MPD2    H5 4186   0.595   0.942  11.801 -0.6068 -1.2197 -0.1673
  273MPD2    N1 4187   0.763   0.747  12.300 -0.1020  0.7176  0.0897
  273MPD2    H7 4188   0.714   0.725  12.387 -0.6031 -1.9916 -0.8640
  274TMC3    C1 4189   0.744   1.138  11.789 -0.5232 -0.0630  0.3034
  274TMC3    C2 4190   0.701   1.120  11.662 -0.0695 -0.0062  0.2033
  274TMC3    C3 4191   0.686   1.227  11.587 -0.1033  0.6257  0.0221
  274TMC3    C4 4192   0.748   1.261  11.842  0.7299 -0.5985  0.0474
  274TMC3    C5 4193   0.733   1.371  11.760 -0.9040 -0.0741 -0.1997
  274TMC3    C6 4194   0.711   1.356  11.627 -0.3508 -0.1457 -0.0710
  274TMC3     C 4195   0.753   1.038  11.892 -0.9719  0.4376 -0.4406
  274TMC3     O 4196   0.818   1.071  11.991  0.3643  0.0809 -0.0770
  274TMC3     H 4197   0.672   1.024  11.623 -0.9056  0.6243 -0.7219
  274TMC3    H1 4198   0.743   1.279  11.949  0.3271 -0.3168 -0.0185
  274TMC3    H2 4199   0.685   1.442  11.566 -1.7360 -1.5672 -1.4528
  274TMC3    C7 4200   0.669   1.483  11.823 -0.1447  0.1273  0.0331
  274TMC3    C8 4201   0.616   1.207  11.465  0.1762  0.0491  0.4860
  274TMC3    O1 4202   0.584   1.455  11.908 -0.2624 -0.2320 -0.4606
  274TMC3    O2 4203   0.523   1.126  11.460 -0.2072  0.7039 -0.7528
  275MPD2     C 4204   0.109   3.764  14.750 -0.5929  0.2283  0.8574
  275MPD2    C1 4205   0.090   3.713  14.875 -0.5179  0.0053  0.5910
  275MPD2    C2 4206   4.733   3.622  14.902  0.2178 -0.7419  0.1600
  275MPD2    C3 4207   4.635   3.598  14.804 -0.2704 -0.1180  0.1264
  275MPD2    C4 4208   4.642   3.665  14.684 -0.2819 -0.3956 -0.2138
  275MPD2    C5 4209   0.011   3.746  14.652 -0.9734 -0.1177 -0.0905
  275MPD2     H 4210   4.736   3.570  14.997 -1.5462  0.2920  0.7920
  275MPD2    H1 4211   4.573   3.646  14.603  0.1278 -3.4533  0.1538
  275MPD2    H2 4212   0.180   3.843  14.731  0.3627 -0.8287  0.0433
  275MPD2    H3 4213   0.023   3.787  14.552  3.1155 -1.5978 -0.1832
  275MPD2     N 4214   4.523   3.512  14.825  0.7026 -0.0354  0.7498
  275MPD2    H5 4215   4.457   3.520  14.749  1.6128  2.3618  0.2115
  275MPD2    N1 4216   0.183   3.735  14.982 -0.5090 -0.5890 -0.5373
  275MPD2    H7 4217   0.167   3.675  15.063 -3.2060 -0.2641 -0.8268
  276TMC3    C1 4218   0.393   3.775  15.071 -0.5122  0.0301 -1.2074
  276TMC3    C2 4219   0.388   3.649  15.125 -0.2692  0.7863  0.2443
  276TMC3    C3 4220   0.492   3.623  15.208 -0.1243 -0.2843 -0.1196
  276TMC3    C4 4221   0.471   3.876  15.110  0.2871  0.1346  0.8206
  276TMC3    C5 4222   0.557   3.849  15.216  0.1708  0.5776  0.4725
  276TMC3    C6 4223   0.569   3.720  15.262  0.4221  0.4214 -0.2698
  276TMC3     C 4224   0.291   3.817  14.975  0.3711 -0.3432  0.5358
  276TMC3     O 4225   0.320   3.912  14.906 -0.2282  0.1497  0.7813
  276TMC3     H 4226   0.326   3.563  15.103  2.2643 -1.3031  1.2181
  276TMC3    H1 4227   0.450   3.975  15.071  1.2979 -0.1607 -0.4980
  276TMC3    H2 4228   0.626   3.699  15.352 -1.0709 -2.4267 -0.0070
  276TMC3    C7 4229   0.620   3.950  15.293  0.0590  0.2939 -0.0286
  276TMC3    C8 4230   0.529   3.482  15.239  0.5769 -0.0985 -0.2246
  276TMC3    O1 4231   0.687   3.915  15.390  0.1719 -0.5576 -0.1633
  276TMC3    O2 4232   0.583   3.464  15.349  0.1856 -0.3488  0.0819
  277MPD2     C 4233   2.231   3.070  13.615 -1.0794 -0.7728 -0.5575
  277MPD2    C1 4234   2.097   3.061  13.589 -0.7918  0.5245  0.2830
  277MPD2    C2 4235   2.036   2.946  13.649  0.2858  0.3367 -0.2194
  277MPD2    C3 4236   2.102   2.865  13.739 -0.7020  0.0207  0.2865
  277MPD2    C4 4237   2.236   2.881  13.766  0.2710 -0.2792 -0.4342
  277MPD2    C5 4238   2.295   2.983  13.704  0.6017 -0.4199 -0.1556
  277MPD2     H 4239   1.935   2.916  13.623 -0.1525  0.7841  0.9716
  277MPD2    H1 4240   2.289   2.835  13.848  0.8701  2.2683  0.6120
  277MPD2    H2 4241   2.286   3.154  13.574  0.6857 -0.5914  2.1751
  277MPD2    H3 4242   2.401   2.996  13.723  0.2686 -1.3785  2.3486
  277MPD2     N 4243   2.028   2.759  13.801  0.6173 -0.3739 -0.0364
  277MPD2    H5 4244   1.930   2.753  13.775  0.9524  0.0116 -1.3818
  277MPD2    N1 4245   2.029   3.151  13.502  0.0013 -0.1944 -0.0590
  277MPD2    H7 4246   2.078   3.216  13.441  2.2797 -1.5624  0.3367
  278TMC3    C1 4247   1.952   2.614  13.948 -0.3341  1.0094  0.8431
  278TMC3    C2 4248   1.945   2.479  13.949 -0.3414  0.7826  0.2255
  278TMC3    C3 4249   1.821   2.420  13.951 -0.8319  0.2340  0.5630
  278TMC3    C4 4250   1.838   2.693  13.946  0.7716 -0.1855  0.2807
  278TMC3    C5 4251   1.716   2.633  13.956 -0.6460  0.6034  0.2688
  278TMC3    C6 4252   1.708   2.495  13.954  0.3963 -0.1416 -0.1779
  278TMC3     C 4253   2.068   2.663  13.886  0.4684  0.2681 -0.0783
  278TMC3     O 4254   2.178   2.617  13.895  0.2469 -0.5147  0.1062
  278TMC3     H 4255   2.033   2.419  13.928 -0.3340  0.5707  0.8543
  278TMC3    H1 4256   1.830   2.801  13.942 -0.1930 -0.2706 -0.1735
  278TMC3    H2 4257   1.615   2.441  13.970  0.7679 -0.6511  0.2635
  278TMC3    C7 4258   1.603   2.720  13.963  0.8729 -0.2378  0.5571
  278TMC3    C8 4259   1.810   2.286  13.895  0.2690 -0.0632 -0.6939
  278TMC3    O1 4260   1.597   2.834  13.914  0.0010 -0.5486 -0.5532
  278TMC3    O2 4261   1.884   2.196  13.934  0.2157 -0.1521 -0.3540
  279MPD2     C 4262   0.931   2.734   0.558 -0.3066 -0.7829  0.4305
  279MPD2    C1 4263   0.900   2.622   0.481 -0.8343 -0.0422 -0.1161
  279MPD2    C2 4264   0.944   2.619   0.353 -0.6131 -0.2358  0.3830
  279MPD2    C3 4265   1.025   2.721   0.304 -0.5811 -0.4617 -0.8327
  279MPD2    C4 4266   1.059   2.829   0.380  0.0703  0.0351 -0.0102
  279MPD2    C5 4267   1.012   2.828   0.506 -0.0791  0.4468 -0.4677
  279MPD2     H 4268   0.903   2.543   0.288 -2.5866  0.0107  1.3181
  279MPD2    H1 4269   1.109   2.919   0.343 -1.6410  0.8849 -0.2637
  279MPD2    H2 4270   0.889   2.746   0.657  2.0350 -0.7117  1.4146
  279MPD2    H3 4271   1.035   2.911   0.571  2.6618 -1.4471  1.0011
  279MPD2     N 4272   1.068   2.736   0.172  0.1849 -0.0055 -0.1721
  279MPD2    H5 4273   1.114   2.822   0.147 -0.2947  0.1246 -0.6133
  279MPD2    N1 4274   0.810   2.528   0.533 -0.1332  0.5955 -0.3145
  279MPD2    H7 4275   0.752   2.555   0.611 -3.2131 -2.2326 -1.6389
  280TMC3    C1 4276   0.670   2.346   0.500 -0.3000 -0.9048 -0.8206
  280TMC3    C2 4277   0.634   2.273   0.391  0.3144 -0.5121 -0.1855
  280TMC3    C3 4278   0.508   2.305   0.342  0.9676  0.8370 -0.0467
  280TMC3    C4 4279   0.586   2.432   0.573 -0.2730 -0.4577  0.0373
  280TMC3    C5 4280   0.471   2.473   0.512  0.5178  0.2565 -0.0366
  280TMC3    C6 4281   0.428   2.401   0.401 -0.0296  0.3609 -0.3035
  280TMC3     C 4282   0.802   2.399   0.479 -0.4723  0.6958  0.2360
  280TMC3     O 4283   0.887   2.346   0.408 -0.0889 -0.2142 -0.1116
  280TMC3     H 4284   0.710   2.216   0.339  0.3889 -0.5729 -0.0133
  280TMC3    H1 4285   0.624   2.483   0.660 -0.0431 -0.7422  0.1022
  280TMC3    H2 4286   0.333   2.413   0.350 -0.2904 -1.9253 -0.3377
  280TMC3    C7 4287   0.468   2.614   0.487  0.1962 -0.0791  0.2523
  280TMC3    C8 4288   0.478   2.267   0.208  0.1512 -0.0750  0.2127
  280TMC3    O1 4289   0.521   2.687   0.571  0.0464 -1.0321  0.2302
  280TMC3    O2 4290   0.416   2.352   0.145 -0.0962  0.3273 -0.3836
  281TMC3    C1 4291   0.235   3.167  13.562  0.4523 -0.4701 -0.0420
  281TMC3    C2 4292   0.271   3.249  13.459 -0.2050  0.1522  1.0406
  281TMC3    C3 4293   0.288   3.185  13.333 -0.2544 -0.4463 -0.1675
  281TMC3    C4 4294   0.222   3.033  13.553 -0.2190 -0.2965  0.2193
  281TMC3    C5 4295   0.236   2.971  13.435  0.0906  0.2142 -0.2652
  281TMC3    C6 4296   0.269   3.048  13.328  0.0852 -0.0038 -0.9942
  281TMC3     C 4297   0.172   3.227  13.678  0.5915 -0.3994 -0.1561
  281TMC3     O 4298   0.156   3.157  13.776 -0.0397 -0.2360 -0.0699
  281TMC3     H 4299   0.300   3.352  13.477 -1.6549  0.9284 -1.0638
  281TMC3    H1 4300   0.191   2.978  13.641  0.7217  0.8343  1.2482
  281TMC3    H2 4301   0.285   3.000  13.232 -2.0397 -2.6017 -0.0289
  281TMC3    C7 4302   0.183   2.833  13.409  1.1007  0.1658  0.0480
  281TMC3    C8 4303   0.381   3.235  13.234  0.7439  0.2488 -0.1854
  281TMC3    O1 4304   0.214   2.791  13.300  0.4873  0.5874 -0.0873
  281TMC3    O2 4305   0.465   3.157  13.190  0.5098  0.7988  0.0959
  282MPD2     C 4306   1.718   4.396  14.888  0.4397 -0.0283  0.5812
  282MPD2    C1 4307   1.619   4.398  14.983 -0.2663  0.5051  0.1948
  282MPD2    C2 4308   1.504   4.334  14.950  0.2162 -0.2957  0.4207
  282MPD2    C3 4309   1.479   4.287  14.824 -0.0785  0.3771  0.2008
  282MPD2    C4 4310   1.581   4.289  14.727 -0.4206 -0.0050 -0.2636
  282MPD2    C5 4311   1.705   4.340  14.759 -0.8431  0.0525 -0.0687
  282MPD2     H 4312   1.432   4.321  15.029 -1.0191 -0.3253 -0.7198
  282MPD2    H1 4313   1.579   4.259  14.623  0.1213  2.0903 -0.8687
  282MPD2    H2 4314   1.814   4.446  14.896  0.7204 -0.7350  1.7371
  282MPD2    H3 4315   1.787   4.348  14.688 -0.4111 -1.1900  0.2958
  282MPD2     N 4316   1.354   4.214  14.799 -0.0349  0.7038 -0.4511
  282MPD2    H5 4317   1.289   4.232  14.875  2.1208  1.4544  1.1977
  282MPD2    N1 4318   1.630   4.447  15.110 -0.1022  1.2621 -0.4930
  282MPD2    H7 4319   1.543   4.442  15.162  1.0864 -1.0175  1.2740
  283TMC3    C1 4320   1.729   4.541  15.306 -0.5973  0.1025 -1.0084
  283TMC3    C2 4321   1.807   4.640  15.341  0.3671  0.2509 -0.3422
  283TMC3    C3 4322   1.814   4.671  15.476 -0.1716  1.1528  0.5760
  283TMC3    C4 4323   1.657   4.466  15.396  0.7546 -0.0246  0.0103
  283TMC3    C5 4324   1.664   4.493  15.528 -0.1721 -0.0262 -0.1719
  283TMC3    C6 4325   1.738   4.600  15.567 -0.5063  0.1155  0.8354
  283TMC3     C 4326   1.742   4.505  15.162 -0.2641  0.4113 -0.1241
  283TMC3     O 4327   1.846   4.511  15.100  0.7984  0.5396 -0.0503
  283TMC3     H 4328   1.868   4.705  15.279 -1.2659  0.9955 -1.1630
  283TMC3    H1 4329   1.594   4.388  15.354  0.2208  1.0241 -1.1761
  283TMC3    H2 4330   1.758   4.615  15.672  0.9255  0.7172  0.4687
  283TMC3    C7 4331   1.595   4.419  15.633  0.1622 -0.2960 -0.0944
  283TMC3    C8 4332   1.869   0.063  15.522  0.2240 -0.7321  0.6678
  283TMC3    O1 4333   1.634   4.432  15.747  0.1001  0.4107 -0.1449
  283TMC3    O2 4334   1.900   0.074  15.642 -0.4556  0.0208 -0.5033
  284MPD2     C 4335   0.226   4.011  12.287  0.4898 -0.4280  0.0494
  284MPD2    C1 4336   0.147   4.013  12.174  0.0779  0.0473 -0.1427
  284MPD2    C2 4337   0.051   3.910  12.153  0.0457 -0.4049 -0.3971
  284MPD2    C3 4338   0.051   3.802  12.241  0.6515 -0.9133 -0.6182
  284MPD2    C4 4339   0.137   3.806  12.349 -0.4168 -0.1349  0.1698
  284MPD2    C5 4340   0.219   3.909  12.375 -0.5408 -0.4968  0.1253
  284MPD2     H 4341   4.723   3.916  12.068  0.1557  0.7403 -0.4041
  284MPD2    H1 4342   0.131   3.734  12.430  2.3596  1.2365  1.6093
  284MPD2    H2 4343   0.301   4.088  12.302  0.1896 -0.3739  1.2437
  284MPD2    H3 4344   0.290   3.895  12.456 -0.8930 -1.4242  0.2691
  284MPD2     N 4345   4.703   3.696  12.234  0.0140 -0.7238  0.2651
  284MPD2    H5 4346   4.697   3.633  12.313  3.8132  0.9444  1.8669
  284MPD2    N1 4347   0.156   4.112  12.070  0.0208  0.0987 -0.1766
  284MPD2    H7 4348   0.107   4.085  11.985 -0.1497  0.4284 -0.1832
  285TMC3    C1 4349   0.260   4.260  11.924 -1.0380  0.9423 -0.3274
  285TMC3    C2 4350   0.186   4.191  11.824 -0.5464 -0.5131 -0.1747
  285TMC3    C3 4351   0.237   4.199  11.698 -1.3020  0.1168 -0.4250
  285TMC3    C4 4352   0.360   4.339  11.898  0.3799  0.0558  0.6237
  285TMC3    C5 4353   0.413   4.350  11.774  0.0733 -0.2381 -0.0202
  285TMC3    C6 4354   0.351   4.278  11.674  0.3071  0.6638 -0.1625
  285TMC3     C 4355   0.237   4.218  12.065  0.2078 -0.2159  0.1089
  285TMC3     O 4356   0.322   4.248  12.146 -0.0541  0.1004  0.1754
  285TMC3     H 4357   0.091   4.138  11.827 -1.2453  0.7725  0.2426
  285TMC3    H1 4358   0.417   4.393  11.973  1.4038 -1.2479  0.7988
  285TMC3    H2 4359   0.392   4.284  11.574 -0.9308 -1.5294 -0.7907
  285TMC3    C7 4360   0.555   4.389  11.755  0.3355  0.1768 -0.4614
  285TMC3    C8 4361   0.164   4.137  11.589  0.0967 -0.3315 -0.1244
  285TMC3    O1 4362   0.620   4.429  11.849 -0.9764  0.0074 -0.4785
  285TMC3    O2 4363   0.092   4.050  11.624  0.0872 -0.2507  0.5441
  286MPD2     C 4364   0.273   2.743   1.640  0.6159 -0.5462 -0.5066
  286MPD2    C1 4365   0.200   2.643   1.583  0.2648  0.1230  0.0564
  286MPD2    C2 4366   0.256   2.517   1.577  0.4154 -0.7513  0.1104
  286MPD2    C3 4367   0.374   2.490   1.645  0.7085  0.5935 -0.5157
  286MPD2    C4 4368   0.434   2.587   1.713  0.0105 -0.1708 -0.4048
  286MPD2    C5 4369   0.389   2.716   1.708  0.0684 -0.4671  0.1579
  286MPD2     H 4370   0.199   2.434   1.537 -0.1352 -0.2504 -0.1536
  286MPD2    H1 4371   0.530   2.561   1.757  0.9337 -0.1804 -2.4353
  286MPD2    H2 4372   0.231   2.843   1.649  0.7521 -0.5142 -0.2268
  286MPD2    H3 4373   0.444   2.795   1.757 -0.7721 -0.4165  1.0251
  286MPD2     N 4374   0.433   2.360   1.647 -0.3932  0.2420 -0.5571
  286MPD2    H5 4375   0.505   2.330   1.712 -1.0230 -0.5455 -0.2283
  286MPD2    N1 4376   0.074   2.659   1.515  0.4327  0.2077  0.6445
  286MPD2    H7 4377   0.041   2.576   1.468  0.7889  1.9984 -2.8153
  287TMC3    C1 4378   0.503   2.148   1.578 -0.3540 -0.6840  0.3954
  287TMC3    C2 4379   0.470   2.034   1.504 -0.2273 -0.3107 -0.4231
  287TMC3    C3 4380   0.582   1.963   1.454  0.6691 -0.3097 -0.1721
  287TMC3    C4 4381   0.633   2.176   1.604 -0.2057 -0.0542 -0.2431
  287TMC3    C5 4382   0.737   2.102   1.549 -0.2806 -0.5573  0.8797
  287TMC3    C6 4383   0.715   1.985   1.474  0.0514  0.0331 -0.0662
  287TMC3     C 4384   0.394   2.256   1.570  0.1537 -0.4945 -0.2108
  287TMC3     O 4385   0.302   2.248   1.485  0.5386 -0.4939  0.4021
  287TMC3     H 4386   0.368   2.028   1.469  0.3154  2.6653 -2.4681
  287TMC3    H1 4387   0.665   2.265   1.656  1.2197 -0.5077 -0.3310
  287TMC3    H2 4388   0.796   1.927   1.433  0.4948 -0.0024  0.8553
  287TMC3    C7 4389   0.863   2.179   1.528  0.0852 -0.0332 -0.6729
  287TMC3    C8 4390   0.543   1.844   1.370 -0.3704 -0.1794 -0.0764
  287TMC3    O1 4391   0.865   2.298   1.563  0.2347 -0.1184  0.0243
  287TMC3    O2 4392   0.421   1.826   1.354 -0.7279 -0.5752  0.0804
  288TMC3    C1 4393   1.722   1.902  14.533  0.5710 -0.3302  0.4576
  288TMC3    C2 4394   1.642   1.916  14.641 -0.4067 -0.5058  0.6063
  288TMC3    C3 4395   1.625   2.039  14.697 -0.0230 -0.1252  0.4260
  288TMC3    C4 4396   1.786   2.012  14.487  0.0208  0.0565  0.1942
  288TMC3    C5 4397   1.768   2.137  14.547 -0.1490  0.4058  0.3700
  288TMC3    C6 4398   1.677   2.153  14.643 -0.0244  0.9772  0.2574
  288TMC3     C 4399   1.756   1.765  14.485  0.4191 -0.3279 -0.6546
  288TMC3     O 4400   1.676   1.678  14.505 -0.0191 -0.2029 -0.1077
  288TMC3     H 4401   1.612   1.821  14.685 -1.0329 -0.4424  0.3125
  288TMC3    H1 4402   1.856   2.009  14.405 -1.3828 -0.5926 -0.9771
  288TMC3    H2 4403   1.672   2.248  14.695  3.7472  0.8090  0.9221
  288TMC3    C7 4404   1.848   2.255  14.518  0.2161  0.5651 -0.4640
  288TMC3    C8 4405   1.592   2.058  14.839  0.0221  0.4455 -0.4296
  288TMC3    O1 4406   1.811   2.363  14.558 -0.3969  0.1009  0.4819
  288TMC3    O2 4407   1.653   2.148  14.895  0.3200  0.1222 -0.5565
  289MPD2     C 4408   2.254   2.016  14.026  0.1527  0.2254  0.0371
  289MPD2    C1 4409   2.187   1.986  13.910  0.0242 -0.3385 -0.2847
  289MPD2    C2 4410   2.102   1.877  13.899  0.1553 -0.1445 -0.3469
  289MPD2    C3 4411   2.091   1.785  14.006 -0.0470  0.3185  0.7993
  289MPD2    C4 4412   2.155   1.820  14.121 -0.1663  0.6893 -0.3707
  289MPD2    C5 4413   2.236   1.935  14.136  0.3899  0.6883  0.6095
  289MPD2     H 4414   2.047   1.851  13.809 -0.4309  0.1978 -0.0863
  289MPD2    H1 4415   2.130   1.774  14.215 -0.4468  0.7000 -0.4391
  289MPD2    H2 4416   2.313   2.106  14.038  0.8012 -0.5111  2.4966
  289MPD2    H3 4417   2.280   1.964  14.231 -0.7537  2.2455  0.6576
  289MPD2     N 4418   2.011   1.669  14.009 -0.0107  0.2364 -0.0896
  289MPD2    H5 4419   2.012   1.613  14.093 -0.6129  0.8078  0.2925
  289MPD2    N1 4420   2.197   2.089  13.807 -0.1626 -0.7631 -0.0229
  289MPD2    H7 4421   2.241   2.176  13.836  0.7889 -1.1012 -0.4826
  290TMC3    C1 4422   1.874   1.502  13.946 -0.3032  0.5019 -0.3691
  290TMC3    C2 4423   1.817   1.501  14.073  0.2301  0.5370  0.4478
  290TMC3    C3 4424   1.738   1.392  14.106  0.1651  0.5738  0.0948
  290TMC3    C4 4425   1.871   1.388  13.865 -0.8081  0.0254  0.5584
  290TMC3    C5 4426   1.800   1.274  13.910  0.2583  1.1055  0.4600
  290TMC3    C6 4427   1.725   1.277  14.028  0.4563  0.4551  1.2302
  290TMC3     C 4428   1.939   1.620  13.909 -0.3219 -0.7287 -0.1207
  290TMC3     O 4429   1.907   1.671  13.805  0.0690  0.0459  0.3468
  290TMC3     H 4430   1.813   1.592  14.132  3.2109  0.8042  0.2688
  290TMC3    H1 4431   1.911   1.388  13.764 -1.3258 -1.5705  0.3495
  290TMC3    H2 4432   1.670   1.191  14.064  0.8806 -0.0710  0.6381
  290TMC3    C7 4433   1.787   1.157  13.825  0.1817 -0.1234  0.2570
  290TMC3    C8 4434   1.623   1.409  14.184  0.0768  0.5747  0.6522
  290TMC3    O1 4435   1.795   1.184  13.706  0.1295  0.8412  0.1076
  290TMC3    O2 4436   1.549   1.309  14.196  0.3380 -0.9628 -0.3070
  291MPD2     C 4437   1.551   1.246   0.813 -0.0686 -0.5314  0.0098
  291MPD2    C1 4438   1.534   1.153   0.704 -1.0561 -0.2661  0.0709
  291MPD2    C2 4439   1.635   1.147   0.615 -0.7561 -0.2022  0.0738
  291MPD2    C3 4440   1.748   1.228   0.626  0.3342 -0.4918 -0.6351
  291MPD2    C4 4441   1.765   1.307   0.736  0.0811  0.1822 -1.1804
  291MPD2    C5 4442   1.670   1.309   0.833  0.1802 -0.0112  0.5256
  291MPD2     H 4443   1.614   1.092   0.524  1.3945 -1.2833  0.2127
  291MPD2    H1 4444   1.847   1.379   0.729  2.0351 -2.0610 -1.4752
  291MPD2    H2 4445   1.465   1.265   0.876  0.6181  0.5379  0.6180
  291MPD2    H3 4446   1.686   1.379   0.914  1.0327 -0.6140  0.8836
  291MPD2     N 4447   1.838   1.241   0.514  0.2291 -0.2190  0.5757
  291MPD2    H5 4448   1.920   1.301   0.522  0.9070 -0.8789 -1.3304
  291MPD2    N1 4449   1.416   1.080   0.685  0.7542 -0.4342  0.5782
  291MPD2    H7 4450   1.420   1.018   0.605 -0.8294 -0.2890  0.3975
  292TMC3    C1 4451   1.243   0.954   0.770  0.2419 -0.4112  0.4313
  292TMC3    C2 4452   1.132   0.943   0.854  0.8876 -0.5748  0.6090
  292TMC3    C3 4453   1.067   0.825   0.862  0.1441 -0.1714  0.2017
  292TMC3    C4 4454   1.276   0.849   0.683  0.3252  0.1718 -0.6045
  292TMC3    C5 4455   1.197   0.730   0.696 -0.5264  0.5923 -0.6125
  292TMC3    C6 4456   1.094   0.714   0.782 -0.0437 -0.2982 -0.1585
  292TMC3     C 4457   1.305   1.084   0.767  0.6374 -0.3571  0.9000
  292TMC3     O 4458   1.270   1.163   0.852 -0.2990  0.5054 -0.0020
  292TMC3     H 4459   1.109   1.018   0.929 -1.2059 -0.6503  0.0372
  292TMC3    H1 4460   1.355   0.851   0.609  0.6710  0.1416 -0.2337
  292TMC3    H2 4461   1.047   0.617   0.800  0.8805 -0.7856 -0.3692
  292TMC3    C7 4462   1.240   0.611   0.632  0.2748 -0.4074  0.1222
  292TMC3    C8 4463   0.942   0.824   0.949  0.6453  0.0562 -0.6509
  292TMC3    O1 4464   1.300   0.620   0.528 -0.0516  0.2105 -0.0025
  292TMC3    O2 4465   0.909   0.923   1.007 -0.3850  0.7788  0.3851
  293MPD2     C 4466   3.093   2.281  12.748 -0.5975  0.5140  0.1265
  293MPD2    C1 4467   3.039   2.394  12.805  0.8425  0.3014 -0.2100
  293MPD2    C2 4468   3.078   2.434  12.934  0.2170 -0.6121  0.2475
  293MPD2    C3 4469   3.171   2.351  13.004  0.0154 -0.2805  0.2527
  293MPD2    C4 4470   3.226   2.240  12.943 -0.5735 -0.1337  0.3358
  293MPD2    C5 4471   3.186   2.205  12.817  0.4096  0.3916  0.2746
  293MPD2     H 4472   3.044   2.528  12.976 -1.6477 -1.0241 -0.3581
  293MPD2    H1 4473   3.303   2.183  12.993 -2.1330 -3.4599 -1.0674
  293MPD2    H2 4474   3.071   2.249  12.647 -0.9141 -0.0258  0.3659
  293MPD2    H3 4475   3.228   2.120  12.765 -1.1072 -1.6320  2.3562
  293MPD2     N 4476   3.209   2.403  13.128  0.5701  0.1347  0.1204
  293MPD2    H5 4477   3.168   2.492  13.155 -2.8332 -0.8998 -1.6937
  293MPD2    N1 4478   2.946   2.466  12.726  0.0278  0.1315 -0.2534
  293MPD2    H7 4479   2.914   2.428  12.637  1.5218 -3.6547  0.8116
  294TMC3    C1 4480   2.756   2.605  12.680  0.0962 -0.5638  0.3551
  294TMC3    C2 4481   2.668   2.506  12.646 -0.7092 -0.6863  0.1127
  294TMC3    C3 4482   2.554   2.546  12.590  0.3930  0.1718 -0.8003
  294TMC3    C4 4483   2.724   2.736  12.660 -0.5213 -0.4102  0.6617
  294TMC3    C5 4484   2.611   2.772  12.600  0.0147  0.0862 -0.1351
  294TMC3    C6 4485   2.525   2.677  12.554  0.2121 -0.1060  0.1629
  294TMC3     C 4486   2.872   2.580  12.758  0.0962 -0.0598 -0.0161
  294TMC3     O 4487   2.892   2.661  12.852 -0.3738  0.9238  0.0204
  294TMC3     H 4488   2.689   2.409  12.689 -0.5072 -0.2272  1.0723
  294TMC3    H1 4489   2.791   2.817  12.686 -0.1898 -0.2986 -0.5057
  294TMC3    H2 4490   2.427   2.709  12.520  0.2557 -1.2676 -1.0456
  294TMC3    C7 4491   2.605   2.900  12.541  0.8193  0.2803  0.2333
  294TMC3    C8 4492   2.477   2.432  12.537  0.5869 -0.1367 -0.7108
  294TMC3    O1 4493   2.562   2.991  12.618  0.2760  0.2342  0.2264
  294TMC3    O2 4494   2.548   2.346  12.485  0.3221  0.3508 -0.5588
  295MPD2     C 4495   3.875   1.114   0.779  0.4969  0.6438  0.0670
  295MPD2    C1 4496   3.794   1.007   0.743 -0.1118  0.0603  0.4577
  295MPD2    C2 4497   3.787   0.894   0.826  0.6480  0.0876 -0.5328
  295MPD2    C3 4498   3.853   0.887   0.949 -0.2301 -0.0488 -0.9158
  295MPD2    C4 4499   3.929   0.997   0.989  0.2471 -0.1072 -0.4715
  295MPD2    C5 4500   3.938   1.107   0.903 -0.4132 -0.1071 -0.2596
  295MPD2     H 4501   3.714   0.818   0.801  0.7916 -0.1285 -0.2939
  295MPD2    H1 4502   3.985   0.997   1.082  1.2161  0.9307 -1.0619
  295MPD2    H2 4503   3.890   1.206   0.723  1.9856  0.1463 -0.3559
  295MPD2    H3 4504   3.991   1.195   0.938  0.2406 -1.1630  1.4200
  295MPD2     N 4505   3.843   0.772   1.036  0.3156 -0.3857  0.2067
  295MPD2    H5 4506   3.901   0.775   1.119 -0.8093  1.0537  0.9501
  295MPD2    N1 4507   3.719   0.995   0.624 -0.6202 -0.1616  0.1097
  295MPD2    H7 4508   3.646   0.926   0.624 -1.5491  0.8149  1.6686
  296TMC3    C1 4509   3.841   0.552   1.100 -0.3204  0.1893 -0.3528
  296TMC3    C2 4510   3.792   0.597   1.229  0.8313  0.3395 -0.0860
  296TMC3    C3 4511   3.785   0.495   1.328  0.6767  0.0369 -0.5954
  296TMC3    C4 4512   3.840   0.423   1.060 -0.5047 -0.6674 -0.1017
  296TMC3    C5 4513   3.817   0.337   1.161 -0.4425  0.1856  0.0148
  296TMC3    C6 4514   3.802   0.369   1.292 -0.4117  0.4025  0.2052
  296TMC3     C 4515   3.815   0.646   0.995 -0.2089  0.2446 -0.7547
  296TMC3     O 4516   3.787   0.603   0.883 -0.2836  0.7478 -0.4773
  296TMC3     H 4517   3.769   0.701   1.253  1.0480  0.6295 -1.1219
  296TMC3    H1 4518   3.882   0.400   0.963 -0.6256 -0.2169 -0.2593
  296TMC3    H2 4519   3.794   0.288   1.364 -2.9263 -0.5316 -1.1143
  296TMC3    C7 4520   3.870   0.203   1.135  0.0300  0.7555  0.0146
  296TMC3    C8 4521   3.786   0.519   1.467  0.3237 -0.3746  0.9187
  296TMC3    O1 4522   3.943   0.183   1.037 -0.6480 -0.3400 -0.0034
  296TMC3    O2 4523   3.845   0.435   1.534 -0.4921 -0.0328  0.9206
  297MPD2     C 4524   0.754   2.908  16.536  0.8763 -0.4386 -0.6227
  297MPD2    C1 4525   0.744   2.951  16.405 -0.5604 -0.2531  0.4136
  297MPD2    C2 4526   0.862   3.007  16.345 -0.3677 -0.1618 -0.1341
  297MPD2    C3 4527   0.969   3.032  16.426 -0.1801  0.2877 -0.1825
  297MPD2    C4 4528   0.967   3.008  16.558  0.0455  0.9096 -0.1188
  297MPD2    C5 4529   0.861   2.942  16.608  0.0302  0.6128 -0.2459
  297MPD2     H 4530   0.867   3.042  16.243  1.7123  1.4369  0.5104
  297MPD2    H1 4531   1.048   3.033  16.626 -0.2197 -2.4833  1.4473
  297MPD2    H2 4532   0.671   2.871  16.595 -1.0869  1.8471 -1.9947
  297MPD2    H3 4533   0.857   2.914  16.713  0.5433  1.7016  0.0648
  297MPD2     N 4534   1.082   3.092  16.376 -0.1212  0.4587  0.2682
  297MPD2    H5 4535   1.146   3.141  16.438  1.0132  0.1032 -0.6098
  297MPD2    N1 4536   0.621   2.955  16.334 -0.4562  0.1631  0.2078
  297MPD2    H7 4537   0.619   3.000  16.243  1.0597  1.7642  0.9727
  298TMC3    C1 4538   0.390   2.940  16.286 -0.7064  0.5592  0.3397
  298TMC3    C2 4539   0.422   2.919  16.150  0.1067  0.4519  0.6095
  298TMC3    C3 4540   0.343   2.988  16.064 -0.0408 -0.2103 -0.1039
  298TMC3    C4 4541   0.291   3.014  16.332  0.0118 -0.6060 -0.5316
  298TMC3    C5 4542   0.221   3.088  16.244  0.5326 -0.4016  0.9156
  298TMC3    C6 4543   0.239   3.071  16.108  0.2329  0.5144 -0.4666
  298TMC3     C 4544   0.497   2.926  16.383  0.7940 -0.6682  0.0677
  298TMC3     O 4545   0.463   2.891  16.495 -0.1697  0.0835  0.4822
  298TMC3     H 4546   0.504   2.856  16.119 -0.6595  0.2513 -1.0171
  298TMC3    H1 4547   0.286   3.047  16.435 -1.2907 -0.7508 -0.5502
  298TMC3    H2 4548   0.188   3.132  16.033 -2.0563 -0.8317 -0.0063
  298TMC3    C7 4549   0.168   3.216  16.290  0.0390 -0.6730  0.2007
  298TMC3    C8 4550   0.364   2.959  15.922  0.4821 -0.4601 -0.2359
  298TMC3    O1 4551   0.135   3.222  16.406  0.4459  0.0639  0.0832
  298TMC3    O2 4552   0.411   2.854  15.898  0.2054  0.1859  0.3626
  299MPD2     C 4553   0.981   2.819  10.457 -0.2727  0.1830  0.0797
  299MPD2    C1 4554   0.940   2.953  10.471 -0.0506  0.3884  0.4970
  299MPD2    C2 4555   0.809   2.989  10.434 -0.4419  0.1895 -0.4529
  299MPD2    C3 4556   0.726   2.898  10.379  0.1514  0.0584  0.3085
  299MPD2    C4 4557   0.767   2.767  10.373  0.0739 -0.3558  0.2031
  299MPD2    C5 4558   0.888   2.729  10.415  0.2168  0.2524  0.3189
  299MPD2     H 4559   0.783   3.094  10.444 -0.2622  0.2616 -0.7297
  299MPD2    H1 4560   0.710   2.692  10.319  0.2395 -0.5820  0.3436
  299MPD2    H2 4561   1.083   2.795  10.482 -0.7420 -1.8437  0.0592
  299MPD2    H3 4562   0.932   2.631  10.396 -0.5459  0.0828 -0.5908
  299MPD2     N 4563   0.600   2.933  10.344  0.5950 -0.3430  0.6928
  299MPD2    H5 4564   0.572   3.027  10.371 -0.6292 -0.4369 -0.2294
  299MPD2    N1 4565   1.032   3.041  10.522  0.1063  0.3896 -0.0781
  299MPD2    H7 4566   1.116   2.991  10.550  0.6052  0.9522 -0.5785
  300TMC3    C1 4567   0.377   2.947  10.294 -0.8223 -0.5209  0.2347
  300TMC3    C2 4568   0.403   3.071  10.245 -0.5077  0.4353  0.1272
  300TMC3    C3 4569   0.345   3.176  10.308 -0.0802  0.1984 -0.4618
  300TMC3    C4 4570   0.273   2.918  10.376 -0.4295  0.0026  0.0971
  300TMC3    C5 4571   0.219   3.028  10.439  0.8926 -0.1539 -0.0629
  300TMC3    C6 4572   0.255   3.161  10.405  0.1812 -0.3878  0.7229
  300TMC3     C 4573   0.490   2.859  10.309 -0.2342 -0.0941  0.1208
  300TMC3     O 4574   0.475   2.739  10.311  0.0147  0.0298  0.0994
  300TMC3     H 4575   0.483   3.094  10.177  0.8361 -1.1482  1.1807
  300TMC3    H1 4576   0.262   2.813  10.397  0.7992 -0.5341 -1.9802
  300TMC3    H2 4577   0.210   3.248  10.453 -0.4217 -0.1681 -0.2311
  300TMC3    C7 4578   0.129   2.996  10.552  0.0798  0.4188 -0.4726
  300TMC3    C8 4579   0.425   3.297  10.308  0.1191 -1.4724  0.1430
  300TMC3    O1 4580   0.064   2.885  10.548  0.1853  0.0175 -0.1361
  300TMC3    O2 4581   0.545   3.289  10.292 -0.9943  0.2185  0.4819
  301MPD2     C 4582   3.449   4.565   0.993  0.8129  0.0987 -0.2558
  301MPD2    C1 4583   3.359   4.463   0.970 -0.9669 -0.3071 -1.0061
  301MPD2    C2 4584   3.407   4.337   0.955  0.1526 -0.4326 -0.2252
  301MPD2    C3 4585   3.539   4.304   0.963  0.5857  0.1950  0.1730
  301MPD2    C4 4586   3.628   4.408   0.980 -0.0874  0.4737 -0.4800
  301MPD2    C5 4587   3.583   4.535   0.997  0.3612 -0.5135  0.1386
  301MPD2     H 4588   3.336   4.257   0.936  0.2282 -0.8611  1.2699
  301MPD2    H1 4589   3.734   4.386   0.986  0.6389  3.6487 -1.5488
  301MPD2    H2 4590   3.418   4.667   0.974  1.2185 -0.1706 -2.3673
  301MPD2    H3 4591   3.655   4.613   1.019 -0.7369  0.8110 -0.9296
  301MPD2     N 4592   3.598   4.172   0.958 -0.3660  0.7041  0.4945
  301MPD2    H5 4593   3.700   4.166   0.960 -0.3636  0.9096  1.0440
  301MPD2    N1 4594   3.218   4.480   0.965  0.1945 -0.0082  0.3779
  301MPD2    H7 4595   3.162   4.405   0.924  2.0432 -0.4961 -1.2443
  302TMC3    C1 4596   3.620   3.936   0.959  0.1175  0.8641 -0.2290
  302TMC3    C2 4597   3.746   3.936   1.011 -0.8053  0.6699  0.1413
  302TMC3    C3 4598   3.829   3.824   1.001  0.4211 -0.3494  0.4435
  302TMC3    C4 4599   3.566   3.824   0.907  0.9285  0.4888  0.2014
  302TMC3    C5 4600   3.641   3.712   0.914 -0.5522 -0.2319  0.3638
  302TMC3    C6 4601   3.776   3.715   0.940  1.2297  0.4457  0.2773
  302TMC3     C 4602   3.533   4.051   0.955 -0.2869 -0.4263  0.3307
  302TMC3     O 4603   3.413   4.028   0.942  0.4355 -0.4710 -0.1138
  302TMC3     H 4604   3.774   4.032   1.052 -0.3325  1.1146 -1.2430
  302TMC3    H1 4605   3.462   3.822   0.878  1.0481  1.2903 -0.2956
  302TMC3    H2 4606   3.842   3.631   0.916 -0.2284 -0.7089  0.2898
  302TMC3    C7 4607   3.604   3.597   0.830  0.5305 -0.2751  0.8463
  302TMC3    C8 4608   3.963   3.819   1.057  0.3583 -0.1381 -0.3468
  302TMC3    O1 4609   3.679   3.498   0.842  0.0200  0.3383  0.3328
  302TMC3    O2 4610   4.016   3.710   1.072  0.5115  0.1789  0.4885
  303MPD2     C 4611   3.752   2.884  10.889 -0.0784 -0.2635 -0.1499
  303MPD2    C1 4612   3.641   2.824  10.836 -0.4875 -0.4007 -1.0418
  303MPD2    C2 4613   3.649   2.778  10.704  0.0155 -0.3578  0.0891
  303MPD2    C3 4614   3.758   2.819  10.624  0.2988  0.1559  0.3012
  303MPD2    C4 4615   3.853   2.902  10.677 -0.2069  0.2111  0.7296
  303MPD2    C5 4616   3.849   2.927  10.809  0.0399 -0.0645 -0.1230
  303MPD2     H 4617   3.569   2.713  10.669  0.8274 -1.3575  0.0792
  303MPD2    H1 4618   3.934   2.936  10.614 -2.7532  0.2391 -2.5147
  303MPD2    H2 4619   3.764   2.903  10.995 -1.5383  1.8027 -0.3566
  303MPD2    H3 4620   3.931   2.970  10.866 -1.2045 -2.3139  3.3777
  303MPD2     N 4621   3.775   2.775  10.490 -0.1694 -0.3846  0.0407
  303MPD2    H5 4622   3.845   2.823  10.434  1.2972 -1.4019  1.0002
  303MPD2    N1 4623   3.537   2.798  10.925  0.8439  0.3083  0.5165
  303MPD2    H7 4624   3.540   2.824  11.022  0.3063  0.3921  0.5125
  304TMC3    C1 4625   3.332   2.711  11.001  0.7761 -0.0237  0.1060
  304TMC3    C2 4626   3.195   2.703  10.968  0.3268 -0.0686  0.2068
  304TMC3    C3 4627   3.116   2.608  11.025 -0.0171 -0.7777 -0.1054
  304TMC3    C4 4628   3.392   2.629  11.089 -0.0761  0.9045  0.3523
  304TMC3    C5 4629   3.300   2.537  11.152 -0.0041  0.3498  0.1879
  304TMC3    C6 4630   3.167   2.540  11.130 -0.3206  0.3988  0.2874
  304TMC3     C 4631   3.411   2.747  10.887 -0.7726  0.0717  0.0496
  304TMC3     O 4632   3.378   2.695  10.782  0.2443 -0.1195  0.4103
  304TMC3     H 4633   3.153   2.759  10.885  0.4818  0.1116  0.2487
  304TMC3    H1 4634   3.500   2.624  11.094 -0.1928 -1.6244  0.3728
  304TMC3    H2 4635   3.101   2.472  11.183 -1.1442 -0.0957 -1.3695
  304TMC3    C7 4636   3.352   2.408  11.184  0.9378  0.4695 -1.3005
  304TMC3    C8 4637   3.044   2.514  10.936  0.1549  0.3740 -0.1377
  304TMC3    O1 4638   3.465   2.395  11.226 -0.9673  0.0149 -0.0025
  304TMC3    O2 4639   3.044   2.401  10.977  0.2768  0.0495  0.0224
  305MPD2     C 4640   1.992   4.689  14.436  0.4696  0.2653  0.0833
  305MPD2    C1 4641   2.019   4.561  14.475 -0.3120  0.7454  0.1714
  305MPD2    C2 4642   2.028   4.463  14.373 -0.1079 -0.4682  0.4919
  305MPD2    C3 4643   2.004   4.491  14.243 -0.4916 -0.1769  0.3432
  305MPD2    C4 4644   1.978   4.622  14.208  0.6115 -0.3374  0.9401
  305MPD2    C5 4645   1.960   4.716  14.307  0.4150 -0.7102  0.3006
  305MPD2     H 4646   2.051   4.361  14.402 -0.3399 -1.2338 -2.0635
  305MPD2    H1 4647   1.934   4.647  14.112  0.3285  0.0852  1.1804
  305MPD2    H2 4648   1.986   0.034  14.503  0.1192 -1.6515  2.4971
  305MPD2    H3 4649   1.932   0.077  14.281  0.0739 -0.6240  0.9931
  305MPD2     N 4650   2.033   4.394  14.150 -0.1447  0.1424 -0.4852
  305MPD2    H5 4651   2.065   4.303  14.182 -0.9017 -0.6586 -1.9854
  305MPD2    N1 4652   2.050   4.544  14.610  0.2187  0.4078 -0.2649
  305MPD2    H7 4653   2.067   4.630  14.660 -2.1815  1.1281 -0.6936
  306TMC3    C1 4654   2.129   4.448  14.804  0.1624  0.5839 -0.0219
  306TMC3    C2 4655   2.212   4.346  14.855  0.0482  0.1975  0.3710
  306TMC3    C3 4656   2.281   4.385  14.970  0.5244 -0.2278 -0.5991
  306TMC3    C4 4657   2.107   4.571  14.865  0.4538  0.2729  0.2249
  306TMC3    C5 4658   2.187   4.599  14.975 -0.2160 -0.4739  0.4152
  306TMC3    C6 4659   2.277   4.515  15.025  0.2478 -1.2302  0.0250
  306TMC3     C 4660   2.072   4.424  14.673 -0.4271 -0.1903  0.2169
  306TMC3     O 4661   2.068   4.311  14.631  0.4342  0.3143  0.6411
  306TMC3     H 4662   2.232   4.257  14.797  1.5277  0.9030 -0.1995
  306TMC3    H1 4663   2.023   4.633  14.838 -0.1310 -1.5261 -2.0927
  306TMC3    H2 4664   2.340   4.543  15.109  0.8949  1.4072 -1.3347
  306TMC3    C7 4665   2.177   4.733  15.025 -0.7777  0.0130 -0.1216
  306TMC3    C8 4666   2.396   4.300  15.012 -0.6576  0.2205 -0.2272
  306TMC3    O1 4667   2.137   0.082  14.949  0.8770  0.1031  0.2881
  306TMC3    O2 4668   2.398   4.190  14.961  0.0805  0.0756  0.0579
  307MPD2     C 4669   4.494   2.204   0.383  0.5436 -0.0253 -0.9148
  307MPD2    C1 4670   4.461   2.329   0.439 -0.4229 -0.1164 -0.4605
  307MPD2    C2 4671   4.405   2.330   0.562 -0.1318  0.5691  0.1571
  307MPD2    C3 4672   4.383   2.216   0.636 -0.3099  0.5096  0.4996
  307MPD2    C4 4673   4.425   2.094   0.584  0.1461  0.6096  0.3779
  307MPD2    C5 4674   4.481   2.086   0.459 -0.1490 -0.9535 -0.2827
  307MPD2     H 4675   4.368   2.416   0.617  0.0443  1.3198 -0.9098
  307MPD2    H1 4676   4.397   1.998   0.626 -0.1969 -0.5544 -2.4618
  307MPD2    H2 4677   4.548   2.202   0.289  0.0856  0.1151 -1.1815
  307MPD2    H3 4678   4.530   1.997   0.424 -2.4198 -1.1554 -2.9255
  307MPD2     N 4679   4.306   2.220   0.759 -0.7174 -1.2231  0.3189
  307MPD2    H5 4680   4.279   2.315   0.783  2.1773 -0.1424 -0.6406
  307MPD2    N1 4681   4.483   2.455   0.376  0.1636  0.0124  0.4352
  307MPD2    H7 4682   4.455   2.536   0.430  0.1520 -0.7464  1.5753
  308TMC3    C1 4683   3.915   2.159   0.954 -0.0478 -0.3989 -0.4468
  308TMC3    C2 4684   3.927   2.278   1.023  0.2065 -0.2658  0.1590
  308TMC3    C3 4685   4.048   2.338   1.039  0.1493  0.2507 -0.0943
  308TMC3    C4 4686   4.030   2.100   0.900 -0.0640  0.6672  0.2862
  308TMC3    C5 4687   4.154   2.164   0.922 -0.2291 -0.7743  1.1911
  308TMC3    C6 4688   4.160   2.286   0.983  0.2685  0.1743  0.0800
  308TMC3     C 4689   3.791   2.119   0.885  0.2880 -0.2441 -0.3381
  308TMC3     O 4690   3.791   2.017   0.819 -0.6495 -0.3381 -0.0570
  308TMC3     H 4691   3.848   2.311   1.089 -1.4210 -0.4787 -1.6683
  308TMC3    H1 4692   4.026   2.015   0.833 -0.2952 -0.1660  1.3662
  308TMC3    H2 4693   4.243   2.355   0.972  0.5883 -0.3637 -0.8329
  308TMC3    C7 4694   4.259   2.116   0.831  0.2549  0.0014  0.0274
  308TMC3    C8 4695   4.067   2.472   1.090 -0.0442 -0.4879 -0.2499
  308TMC3    O1 4696   4.262   1.996   0.816  0.0101  0.0947  0.5773
  308TMC3    O2 4697   4.146   2.493   1.181 -0.6314  0.2244  0.2133
  309MPD2     C 4698   3.756   2.859  17.105  0.3919  0.3990 -0.4079
  309MPD2    C1 4699   3.710   2.975  17.038  0.2748 -0.7996  0.8644
  309MPD2    C2 4700   3.630   3.064  17.107 -0.3941 -0.2779  0.3170
  309MPD2    C3 4701   3.598   3.047  17.246 -0.2055 -0.0543 -0.1033
  309MPD2    C4 4702   3.632   2.928  17.298 -0.1568  0.2999  0.0836
  309MPD2    C5 4703   3.712   2.841  17.231 -0.6888  0.4172 -0.4174
  309MPD2     H 4704   3.605   3.151  17.048 -0.0674 -0.8379 -0.6331
  309MPD2    H1 4705   3.613   2.909  17.403 -0.0713  0.8927  0.2025
  309MPD2    H2 4706   3.828   2.790  17.062  0.0168 -0.5405  0.4885
  309MPD2    H3 4707   3.739   2.746  17.275  0.5220  1.0913  0.3021
  309MPD2     N 4708   3.545   3.139  17.333 -0.0803 -0.8953  0.7190
  309MPD2    H5 4709   3.515   3.109  17.425 -1.0294 -0.6323  0.4874
  309MPD2    N1 4710   3.740   3.008  16.897  0.3320  0.0330 -0.5874
  309MPD2    H7 4711   3.681   3.082  16.860  1.8825  1.0798 -0.9418
  310TMC3    C1 4712   3.824   2.970  16.678  0.0178  0.0884 -0.1601
  310TMC3    C2 4713   3.777   3.090  16.634  0.4962 -0.3830 -0.2938
  310TMC3    C3 4714   3.766   3.106  16.495  0.5182 -0.3262 -0.2703
  310TMC3    C4 4715   3.881   2.882  16.587  0.6365 -0.0514  0.1245
  310TMC3    C5 4716   3.869   2.904  16.458 -0.4875 -0.0116 -0.6419
  310TMC3    C6 4717   3.814   3.017  16.411  0.0314 -0.1288 -0.1100
  310TMC3     C 4718   3.823   2.938  16.818  0.5943  0.0440  0.2786
  310TMC3     O 4719   3.879   2.838  16.850 -0.5334 -0.4129 -0.5762
  310TMC3     H 4720   3.753   3.176  16.695  1.0534  0.2668 -1.0036
  310TMC3    H1 4721   3.917   2.785  16.618 -0.6141 -0.8567 -0.9170
  310TMC3    H2 4722   3.809   3.030  16.304 -1.2612 -1.6758 -0.2384
  310TMC3    C7 4723   3.903   2.805  16.363 -0.7615 -0.6588  0.2766
  310TMC3    C8 4724   3.667   3.197  16.450 -0.1398 -0.2858 -0.0774
  310TMC3    O1 4725   3.829   2.805  16.268  0.0456 -0.3703  0.2779
  310TMC3    O2 4726   3.576   3.237  16.521  0.5829 -0.2769  0.1470
  311MPD2     C 4727   1.111   4.297  13.078  0.2012 -0.1713  0.9416
  311MPD2    C1 4728   1.088   4.396  12.987  0.0747 -0.3956  0.0409
  311MPD2    C2 4729   0.969   4.404  12.922 -0.0555  0.3639 -0.1565
  311MPD2    C3 4730   0.862   4.325  12.967 -0.1980 -0.6525  0.6039
  311MPD2    C4 4731   0.886   4.228  13.061 -0.8894  0.4524  0.0099
  311MPD2    C5 4732   1.009   4.215  13.119  0.4745 -0.1984 -0.0064
  311MPD2     H 4733   0.944   4.464  12.835  0.8422 -0.6418 -1.1048
  311MPD2    H1 4734   0.812   4.155  13.090  0.5774 -0.7281  0.8196
  311MPD2    H2 4735   1.209   4.276  13.120  0.4219 -1.4414 -0.2245
  311MPD2    H3 4736   1.025   4.144  13.199  1.1456  0.4835  0.4679
  311MPD2     N 4737   0.738   4.339  12.901  0.1479  1.1521  0.2593
  311MPD2    H5 4738   0.726   4.428  12.853  0.0680  1.0261  0.0446
  311MPD2    N1 4739   1.197   4.484  12.960 -0.1697 -0.4224  0.1447
  311MPD2    H7 4740   1.291   4.452  12.983  0.4054  0.4608 -0.9769
  312TMC3    C1 4741   0.511   4.344  12.920  0.2358 -0.1417 -0.4620
  312TMC3    C2 4742   0.393   4.287  12.928 -0.4989 -0.5177 -0.2085
  312TMC3    C3 4743   0.283   4.367  12.929  0.9369 -0.3877  0.2140
  312TMC3    C4 4744   0.535   4.481  12.918 -0.0237  0.0111 -0.8687
  312TMC3    C5 4745   0.424   4.555  12.936  0.6515 -0.3531  0.1207
  312TMC3    C6 4746   0.299   4.502  12.939 -0.4547 -0.8336 -0.4391
  312TMC3     C 4747   0.628   4.262  12.932 -0.6122  0.5271 -0.3905
  312TMC3     O 4748   0.622   4.142  12.970 -0.0207 -0.0324 -0.0224
  312TMC3     H 4749   0.384   4.184  12.896 -0.8192  0.1984 -2.4266
  312TMC3    H1 4750   0.626   4.538  12.932  0.7801 -2.1677  2.8759
  312TMC3    H2 4751   0.220   4.574  12.960  0.0387 -0.6898  0.9327
  312TMC3    C7 4752   0.429   4.695  12.987 -0.2441  0.1145 -0.1577
  312TMC3    C8 4753   0.150   4.320  12.924  0.2272 -0.7318 -0.4437
  312TMC3    O1 4754   0.377   0.046  12.917  0.8866  0.0394  0.0888
  312TMC3    O2 4755   0.123   4.204  12.962  0.3612 -0.2815  0.0676
  313MPD2     C 4756   4.399   3.868  11.774  0.6500 -0.4021  0.4649
  313MPD2    C1 4757   4.430   3.867  11.639 -0.8293 -0.0341  0.2507
  313MPD2    C2 4758   4.407   3.757  11.561  0.2495 -0.6418  0.0655
  313MPD2    C3 4759   4.330   3.650  11.601 -0.2076  0.7119  0.0248
  313MPD2    C4 4760   4.293   3.654  11.730  0.7512 -0.6908  0.2026
  313MPD2    C5 4761   4.336   3.753  11.815 -0.0394  0.0793 -0.2623
  313MPD2     H 4762   4.440   3.751  11.458 -1.8492  0.8688 -0.6712
  313MPD2    H1 4763   4.238   3.571  11.774 -2.3705  2.1735  1.6375
  313MPD2    H2 4764   4.415   3.951  11.841 -1.6115 -0.5534  1.2061
  313MPD2    H3 4765   4.320   3.746  11.922  2.7159  1.8561  0.2608
  313MPD2     N 4766   4.322   3.543  11.516  0.0131 -0.0691 -0.9079
  313MPD2    H5 4767   4.371   3.553  11.427  0.7894 -1.8266 -0.6835
  313MPD2    N1 4768   4.497   3.978  11.582 -0.0134  0.3084 -0.1993
  313MPD2    H7 4769   4.517   3.975  11.482  0.3222  0.0009 -0.1236
  314TMC3    C1 4770   4.567   4.203  11.552  0.5055  0.6880  0.0900
  314TMC3    C2 4771   4.631   4.304  11.615  0.3597  0.4581  0.3151
  314TMC3    C3 4772   4.655   4.406  11.527 -0.3311 -0.1559  0.4678
  314TMC3    C4 4773   4.520   4.197  11.427 -0.4299  0.0632 -0.4939
  314TMC3    C5 4774   4.544   4.305  11.353 -0.5131 -0.1503  0.4494
  314TMC3    C6 4775   4.618   4.409  11.398  0.1285 -0.6339  0.1994
  314TMC3     C 4776   4.531   4.098  11.645 -0.1140  0.2509  0.3571
  314TMC3     O 4777   4.525   4.129  11.764  0.2217  0.4323  0.3499
  314TMC3     H 4778   4.651   4.303  11.722  0.1096 -1.2764  0.3415
  314TMC3    H1 4779   4.456   4.121  11.384 -2.3885  1.7692 -0.5940
  314TMC3    H2 4780   4.647   4.484  11.325  2.0482 -2.1022 -0.5440
  314TMC3    C7 4781   4.537   4.288  11.207 -0.1345 -0.2928  0.1796
  314TMC3    C8 4782   0.012   4.510  11.551 -0.4882 -0.7008  0.1292
  314TMC3    O1 4783   4.535   4.175  11.156 -0.2901 -0.3893  0.1632
  314TMC3    O2 4784   0.023   4.600  11.469 -0.2252 -0.2313  0.0001
  315MPD2     C 4785   4.651   2.384  17.342 -0.0489 -0.1218  0.8853
  315MPD2    C1 4786   4.679   2.419  17.471  0.5094  0.2778 -0.0957
  315MPD2    C2 4787   4.723   2.549  17.495 -0.0671  0.5043 -0.9401
  315MPD2    C3 4788   4.725   2.650  17.398  0.2785  0.4257  0.7542
  315MPD2    C4 4789   4.705   2.605  17.266 -0.2188  0.1028  0.6731
  315MPD2    C5 4790   4.665   2.473  17.242  0.1176 -0.0226  0.7817
  315MPD2     H 4791   0.001   2.577  17.598  0.6631 -1.0064 -0.6454
  315MPD2    H1 4792   4.708   2.678  17.186 -1.6340 -0.7023 -0.0987
  315MPD2    H2 4793   4.620   2.285  17.314  3.6778 -0.9532 -0.2773
  315MPD2    H3 4794   4.642   2.445  17.140  1.8667  2.5788 -0.3335
  315MPD2     N 4795   0.022   2.780  17.435  0.3144  0.1524  0.4697
  315MPD2    H5 4796   0.062   2.793  17.527 -0.6017 -0.6178  0.9716
  315MPD2    N1 4797   4.685   2.326  17.575 -0.4179 -0.3067  0.6548
  315MPD2    H7 4798   4.718   2.356  17.666  1.6155  0.1809 -0.2396
  316TMC3    C1 4799   0.108   2.993  17.409  0.1711 -0.1620  0.0210
  316TMC3    C2 4800   0.193   2.974  17.515  0.1864 -0.5174  0.4207
  316TMC3    C3 4801   0.228   3.085  17.591  0.0386 -0.2486  0.4684
  316TMC3    C4 4802   0.085   3.118  17.361 -1.0991 -0.7095 -0.2168
  316TMC3    C5 4803   0.129   3.226  17.432  0.0928  0.3751 -0.4095
  316TMC3    C6 4804   0.202   3.210  17.551 -0.0295  0.2463  0.4181
  316TMC3     C 4805   0.034   2.882  17.348  0.5391 -0.2649 -0.5000
  316TMC3     O 4806   4.724   2.898  17.237 -0.3922  0.1287 -0.0535
  316TMC3     H 4807   0.210   2.877  17.559  1.4399 -0.8376 -0.7479
  316TMC3    H1 4808   0.003   3.129  17.291 -0.5170  1.9160 -0.5003
  316TMC3    H2 4809   0.232   3.300  17.603  0.6156  0.5170 -0.4287
  316TMC3    C7 4810   0.051   3.345  17.425  0.0579  0.2538  0.5832
  316TMC3    C8 4811   0.314   3.080  17.707  0.3718 -0.3767 -0.0150
  316TMC3    O1 4812   0.033   3.399  17.533  0.3168  0.2466  0.4013
  316TMC3    O2 4813   0.396   3.168  17.730  0.1992  0.1758  0.1406
  317MPD2     C 4814   2.046   1.742  12.769  0.0317  0.4076  0.0273
  317MPD2    C1 4815   2.086   1.616  12.722  0.7991  0.0055  0.2685
  317MPD2    C2 4816   2.151   1.538  12.814  0.1258 -0.5314 -0.3894
  317MPD2    C3 4817   2.207   1.583  12.935  0.2818  0.4236 -0.6459
  317MPD2    C4 4818   2.171   1.715  12.975 -0.2952 -0.4543  0.0019
  317MPD2    C5 4819   2.086   1.782  12.894 -0.2624 -0.5338 -0.3788
  317MPD2     H 4820   2.182   1.436  12.798 -1.9636 -0.7595 -3.0097
  317MPD2    H1 4821   2.189   1.759  13.072 -0.5631 -1.4583  0.5188
  317MPD2    H2 4822   1.966   1.800  12.723  0.1309 -1.1465 -2.1466
  317MPD2    H3 4823   2.048   1.873  12.939 -0.9498 -1.2917  0.5673
  317MPD2     N 4824   2.264   1.482  13.015 -0.0085 -0.9847  0.2210
  317MPD2    H5 4825   2.293   1.395  12.972  1.3443 -0.7914  0.7391
  317MPD2    N1 4826   2.058   1.571  12.592 -0.5684 -0.0103 -0.1322
  317MPD2    H7 4827   2.092   1.476  12.578 -0.8968 -0.4903  2.2086
  318TMC3    C1 4828   2.344   1.381  13.218 -0.2210  0.1053 -0.2685
  318TMC3    C2 4829   2.265   1.276  13.210  0.8978 -0.7177 -0.3621
  318TMC3    C3 4830   2.288   1.163  13.292 -0.5173 -0.0862 -0.6334
  318TMC3    C4 4831   2.440   1.383  13.317 -0.8208  0.2182  0.1350
  318TMC3    C5 4832   2.458   1.278  13.405  0.1334  0.3275 -0.2720
  318TMC3    C6 4833   2.382   1.165  13.394  0.6850 -0.0512 -1.0381
  318TMC3     C 4834   2.295   1.506  13.151 -1.2938 -0.0047  0.5587
  318TMC3     O 4835   2.278   1.609  13.217 -0.0565 -0.3952  0.8929
  318TMC3     H 4836   2.176   1.281  13.148  1.8437 -0.1761 -1.6615
  318TMC3    H1 4837   2.495   1.476  13.328  0.8649 -1.0407  2.2515
  318TMC3    H2 4838   2.372   1.088  13.469 -1.3246 -0.5335 -1.8053
  318TMC3    C7 4839   2.538   1.296  13.521  0.0578 -0.7350 -0.8861
  318TMC3    C8 4840   2.195   1.050  13.287 -0.0410 -0.3243 -0.2868
  318TMC3    O1 4841   2.542   1.410  13.572  0.6409  0.0125  0.3452
  318TMC3    O2 4842   2.247   0.943  13.323 -0.7423 -0.2526  0.1076
  319MPD2     C 4843   3.064   2.377  16.316 -0.1762  0.4519  0.5682
  319MPD2    C1 4844   3.027   2.307  16.433 -0.2704 -0.4884  0.2535
  319MPD2    C2 4845   2.891   2.284  16.455 -0.4228  0.3920 -0.0987
  319MPD2    C3 4846   2.797   2.318  16.357  0.0143 -0.1851 -0.0702
  319MPD2    C4 4847   2.838   2.390  16.246 -0.0471 -0.2856  0.3418
  319MPD2    C5 4848   2.970   2.420  16.223  0.3596 -0.2209 -0.3034
  319MPD2     H 4849   2.849   2.243  16.545 -0.0766 -1.5369 -0.8249
  319MPD2    H1 4850   2.757   2.418  16.179  1.9503  0.7359 -1.6556
  319MPD2    H2 4851   3.161   2.414  16.284  0.3956  0.3801  2.2495
  319MPD2    H3 4852   3.004   2.473  16.135  0.0261  1.4648  0.5730
  319MPD2     N 4853   2.656   2.287  16.357 -0.3831 -0.1366  0.2128
  319MPD2    H5 4854   2.599   2.305  16.276  0.3369 -1.6821 -0.6437
  319MPD2    N1 4855   3.119   2.280  16.536  0.2902 -0.3437  0.0660
  319MPD2    H7 4856   3.075   2.251  16.623  0.0006 -2.1134 -0.6703
  320TMC3    C1 4857   2.451   2.207  16.427  0.2765  0.5665  0.0307
  320TMC3    C2 4858   2.388   2.289  16.340 -0.8701  0.5481 -0.3983
  320TMC3    C3 4859   2.272   2.248  16.273  0.1567 -0.9884  0.3554
  320TMC3    C4 4860   2.398   2.090  16.465  0.3078  0.0217  0.4302
  320TMC3    C5 4861   2.275   2.058  16.411 -0.2113  0.8085  0.3478
  320TMC3    C6 4862   2.210   2.136  16.318  0.8615  0.5257 -0.1681
  320TMC3     C 4863   2.594   2.220  16.453 -0.0870  0.3151 -0.0430
  320TMC3     O 4864   2.641   2.157  16.549 -0.4729  0.4047 -0.0692
  320TMC3     H 4865   2.427   2.388  16.321  0.5207 -0.2248 -1.5065
  320TMC3    H1 4866   2.451   2.019  16.528  0.1297 -0.3501  0.1660
  320TMC3    H2 4867   2.116   2.108  16.269  1.3037  1.1889 -1.3970
  320TMC3    C7 4868   2.240   1.914  16.393 -0.0892  0.1223 -0.1347
  320TMC3    C8 4869   2.232   2.328  16.160 -0.0591 -0.6311 -0.2966
  320TMC3    O1 4870   2.175   1.891  16.297  0.0374 -0.2332 -0.2845
  320TMC3    O2 4871   2.279   2.442  16.147  0.3317  0.7161  0.6509
  321TMC3    C1 4872   3.325   2.274  16.650  0.6618 -0.7530 -0.3590
  321TMC3    C2 4873   3.264   2.209  16.756  0.2516 -0.4904  0.6559
  321TMC3    C3 4874   3.334   2.200  16.873  0.1982  0.6903  0.5809
  321TMC3    C4 4875   3.457   2.313  16.661 -0.4042 -0.8949 -0.4998
  321TMC3    C5 4876   3.520   2.303  16.781 -0.6866 -0.7248  0.6168
  321TMC3    C6 4877   3.460   2.257  16.890 -0.2415 -0.5456  0.2789
  321TMC3     C 4878   3.254   2.288  16.524 -0.2600 -0.5117  0.1423
  321TMC3     O 4879   3.328   2.321  16.432 -0.3157 -0.3597  0.5088
  321TMC3     H 4880   3.160   2.179  16.756 -0.2173  1.1349  1.3254
  321TMC3    H1 4881   3.503   2.350  16.570  0.2527 -2.4235 -0.7867
  321TMC3    H2 4882   3.505   2.266  16.988  3.1552 -1.2534 -1.2284
  321TMC3    C7 4883   3.662   2.268  16.769  0.0652 -0.2560  0.6225
  321TMC3    C8 4884   3.347   2.065  16.921  0.4901  0.1211  1.1116
  321TMC3    O1 4885   3.742   2.331  16.698 -0.6453 -0.1993 -0.9418
  321TMC3    O2 4886   3.459   2.033  16.953  0.3333  0.1481 -0.2971
  322MPD2     C 4887   1.591   4.199  14.054 -0.4699  0.3365  0.2918
  322MPD2    C1 4888   1.640   4.095  14.135  0.4593 -0.5311 -0.0630
  322MPD2    C2 4889   1.666   3.973  14.073 -0.0787 -0.0888 -0.5373
  322MPD2    C3 4890   1.644   3.955  13.942 -0.3514  0.4152 -0.0609
  322MPD2    C4 4891   1.610   4.058  13.861 -0.0899  0.0329 -1.1299
  322MPD2    C5 4892   1.580   4.181  13.922 -0.8913  0.5570  0.2471
  322MPD2     H 4893   1.709   3.888  14.126 -0.8996 -0.6790 -0.8183
  322MPD2    H1 4894   1.603   4.069  13.753  0.4680  2.0390 -0.9704
  322MPD2    H2 4895   1.555   4.295  14.090  1.5409  0.3400  2.2506
  322MPD2    H3 4896   1.548   4.263  13.859  0.5779  0.3806 -0.7057
  322MPD2     N 4897   1.667   3.824  13.888 -0.0555  0.0922 -0.4484
  322MPD2    H5 4898   1.675   3.751  13.959  1.1631 -0.3243 -1.0132
  322MPD2    N1 4899   1.657   4.111  14.276  0.3347  0.4685  0.2865
  322MPD2    H7 4900   1.660   4.206  14.313 -0.0428  0.6960 -0.2636
  323TMC3    C1 4901   1.771   4.034  14.465 -0.6907 -0.5281  0.5970
  323TMC3    C2 4902   1.896   4.077  14.412 -0.2254 -0.1148 -0.4938
  323TMC3    C3 4903   2.018   4.054  14.479 -0.3890  0.2271 -0.4016
  323TMC3    C4 4904   1.783   3.947  14.564 -0.2107 -0.0755 -0.3506
  323TMC3    C5 4905   1.897   3.924  14.631 -0.2589 -0.1179 -0.6291
  323TMC3    C6 4906   2.015   3.975  14.590  0.2831 -0.4204 -0.1532
  323TMC3     C 4907   1.661   4.012  14.368  0.3781  0.3631  0.3470
  323TMC3     O 4908   1.614   3.902  14.360  0.0903 -0.0614 -0.4553
  323TMC3     H 4909   1.902   4.133  14.320  2.1541 -0.8059 -0.7417
  323TMC3    H1 4910   1.692   3.894  14.590 -0.1501 -0.6366 -1.3012
  323TMC3    H2 4911   2.106   3.948  14.642  0.6825  1.6810  0.2238
  323TMC3    C7 4912   1.900   3.821  14.727 -0.0857  0.1466  0.0801
  323TMC3    C8 4913   2.140   4.110  14.415 -0.4605 -0.2695 -0.1464
  323TMC3    O1 4914   1.813   3.736  14.725 -0.1283 -0.6290  0.4493
  323TMC3    O2 4915   2.134   4.152  14.301 -0.3799  0.4590 -0.0915
  324MPD2     C 4916   3.714   0.221  14.333 -0.9309  0.2444 -0.4397
  324MPD2    C1 4917   3.729   0.328  14.416 -0.0458  0.7330 -0.4238
  324MPD2    C2 4918   3.626   0.364  14.510  0.9880 -0.2134  0.2969
  324MPD2    C3 4919   3.507   0.299  14.505 -0.6662 -0.2725  0.3704
  324MPD2    C4 4920   3.492   0.196  14.419  0.5530  0.0690  1.0384
  324MPD2    C5 4921   3.594   0.156  14.333  0.3452 -0.7195 -1.3108
  324MPD2     H 4922   3.642   0.450  14.574  0.0836 -0.8012  1.3076
  324MPD2    H1 4923   3.391   0.156  14.415  0.2415  0.9150  0.3646
  324MPD2    H2 4924   3.794   0.189  14.268 -1.2802 -1.3328 -0.0819
  324MPD2    H3 4925   3.577   0.076  14.262 -0.8020  0.4772 -2.4114
  324MPD2     N 4926   3.396   0.339  14.580  1.0102 -0.3252 -0.5399
  324MPD2    H5 4927   3.311   0.288  14.560  0.0949  1.3744 -0.9783
  324MPD2    N1 4928   3.842   0.412  14.416  0.5663 -0.4657 -0.4490
  324MPD2    H7 4929   3.855   0.459  14.506 -0.6071  0.3150 -0.6870
  325TMC3    C1 4930   3.259   0.453  14.742 -0.1696  0.6183 -0.3995
  325TMC3    C2 4931   3.158   0.375  14.707  0.1200 -0.3177 -0.4461
  325TMC3    C3 4932   3.034   0.431  14.703  0.0774 -0.2803 -0.5438
  325TMC3    C4 4933   3.241   0.578  14.790  0.1894 -0.2432 -0.3562
  325TMC3    C5 4934   3.114   0.637  14.782 -0.0648  0.3611 -0.3652
  325TMC3    C6 4935   3.012   0.562  14.745 -0.0936  1.0934  0.8383
  325TMC3     C 4936   3.387   0.445  14.663  0.1317  0.3166  0.0737
  325TMC3     O 4937   3.465   0.533  14.684 -0.3994 -0.2340  0.2217
  325TMC3     H 4938   3.174   0.268  14.699 -0.6155 -0.4775  0.2459
  325TMC3    H1 4939   3.326   0.643  14.813  0.4366 -0.0190 -1.8886
  325TMC3    H2 4940   2.914   0.606  14.726 -0.2248  0.4161 -0.0450
  325TMC3    C7 4941   3.116   0.781  14.775 -0.1974  1.1733  0.0896
  325TMC3    C8 4942   2.916   0.353  14.656 -0.2918 -0.2758  0.9661
  325TMC3    O1 4943   3.222   0.843  14.770  0.1300  0.1132  0.3756
  325TMC3    O2 4944   2.925   0.287  14.556 -0.1818 -0.3704  0.2148
  326MPD2     C 4945   0.211   1.361  11.516 -1.0305  0.0188  0.4907
  326MPD2    C1 4946   0.155   1.431  11.411 -0.0409  0.3072 -0.0645
  326MPD2    C2 4947   0.207   1.551  11.375 -0.2199 -0.6172  0.0712
  326MPD2    C3 4948   0.318   1.604  11.434 -0.4302 -0.2439  0.0308
  326MPD2    C4 4949   0.379   1.526  11.529  0.4057  0.3833 -0.2367
  326MPD2    C5 4950   0.328   1.407  11.576  0.4818  0.2844 -0.2336
  326MPD2     H 4951   0.152   1.609  11.302 -2.1291 -1.1779  1.0729
  326MPD2    H1 4952   0.468   1.558  11.581  0.6705  0.1291 -0.5368
  326MPD2    H2 4953   0.173   1.267  11.556 -0.5757 -0.6868 -0.7239
  326MPD2    H3 4954   0.388   1.348  11.644  0.6631  1.0720  0.2951
  326MPD2     N 4955   0.371   1.726  11.385  0.3087  0.2832 -0.0640
  326MPD2    H5 4956   0.313   1.785  11.328  2.2192 -0.4497 -2.7630
  326MPD2    N1 4957   0.036   1.383  11.341  0.0462  0.1693  0.3701
  326MPD2    H7 4958   4.730   1.444  11.273  1.3511 -0.4128 -1.0348
  327TMC3    C1 4959   4.673   1.228  11.213 -0.3290  0.5473  0.0083
  327TMC3    C2 4960   4.602   1.340  11.189  0.5604  0.2634  0.1967
  327TMC3    C3 4961   4.609   1.400  11.067 -0.5004  0.0499 -0.8408
  327TMC3    C4 4962   0.014   1.173  11.118 -0.3390  0.1191  0.3944
  327TMC3    C5 4963   0.032   1.246  11.003 -0.0188 -0.2311 -0.1208
  327TMC3    C6 4964   4.692   1.351  10.970  0.0257  1.1590 -0.6968
  327TMC3     C 4965   0.004   1.252  11.338  0.2175  0.0554  0.1201
  327TMC3     O 4966   0.046   1.155  11.402  0.2546  0.6017  0.1206
  327TMC3     H 4967   4.535   1.375  11.268  0.3348 -1.6857  0.8810
  327TMC3    H1 4968   0.073   1.087  11.148 -0.0366 -0.0719 -0.7635
  327TMC3    H2 4969   4.706   1.394  10.872  0.6152  3.3466  0.3621
  327TMC3    C7 4970   0.171   1.282  10.967 -0.0120  0.3986  0.5664
  327TMC3    C8 4971   4.527   1.512  11.030  0.3690 -0.0125 -0.5157
  327TMC3    O1 4972   0.191   1.352  10.871  0.2208  0.1878  0.1170
  327TMC3    O2 4973   4.563   1.558  10.923 -0.0653  0.1191 -0.6090
  328MPD2     C 4974   2.378   0.724  17.113  0.5845  0.0184  0.5549
  328MPD2    C1 4975   2.245   0.745  17.097  0.0678  0.4264 -0.3402
  328MPD2    C2 4976   2.198   0.858  17.030  0.2436  0.0692 -0.4139
  328MPD2    C3 4977   2.288   0.951  16.979  0.0331  0.5103 -0.4098
  328MPD2    C4 4978   2.423   0.924  16.997 -0.0781  0.3053  0.0839
  328MPD2    C5 4979   2.462   0.811  17.056  0.6722 -0.4508  0.3362
  328MPD2     H 4980   2.092   0.878  17.020 -0.0299 -0.0293  2.2465
  328MPD2    H1 4981   2.500   0.987  16.953 -0.3325  0.6389  0.1126
  328MPD2    H2 4982   2.413   0.640  17.172  1.8281 -0.8994 -1.5162
  328MPD2    H3 4983   2.568   0.795  17.072  0.5530  0.5354  1.9897
  328MPD2     N 4984   2.261   1.072  16.905  0.0642  0.0852 -0.0608
  328MPD2    H5 4985   2.346   1.124  16.887 -0.8160  0.5543 -2.9372
  328MPD2    N1 4986   2.146   0.654  17.148  0.3881 -0.1163 -0.3912
  328MPD2    H7 4987   2.049   0.679  17.131  0.0923 -1.0417 -0.0463
  329TMC3    C1 4988   2.046   0.459  17.208  0.4153 -0.9808  0.8774
  329TMC3    C2 4989   1.962   0.515  17.298 -0.2961 -0.1279 -0.3937
  329TMC3    C3 4990   1.827   0.501  17.284 -0.6759 -0.4449  0.0700
  329TMC3    C4 4991   2.003   0.387  17.103 -0.6882  0.3632  0.8123
  329TMC3    C5 4992   1.865   0.364  17.099  0.2911  0.2389  0.0872
  329TMC3    C6 4993   1.777   0.417  17.188 -0.3733  0.1075  0.7302
  329TMC3     C 4994   2.168   0.528  17.186  0.0241  0.2499  0.0270
  329TMC3     O 4995   2.267   0.459  17.159  0.0268  0.4305  0.3607
  329TMC3     H 4996   2.005   0.578  17.376 -1.2177 -0.1093  0.0955
  329TMC3    H1 4997   2.070   0.358  17.022 -0.8531  0.1015  0.7683
  329TMC3    H2 4998   1.669   0.416  17.192 -0.2998 -2.2941  2.0521
  329TMC3    C7 4999   1.815   0.373  16.959 -0.8304 -0.4729 -0.2408
  329TMC3    C8 5000   1.746   0.618  17.305  0.5722 -0.2950 -0.0125
  329TMC3    O1 5001   1.875   0.327  16.866  0.4330 -0.5567  0.0408
  329TMC3    O2 5002   1.650   0.631  17.227  0.3117 -0.2115 -0.2218
  330TMC3    C1 5003   0.646   0.838   9.742  0.2630  0.6389 -0.5158
  330TMC3    C2 5004   0.545   0.773   9.685  0.6441 -0.0493 -0.6194
  330TMC3    C3 5005   0.472   0.712   9.783  0.3545  0.5737  0.4804
  330TMC3    C4 5006   0.693   0.834   9.869  0.4427  0.4819 -0.4956
  330TMC3    C5 5007   0.616   0.769   9.967 -0.0953 -0.6011 -0.2224
  330TMC3    C6 5008   0.511   0.702   9.916 -0.6946 -0.4710  0.3788
  330TMC3     C 5009   0.723   0.913   9.646 -0.0660 -0.1287  0.4742
  330TMC3     O 5010   0.841   0.891   9.639  0.0011 -0.3698  0.5885
  330TMC3     H 5011   0.525   0.795   9.581 -2.5278 -0.7778 -0.1821
  330TMC3    H1 5012   0.787   0.886   9.884 -0.4323  1.9898 -0.1603
  330TMC3    H2 5013   0.447   0.651   9.987 -0.0188 -1.4135  0.3180
  330TMC3    C7 5014   0.633   0.782  10.112 -0.4673  0.2516 -0.0752
  330TMC3    C8 5015   0.357   0.644   9.724  0.3480  0.2454 -1.1514
  330TMC3    O1 5016   0.563   0.705  10.178  0.1652 -0.1026 -0.3019
  330TMC3    O2 5017   0.333   0.653   9.602  0.4277 -0.2517 -0.1193
  331MPD2     C 5018   2.760   4.415  13.183 -0.9986 -0.0387  0.1214
  331MPD2    C1 5019   2.884   4.435  13.129 -0.2095  0.5525 -0.0869
  331MPD2    C2 5020   2.945   4.335  13.059 -0.1880 -0.9216 -0.3658
  331MPD2    C3 5021   2.887   4.223  13.026 -0.5112  0.2879  0.1598
  331MPD2    C4 5022   2.765   4.197  13.091 -0.6075 -0.4182 -0.3056
  331MPD2    C5 5023   2.705   4.297  13.160 -1.0085  0.1578  0.5063
  331MPD2     H 5024   3.038   4.354  13.005 -0.0646  1.2148  0.6205
  331MPD2    H1 5025   2.717   4.101  13.079 -0.3413 -0.5017 -0.6934
  331MPD2    H2 5026   2.702   4.498  13.223 -1.6311  0.2570 -1.3688
  331MPD2    H3 5027   2.608   4.280  13.206 -0.6846  2.8786  2.2000
  331MPD2     N 5028   2.952   4.127  12.944 -0.0252 -0.2995  0.4771
  331MPD2    H5 5029   3.041   4.153  12.901 -1.6138  1.7535 -1.5944
  331MPD2    N1 5030   2.933   4.562  13.142 -0.2103 -0.1940 -0.0925
  331MPD2    H7 5031   2.870   4.637  13.170  0.9631  1.1298 -1.0432
  332TMC3    C1 5032   3.011   3.942  12.829  0.3263 -0.3372  0.5707
  332TMC3    C2 5033   3.085   4.016  12.745  1.1118  0.0758  0.4421
  332TMC3    C3 5034   3.211   3.969  12.719  0.3112  0.5124 -0.6582
  332TMC3    C4 5035   3.059   3.828  12.889 -0.5258  0.2376 -0.1434
  332TMC3    C5 5036   3.182   3.785  12.862  0.2277  0.5597  0.5656
  332TMC3    C6 5037   3.260   3.853  12.775  0.0233  0.8363  0.6659
  332TMC3     C 5038   2.902   4.013  12.897 -0.0971  0.2553 -0.5834
  332TMC3     O 5039   2.802   3.953  12.935 -0.2394 -0.0804  0.1806
  332TMC3     H 5040   3.044   4.109  12.707  1.2175 -0.8306 -1.8611
  332TMC3    H1 5041   2.992   3.775  12.956  0.6548 -2.5335 -1.1633
  332TMC3    H2 5042   3.363   3.823  12.759  0.4784  2.2685  0.9201
  332TMC3    C7 5043   3.253   3.716  12.969 -0.8609  1.0060 -0.0413
  332TMC3    C8 5044   3.308   4.051  12.647  0.1432 -0.8683 -0.1232
  332TMC3    O1 5045   3.186   3.695  13.068  0.1971  0.0058  0.2761
  332TMC3    O2 5046   3.422   4.016  12.651 -0.3846  0.4173 -0.2169
  333MPD2     C 5047   3.499   4.728  11.568 -0.0860 -0.0292 -0.1735
  333MPD2    C1 5048   3.501   4.677  11.444 -0.2075  0.1936  0.6094
  333MPD2    C2 5049   3.457   4.543  11.434  0.0024  0.3701 -0.2930
  333MPD2    C3 5050   3.423   4.466  11.550 -0.0922 -0.3664  0.2159
  333MPD2    C4 5051   3.428   4.534  11.675 -0.4805  0.5391  0.6414
  333MPD2    C5 5052   3.470   4.662  11.682  0.8285 -0.2719 -0.0887
  333MPD2     H 5053   3.446   4.495  11.337 -0.7049 -3.8578  1.8634
  333MPD2    H1 5054   3.403   4.484  11.768  1.2099  2.6727  2.2681
  333MPD2    H2 5055   3.525   0.093  11.579  3.3745 -0.9361  0.4139
  333MPD2    H3 5056   3.484   4.711  11.778 -0.0281  0.3599 -0.2889
  333MPD2     N 5057   3.390   4.326  11.533  0.2402 -0.2016 -0.8068
  333MPD2    H5 5058   3.407   4.295  11.438 -0.4918 -0.8321 -0.7340
  333MPD2    N1 5059   3.530   0.021  11.336  0.1483 -0.1266  0.0698
  333MPD2    H7 5060   3.565   0.115  11.352  0.7627 -0.3209 -0.1415
  334TMC3    C1 5061   3.556   0.091  11.115 -0.3769  0.1869 -0.0001
  334TMC3    C2 5062   3.604   0.058  10.989 -0.0921  0.0272  0.1446
  334TMC3    C3 5063   3.642   0.161  10.905 -0.7121  0.7588 -0.7052
  334TMC3    C4 5064   3.529   0.220  11.146 -0.4811  0.5064 -0.0880
  334TMC3    C5 5065   3.569   0.320  11.064 -0.3454 -0.0688  0.1503
  334TMC3    C6 5066   3.634   0.294  10.951 -0.4105  0.1727 -0.1156
  334TMC3     C 5067   3.516   4.725  11.205  0.1540  0.0233  0.3672
  334TMC3     O 5068   3.478   4.618  11.155  0.1498 -0.3775  0.1065
  334TMC3     H 5069   3.627   4.696  10.957 -2.5981 -1.3704  2.8395
  334TMC3    H1 5070   3.484   0.243  11.242  0.7623 -0.4013  0.7218
  334TMC3    H2 5071   3.663   0.378  10.889 -1.4671  1.7799  1.5576
  334TMC3    C7 5072   3.533   0.449  11.096  0.0913  0.2470  0.2994
  334TMC3    C8 5073   3.717   0.134  10.787 -0.1312  0.1885 -0.0352
  334TMC3    O1 5074   3.620   0.533  11.112 -0.2649  0.0848  0.8406
  334TMC3    O2 5075   3.691   0.036  10.721  0.0760  0.3289  0.2417
  335TMC3    C1 5076   2.712   0.991  17.492 -0.2806  0.6206 -0.1223
  335TMC3    C2 5077   2.710   0.960  17.358 -0.4096  0.5057  0.0579
  335TMC3    C3 5078   2.824   0.989  17.280 -0.9529  0.8152  0.1873
  335TMC3    C4 5079   2.833   1.032  17.559 -0.1538 -0.1657 -0.4898
  335TMC3    C5 5080   2.937   1.062  17.476  0.2327  0.2589 -0.1107
  335TMC3    C6 5081   2.935   1.042  17.339  0.1517  0.0551  0.0112
  335TMC3     C 5082   2.591   0.954  17.558 -0.3726  0.4534 -0.1038
  335TMC3     O 5083   2.605   0.946  17.679  0.4241  0.5313 -0.5575
  335TMC3     H 5084   2.627   0.911  17.309  0.3673 -2.1298  1.4295
  335TMC3    H1 5085   2.841   1.039  17.667 -1.5902 -2.3444 -0.2403
  335TMC3    H2 5086   3.031   1.051  17.289  0.5072  0.9108  0.8371
  335TMC3    C7 5087   3.068   1.058  17.530  0.1993 -1.1707  0.3265
  335TMC3    C8 5088   2.878   0.890  17.186 -0.3205  0.0511  0.5337
  335TMC3    O1 5089   3.157   1.120  17.468  0.1324 -0.3473  0.3380
  335TMC3    O2 5090   2.949   0.931  17.097 -0.2976 -0.3412 -0.6889
  336MPD2     C 5091   2.677   3.621  16.293 -0.5379 -0.2732 -0.5976
  336MPD2    C1 5092   2.595   3.566  16.198 -0.2507 -0.0685  0.8223
  336MPD2    C2 5093   2.568   3.434  16.188 -0.0029  0.3121 -0.1820
  336MPD2    C3 5094   2.615   3.348  16.279 -0.1811  0.1513  0.3427
  336MPD2    C4 5095   2.693   3.403  16.382 -0.3259  0.1913  0.4542
  336MPD2    C5 5096   2.731   3.538  16.389  0.5303 -0.0861  0.6123
  336MPD2     H 5097   2.512   3.405  16.099 -0.7759 -0.7925  0.6634
  336MPD2    H1 5098   2.727   3.335  16.459 -1.5101 -1.0511 -0.1307
  336MPD2    H2 5099   2.678   3.729  16.299 -2.2715 -0.3977  1.8464
  336MPD2    H3 5100   2.790   3.586  16.466 -0.3871 -1.8928  2.4467
  336MPD2     N 5101   2.580   3.219  16.275 -0.0813 -0.0880 -0.5060
  336MPD2    H5 5102   2.579   3.168  16.362  1.5413  0.5708 -0.1066
  336MPD2    N1 5103   2.530   3.646  16.102  0.7809  0.1969 -0.0964
  336MPD2    H7 5104   2.454   3.602  16.050  0.6532  0.8808 -0.4863
  337TMC3    C1 5105   2.454   3.843  15.997 -0.2227 -0.1872 -0.1332
  337TMC3    C2 5106   2.345   3.783  15.952  0.2732 -0.3295  0.1867
  337TMC3    C3 5107   2.289   3.822  15.832 -0.0692  0.4548  0.2461
  337TMC3    C4 5108   2.516   3.937  15.916 -1.1486  0.2796 -0.2571
  337TMC3    C5 5109   2.456   3.967  15.799 -0.3207  0.3237  0.4350
  337TMC3    C6 5110   2.351   3.907  15.749  0.2935  0.1139  0.4032
  337TMC3     C 5111   2.545   3.782  16.093  0.4287 -0.2325  0.1302
  337TMC3     O 5112   2.633   3.859  16.135  0.4310 -0.1236 -0.6087
  337TMC3     H 5113   2.285   3.724  16.021 -1.6175  1.5259  0.1188
  337TMC3    H1 5114   2.605   3.987  15.952 -1.7015  0.9098  0.2435
  337TMC3    H2 5115   2.322   3.930  15.647 -0.7637  0.5465  0.8022
  337TMC3    C7 5116   2.482   4.099  15.739  0.7846  0.1972  0.4355
  337TMC3    C8 5117   2.147   3.825  15.838  0.5112  0.5209  0.0282
  337TMC3    O1 5118   2.466   4.122  15.622  0.5981 -0.3082 -0.0187
  337TMC3    O2 5119   2.094   3.820  15.946  0.9867 -0.2075  0.1326
  338MPD2     C 5120   3.454   3.190   1.026 -0.1971  0.5205  0.2383
  338MPD2    C1 5121   3.343   3.208   0.947  0.7588 -0.7054  0.4588
  338MPD2    C2 5122   3.277   3.328   0.956  0.2960 -0.0294 -1.1949
  338MPD2    C3 5123   3.314   3.428   1.043 -0.2355 -0.3365 -0.0695
  338MPD2    C4 5124   3.430   3.411   1.115 -0.7837 -0.3617  0.0145
  338MPD2    C5 5125   3.497   3.287   1.114 -0.2726 -0.4425  0.2980
  338MPD2     H 5126   3.188   3.347   0.898 -1.2730 -1.3540  0.7738
  338MPD2    H1 5127   3.460   3.497   1.174  1.9264 -1.7535  0.6795
  338MPD2    H2 5128   3.510   3.097   1.025 -0.5710  0.2949  0.3789
  338MPD2    H3 5129   3.584   3.268   1.176 -1.7450 -1.8791  1.9402
  338MPD2     N 5130   3.227   3.533   1.045 -0.3366 -0.0807  0.1575
  338MPD2    H5 5131   3.152   3.522   0.977  1.8105 -2.3213 -1.8254
  338MPD2    N1 5132   3.285   3.113   0.852  0.1840 -0.1697 -0.2297
  338MPD2    H7 5133   3.207   3.147   0.797 -0.2159 -0.4292  0.1659
  339TMC3    C1 5134   3.129   3.737   1.055 -0.0731 -0.2631 -0.6135
  339TMC3    C2 5135   3.050   3.769   1.159 -0.5272 -0.4081  0.1321
  339TMC3    C3 5136   2.915   3.755   1.160 -0.1624  0.2023 -0.0186
  339TMC3    C4 5137   3.074   3.687   0.941 -0.0065 -0.1419  0.3492
  339TMC3    C5 5138   2.936   3.678   0.942  0.6854  0.2326  0.3329
  339TMC3    C6 5139   2.860   3.707   1.044  0.1720  0.3868 -1.1408
  339TMC3     C 5140   3.249   3.662   1.085 -0.7665 -0.1548  0.0693
  339TMC3     O 5141   3.324   3.704   1.173 -0.5978  0.6399  0.3886
  339TMC3     H 5142   3.102   3.811   1.244 -1.1296 -1.1139  0.8571
  339TMC3    H1 5143   3.135   3.650   0.859 -1.3957 -2.7116  0.4755
  339TMC3    H2 5144   2.756   3.720   1.018  0.0509  2.1786  0.2807
  339TMC3    C7 5145   2.893   3.571   0.856 -0.1673  0.2166  0.1378
  339TMC3    C8 5146   2.841   3.840   1.244 -0.0466  0.2114  0.5800
  339TMC3    O1 5147   2.946   3.569   0.743  0.0148  0.4338 -0.3954
  339TMC3    O2 5148   2.895   3.937   1.298  0.6061  0.4115 -0.4334
  340MPD2     C 5149   2.947   1.361  10.487 -0.3439 -0.2742  0.1309
  340MPD2    C1 5150   2.920   1.231  10.537 -0.6480  0.0976  1.0119
  340MPD2    C2 5151   2.978   1.196  10.655 -0.2981 -0.2790  1.0554
  340MPD2    C3 5152   3.074   1.275  10.714 -0.2094  0.8073  0.0627
  340MPD2    C4 5153   3.099   1.397  10.657 -1.0914  0.5935 -0.5761
  340MPD2    C5 5154   3.037   1.445  10.543  0.5806 -0.6918  0.2233
  340MPD2     H 5155   2.942   1.108  10.707 -0.4657 -0.4660  0.6258
  340MPD2    H1 5156   3.170   1.465  10.702 -0.2720 -0.8950  0.3907
  340MPD2    H2 5157   2.900   1.386  10.392  0.5656  0.9358 -0.0037
  340MPD2    H3 5158   3.075   1.538  10.503 -2.5935 -0.3856 -2.1474
  340MPD2     N 5159   3.161   1.236  10.823 -0.1252  0.0178  0.2476
  340MPD2    H5 5160   3.234   1.304  10.843  0.4627 -0.5201 -0.0714
  340MPD2    N1 5161   2.839   1.155  10.452  0.1911 -0.2746  0.1184
  340MPD2    H7 5162   2.792   1.199  10.373 -0.7727 -2.3240 -0.4650
  341TMC3    C1 5163   2.751   0.963  10.358 -0.3383  0.0895  0.1718
  341TMC3    C2 5164   2.698   0.842  10.388  0.5687  0.0899 -0.4550
  341TMC3    C3 5165   2.705   0.743  10.292  0.6370  0.4996  0.9270
  341TMC3    C4 5166   2.807   0.999  10.248 -0.7910 -0.6440  0.5327
  341TMC3    C5 5167   2.803   0.904  10.149  0.6173  0.4196  0.0154
  341TMC3    C6 5168   2.754   0.770  10.166  0.0676  0.2784  0.2350
  341TMC3     C 5169   2.810   1.025  10.475 -0.0611  0.0815 -0.3212
  341TMC3     O 5170   2.808   0.962  10.579  0.1981 -0.1458 -0.6998
  341TMC3     H 5171   2.671   0.805  10.487  0.5279 -0.5158 -0.6913
  341TMC3    H1 5172   2.851   1.097  10.234  3.1084 -2.6360 -1.2674
  341TMC3    H2 5173   2.747   0.694  10.089 -0.0999 -1.6068  2.1290
  341TMC3    C7 5174   2.874   0.930  10.027  0.4664 -0.3934  0.1599
  341TMC3    C8 5175   2.675   0.607  10.325  0.3354 -0.9266  0.6958
  341TMC3    O1 5176   2.963   1.014  10.026 -0.4718  0.2284 -0.3977
  341TMC3    O2 5177   2.612   0.591  10.428  0.4924  0.4977 -0.3216
  342MPD2     C 5178   0.862   3.988   0.232 -0.2570  0.0824  0.4201
  342MPD2    C1 5179   0.974   3.991   0.147  0.0988 -0.8471  0.4999
  342MPD2    C2 5180   1.057   4.097   0.150 -0.6759  0.6034  0.6772
  342MPD2    C3 5181   1.033   4.206   0.236  0.7127 -0.4554 -0.1196
  342MPD2    C4 5182   0.924   4.211   0.320 -0.1479 -0.5344 -0.3370
  342MPD2    C5 5183   0.847   4.094   0.327 -0.8295  0.2793  0.2516
  342MPD2     H 5184   1.142   4.102   0.082 -0.9742 -2.0474  0.1310
  342MPD2    H1 5185   0.915   4.295   0.387 -1.3851 -0.5719 -0.4666
  342MPD2    H2 5186   0.801   3.903   0.259 -0.1418 -0.8052 -2.1161
  342MPD2    H3 5187   0.778   4.088   0.410 -0.9078 -1.6588  0.0558
  342MPD2     N 5188   1.110   4.322   0.248 -0.3853 -0.6971  1.1860
  342MPD2    H5 5189   1.077   4.393   0.313  1.3044  0.7627  0.4461
  342MPD2    N1 5190   0.998   3.887   0.056 -0.1356  0.4447 -0.3745
  342MPD2    H7 5191   1.086   3.893   0.006 -1.1334  0.3113 -2.1491
  343TMC3    C1 5192   0.986   3.672  17.711 -0.2042 -0.3308 -0.2056
  343TMC3    C2 5193   1.100   3.698  17.645  0.1602  0.0875 -0.4659
  343TMC3    C3 5194   1.136   3.618  17.536  0.0976  0.5534  0.1396
  343TMC3    C4 5195   0.902   3.563  17.672  0.1653  0.4113 -0.0772
  343TMC3    C5 5196   0.933   3.498  17.557  0.8588  1.2258  0.9452
  343TMC3    C6 5197   1.050   3.513  17.488  0.2234  0.5436 -0.1167
  343TMC3     C 5198   0.932   3.774   0.040 -0.0435 -0.1092 -0.2990
  343TMC3     O 5199   0.828   3.738   0.095  0.4959 -0.3619  0.3634
  343TMC3     H 5200   1.166   3.779  17.673  1.2114 -0.6292 -0.8479
  343TMC3    H1 5201   0.817   3.535  17.733 -0.1320 -0.7262 -1.0303
  343TMC3    H2 5202   1.079   3.454  17.403  1.0184  0.0187  0.5234
  343TMC3    C7 5203   0.880   3.367  17.541 -0.7529  0.0167 -0.0831
  343TMC3    C8 5204   1.263   3.650  17.475 -0.4300 -0.3782  1.0609
  343TMC3    O1 5205   0.864   3.324  17.428  0.0698 -0.4416  0.6360
  343TMC3    O2 5206   1.312   3.756  17.519  0.3812 -0.4498 -0.7624
  344MPD2     C 5207   1.116   3.877  10.465  0.4326 -0.3574  0.1825
  344MPD2    C1 5208   1.241   3.829  10.496  0.3011  0.3484 -0.9686
  344MPD2    C2 5209   1.348   3.916  10.490 -0.0964 -0.3428  0.8862
  344MPD2    C3 5210   1.329   4.048  10.450  0.2583  0.6693 -0.4584
  344MPD2    C4 5211   1.204   4.101  10.432 -0.2515  0.6368 -0.1642
  344MPD2    C5 5212   1.098   4.012  10.440  0.7098 -0.4531  0.3846
  344MPD2     H 5213   1.445   3.876  10.518  0.1716  2.0679  3.4578
  344MPD2    H1 5214   1.191   4.207  10.415 -3.3040  0.4207  0.8169
  344MPD2    H2 5215   1.027   3.816  10.472 -0.3457  0.5390 -2.0005
  344MPD2    H3 5216   0.998   4.049  10.420  1.2887  0.9834  0.1510
  344MPD2     N 5217   1.437   4.144  10.447 -0.0573 -0.2033 -0.1720
  344MPD2    H5 5218   1.408   4.242  10.443 -2.9076 -1.0441 -0.2679
  344MPD2    N1 5219   1.260   3.698  10.547 -0.3892  0.0108 -0.7304
  344MPD2    H7 5220   1.355   3.677  10.575 -1.4332 -1.1416  1.9908
  345TMC3    C1 5221   1.648   4.247  10.485  0.2742  0.2281  0.1359
  345TMC3    C2 5222   1.753   4.237  10.565 -0.6382 -0.0099 -0.5464
  345TMC3    C3 5223   1.858   4.329  10.548 -0.5677 -0.0883 -0.0693
  345TMC3    C4 5224   1.635   4.345  10.389 -0.2688  0.3574  0.1417
  345TMC3    C5 5225   1.738   4.431  10.378 -1.0034  0.0177 -0.0874
  345TMC3    C6 5226   1.853   4.420  10.450 -0.2479  0.1086 -0.2081
  345TMC3     C 5227   1.571   4.123  10.475 -0.1192 -0.0285 -0.3479
  345TMC3     O 5228   1.635   4.018  10.509  0.0179  0.1021 -0.1209
  345TMC3     H 5229   1.759   4.153  10.632  0.7637  0.0201 -0.6284
  345TMC3    H1 5230   1.571   4.325  10.304 -0.2891  0.0397  0.2288
  345TMC3    H2 5231   1.940   4.482  10.430  0.3112 -0.1842  1.2743
  345TMC3    C7 5232   1.734   4.553  10.302  0.0580 -0.0277  0.1996
  345TMC3    C8 5233   1.950   4.352  10.652  0.0885  0.0157  0.0390
  345TMC3    O1 5234   1.825   4.629  10.305 -0.7683 -0.0589  0.1740
  345TMC3    O2 5235   2.020   4.451  10.643  0.3171  0.3642 -0.2068
  346MPD2     C 5236   1.980   0.673  14.288 -0.1128 -0.8041 -0.1622
  346MPD2    C1 5237   2.063   0.779  14.258  0.0771 -0.4107 -0.8162
  346MPD2    C2 5238   2.108   0.852  14.367 -0.4215 -0.0362  0.3102
  346MPD2    C3 5239   2.079   0.815  14.500 -0.3271 -0.8504  0.1329
  346MPD2    C4 5240   2.014   0.699  14.525 -0.3249  0.6640  0.3893
  346MPD2    C5 5241   1.958   0.636  14.420  0.0007  0.5265  0.6477
  346MPD2     H 5242   2.159   0.945  14.346 -0.6724  0.3296  1.2953
  346MPD2    H1 5243   1.989   0.668  14.626 -0.3940 -0.5490  0.0012
  346MPD2    H2 5244   1.940   0.616  14.206  0.0230 -0.3717 -0.5292
  346MPD2    H3 5245   1.896   0.551  14.448 -0.7074  0.3934 -1.2578
  346MPD2     N 5246   2.128   0.901  14.602 -0.3578  0.3960  0.4737
  346MPD2    H5 5247   2.179   0.982  14.569  1.5926 -1.0405  0.0123
  346MPD2    N1 5248   2.086   0.824  14.127 -0.0544 -0.9344  0.2888
  346MPD2    H7 5249   2.126   0.915  14.108 -1.7961 -0.1940  0.2162
  347TMC3    C1 5250   2.217   0.964  14.802  0.0735 -0.2630 -0.0147
  347TMC3    C2 5251   2.316   1.036  14.730  0.4969  0.9174 -0.6955
  347TMC3    C3 5252   2.419   1.093  14.796 -0.3055 -0.1255 -0.1217
  347TMC3    C4 5253   2.217   0.960  14.940  0.4181 -0.4103  0.0817
  347TMC3    C5 5254   2.323   1.015  15.005  0.3610  0.5351 -0.0928
  347TMC3    C6 5255   2.422   1.082  14.935 -0.0418  0.2303 -0.4602
  347TMC3     C 5256   2.122   0.883  14.740 -0.6140 -0.0523 -0.1462
  347TMC3     O 5257   2.060   0.796  14.800 -0.4424  0.0642  0.0960
  347TMC3     H 5258   2.311   1.043  14.622  2.1787  1.4253 -0.7374
  347TMC3    H1 5259   2.130   0.920  14.991  1.4681 -0.4563  1.8167
  347TMC3    H2 5260   2.506   1.125  14.989  0.4866 -1.9932  0.4959
  347TMC3    C7 5261   2.299   1.037  15.142  0.4608  0.0635  0.4680
  347TMC3    C8 5262   2.539   1.078  14.724  0.3196 -0.0159 -0.5047
  347TMC3    O1 5263   2.180   1.025  15.180 -0.0845  0.7616 -0.2461
  347TMC3    O2 5264   2.538   1.003  14.627  0.2223 -0.3002 -0.2149
  348MPD2     C 5265   0.542   0.160  12.207 -0.5272  0.5845  0.3693
  348MPD2    C1 5266   0.672   0.189  12.174  1.0242  0.1779  0.1218
  348MPD2    C2 5267   0.694   0.260  12.059  0.1747  0.5816 -0.2510
  348MPD2    C3 5268   0.593   0.314  11.985  0.0652  0.4796  0.0103
  348MPD2    C4 5269   0.467   0.275  12.020  0.3874 -0.1320 -0.4371
  348MPD2    C5 5270   0.443   0.195  12.124 -0.0910 -0.0946 -0.2817
  348MPD2     H 5271   0.800   0.270  12.038  0.2941  1.3512  0.7324
  348MPD2    H1 5272   0.382   0.310  11.962 -0.3907 -0.6228  0.4133
  348MPD2    H2 5273   0.522   0.099  12.294 -1.8112 -1.5130 -1.4072
  348MPD2    H3 5274   0.343   0.163  12.152 -0.2042 -0.6943 -1.3779
  348MPD2     N 5275   0.635   0.387  11.870  0.0447  0.2879  0.0647
  348MPD2    H5 5276   0.733   0.412  11.866 -0.2030  1.5672  2.0464
  348MPD2    N1 5277   0.784   0.148  12.252 -0.1889  0.0983 -0.1414
  348MPD2    H7 5278   0.873   0.176  12.212 -0.0118 -0.1086  0.1019
  349TMC3    C1 5279   0.925   0.030  12.389 -0.6059 -0.4099  0.7822
  349TMC3    C2 5280   0.949   4.647  12.440 -0.3176 -0.5676  0.2477
  349TMC3    C3 5281   1.078   4.607  12.458 -0.0432  0.4046  0.0370
  349TMC3    C4 5282   1.027   0.116  12.347 -0.2962  0.5541  0.0942
  349TMC3    C5 5283   1.160   0.066  12.367  0.5587 -1.1303  0.1304
  349TMC3    C6 5284   1.183   4.693  12.437  0.4560  0.2553 -0.4707
  349TMC3     C 5285   0.786   0.051  12.352 -0.6879 -0.6597 -0.7307
  349TMC3     O 5286   0.709   4.705  12.383  0.4970 -0.0005 -0.5345
  349TMC3     H 5287   0.865   4.581  12.455  0.0439 -1.2939 -0.9500
  349TMC3    H1 5288   1.016   0.215  12.305  2.1163  1.0083  0.5403
  349TMC3    H2 5289   1.282   4.650  12.447  1.4646  3.1723  2.1737
  349TMC3    C7 5290   1.263   0.131  12.287 -0.3623 -0.0720  0.2681
  349TMC3    C8 5291   1.112   4.479  12.512 -0.8276  0.1444 -0.7910
  349TMC3    O1 5292   1.230   0.231  12.228  0.1731 -0.1317  0.3405
  349TMC3    O2 5293   1.214   4.466  12.581  0.8335  0.4976 -0.3230
  350MPD2     C 5294   4.683   3.340  10.636  0.6436  0.2185 -0.3001
  350MPD2    C1 5295   4.583   3.246  10.643 -0.3647  0.5511 -0.0866
  350MPD2    C2 5296   4.505   3.225  10.753 -0.3631 -0.1598 -0.0849
  350MPD2    C3 5297   4.533   3.301  10.864 -0.6896 -0.3383 -0.8259
  350MPD2    C4 5298   4.627   3.405  10.854  0.9347 -0.2424 -0.0144
  350MPD2    C5 5299   4.697   3.422  10.740 -0.2527  0.1323 -0.2016
  350MPD2     H 5300   4.426   3.151  10.754 -0.8277  0.3230 -1.1222
  350MPD2    H1 5301   4.646   3.470  10.938  0.0358 -0.2765  0.2166
  350MPD2    H2 5302   0.019   3.336  10.558 -1.5038 -2.5584 -2.2231
  350MPD2    H3 5303   0.029   3.503  10.735 -0.8773  0.7580  0.9635
  350MPD2     N 5304   4.443   3.299  10.970  0.7798 -0.0975 -0.3749
  350MPD2    H5 5305   4.375   3.224  10.965  1.1185 -0.3584 -1.1085
  350MPD2    N1 5306   4.563   3.156  10.538 -0.2784  0.0731  0.2274
  350MPD2    H7 5307   4.499   3.080  10.561 -1.0975  0.1835 -1.6630
  351TMC3    C1 5308   4.567   3.059  10.320 -0.3270  0.3519 -0.0322
  351TMC3    C2 5309   4.660   3.004  10.244  0.0231 -0.0466 -0.6843
  351TMC3    C3 5310   4.644   2.882  10.183 -0.3309 -0.7493 -0.0967
  351TMC3    C4 5311   4.448   2.993  10.352 -0.6795  0.6440 -0.3823
  351TMC3    C5 5312   4.438   2.865  10.317 -0.6993  0.1459  0.1086
  351TMC3    C6 5313   4.527   2.819  10.222 -0.1393  0.6020  0.2673
  351TMC3     C 5314   4.614   3.165  10.410  0.6141 -0.2942 -0.5303
  351TMC3     O 5315   4.685   3.253  10.371  0.3096  0.4373 -0.1567
  351TMC3     H 5316   0.013   3.057  10.227 -0.6733  0.8936 -1.4886
  351TMC3    H1 5317   4.373   3.027  10.423 -0.8928  0.5480 -0.5632
  351TMC3    H2 5318   4.521   2.722  10.173 -0.8361  0.1169  1.3112
  351TMC3    C7 5319   4.317   2.800  10.353  0.9624  0.7382  0.5099
  351TMC3    C8 5320   0.025   2.812  10.130 -0.7580 -0.1548  0.1482
  351TMC3    O1 5321   4.232   2.867  10.413  0.2522 -0.2702  0.2324
  351TMC3    O2 5322   0.038   2.694  10.161 -0.6574 -0.4399  0.3310
  352MPD2     C 5323   2.444   0.116   1.448 -0.2222 -0.1310  0.6336
  352MPD2    C1 5324   2.392   0.069   1.329 -0.3263  1.0266  0.3461
  352MPD2    C2 5325   2.479   0.026   1.225  0.2197  0.3472  0.2025
  352MPD2    C3 5326   2.623   0.029   1.253 -0.2115 -0.1038  0.7291
  352MPD2    C4 5327   2.667   0.081   1.375  0.1916  0.1624 -0.3910
  352MPD2    C5 5328   2.579   0.117   1.472 -0.0931 -1.1384  0.4283
  352MPD2     H 5329   2.435   4.724   1.135 -0.4177  0.9257  0.2478
  352MPD2    H1 5330   2.771   0.076   1.404  0.3038  0.5629 -0.7305
  352MPD2    H2 5331   2.382   0.159   1.526  0.1625 -0.5073  1.1458
  352MPD2    H3 5332   2.618   0.148   1.568 -0.0753  1.8057 -0.5370
  352MPD2     N 5333   2.714   4.737   1.154  0.0658  0.1095  0.0967
  352MPD2    H5 5334   2.811   0.024   1.167  0.3080 -1.6246  1.8191
  352MPD2    N1 5335   2.251   0.064   1.326  0.1550 -0.4141  0.7882
  352MPD2    H7 5336   2.196   0.100   1.403 -0.7461  2.1431 -1.0438
  353TMC3    C1 5337   2.801   4.619   0.976 -0.2488 -0.3695 -0.1295
  353TMC3    C2 5338   2.928   4.657   1.016  0.5359 -1.3304  0.4455
  353TMC3    C3 5339   3.030   4.620   0.927  0.5478 -0.3048 -0.0621
  353TMC3    C4 5340   2.776   4.561   0.853 -0.1533 -0.3137 -0.5377
  353TMC3    C5 5341   2.881   4.547   0.767 -0.7323  0.6972  0.1541
  353TMC3    C6 5342   3.013   4.560   0.802 -0.0888 -0.1088  0.0348
  353TMC3     C 5343   2.686   4.646   1.060  0.6115  0.1752  1.1265
  353TMC3     O 5344   2.578   4.593   1.028 -0.1545 -0.0120  0.9762
  353TMC3     H 5345   2.956   4.683   1.118  1.0025  0.8902 -0.2569
  353TMC3    H1 5346   2.673   4.550   0.822  0.2405 -2.9793 -0.8751
  353TMC3    H2 5347   3.090   4.532   0.731 -2.0876  0.6378 -2.4231
  353TMC3    C7 5348   2.847   4.463   0.650  0.7685 -0.0754  0.3310
  353TMC3    C8 5349   3.153   4.599   0.993 -0.9949  0.3472 -0.1535
  353TMC3    O1 5350   2.734   4.412   0.655  0.3710  0.7678  0.5143
  353TMC3    O2 5351   3.196   4.688   1.068 -0.1813  0.7074 -0.1029
  354TMC3    C1 5352   4.652   1.257  13.869 -0.1633 -0.0165 -1.0478
  354TMC3    C2 5353   4.626   1.391  13.860  0.5279 -0.1501 -0.0545
  354TMC3    C3 5354   4.680   1.457  13.760 -0.7011  0.5452 -0.9552
  354TMC3    C4 5355   4.716   1.183  13.770  0.4446 -0.1775 -0.1635
  354TMC3    C5 5356   0.045   1.256  13.677  0.0949  0.1870  0.5449
  354TMC3    C6 5357   0.025   1.391  13.675 -0.4264 -0.9181  0.3247
  354TMC3     C 5358   4.614   1.187  13.990  0.2728  0.3021  0.4510
  354TMC3     O 5359   4.597   1.064  13.987  0.8266 -0.0280  0.3494
  354TMC3     H 5360   4.563   1.444  13.931 -0.0196  1.5347 -1.7932
  354TMC3    H1 5361   4.730   1.076  13.774 -1.0170 -0.2373  3.0798
  354TMC3    H2 5362   0.061   1.458  13.598  0.2259  1.5395  2.7752
  354TMC3    C7 5363   0.065   1.192  13.551 -0.6419  0.4365 -0.0928
  354TMC3    C8 5364   4.647   1.591  13.715  0.4375 -0.2486  0.0017
  354TMC3    O1 5365   4.720   1.103  13.523 -0.0339  0.2174  0.6522
  354TMC3    O2 5366   4.727   1.652  13.645 -0.0671 -0.3114  0.3355
  355MPD2     C 5367   4.505   2.423  12.051 -0.8196  0.2257  0.4533
  355MPD2    C1 5368   4.576   2.458  11.937 -0.8591 -0.1396  0.5681
  355MPD2    C2 5369   4.713   2.436  11.938 -0.3098 -0.2511 -0.0302
  355MPD2    C3 5370   0.035   2.390  12.053 -0.4857  0.4761 -0.5173
  355MPD2    C4 5371   4.701   2.356  12.167  0.0149 -0.1800  0.3082
  355MPD2    C5 5372   4.562   2.371  12.168 -0.4273 -0.5334 -0.3477
  355MPD2     H 5373   0.032   2.486  11.862 -0.3095 -0.5582 -0.2266
  355MPD2    H1 5374   0.017   2.347  12.260 -2.2641 -0.6418  1.6114
  355MPD2    H2 5375   4.396   2.425  12.055 -0.8441 -0.3734  0.1119
  355MPD2    H3 5376   4.500   2.357  12.255  0.9757  2.0297  1.0796
  355MPD2     N 5377   0.172   2.412  12.074 -0.5924  0.0309 -0.3898
  355MPD2    H5 5378   0.214   2.388  12.164 -1.7712 -1.4336 -0.2136
  355MPD2    N1 5379   4.504   2.509  11.826  0.5190 -0.0931  0.5853
  355MPD2    H7 5380   4.422   2.565  11.845  0.7233  0.0664  1.0233
  356TMC3    C1 5381   0.388   2.479  12.034  0.3915 -0.0907  0.3291
  356TMC3    C2 5382   0.459   2.573  11.966  0.1360  0.3535 -0.3869
  356TMC3    C3 5383   0.576   2.616  12.004  0.1391  0.1017 -0.0819
  356TMC3    C4 5384   0.442   2.420  12.142  0.7182 -0.0074 -0.1219
  356TMC3    C5 5385   0.560   2.478  12.192 -0.9087  0.1687  0.4957
  356TMC3    C6 5386   0.629   2.574  12.120 -0.0876 -0.1004 -0.2215
  356TMC3     C 5387   0.262   2.443  11.982  0.2440 -0.6394  0.6118
  356TMC3     O 5388   0.243   2.462  11.864 -0.3300 -0.1012 -0.2232
  356TMC3     H 5389   0.415   2.611  11.874 -1.2616  0.6768  0.4010
  356TMC3    H1 5390   0.401   2.338  12.200  1.2370 -1.3712 -1.6678
  356TMC3    H2 5391   0.732   2.599  12.141  0.3850 -1.0045 -1.4411
  356TMC3    C7 5392   0.614   2.415  12.306  0.3144 -0.5953  0.8631
  356TMC3    C8 5393   0.673   2.643  11.900  0.2260 -0.2444 -0.1159
  356TMC3    O1 5394   0.583   2.303  12.340 -0.1299  0.1986  0.2557
  356TMC3    O2 5395   0.654   2.599  11.788  0.0344  0.1456 -0.2915
  357MPD2     C 5396   3.987   2.044   1.615 -0.0565  0.0605 -0.3465
  357MPD2    C1 5397   4.003   2.075   1.473 -0.8054 -0.3484 -0.0536
  357MPD2    C2 5398   3.901   2.044   1.385  0.5218  0.6059  0.0882
  357MPD2    C3 5399   3.789   1.981   1.434 -0.2605  0.1067 -0.3351
  357MPD2    C4 5400   3.775   1.948   1.564 -0.4700 -0.4215 -0.6534
  357MPD2    C5 5401   3.874   1.976   1.654  0.1680 -0.4908 -0.5466
  357MPD2     H 5402   3.908   2.062   1.278  0.5321 -2.6948 -0.4965
  357MPD2    H1 5403   3.684   1.906   1.606  0.5172 -1.7392  0.1908
  357MPD2    H2 5404   4.062   2.056   1.692 -0.1059  0.6063 -0.3872
  357MPD2    H3 5405   3.863   1.948   1.759  1.0158 -0.5080 -0.4643
  357MPD2     N 5406   3.688   1.935   1.346  0.2220  0.3542  0.4025
  357MPD2    H5 5407   3.627   1.861   1.381 -0.5120 -0.0771 -1.8092
  357MPD2    N1 5408   4.129   2.129   1.434 -0.3396  0.5226  0.0864
  357MPD2    H7 5409   4.190   2.155   1.511 -1.4837 -1.7323  1.7238
  358TMC3    C1 5410   4.315   2.165   1.287 -0.2659 -0.0143 -0.2179
  358TMC3    C2 5411   4.383   2.084   1.193 -0.1427 -0.5050  0.2386
  358TMC3    C3 5412   4.521   2.098   1.192 -0.0492  0.2531 -1.3167
  358TMC3    C4 5413   4.374   2.244   1.383 -0.1194  0.6006 -0.1740
  358TMC3    C5 5414   4.509   2.252   1.378 -0.1142  0.8672 -0.5092
  358TMC3    C6 5415   4.583   2.182   1.283  0.4066  0.5660 -0.3452
  358TMC3     C 5416   4.170   2.136   1.302  0.6119 -0.2539 -0.8227
  358TMC3     O 5417   4.111   2.081   1.210  0.0086  0.5044 -0.3014
  358TMC3     H 5418   4.325   2.038   1.114 -1.9033  1.8207  0.1628
  358TMC3    H1 5419   4.311   2.318   1.431  0.4053 -0.0532  1.5260
  358TMC3    H2 5420   4.683   2.223   1.269  1.0954 -1.2361 -0.7300
  358TMC3    C7 5421   4.585   2.318   1.478 -0.2223 -0.2033  0.4556
  358TMC3    C8 5422   4.596   2.042   1.083  0.0301  0.0691 -0.2912
  358TMC3    O1 5423   4.703   2.359   1.459 -0.2351 -0.0911 -0.3714
  358TMC3    O2 5424   4.541   2.020   0.979 -0.4262  0.0312  0.0183
  359MPD2     C 5425   0.394   1.095  12.698 -0.0764 -0.1500 -0.5638
  359MPD2    C1 5426   0.475   0.985  12.722  0.0566 -0.1297  0.1044
  359MPD2    C2 5427   0.418   0.876  12.782  0.4922 -0.1621  0.4064
  359MPD2    C3 5428   0.285   0.880  12.820  0.0175 -0.7269 -0.6855
  359MPD2    C4 5429   0.208   0.998  12.802  0.6316  0.2223  0.2585
  359MPD2    C5 5430   0.264   1.108  12.744  0.7423 -0.2462  0.0774
  359MPD2     H 5431   0.485   0.795  12.808  0.9163  0.5689  1.5447
  359MPD2    H1 5432   0.105   0.998  12.835  0.3409 -3.0420 -0.6265
  359MPD2    H2 5433   0.441   1.179  12.650  1.2284 -0.9081 -0.6084
  359MPD2    H3 5434   0.204   1.198  12.732 -1.4635 -1.5622  1.1795
  359MPD2     N 5435   0.216   0.774  12.885 -0.2557  0.5119 -0.3259
  359MPD2    H5 5436   0.120   0.794  12.912 -0.0999 -0.7919  1.1408
  359MPD2    N1 5437   0.609   0.971  12.686  0.2799  0.2234  0.3415
  359MPD2    H7 5438   0.636   0.873  12.695 -2.7115 -0.4750  1.8461
  360TMC3    C1 5439   0.816   1.018  12.590  0.0998  0.6878  0.5402
  360TMC3    C2 5440   0.923   1.101  12.573 -0.5722 -0.0535 -0.7526
  360TMC3    C3 5441   1.018   1.066  12.487  0.0792  0.6398  0.5739
  360TMC3    C4 5442   0.818   0.896  12.528 -0.6097  0.6168 -0.1260
  360TMC3    C5 5443   0.920   0.856  12.445  0.6047  1.0619 -0.1231
  360TMC3    C6 5444   1.026   0.936  12.429  0.2232 -0.0483 -0.1186
  360TMC3     C 5445   0.699   1.074  12.657 -0.0854 -0.1582  0.7970
  360TMC3     O 5446   0.696   1.195  12.668 -0.2889 -0.0895 -0.1410
  360TMC3     H 5447   0.923   1.205  12.604 -0.2635 -1.0155  2.4961
  360TMC3    H1 5448   0.732   0.830  12.534  1.9927 -2.7992 -0.4814
  360TMC3    H2 5449   1.119   0.904  12.382 -0.0505  0.0629 -0.7245
  360TMC3    C7 5450   0.890   0.808  12.314  0.2946  0.1865 -0.1803
  360TMC3    C8 5451   1.103   1.170  12.433  0.5274  0.2997 -0.0156
  360TMC3    O1 5452   0.977   0.820  12.227  0.3472 -0.3591  0.3680
  360TMC3    O2 5453   1.102   1.278  12.495 -0.4185 -0.1490  0.1673
  361MPD2     C 5454   2.377   4.346  16.589 -0.7022  0.1721 -0.0906
  361MPD2    C1 5455   2.306   4.378  16.697  0.0308  0.1813  0.3288
  361MPD2    C2 5456   2.317   4.315  16.819  0.2945  0.3423  0.8664
  361MPD2    C3 5457   2.404   4.206  16.825 -0.1994 -0.0733 -0.3691
  361MPD2    C4 5458   2.462   4.159  16.708 -0.4622  0.0129 -0.3386
  361MPD2    C5 5459   2.445   4.233  16.588  0.1589  0.1703 -0.1913
  361MPD2     H 5460   2.257   4.346  16.904 -1.1137 -0.6535  0.2290
  361MPD2    H1 5461   2.524   4.071  16.704  1.0191  1.0318  0.1777
  361MPD2    H2 5462   2.365   4.402  16.497  1.2807 -0.1631 -0.5661
  361MPD2    H3 5463   2.495   4.199  16.497  1.8557  0.0862  0.7678
  361MPD2     N 5464   2.428   4.132  16.947 -0.1456 -0.4647 -0.1444
  361MPD2    H5 5465   2.478   4.046  16.928  0.0316 -0.2583 -0.6076
  361MPD2    N1 5466   2.221   4.489  16.704 -0.4644  0.2225  0.6459
  361MPD2    H7 5467   2.185   4.507  16.797  3.4842  0.9103  2.0317
  362TMC3    C1 5468   2.082   4.659  16.631 -0.3722  0.0822 -0.3552
  362TMC3    C2 5469   2.030   4.662  16.755 -0.2546 -0.6660  0.1348
  362TMC3    C3 5470   1.935   0.010  16.782 -0.3234 -0.5399 -0.4419
  362TMC3    C4 5471   2.044   0.011  16.537  0.4932 -0.3959  0.0672
  362TMC3    C5 5472   1.935   0.095  16.562  0.9104 -0.4985 -0.1955
  362TMC3    C6 5473   1.873   0.085  16.681  0.0085 -0.0992 -0.5271
  362TMC3     C 5474   2.176   4.562  16.596 -0.4485 -0.4208 -0.3302
  362TMC3     O 5475   2.180   4.541  16.475 -0.1365  0.2284  0.1778
  362TMC3     H 5476   2.064   4.606  16.841  0.7772 -0.7798 -0.3498
  362TMC3    H1 5477   2.081   0.005  16.435 -0.2377  0.7261 -0.2610
  362TMC3    H2 5478   1.792   0.155  16.696 -1.4449 -1.6211 -1.2729
  362TMC3    C7 5479   1.883   0.188  16.465 -0.1749 -0.1322 -0.2051
  362TMC3    C8 5480   1.865   4.737  16.903  0.6059 -0.1434  1.0713
  362TMC3    O1 5481   1.759   0.207  16.464 -0.1278 -0.1428 -0.0075
  362TMC3    O2 5482   1.917   4.674  16.999  0.1148  0.2589 -0.3738
  363TMC3    C1 5483   0.374   2.413   9.197  0.2753  0.0486 -0.4467
  363TMC3    C2 5484   0.440   2.394   9.314 -0.2807  0.2444 -0.6932
  363TMC3    C3 5485   0.402   2.480   9.414 -0.5940  0.1023  0.0621
  363TMC3    C4 5486   0.270   2.504   9.177 -0.0251  0.0774 -0.5257
  363TMC3    C5 5487   0.236   2.587   9.281 -0.2459 -0.0816  0.5536
  363TMC3    C6 5488   0.300   2.569   9.402  0.3768  0.3863  0.5561
  363TMC3     C 5489   0.397   2.321   9.092  0.2224  0.5570  0.5737
  363TMC3     O 5490   0.342   2.346   8.985 -0.5504  0.1975 -0.0122
  363TMC3     H 5491   0.528   2.333   9.330 -0.5839 -0.2482 -0.9010
  363TMC3    H1 5492   0.203   2.493   9.093  0.7055  1.7132 -1.3164
  363TMC3    H2 5493   0.274   2.629   9.488 -2.2204 -0.5057  0.3894
  363TMC3    C7 5494   0.118   2.670   9.285 -0.8207 -0.7129  0.2411
  363TMC3    C8 5495   0.481   2.488   9.535  0.8379  0.6499  0.2615
  363TMC3    O1 5496   0.078   2.713   9.390 -0.4478 -0.1865 -0.6637
  363TMC3    O2 5497   0.481   2.598   9.587  0.1754  0.0205 -0.2490
  364MPD2     C 5498   4.137   1.837  11.086 -0.4452 -0.4495 -0.1891
  364MPD2    C1 5499   4.255   1.840  11.016 -0.6388 -0.6574  0.4352
  364MPD2    C2 5500   4.344   1.740  11.016  0.1983 -0.0503  0.3577
  364MPD2    C3 5501   4.310   1.627  11.086 -0.3044  0.0278 -0.3055
  364MPD2    C4 5502   4.203   1.626  11.169  0.6215 -0.1066  0.3839
  364MPD2    C5 5503   4.109   1.725  11.163 -0.3296  0.8836  0.0115
  364MPD2     H 5504   4.448   1.743  10.985  0.3722 -0.4561  0.8987
  364MPD2    H1 5505   4.172   1.544  11.232 -1.3691  1.8148  1.8993
  364MPD2    H2 5506   4.057   1.910  11.093  0.6646  0.7728 -0.4717
  364MPD2    H3 5507   4.019   1.728  11.222  0.2229  0.9415  0.8567
  364MPD2     N 5508   4.408   1.523  11.103 -0.2053 -0.1608  0.0253
  364MPD2    H5 5509   4.387   1.438  11.153  0.3301 -0.4747 -0.2862
  364MPD2    N1 5510   4.276   1.949  10.932 -0.3235  0.5940  0.6480
  364MPD2    H7 5511   4.220   2.031  10.949 -0.7185  0.3365  0.5739
  365TMC3    C1 5512   4.368   2.064  10.737  0.0704 -0.7266  0.8105
  365TMC3    C2 5513   4.408   2.059  10.609 -1.1457 -0.5308  0.4980
  365TMC3    C3 5514   4.394   2.173  10.533 -0.4650 -0.2788 -0.1787
  365TMC3    C4 5515   4.312   2.178  10.794 -0.0004 -0.0111 -0.7140
  365TMC3    C5 5516   4.304   2.289  10.710 -0.3934  0.2416 -0.3579
  365TMC3    C6 5517   4.344   2.289  10.581  0.1364 -0.6639  0.3675
  365TMC3     C 5518   4.365   1.946  10.818 -0.4381 -0.1750 -0.0640
  365TMC3     O 5519   4.423   1.848  10.767  0.3913  0.7187 -0.4003
  365TMC3     H 5520   4.434   1.965  10.563  2.3812  0.8540 -0.3715
  365TMC3    H1 5521   4.306   2.182  10.902 -1.5148  1.5192 -0.8610
  365TMC3    H2 5522   4.340   2.378  10.518 -0.8367 -1.9052 -1.3299
  365TMC3    C7 5523   4.290   2.419  10.762 -0.8015  0.0220 -0.1751
  365TMC3    C8 5524   4.466   2.183  10.410 -0.3895 -0.1362  0.3410
  365TMC3    O1 5525   4.353   2.515  10.714 -0.0251 -0.2800  0.4789
  365TMC3    O2 5526   4.474   2.289  10.349  0.7142  1.4681  0.3247
  366MPD2     C 5527   2.400   2.632  15.173 -0.0849  0.4028  0.4640
  366MPD2    C1 5528   2.468   2.725  15.249  0.2072 -0.0275  0.6013
  366MPD2    C2 5529   2.604   2.703  15.276 -0.1156  0.0448 -0.0774
  366MPD2    C3 5530   2.679   2.604  15.218  0.0836  0.1535 -0.0968
  366MPD2    C4 5531   2.606   2.508  15.151 -0.3406 -0.3790  0.3014
  366MPD2    C5 5532   2.474   2.526  15.129  0.3030 -0.2619 -0.4123
  366MPD2     H 5533   2.649   2.778  15.340  0.8565 -1.3256  0.8424
  366MPD2    H1 5534   2.661   2.419  15.124  0.6423  0.0594  0.8596
  366MPD2    H2 5535   2.293   2.630  15.154 -0.0171 -1.1065  0.2405
  366MPD2    H3 5536   2.421   2.439  15.092  0.1943  0.4450 -1.9273
  366MPD2     N 5537   2.823   2.617  15.222 -0.0011 -0.2548 -0.0310
  366MPD2    H5 5538   2.865   2.690  15.278 -1.9137  0.3785  0.5898
  366MPD2    N1 5539   2.414   2.847  15.297 -0.3826  0.3737 -0.1044
  366MPD2    H7 5540   2.478   2.893  15.361 -1.2111 -0.6125  1.4401
  367TMC3    C1 5541   2.256   3.019  15.320  0.2689 -0.2186 -0.1230
  367TMC3    C2 5542   2.329   3.063  15.427 -0.1471 -0.7130 -0.5590
  367TMC3    C3 5543   2.291   3.174  15.497 -0.3615 -0.2513 -0.4012
  367TMC3    C4 5544   2.151   3.095  15.265 -0.5796 -0.1375 -0.0269
  367TMC3    C5 5545   2.115   3.206  15.336 -0.4894  0.4762 -0.2151
  367TMC3    C6 5546   2.181   3.245  15.456  0.3979  0.2459  0.7163
  367TMC3     C 5547   2.292   2.899  15.249  0.2764 -0.1303  0.2300
  367TMC3     O 5548   2.212   2.850  15.173  0.0331  0.0107 -0.1554
  367TMC3     H 5549   2.405   3.004  15.476  1.8880  0.6302 -2.0723
  367TMC3    H1 5550   2.109   3.061  15.171 -1.8614 -1.2195  0.9533
  367TMC3    H2 5551   2.146   3.324  15.521 -0.6648  1.1510 -0.9651
  367TMC3    C7 5552   2.014   3.296  15.290 -0.2361 -0.8564  0.2938
  367TMC3    C8 5553   2.373   3.225  15.603 -0.9355  0.2287  0.2172
  367TMC3    O1 5554   2.011   3.406  15.341  0.6036  0.3013 -0.4232
  367TMC3    O2 5555   2.443   3.143  15.662 -0.3283  0.3256  0.9952
  368MPD2     C 5556   3.420   4.517  13.702  0.0726 -0.2591 -0.4936
  368MPD2    C1 5557   3.424   4.640  13.645  0.3608 -0.5989  0.7011
  368MPD2    C2 5558   3.542   4.690  13.597 -0.7544  0.2470 -0.0988
  368MPD2    C3 5559   3.663   4.619  13.605 -0.0767  0.6399  0.2307
  368MPD2    C4 5560   3.659   4.492  13.670 -0.3992 -0.5764 -0.8103
  368MPD2    C5 5561   3.537   4.446  13.716  0.2820 -0.4798 -0.0794
  368MPD2     H 5562   3.534   0.052  13.558 -0.5140  0.6058  0.7912
  368MPD2    H1 5563   3.748   4.437  13.700 -0.2350  0.7733  1.1290
  368MPD2    H2 5564   3.322   4.477  13.726  0.2071  0.3319  1.0163
  368MPD2    H3 5565   3.525   4.354  13.773 -0.9555  1.2539  2.4581
  368MPD2     N 5566   3.781   4.667  13.546  0.0844 -0.5516  0.2747
  368MPD2    H5 5567   3.872   4.635  13.578  0.1108  0.5605  1.3263
  368MPD2    N1 5568   3.307   4.717  13.647  0.7852 -0.0131 -0.3549
  368MPD2    H7 5569   3.242   4.684  13.718  3.2791 -4.4350 -0.1525
  369TMC3    C1 5570   3.198   0.191  13.633  0.5081  0.0746  0.3368
  369TMC3    C2 5571   3.224   0.316  13.585 -0.0380 -0.0091  0.0455
  369TMC3    C3 5572   3.126   0.408  13.606  0.1943 -0.1838 -0.3793
  369TMC3    C4 5573   3.089   0.155  13.712 -0.1875 -0.1173  0.2193
  369TMC3    C5 5574   2.995   0.252  13.725 -0.7111  0.0329  0.8543
  369TMC3    C6 5575   3.007   0.380  13.668 -0.3839 -0.6641  1.1024
  369TMC3     C 5576   3.285   0.093  13.577 -0.1181 -0.0153 -0.2595
  369TMC3     O 5577   3.331   0.122  13.468  0.2323  0.2267 -0.3384
  369TMC3     H 5578   3.318   0.337  13.536 -0.5197 -0.7767 -1.1860
  369TMC3    H1 5579   3.080   0.052  13.745 -1.4168  0.1985  0.8649
  369TMC3    H2 5580   2.922   0.442  13.640  2.1649  0.9769 -3.0557
  369TMC3    C7 5581   2.865   0.205  13.769  0.1746  0.1064 -0.4486
  369TMC3    C8 5582   3.139   0.532  13.531  0.0676  0.4156  0.2768
  369TMC3    O1 5583   2.864   0.086  13.789 -0.5176  0.2353  0.0097
  369TMC3    O2 5584   3.038   0.596  13.536  0.0601 -0.3346 -0.0583
  370TMC3    C1 5585   3.107   0.683  16.205  0.2660  0.6148  0.6953
  370TMC3    C2 5586   3.031   0.590  16.271 -0.9333  0.2973 -0.0758
  370TMC3    C3 5587   3.024   0.465  16.218 -0.0357  0.0998  0.1857
  370TMC3    C4 5588   3.171   0.646  16.086  0.4270 -0.0333 -0.5451
  370TMC3    C5 5589   3.152   0.520  16.034  0.2780  0.0746 -0.3989
  370TMC3    C6 5590   3.085   0.425  16.105 -0.0921 -0.0597 -0.6278
  370TMC3     C 5591   3.159   0.784  16.288 -0.8305 -0.1931  0.0486
  370TMC3     O 5592   3.156   0.762  16.408 -0.2770 -0.3360 -0.0613
  370TMC3     H 5593   2.978   0.624  16.359 -1.8737  1.7308 -1.1960
  370TMC3    H1 5594   3.240   0.715  16.039 -1.4324  2.7516  0.8109
  370TMC3    H2 5595   3.056   0.330  16.061 -0.3724 -0.0316 -0.5001
  370TMC3    C7 5596   3.260   0.469  15.956 -0.1500  0.6105 -0.2614
  370TMC3    C8 5597   2.984   0.365  16.315  0.2022 -0.1370 -0.2394
  370TMC3    O1 5598   3.314   0.556  15.893  0.0470 -0.1109 -0.2228
  370TMC3    O2 5599   3.035   0.255  16.293  0.0883 -0.3444 -0.2493
  371TMC3    C1 5600   4.412   3.746  15.475 -0.2724  0.6801 -0.8127
  371TMC3    C2 5601   4.339   3.795  15.583  0.0558 -1.1459  0.0713
  371TMC3    C3 5602   4.361   3.925  15.626  1.3122 -0.5081  0.1266
  371TMC3    C4 5603   4.499   3.824  15.403 -0.4105 -0.1700 -0.1585
  371TMC3    C5 5604   4.515   3.955  15.452 -0.4360  0.7453 -0.1731
  371TMC3    C6 5605   4.451   4.005  15.559 -0.1068 -0.7907  0.2277
  371TMC3     C 5606   4.405   3.613  15.428 -0.3170  0.2544  0.5031
  371TMC3     O 5607   4.424   3.603  15.310  0.0427  0.2336  0.3535
  371TMC3     H 5608   4.281   3.734  15.652 -0.8635  0.9819  1.1914
  371TMC3    H1 5609   4.559   3.775  15.327  1.6888  0.3337  1.1403
  371TMC3    H2 5610   4.469   4.106  15.592 -0.8741 -0.1591 -1.2701
  371TMC3    C7 5611   4.589   4.042  15.365  0.8545 -0.2231  0.0404
  371TMC3    C8 5612   4.354   3.940  15.773 -1.0384  0.4012  0.5034
  371TMC3    O1 5613   4.641   4.140  15.418 -0.5582 -0.3723 -0.3926
  371TMC3    O2 5614   4.387   3.845  15.845  0.6646 -0.2966 -0.0299
  372MPD2     C 5615   3.544   0.383  13.745 -0.5011 -0.0648  0.4915
  372MPD2    C1 5616   3.672   0.333  13.740 -0.0475 -0.4198 -0.0551
  372MPD2    C2 5617   3.704   0.220  13.803 -0.1828  0.2077  0.5664
  372MPD2    C3 5618   3.616   0.149  13.878 -0.5902 -0.1514 -0.1167
  372MPD2    C4 5619   3.486   0.195  13.888  0.1848  0.3311  0.1788
  372MPD2    C5 5620   3.458   0.317  13.821  0.6839 -0.1177  0.1144
  372MPD2     H 5621   3.803   0.176  13.808 -0.6467 -0.9298 -0.0328
  372MPD2    H1 5622   3.406   0.155  13.949 -0.7491 -0.5216 -1.5768
  372MPD2    H2 5623   3.514   0.480  13.706 -0.4825 -0.8039 -1.3488
  372MPD2    H3 5624   3.364   0.368  13.840  1.2094  0.6697  0.6002
  372MPD2     N 5625   3.658   0.032  13.947  0.1268  0.2403  0.2686
  372MPD2    H5 5626   3.756   0.008  13.940 -0.2159 -0.4444 -2.0769
  372MPD2    N1 5627   3.776   0.417  13.676 -0.0035 -0.1352 -0.0145
  372MPD2    H7 5628   3.874   0.405  13.699 -0.5923 -0.7845  2.1632
  373TMC3    C1 5629   3.644   4.583  14.070 -0.2972  0.4588  0.3479
  373TMC3    C2 5630   3.603   4.539  14.194  0.0740 -0.2154 -0.3623
  373TMC3    C3 5631   3.652   4.428  14.248 -1.1265  0.5161  0.2161
  373TMC3    C4 5632   3.731   4.511  14.000 -0.6566 -0.0592 -0.5360
  373TMC3    C5 5633   3.770   4.384  14.047 -0.1058  0.3172  0.7755
  373TMC3    C6 5634   3.734   4.349  14.176 -0.3104  0.2023 -0.0191
  373TMC3     C 5635   3.572   4.695  14.014 -0.4767 -0.6301 -0.5969
  373TMC3     O 5636   3.453   4.693  14.021  0.3450 -0.0782 -0.4444
  373TMC3     H 5637   3.512   4.584  14.230 -0.7271 -1.8073 -0.3970
  373TMC3    H1 5638   3.768   4.546  13.904  2.4850 -0.2475  0.6044
  373TMC3    H2 5639   3.790   4.273  14.228  0.4467 -0.4392 -1.7651
  373TMC3    C7 5640   3.897   4.340  13.992  0.5501  0.2960  0.0086
  373TMC3    C8 5641   3.699   4.460  14.383 -0.5420  0.0465  0.4704
  373TMC3    O1 5642   3.897   4.306  13.874  0.5802  0.3001  0.1628
  373TMC3    O2 5643   3.686   4.577  14.419  0.1825 -0.4979  0.4092
  374TMC3    C1 5644   4.683   0.861   9.683  0.4032  0.0413 -0.1974
  374TMC3    C2 5645   0.069   0.883   9.744 -0.4778  0.0613 -0.2780
  374TMC3    C3 5646   0.161   0.956   9.673  0.0737  0.7031  0.0529
  374TMC3    C4 5647   4.657   0.924   9.567  0.0496  0.4537 -0.1945
  374TMC3    C5 5648   0.014   0.991   9.495 -0.1748  0.3351 -0.4563
  374TMC3    C6 5649   0.139   1.003   9.545 -0.1933  0.7494 -1.0784
  374TMC3     C 5650   4.580   0.772   9.746  0.1926 -0.2311  0.0001
  374TMC3     O 5651   4.479   0.762   9.673  0.1981 -0.0624 -0.5270
  374TMC3     H 5652   0.085   0.838   9.842  0.2307  0.4547 -0.2140
  374TMC3    H1 5653   4.561   0.901   9.522  0.5761 -1.4961 -0.3132
  374TMC3    H2 5654   0.213   1.063   9.493 -0.2827  0.6208 -1.3542
  374TMC3    C7 5655   4.727   1.023   9.359 -0.0953 -0.0265  0.4111
  374TMC3    C8 5656   0.289   0.991   9.735  0.1349  0.4545 -0.5065
  374TMC3    O1 5657   4.608   1.022   9.336  0.4937  0.0925 -0.1625
  374TMC3    O2 5658   0.383   1.025   9.667 -0.4814 -0.0716  0.5232
  375MPD2     C 5659   4.351   0.491  17.331 -1.3791 -0.5291  0.3161
  375MPD2    C1 5660   4.294   0.567  17.231 -0.4261 -0.0842  0.3076
  375MPD2    C2 5661   4.373   0.613  17.124  0.2693 -0.5007  0.1713
  375MPD2    C3 5662   4.505   0.564  17.113  0.1335 -0.6047 -0.2135
  375MPD2    C4 5663   4.555   0.485  17.215 -0.5883  0.3313  0.0112
  375MPD2    C5 5664   4.481   0.460  17.324  0.2878  1.1269  0.3846
  375MPD2     H 5665   4.329   0.683  17.054  3.2982  0.8756 -0.3397
  375MPD2    H1 5666   4.657   0.449  17.223 -1.0717 -0.1412  4.3432
  375MPD2    H2 5667   4.297   0.462  17.421 -3.0010 -0.6858 -0.7002
  375MPD2    H3 5668   4.539   0.419  17.406 -1.1454 -1.1454  0.2800
  375MPD2     N 5669   4.591   0.592  16.999  0.3834  0.4554  0.7596
  375MPD2    H5 5670   4.689   0.582  17.025  0.1361  0.9382  1.8391
  375MPD2    N1 5671   4.166   0.626  17.250 -0.1972 -0.6897 -0.1565
  375MPD2    H7 5672   4.148   0.706  17.189 -0.2299 -0.9108 -0.4339
  376TMC3    C1 5673   4.635   0.660  16.768  0.3713 -0.8467 -0.6982
  376TMC3    C2 5674   0.022   0.604  16.783 -0.0197 -0.3878 -0.1541
  376TMC3    C3 5675   0.090   0.559  16.677  0.5557 -0.1349  0.9248
  376TMC3    C4 5676   4.580   0.665  16.638 -0.6695 -0.0548  0.4586
  376TMC3    C5 5677   4.652   0.618  16.534  0.5005 -0.0897  1.0151
  376TMC3    C6 5678   0.037   0.555  16.548  0.0654  0.8069 -0.2347
  376TMC3     C 5679   4.542   0.653  16.878  0.6210  0.1211  0.3549
  376TMC3     O 5680   4.429   0.680  16.841 -0.7033  0.0091 -0.2168
  376TMC3     H 5681   0.069   0.594  16.880 -0.1151  0.3600 -0.0333
  376TMC3    H1 5682   4.484   0.706  16.611  0.2601 -0.5112 -3.4378
  376TMC3    H2 5683   0.108   0.545  16.466 -1.8807  3.0528 -2.2202
  376TMC3    C7 5684   4.590   0.647  16.404 -0.0143 -0.0504  0.0212
  376TMC3    C8 5685   0.233   0.537  16.697  0.4098  0.1886 -0.3505
  376TMC3    O1 5686   4.493   0.721  16.394 -0.6852  0.1364 -0.3341
  376TMC3    O2 5687   0.293   0.615  16.771  0.5869  0.5129  0.0084
  377MPD2     C 5688   2.688   0.358  12.819 -0.6277 -0.4530  0.2340
  377MPD2    C1 5689   2.767   0.381  12.927  0.3583 -0.0522  0.6400
  377MPD2    C2 5690   2.714   0.379  13.056  0.7812  0.3662 -0.9424
  377MPD2    C3 5691   2.572   0.368  13.068  0.3898 -0.5516 -0.4388
  377MPD2    C4 5692   2.492   0.369  12.954  0.1117 -0.3373 -0.6332
  377MPD2    C5 5693   2.555   0.357  12.833 -0.2606  0.3642  0.6411
  377MPD2     H 5694   2.773   0.404  13.143  0.5940 -1.0940 -0.3953
  377MPD2    H1 5695   2.385   0.373  12.969  0.4263 -2.2227  2.1921
  377MPD2    H2 5696   2.732   0.343  12.722 -0.4629  0.1166  0.2242
  377MPD2    H3 5697   2.492   0.360  12.745  2.9655 -2.5500 -1.7481
  377MPD2     N 5698   2.498   0.382  13.196  0.1288  0.4586 -0.7683
  377MPD2    H5 5699   2.406   0.422  13.182  0.4194  1.3115 -0.2942
  377MPD2    N1 5700   2.896   0.429  12.903  0.4284 -0.5942 -0.1410
  377MPD2    H7 5701   2.916   0.428  12.803  1.2183  1.1589 -0.0170
  378TMC3    C1 5702   3.173   0.482  12.683  0.4922 -0.2306  0.2985
  378TMC3    C2 5703   3.115   0.426  12.794 -0.5244 -0.1516  0.1899
  378TMC3    C3 5704   3.110   0.499  12.909 -0.2586  0.3836 -0.1353
  378TMC3    C4 5705   3.231   0.604  12.695 -0.0814  0.4682  0.6557
  378TMC3    C5 5706   3.249   0.660  12.821 -0.3819  0.6187  0.4799
  378TMC3    C6 5707   3.184   0.615  12.925  0.0430  0.6456 -0.6135
  378TMC3     C 5708   3.069   0.481  12.584  0.2456  0.1405  0.1418
  378TMC3     O 5709   2.977   0.412  12.621  0.4472 -0.0923  0.0104
  378TMC3     H 5710   3.071   0.328  12.784 -0.5912 -0.3178  2.2041
  378TMC3    H1 5711   3.287   0.641  12.610  0.9641  1.3855  1.7410
  378TMC3    H2 5712   3.188   0.674  13.016  0.5424 -3.1403  1.8317
  378TMC3    C7 5713   3.379   0.711  12.853  0.0268  0.0006 -0.6548
  378TMC3    C8 5714   2.994   0.477  12.990 -0.6689  0.0843  0.6494
  378TMC3    O1 5715   3.429   0.689  12.964  0.0723 -0.3161  0.3280
  378TMC3    O2 5716   2.985   0.498  13.109  0.9460  0.1963 -0.1573
  379MPD2     C 5717   3.424   3.490  16.095  1.0679  0.2487 -0.1388
  379MPD2    C1 5718   3.376   3.408  16.196 -0.7606  0.0314  0.1748
  379MPD2    C2 5719   3.458   3.329  16.267  0.0847  0.4830 -0.6935
  379MPD2    C3 5720   3.597   3.328  16.254  0.0134  0.1548  0.0015
  379MPD2    C4 5721   3.644   3.402  16.146 -0.1483 -0.0254  0.1728
  379MPD2    C5 5722   3.563   3.495  16.077  0.1664 -0.1061  0.3314
  379MPD2     H 5723   3.422   3.245  16.326 -1.2434  0.3444 -1.7145
  379MPD2    H1 5724   3.750   3.396  16.127 -0.0740  0.2322  0.5223
  379MPD2    H2 5725   3.357   3.557  16.043  0.2459 -0.3081  0.1973
  379MPD2    H3 5726   3.594   3.565  16.000 -0.2929 -0.2005  0.0581
  379MPD2     N 5727   3.691   3.245  16.328 -0.0777 -0.3207 -0.8467
  379MPD2    H5 5728   3.788   3.245  16.297 -0.2746  1.5942 -1.4709
  379MPD2    N1 5729   3.237   3.404  16.210 -0.3357 -0.2251  0.0966
  379MPD2    H7 5730   3.185   3.461  16.144 -0.0582  0.2395  0.2886
  380TMC3    C1 5731   3.026   3.338  16.279 -0.0080  0.1918 -0.3204
  380TMC3    C2 5732   3.020   3.207  16.242  0.8330  0.0882  0.2888
  380TMC3    C3 5733   2.979   3.167  16.120 -0.2574  0.3343 -0.5579
  380TMC3    C4 5734   2.977   3.429  16.192 -0.3758  0.0920  0.0325
  380TMC3    C5 5735   2.908   3.383  16.077  0.2801  0.2769  0.1138
  380TMC3    C6 5736   2.903   3.250  16.049 -0.4715 -0.1203  0.6134
  380TMC3     C 5737   3.161   3.356  16.314  0.1774  0.1780  0.2992
  380TMC3     O 5738   3.195   3.327  16.432 -0.6143  0.5858  0.2814
  380TMC3     H 5739   3.060   3.132  16.309 -0.7936  0.3275  1.5464
  380TMC3    H1 5740   2.986   3.535  16.216 -0.8214 -0.5836  3.2579
  380TMC3    H2 5741   2.871   3.206  15.955  1.2040 -1.5374  0.7122
  380TMC3    C7 5742   2.845   3.486  15.990  0.6101 -0.3037 -0.7376
  380TMC3    C8 5743   3.089   3.108  16.041  0.2621 -0.1890 -0.7726
  380TMC3    O1 5744   2.893   3.595  15.993  0.5887  0.2112  0.7397
  380TMC3    O2 5745   3.097   3.167  15.933  0.0373 -0.4025 -0.0441
  381TMC3    C1 5746   3.155   4.493  16.096 -0.3080  0.0513 -0.2865
  381TMC3    C2 5747   3.261   4.535  16.172 -0.1879 -0.0428  0.0884
  381TMC3    C3 5748   3.235   4.628  16.269 -0.3064 -0.4608  0.2202
  381TMC3    C4 5749   3.032   4.557  16.108  0.0492 -0.2441 -0.0032
  381TMC3    C5 5750   3.011   4.638  16.210 -0.3659  0.0556  0.5135
  381TMC3    C6 5751   3.110   4.674  16.293  0.0392 -0.1230  0.6682
  381TMC3     C 5752   3.181   4.378  16.013  0.2993 -0.4583  0.2944
  381TMC3     O 5753   3.243   4.294  16.067 -0.4074 -0.1458  0.2346
  381TMC3     H 5754   3.361   4.497  16.154  0.1461  1.6153 -1.6224
  381TMC3    H1 5755   2.943   4.520  16.058  0.3286 -0.1175 -0.5888
  381TMC3    H2 5756   3.088   4.730  16.384  1.2731 -1.9976  2.1232
  381TMC3    C7 5757   2.873   4.671  16.241  0.3332  0.3754 -0.8454
  381TMC3    C8 5758   3.350   4.719  16.299 -0.8068 -0.3883  0.1771
  381TMC3    O1 5759   2.800   4.689  16.149 -0.3494  0.4284  0.3848
  381TMC3    O2 5760   3.458   4.694  16.242 -0.0629  0.0711 -0.5334
  382MPD2     C 5761   2.748   1.909  16.797 -0.2271  0.3000 -0.6141
  382MPD2    C1 5762   2.757   1.956  16.924  0.4139  0.1624 -0.2391
  382MPD2    C2 5763   2.679   1.892  17.025 -0.3319  0.0379  0.1914
  382MPD2    C3 5764   2.597   1.782  16.997  0.4734 -0.9246  0.4251
  382MPD2    C4 5765   2.587   1.743  16.861  0.2032  0.0144 -0.2252
  382MPD2    C5 5766   2.660   1.810  16.772 -0.2249  0.2094 -0.6052
  382MPD2     H 5767   2.682   1.935  17.124 -0.0174 -2.0178  1.0867
  382MPD2    H1 5768   2.540   1.652  16.825 -0.0619 -1.4628  3.9379
  382MPD2    H2 5769   2.805   1.952  16.715  0.4357  0.9156  0.1683
  382MPD2    H3 5770   2.637   1.789  16.668 -1.7362 -0.9248 -0.0493
  382MPD2     N 5771   2.524   1.708  17.091  0.1669 -0.4298 -0.0666
  382MPD2    H5 5772   2.458   1.641  17.052 -1.2205  1.7885 -1.4940
  382MPD2    N1 5773   2.846   2.059  16.961 -0.4287  0.2170  0.5480
  382MPD2    H7 5774   2.835   2.084  17.059  0.7308  1.5820  0.3314
  383TMC3    C1 5775   2.429   1.648  17.297  0.2977 -0.1391 -0.7680
  383TMC3    C2 5776   2.379   1.540  17.236  0.4875  0.4196 -0.7483
  383TMC3    C3 5777   2.263   1.488  17.295 -0.8690  0.5264 -0.4896
  383TMC3    C4 5778   2.392   1.697  17.418  0.1162  0.3746 -0.1657
  383TMC3    C5 5779   2.286   1.625  17.480 -0.4249 -0.2488 -0.2682
  383TMC3    C6 5780   2.207   1.533  17.413 -0.0511 -0.1302  0.1928
  383TMC3     C 5781   2.543   1.709  17.227 -0.3659  0.6897  0.7086
  383TMC3     O 5782   2.629   1.768  17.295 -0.0993  0.8918  0.6223
  383TMC3     H 5783   2.413   1.491  17.145 -0.8742 -0.3737 -0.8256
  383TMC3    H1 5784   2.446   1.779  17.463  0.8142 -0.2481  0.1367
  383TMC3    H2 5785   2.126   1.484  17.465  0.7449 -1.0239  0.5978
  383TMC3    C7 5786   2.296   1.608  17.624 -0.6941  1.1483  0.2119
  383TMC3    C8 5787   2.184   1.398  17.222 -0.0959  0.2315 -0.2843
  383TMC3    O1 5788   2.195   1.551  17.668  0.3321 -0.2256  0.1628
  383TMC3    O2 5789   2.236   1.334  17.132 -0.5853  0.3610 -0.5366
  384MPD2     C 5790   4.156   3.618  12.196 -0.5774  0.6148 -0.1785
  384MPD2    C1 5791   4.174   3.553  12.318  0.2075 -0.6977  0.4996
  384MPD2    C2 5792   4.221   3.426  12.325 -0.0316  0.3572 -0.4996
  384MPD2    C3 5793   4.264   3.358  12.214 -0.7200  0.4376  0.1388
  384MPD2    C4 5794   4.247   3.425  12.096 -0.1017 -0.4107 -0.3820
  384MPD2    C5 5795   4.194   3.551  12.083 -0.2071 -0.6663 -0.0170
  384MPD2     H 5796   4.220   3.369  12.418 -0.2370 -0.5531 -1.0646
  384MPD2    H1 5797   4.279   3.372  12.007 -0.9613  0.3316 -1.1342
  384MPD2    H2 5798   4.122   3.721  12.191  0.0614  0.8598  0.4886
  384MPD2    H3 5799   4.177   3.595  11.986 -0.1927 -0.2314  0.1735
  384MPD2     N 5800   4.318   3.229  12.214  0.0182  0.2388  0.2879
  384MPD2    H5 5801   4.336   3.191  12.122 -2.0672  0.6440 -0.2875
  384MPD2    N1 5802   4.134   3.598  12.443 -0.4660 -0.2057  0.0184
  384MPD2    H7 5803   4.159   3.541  12.523  0.4879  1.4846  0.9206
  385TMC3    C1 5804   4.356   3.015  12.312 -0.1463 -0.0553 -0.4895
  385TMC3    C2 5805   4.257   2.955  12.235 -0.7154  0.0475 -0.2201
  385TMC3    C3 5806   4.225   2.827  12.270  0.5570  0.1087 -0.1724
  385TMC3    C4 5807   4.402   2.956  12.430 -0.3853  0.0272  0.0923
  385TMC3    C5 5808   4.357   2.835  12.477 -0.2328 -0.3998 -0.1231
  385TMC3    C6 5809   4.268   2.774  12.395 -0.2512 -0.9273  0.0405
  385TMC3     C 5810   4.349   3.159  12.329  0.9827 -0.2261 -0.3950
  385TMC3     O 5811   4.360   3.197  12.445  0.4263  0.7453  0.0781
  385TMC3     H 5812   4.230   2.995  12.138 -0.8244 -0.5895 -0.4514
  385TMC3    H1 5813   4.480   3.011  12.480 -1.5009  0.8242  0.9290
  385TMC3    H2 5814   4.227   2.680  12.431 -0.4839  0.0802  2.3842
  385TMC3    C7 5815   4.332   2.836  12.617 -0.1419 -0.2353  0.5133
  385TMC3    C8 5816   4.140   2.753  12.184 -0.4550  0.1276  0.9142
  385TMC3    O1 5817   4.312   2.729  12.675 -0.5002  0.2958 -0.2972
  385TMC3    O2 5818   4.120   2.795  12.073  0.0998  0.2368 -0.0714
  386TMC3    C1 5819   3.735   1.335  12.590 -0.1192  0.6941  0.1409
  386TMC3    C2 5820   3.733   1.276  12.464 -1.0408 -0.4404 -0.6108
  386TMC3    C3 5821   3.637   1.325  12.380  0.2756 -0.3431 -0.4828
  386TMC3    C4 5822   3.638   1.422  12.637 -0.3056 -0.5699  0.2365
  386TMC3    C5 5823   3.548   1.462  12.547 -0.2427  0.1924  0.0649
  386TMC3    C6 5824   3.546   1.421  12.418  0.6187  0.6591 -0.1470
  386TMC3     C 5825   3.814   1.282  12.701  0.3663 -0.4700 -0.5480
  386TMC3     O 5826   3.756   1.275  12.809 -0.5514  0.0332  0.1755
  386TMC3     H 5827   3.797   1.192  12.442 -0.4359 -0.3383  0.7370
  386TMC3    H1 5828   3.654   1.476  12.730  1.5561 -0.2917 -0.2453
  386TMC3    H2 5829   3.472   1.455  12.346 -0.7080 -2.1256 -0.1032
  386TMC3    C7 5830   3.424   1.495  12.616 -0.2586  0.5417  0.1998
  386TMC3    C8 5831   3.635   1.265  12.250  0.6037 -0.4889  0.9050
  386TMC3    O1 5832   3.425   1.477  12.737 -0.5381  0.2174  0.1850
  386TMC3    O2 5833   3.540   1.288  12.183 -0.2375  0.1684 -0.2262
  387MPD2     C 5834   1.622   1.398  10.348 -1.0167  0.5664  0.4790
  387MPD2    C1 5835   1.737   1.337  10.382 -0.4968 -0.0570 -0.2728
  387MPD2    C2 5836   1.758   1.206  10.344  0.2430  0.9149 -0.4398
  387MPD2    C3 5837   1.669   1.140  10.262 -0.0388 -0.0878 -0.7705
  387MPD2    C4 5838   1.545   1.197  10.235 -0.4646  0.2567  0.2532
  387MPD2    C5 5839   1.527   1.328  10.276  0.6219  0.2486  0.0150
  387MPD2     H 5840   1.858   1.165  10.358 -1.0487 -1.9814  0.2865
  387MPD2    H1 5841   1.473   1.136  10.182 -0.1434  0.2815 -0.2144
  387MPD2    H2 5842   1.606   1.502  10.375 -2.0025 -0.0654  2.3693
  387MPD2    H3 5843   1.435   1.377  10.249  0.6183  0.0809 -0.2753
  387MPD2     N 5844   1.701   1.006  10.230  0.5189  0.0998  0.4185
  387MPD2    H5 5845   1.794   0.967  10.248  0.3527 -0.1455  0.7463
  387MPD2    N1 5846   1.840   1.384  10.461  0.1889  0.5240 -0.0196
  387MPD2    H7 5847   1.912   1.313  10.473  1.5923  1.9775  0.1259
  388TMC3    C1 5848   1.956   1.492  10.624 -0.3975  0.3494 -0.7914
  388TMC3    C2 5849   2.031   1.600  10.646 -0.2818  0.0079  0.2843
  388TMC3    C3 5850   2.148   1.585  10.718 -0.1634  0.8451  0.4146
  388TMC3    C4 5851   2.011   1.370  10.651  0.6260 -0.3737 -0.4080
  388TMC3    C5 5852   2.131   1.361  10.714  0.1102 -0.3210 -0.5575
  388TMC3    C6 5853   2.203   1.463  10.757  0.2303  0.3550  0.5351
  388TMC3     C 5854   1.847   1.503  10.532  0.3637 -0.0686 -0.6771
  388TMC3     O 5855   1.770   1.603  10.538 -0.2116 -0.3723  0.1686
  388TMC3     H 5856   1.986   1.695  10.619 -1.0526 -0.1902  0.8758
  388TMC3    H1 5857   1.955   1.278  10.639 -0.6737  0.0770  2.2313
  388TMC3    H2 5858   2.297   1.441  10.808  1.2083  1.9744 -0.5819
  388TMC3    C7 5859   2.169   1.233  10.765 -0.0006  0.4535  1.1179
  388TMC3    C8 5860   2.226   1.708  10.722 -0.0067  0.2458 -0.2379
  388TMC3    O1 5861   2.208   1.212  10.879 -0.4539 -0.1586 -0.7089
  388TMC3    O2 5862   2.223   1.783  10.628  0.0322 -0.3840  0.1450
  389MPD2     C 5863   0.865   3.224  10.877  0.0092  0.0138  0.3880
  389MPD2    C1 5864   0.904   3.335  10.948  0.1567  0.0444  0.1538
  389MPD2    C2 5865   0.912   3.326  11.088 -0.1050 -0.3064 -0.0478
  389MPD2    C3 5866   0.877   3.211  11.160 -0.3610  0.1365  0.1332
  389MPD2    C4 5867   0.840   3.100  11.085 -0.3938  0.0220 -0.2960
  389MPD2    C5 5868   0.842   3.111  10.946 -0.0510  0.1379 -0.1086
  389MPD2     H 5869   0.955   3.411  11.141  1.0491 -0.7489 -0.2726
  389MPD2    H1 5870   0.804   3.006  11.125  0.9494 -0.0271  0.8002
  389MPD2    H2 5871   0.855   3.229  10.770  0.0677 -1.6235  0.3056
  389MPD2    H3 5872   0.809   3.030  10.882  0.5920 -0.3868  0.2186
  389MPD2     N 5873   0.866   3.201  11.302 -0.5682 -0.0980  0.6189
  389MPD2    H5 5874   0.824   3.117  11.341  0.5986 -1.1917 -0.4606
  389MPD2    N1 5875   0.916   3.457  10.872  0.3551 -0.6025  0.4201
  389MPD2    H7 5876   0.890   3.449  10.775  0.0904  0.1708  0.4281
  390TMC3    C1 5877   0.822   3.297  11.515 -0.3249 -0.2968  0.0483
  390TMC3    C2 5878   0.771   3.177  11.565  0.5033  0.1175 -0.7608
  390TMC3    C3 5879   0.708   3.181  11.684 -0.0878 -0.0575 -0.6239
  390TMC3    C4 5880   0.813   3.417  11.584  0.2824 -0.0199 -0.1769
  390TMC3    C5 5881   0.742   3.413  11.703  0.5976  0.0900 -0.6360
  390TMC3    C6 5882   0.689   3.297  11.757 -0.3105 -0.0170  0.7767
  390TMC3     C 5883   0.896   3.305  11.384  0.1499 -0.5201 -0.4907
  390TMC3     O 5884   0.962   3.406  11.371  0.0297 -0.6197 -0.2485
  390TMC3     H 5885   0.792   3.082  11.518  1.0601 -0.9892  1.7314
  390TMC3    H1 5886   0.866   3.506  11.554  0.1004  0.1184 -0.0939
  390TMC3    H2 5887   0.641   3.293  11.854 -1.7578 -0.5448  0.0491
  390TMC3    C7 5888   0.644   3.522  11.702  0.6577  0.4597  0.1145
  390TMC3    C8 5889   0.605   3.079  11.696 -0.7819  0.3012  0.1771
  390TMC3    O1 5890   0.663   3.601  11.613  0.1133 -0.0293  0.3834
  390TMC3    O2 5891   0.556   3.037  11.596  1.1758  0.2198  0.0476
  391MPD2     C 5892   0.168   0.576  11.182  0.2873 -0.6758  0.1572
  391MPD2    C1 5893   0.289   0.641  11.214  1.0636 -0.5329  0.4120
  391MPD2    C2 5894   0.324   0.744  11.122 -0.6529 -0.1006 -0.9212
  391MPD2    C3 5895   0.261   0.779  10.999 -0.2938 -0.4492 -0.4248
  391MPD2    C4 5896   0.146   0.700  10.976  1.1047 -0.9168 -0.8909
  391MPD2    C5 5897   0.102   0.608  11.063  0.3201  0.0503  0.3273
  391MPD2     H 5898   0.420   0.792  11.139 -2.9772  2.9120  3.6357
  391MPD2    H1 5899   0.084   0.708  10.887 -1.0091  0.8272  0.7747
  391MPD2    H2 5900   0.128   0.494  11.240  1.6037 -2.2937 -1.2354
  391MPD2    H3 5901   0.008   0.560  11.041  1.1339 -1.2402 -0.2811
  391MPD2     N 5902   0.309   0.882  10.920  0.1221 -0.3129 -0.2649
  391MPD2    H5 5903   0.398   0.926  10.941 -0.2046 -1.0901  2.7971
  391MPD2    N1 5904   0.368   0.595  11.319 -0.2871 -0.7464  0.2827
  391MPD2    H7 5905   0.337   0.511  11.367  0.1874 -1.6135 -0.9187
  392TMC3    C1 5906   0.323   1.021  10.729  0.4023  0.8924  0.0489
  392TMC3    C2 5907   0.310   1.019  10.593  0.1422 -0.4009 -0.1146
  392TMC3    C3 5908   0.402   1.088  10.522  0.0814  0.3799 -0.5106
  392TMC3    C4 5909   0.423   1.097  10.784  0.1416  0.1475  0.7492
  392TMC3    C5 5910   0.507   1.170  10.705  0.1264  0.3337  0.0205
  392TMC3    C6 5911   0.501   1.169  10.571  0.2208 -0.3630  0.0719
  392TMC3     C 5912   0.253   0.921  10.807  0.0288  0.3074  0.0341
  392TMC3     O 5913   0.160   0.870  10.745 -0.0742  0.0144 -0.3966
  392TMC3     H 5914   0.239   0.949  10.551 -0.8177  0.4811  0.0295
  392TMC3    H1 5915   0.444   1.095  10.891 -3.0799 -0.1698  1.3719
  392TMC3    H2 5916   0.581   1.214  10.512 -0.2768  1.9040  1.1417
  392TMC3    C7 5917   0.613   1.240  10.781 -0.3452 -0.0205 -0.3156
  392TMC3    C8 5918   0.379   1.088  10.376 -0.3060 -0.4328 -0.0184
  392TMC3    O1 5919   0.655   1.177  10.877  0.2969  0.0182 -0.0408
  392TMC3    O2 5920   0.272   1.042  10.351  0.3103 -0.1539  0.1221
  393TMC3    C1 5921   3.674   3.208  10.402  0.0226  0.3065  0.5860
  393TMC3    C2 5922   3.611   3.124  10.313  0.1393 -0.5106  0.7539
  393TMC3    C3 5923   3.524   3.029  10.371  0.1020  0.0311 -0.0611
  393TMC3    C4 5924   3.653   3.212  10.535 -0.5210 -0.5669 -0.8429
  393TMC3    C5 5925   3.570   3.117  10.584  0.6292  0.2145  0.2730
  393TMC3    C6 5926   3.498   3.029  10.506 -0.5368  0.4840 -0.1063
  393TMC3     C 5927   3.741   3.321  10.331  0.1050  0.1742 -0.0644
  393TMC3     O 5928   3.713   3.356  10.217  0.6417 -0.2405 -0.2226
  393TMC3     H 5929   3.637   3.119  10.208 -0.4017  1.3307  0.5323
  393TMC3    H1 5930   3.678   3.298  10.596  0.3222  0.3777 -2.5314
  393TMC3    H2 5931   3.428   2.965  10.558  1.3632 -1.2436  0.3637
  393TMC3    C7 5932   3.526   3.146  10.717  0.2171  0.2193  0.7147
  393TMC3    C8 5933   3.479   2.913  10.298  0.1594  0.8253  0.1072
  393TMC3    O1 5934   3.415   3.107  10.742 -0.5694 -0.1677 -0.5290
  393TMC3    O2 5935   3.439   2.819  10.362  0.4269  0.6823  0.6597
  394TMC3    C1 5936   0.945   3.684  10.832  0.1905 -0.1441  0.2614
  394TMC3    C2 5937   0.835   3.689  10.752  1.2096 -0.3955 -0.1667
  394TMC3    C3 5938   0.807   3.806  10.689 -1.3524 -0.0534  0.4936
  394TMC3    C4 5939   1.024   3.797  10.857  0.0502  0.3570 -0.1072
  394TMC3    C5 5940   0.996   3.909  10.788  0.0807 -0.3236  0.4952
  394TMC3    C6 5941   0.884   3.918  10.703  0.3603 -0.0045 -0.4791
  394TMC3     C 5942   0.967   3.578  10.918 -0.4032 -0.1029  0.0381
  394TMC3     O 5943   1.032   3.593  11.025  0.1421 -0.4481 -0.0435
  394TMC3     H 5944   0.787   3.595  10.726  0.8516  0.0621 -1.1904
  394TMC3    H1 5945   1.107   3.785  10.926  0.8700 -0.6539 -1.2691
  394TMC3    H2 5946   0.854   4.011  10.657  1.9891  0.7998  0.1033
  394TMC3    C7 5947   1.071   4.032  10.785 -0.2788  0.5025  0.1574
  394TMC3    C8 5948   0.730   3.815  10.566 -0.5747 -0.2149  0.1494
  394TMC3    O1 5949   1.001   4.128  10.762 -0.5184 -0.2215  0.0747
  394TMC3    O2 5950   0.718   3.926  10.517  0.3373  0.6419  0.1365
  395TMC3    C1 5951   0.373   0.560  15.350 -0.0435 -0.1516 -0.1223
  395TMC3    C2 5952   0.396   0.444  15.281 -0.2823  0.0352  1.0756
  395TMC3    C3 5953   0.464   0.456  15.161  0.5815  0.1379  0.1484
  395TMC3    C4 5954   0.417   0.684  15.299  0.1998  0.3290 -0.3192
  395TMC3    C5 5955   0.491   0.685  15.183  0.1517  0.3119 -0.0914
  395TMC3    C6 5956   0.506   0.573  15.105  0.4815 -0.0163 -1.0234
  395TMC3     C 5957   0.337   0.563  15.488  1.0306 -0.6959 -0.2827
  395TMC3     O 5958   0.305   0.672  15.539  0.7229  0.3753 -0.0739
  395TMC3     H 5959   0.341   0.354  15.305 -0.8818  0.8300  2.6697
  395TMC3    H1 5960   0.414   0.776  15.355  1.9932  0.8083 -1.0093
  395TMC3    H2 5961   0.560   0.572  15.012 -0.3864 -1.1516 -1.5218
  395TMC3    C7 5962   0.578   0.803  15.164  0.5945 -0.6004 -0.0755
  395TMC3    C8 5963   0.429   0.353  15.073 -0.3602 -0.2096  0.3103
  395TMC3    O1 5964   0.569   0.885  15.251 -0.3750  0.0184 -0.5555
  395TMC3    O2 5965   0.409   0.384  14.957 -0.5442 -0.1085 -0.2082
  396MPD2     C 5966   0.288   1.597  17.186  0.2000  0.4066  0.4973
  396MPD2    C1 5967   0.398   1.661  17.242  0.0734  0.0599 -0.3657
  396MPD2    C2 5968   0.450   1.779  17.175 -0.5270 -0.4286 -0.0649
  396MPD2    C3 5969   0.385   1.830  17.064  0.3357  0.0936  0.1297
  396MPD2    C4 5970   0.272   1.773  17.019  0.5109 -0.1057 -0.1338
  396MPD2    C5 5971   0.225   1.659  17.082  0.3320 -0.5843  0.5838
  396MPD2     H 5972   0.541   1.828  17.209 -0.1194  0.3053 -2.1971
  396MPD2    H1 5973   0.205   1.819  16.946  1.4416 -0.6021 -1.2982
  396MPD2    H2 5974   0.251   1.501  17.223  1.8622 -0.9909 -1.4879
  396MPD2    H3 5975   0.128   1.630  17.044  0.3654  0.0601  0.0144
  396MPD2     N 5976   0.443   1.951  17.005  0.0114 -0.0923 -0.0042
  396MPD2    H5 5977   0.525   1.990  17.051 -0.8660  2.2666 -0.4295
  396MPD2    N1 5978   0.451   1.603  17.360  0.1518  0.5321  0.0414
  396MPD2    H7 5979   0.399   1.528  17.405 -0.2659  1.2792  0.8063
  397TMC3    C1 5980   0.588   1.562  17.543  0.3625 -1.2063 -0.3765
  397TMC3    C2 5981   0.696   1.482  17.528 -0.0630 -0.4344 -0.2961
  397TMC3    C3 5982   0.690   1.358  17.589 -0.0933  0.5150  0.3894
  397TMC3    C4 5983   0.477   1.510  17.600  0.0538  0.3626 -0.0401
  397TMC3    C5 5984   0.483   1.396  17.676 -0.6141 -0.3307  0.2706
  397TMC3    C6 5985   0.596   1.317  17.675  0.4595  0.0463 -0.4099
  397TMC3     C 5986   0.570   1.638  17.426 -0.3959 -0.3329 -0.6462
  397TMC3     O 5987   0.657   1.713  17.385  0.3528  0.2555  0.1926
  397TMC3     H 5988   0.780   1.513  17.467  0.7526 -1.0473  0.5137
  397TMC3    H1 5989   0.390   1.574  17.604  0.9450  1.5178  0.8852
  397TMC3    H2 5990   0.617   1.238  17.745 -0.2315  0.7322  0.5762
  397TMC3    C7 5991   0.398   1.387   0.038  0.1278 -0.4894 -0.2543
  397TMC3    C8 5992   0.726   1.265  17.486  0.1865 -0.3679 -0.2464
  397TMC3    O1 5993   0.437   1.318   0.132  0.7253 -0.4212  0.3054
  397TMC3    O2 5994   0.796   1.298  17.389 -0.1506  0.2078  0.5647
  398MPD2     C 5995   3.319   2.494   0.152 -0.6152  0.2186  0.6482
  398MPD2    C1 5996   3.396   2.480   0.270  0.3228  0.0064  0.1114
  398MPD2    C2 5997   3.466   2.593   0.316  0.0609 -0.1012 -0.5893
  398MPD2    C3 5998   3.451   2.714   0.255 -0.5628  0.4747  0.8894
  398MPD2    C4 5999   3.369   2.726   0.151  0.9581 -0.4811 -0.4069
  398MPD2    C5 6000   3.306   2.617   0.099 -0.2606  0.8132  0.6231
  398MPD2     H 6001   3.519   2.588   0.410 -0.6747  4.9333  0.0672
  398MPD2    H1 6002   3.353   2.820   0.099 -1.1477 -1.4346 -1.4645
  398MPD2    H2 6003   3.255   2.422   0.103  2.6124 -0.5157 -2.5075
  398MPD2    H3 6004   3.239   2.630   0.015  0.0596  1.8676  0.5281
  398MPD2     N 6005   3.517   2.813   0.330 -0.2332 -0.4741 -0.1032
  398MPD2    H5 6006   3.582   2.770   0.395 -0.9042 -0.2966  0.6794
  398MPD2    N1 6007   3.433   2.353   0.315  0.5601  0.0348 -0.4140
  398MPD2    H7 6008   3.503   2.353   0.388  1.1062  0.8739 -0.9439
  399TMC3    C1 6009   3.435   2.108   0.315  0.0011 -0.5051 -0.3001
  399TMC3    C2 6010   3.571   2.097   0.338  0.1218 -0.1405  0.6798
  399TMC3    C3 6011   3.615   1.964   0.369 -0.5134 -0.0847  0.7809
  399TMC3    C4 6012   3.350   2.001   0.339 -0.2998 -0.2127 -0.3115
  399TMC3    C5 6013   3.393   1.878   0.376 -0.2683  0.2095  0.0202
  399TMC3    C6 6014   3.530   1.859   0.393 -0.1241 -0.6523 -0.3084
  399TMC3     C 6015   3.377   2.234   0.267 -0.3488 -0.5476 -0.6817
  399TMC3     O 6016   3.273   2.216   0.208 -0.1237  0.1014 -0.4084
  399TMC3     H 6017   3.647   2.170   0.314  0.0045 -0.2554 -0.0620
  399TMC3    H1 6018   3.246   2.032   0.336 -0.3791 -0.5996 -1.3815
  399TMC3    H2 6019   3.576   1.762   0.401 -1.2644 -1.1034  0.8837
  399TMC3    C7 6020   3.298   1.770   0.361 -0.6438 -0.1030  0.2312
  399TMC3    C8 6021   3.757   1.952   0.407  0.4431  0.6971 -0.5580
  399TMC3    O1 6022   3.195   1.800   0.302  0.1734  0.0035 -0.1677
  399TMC3    O2 6023   3.836   2.034   0.362 -0.0225  0.3482  0.5070
  400TMC3    C1 6024   2.143   1.250  16.791  0.0678  0.8453 -0.0390
  400TMC3    C2 6025   2.031   1.269  16.723 -0.5182  0.7663 -1.0253
  400TMC3    C3 6026   1.987   1.396  16.718 -0.3127  0.0387  0.1204
  400TMC3    C4 6027   2.218   1.347  16.855 -0.2515 -0.3181 -0.0280
  400TMC3    C5 6028   2.157   1.469  16.859  0.4417 -0.5340 -0.5257
  400TMC3    C6 6029   2.045   1.501  16.791 -0.0656 -0.6850  0.2310
  400TMC3     C 6030   2.141   1.112  16.857 -1.1473 -0.2912 -0.0937
  400TMC3     O 6031   2.040   1.042  16.849  0.4925  0.3549  0.2926
  400TMC3     H 6032   1.964   1.186  16.702 -1.3543  0.9115  1.0989
  400TMC3    H1 6033   2.305   1.327  16.916  0.4376  1.0370 -0.5623
  400TMC3    H2 6034   2.010   1.603  16.784  1.3329 -0.4224 -2.9240
  400TMC3    C7 6035   2.210   1.575  16.933  0.8288 -0.1585 -0.7907
  400TMC3    C8 6036   1.853   1.415  16.661  0.6306  0.0633 -0.7453
  400TMC3    O1 6037   2.330   1.579  16.942 -0.0418 -0.1781 -0.1760
  400TMC3    O2 6038   1.783   1.513  16.693  0.4797 -0.0150 -0.2269
  401MPD2     C 6039   4.723   4.657   0.729 -0.1929  0.2469  0.3068
  401MPD2    C1 6040   0.080   4.568   0.755 -0.3088 -0.9365 -0.1868
  401MPD2    C2 6041   0.057   4.435   0.725  0.2291  0.8157  0.3879
  401MPD2    C3 6042   4.690   4.391   0.653  0.4125  0.4800 -0.4609
  401MPD2    C4 6043   4.590   4.482   0.629 -0.0720  0.6435  0.6014
  401MPD2    C5 6044   4.605   4.606   0.675  0.4334  0.4760 -0.1844
  401MPD2     H 6045   0.128   4.358   0.755 -1.0904  0.3207  2.2940
  401MPD2    H1 6046   4.499   4.465   0.573 -0.3110  0.4989  1.0339
  401MPD2    H2 6047   4.722   0.022   0.761  2.2710  0.0391  1.0906
  401MPD2    H3 6048   4.521   4.673   0.659 -0.2286 -0.5441 -0.9755
  401MPD2     N 6049   4.665   4.247   0.629 -0.0086  0.5994  0.0596
  401MPD2    H5 6050   4.737   4.183   0.659 -1.4941 -0.8584  0.4591
  401MPD2    N1 6051   0.198   4.606   0.817  0.3199 -0.1122  0.4499
  401MPD2    H7 6052   0.272   4.537   0.813  0.6690  0.3506 -1.1849
  402TMC3    C1 6053   4.573   4.050   0.563 -0.7936 -0.3057  0.0785
  402TMC3    C2 6054   4.599   3.991   0.680  0.3841  0.4251 -0.6097
  402TMC3    C3 6055   4.647   3.862   0.667  0.3683 -0.6090  0.4821
  402TMC3    C4 6056   4.582   3.990   0.441  0.1791  0.6039  0.7691
  402TMC3    C5 6057   4.624   3.864   0.432 -0.3424 -0.0082 -0.1591
  402TMC3    C6 6058   4.657   3.797   0.543 -0.2385 -0.2180  0.6310
  402TMC3     C 6059   4.557   4.192   0.560 -0.5658 -0.3290 -0.5575
  402TMC3     O 6060   4.478   4.251   0.494  0.0071 -0.5603  0.0174
  402TMC3     H 6061   4.578   4.044   0.773  3.5710  0.6819 -0.0384
  402TMC3    H1 6062   4.580   4.048   0.350 -2.2650  1.9334  1.6515
  402TMC3    H2 6063   4.699   3.697   0.543 -1.9376 -0.9336 -0.3526
  402TMC3    C7 6064   4.717   3.824   0.328  0.2902 -0.3688 -0.1181
  402TMC3    C8 6065   4.739   3.803   0.767 -0.5720  0.2790 -0.2643
  402TMC3    O1 6066   4.672   3.840   0.215 -0.4713 -0.6811 -0.3493
  402TMC3    O2 6067   0.078   3.715   0.730  0.7401 -0.2345  0.4224
  403MPD2     C 6068   3.460   2.972  13.129 -0.4323 -0.1542 -0.3738
  403MPD2    C1 6069   3.483   2.926  13.259 -0.3841  0.4369 -0.2442
  403MPD2    C2 6070   3.552   3.001  13.344 -0.7167 -0.0365  0.3350
  403MPD2    C3 6071   3.609   3.124  13.308  0.5381  0.4314 -0.1570
  403MPD2    C4 6072   3.583   3.172  13.184 -0.2245  0.2631 -0.3708
  403MPD2    C5 6073   3.508   3.097  13.095 -0.0201  0.6377  0.2399
  403MPD2     H 6074   3.561   2.966  13.446 -0.8069  2.4767  1.1848
  403MPD2    H1 6075   3.632   3.256  13.136  0.7362  0.2300  0.5553
  403MPD2    H2 6076   3.412   2.908  13.056  0.5232 -1.7658  0.4031
  403MPD2    H3 6077   3.491   3.137  12.995 -1.6251 -0.7069 -0.0204
  403MPD2     N 6078   3.695   3.192  13.398 -0.1606  0.1120  0.0761
  403MPD2    H5 6079   3.726   3.142  13.481 -1.7060 -2.2607 -0.7885
  403MPD2    N1 6080   3.424   2.804  13.294 -0.2721 -0.2795  0.1325
  403MPD2    H7 6081   3.354   2.777  13.225  1.4098 -0.0520 -1.6490
  404TMC3    C1 6082   3.361   2.614  13.432  0.3498  0.3225 -0.6782
  404TMC3    C2 6083   3.374   2.558  13.550 -1.3413  0.6501 -0.1900
  404TMC3    C3 6084   3.340   2.430  13.563  0.2026 -0.1438  0.3672
  404TMC3    C4 6085   3.340   2.541  13.319  0.8628  0.4387  0.0575
  404TMC3    C5 6086   3.311   2.408  13.330 -0.0697  0.2560  0.7620
  404TMC3    C6 6087   3.310   2.346  13.460  0.1856  0.2398 -0.3005
  404TMC3     C 6088   3.433   2.746  13.416  0.4496  0.2211  0.3257
  404TMC3     O 6089   3.498   2.778  13.510 -0.4622  0.1028  0.4307
  404TMC3     H 6090   3.415   2.610  13.636  0.3645 -1.4214  0.2442
  404TMC3    H1 6091   3.356   2.588  13.223  2.8115  4.0529  2.1651
  404TMC3    H2 6092   3.293   2.240  13.472 -0.3025  0.0180 -3.1171
  404TMC3    C7 6093   3.282   2.327  13.222  0.2280 -0.6022  0.3999
  404TMC3    C8 6094   3.388   2.373  13.685  0.4532 -0.4382 -0.0555
  404TMC3    O1 6095   3.299   2.203  13.227 -0.2596 -0.0836  0.0592
  404TMC3    O2 6096   3.445   2.269  13.665 -0.9377  0.2465  0.2993
  405MPD2     C 6097   3.806   3.550  15.051 -0.0910  0.9396 -0.4673
  405MPD2    C1 6098   3.805   3.449  14.959  0.6740  0.4953  0.2989
  405MPD2    C2 6099   3.848   3.484  14.828  0.4616 -0.4049  0.7286
  405MPD2    C3 6100   3.875   3.616  14.787  0.0117  0.0125  0.3375
  405MPD2    C4 6101   3.857   3.709  14.881  1.1034 -1.4442 -0.0367
  405MPD2    C5 6102   3.824   3.676  15.012  0.6915 -0.3545  0.1689
  405MPD2     H 6103   3.870   3.407  14.756  0.0616  0.7008 -0.5639
  405MPD2    H1 6104   3.863   3.815  14.860 -0.6767 -1.1958  0.6361
  405MPD2    H2 6105   3.782   3.532  15.155 -1.3528  1.8534 -0.6127
  405MPD2    H3 6106   3.813   3.760  15.080 -1.1901  0.7906 -1.5688
  405MPD2     N 6107   3.898   3.637  14.650 -0.1022  0.5893  0.7137
  405MPD2    H5 6108   3.877   3.556  14.593 -2.6612  1.6304  0.1343
  405MPD2    N1 6109   3.777   3.311  15.001  0.3994  0.0436 -0.2912
  405MPD2    H7 6110   3.726   3.298  15.088 -1.7512 -1.2111 -1.7296
  406TMC3    C1 6111   3.704   3.891  14.349 -0.2504  0.1163 -0.2833
  406TMC3    C2 6112   3.658   3.776  14.290  0.2386  0.2312  0.0673
  406TMC3    C3 6113   3.727   3.663  14.313  0.9724  0.2930 -0.4722
  406TMC3    C4 6114   3.798   3.888  14.452  0.0959 -0.2951 -0.9005
  406TMC3    C5 6115   3.859   3.768  14.473 -0.2981  0.2195 -0.1652
  406TMC3    C6 6116   3.830   3.653  14.400  0.4523 -0.1537  0.6769
  406TMC3     C 6117   3.622   4.004  14.356 -0.5654  0.0335  0.1808
  406TMC3     O 6118   3.664   4.114  14.390 -0.1417 -0.2872 -0.3422
  406TMC3     H 6119   3.573   3.775  14.223  0.7002  0.0054 -0.5160
  406TMC3    H1 6120   3.834   3.980  14.496 -1.2551 -0.8163  1.2769
  406TMC3    H2 6121   3.894   3.566  14.410  1.1233  0.1547 -1.1068
  406TMC3    C7 6122   3.908   3.768  14.597 -0.2535 -0.3542 -0.2890
  406TMC3    C8 6123   3.639   3.549  14.307 -0.4156 -0.1086 -0.2179
  406TMC3    O1 6124   3.932   3.873  14.663  0.5041  0.2060 -0.3018
  406TMC3    O2 6125   3.571   3.528  14.203 -0.3512  0.6728  0.0591
  407MPD2     C 6126   1.000   0.588  10.193  0.0099  0.2771  0.3917
  407MPD2    C1 6127   1.133   0.601  10.165 -0.5056  0.0302 -0.2916
  407MPD2    C2 6128   1.213   0.676  10.253 -0.4081 -0.0726  0.3507
  407MPD2    C3 6129   1.147   0.733  10.366 -0.5423  0.3801  0.4067
  407MPD2    C4 6130   1.010   0.716  10.391  0.1810  0.1401 -0.1714
  407MPD2    C5 6131   0.944   0.645  10.304 -0.3730 -0.0402 -0.3655
  407MPD2     H 6132   1.321   0.681  10.238 -0.0995 -2.7836  1.6084
  407MPD2    H1 6133   0.967   0.752  10.484 -2.1549  0.3165 -1.3365
  407MPD2    H2 6134   0.926   0.547  10.126 -0.8937 -0.9383  2.1260
  407MPD2    H3 6135   0.837   0.643  10.323  0.0382 -1.1847  1.9383
  407MPD2     N 6136   1.208   0.825  10.448 -0.5443 -0.2977  0.1703
  407MPD2    H5 6137   1.150   0.892  10.498  0.0652 -0.0854  0.5944
  407MPD2    N1 6138   1.204   0.564  10.051  0.0135 -0.3763  0.0037
  407MPD2    H7 6139   1.303   0.586  10.056 -0.7271  2.8992 -0.0141
  408TMC3    C1 6140   1.275   0.465   9.855 -0.2957 -0.7543  0.3973
  408TMC3    C2 6141   1.315   0.339   9.828  0.0687 -0.4593 -0.2736
  408TMC3    C3 6142   1.444   0.316   9.809  0.1907  0.2617 -0.5588
  408TMC3    C4 6143   1.357   0.576   9.825 -0.5996  0.1355  0.6841
  408TMC3    C5 6144   1.488   0.549   9.808  0.0565  0.6417 -0.5901
  408TMC3    C6 6145   1.532   0.420   9.798 -0.7156  0.6835  0.3660
  408TMC3     C 6146   1.163   0.475   9.951 -0.5646  0.4405 -0.5037
  408TMC3     O 6147   1.052   0.422   9.942  0.7196 -0.4942  0.0206
  408TMC3     H 6148   1.246   0.255   9.834  0.2232 -0.6046 -0.5289
  408TMC3    H1 6149   1.308   0.672   9.834  1.6345  1.2540  0.7933
  408TMC3    H2 6150   1.635   0.407   9.765 -0.5126  0.8317  0.9491
  408TMC3    C7 6151   1.582   0.656   9.812  0.2237 -0.4016  0.7914
  408TMC3    C8 6152   1.494   0.183   9.821 -0.0110 -0.0480  0.1316
  408TMC3    O1 6153   1.699   0.616   9.820  0.3252 -0.0971  0.0695
  408TMC3    O2 6154   1.409   0.099   9.801  0.0130  0.0482  0.2692
  409MPD2     C 6155   1.152   0.984  16.659  0.5265 -0.5181  0.0861
  409MPD2    C1 6156   1.135   0.962  16.792 -0.1124 -0.2634  0.1435
  409MPD2    C2 6157   1.130   1.073  16.877  0.0938 -0.3187 -0.6358
  409MPD2    C3 6158   1.160   1.201  16.829 -0.0482  0.8362 -0.9204
  409MPD2    C4 6159   1.198   1.214  16.694 -0.2078  0.1216 -0.0584
  409MPD2    C5 6160   1.199   1.104  16.613  0.5009  0.5682 -0.5237
  409MPD2     H 6161   1.112   1.051  16.981 -1.2302 -0.9665 -0.9888
  409MPD2    H1 6162   1.235   1.310  16.661 -2.2134  0.7029 -0.6466
  409MPD2    H2 6163   1.163   0.903  16.587 -1.2082  0.3135 -1.1031
  409MPD2    H3 6164   1.227   1.107  16.509  2.4305  0.4153 -0.0245
  409MPD2     N 6165   1.154   1.311  16.918 -0.2484  0.0068  0.6837
  409MPD2    H5 6166   1.191   1.396  16.878  1.7208 -2.1133 -2.0536
  409MPD2    N1 6167   1.107   0.835  16.849 -0.8820 -0.3068 -0.4262
  409MPD2    H7 6168   1.094   0.820  16.949 -0.5019 -0.1912 -0.3593
  410TMC3    C1 6169   1.157   1.415  17.131  0.5208  0.2654  0.3181
  410TMC3    C2 6170   1.292   1.429  17.127  0.7016 -0.3764 -0.4525
  410TMC3    C3 6171   1.365   1.442  17.247  0.6579  0.4420 -0.9091
  410TMC3    C4 6172   1.091   1.430  17.250 -0.0161  0.0826 -1.5567
  410TMC3    C5 6173   1.166   1.461  17.361 -0.3319  0.3824 -0.1739
  410TMC3    C6 6174   1.302   1.484  17.362  0.4077 -0.1680  0.6412
  410TMC3     C 6175   1.101   1.309  17.048 -0.5539  0.6856  0.1877
  410TMC3     O 6176   1.025   1.228  17.100 -0.1900 -0.4683 -0.4475
  410TMC3     H 6177   1.340   1.426  17.030 -0.1017 -0.4455 -0.8472
  410TMC3    H1 6178   0.982   1.433  17.244 -0.1889  1.5997  2.1072
  410TMC3    H2 6179   1.350   1.500  17.457  0.4411  2.6437  0.1508
  410TMC3    C7 6180   1.101   1.521  17.472 -0.1227  0.0875  0.6474
  410TMC3    C8 6181   1.507   1.453  17.244  0.1226  0.0659  0.9664
  410TMC3    O1 6182   1.157   1.514  17.582 -0.0416  0.1964 -0.1796
  410TMC3    O2 6183   1.562   1.513  17.337 -0.4089 -0.3640  0.4977
  411MPD2     C 6184   1.232   1.514  14.808 -0.0579 -0.0488 -0.8401
  411MPD2    C1 6185   1.103   1.498  14.762  0.5691 -0.0412  0.4874
  411MPD2    C2 6186   1.067   1.381  14.697 -0.0079  0.2254  0.0054
  411MPD2    C3 6187   1.159   1.282  14.679 -0.8276 -0.2584 -0.4137
  411MPD2    C4 6188   1.293   1.307  14.717  0.1827  0.8110  0.1453
  411MPD2    C5 6189   1.323   1.418  14.783  0.2487 -0.4040 -0.3453
  411MPD2     H 6190   0.964   1.367  14.667 -0.0781 -1.6846  1.1302
  411MPD2    H1 6191   1.374   1.237  14.700 -0.1162  0.8804 -1.5828
  411MPD2    H2 6192   1.260   1.607  14.856 -0.6146 -1.3508  2.0561
  411MPD2    H3 6193   1.425   1.442  14.810 -0.8174  1.7819  1.8094
  411MPD2     N 6194   1.141   1.161  14.611  0.5481 -0.1262 -0.3980
  411MPD2    H5 6195   1.223   1.104  14.592  0.9209 -0.3039  1.6964
  411MPD2    N1 6196   1.003   1.601  14.783 -0.0549  0.1572  0.3045
  411MPD2    H7 6197   0.916   1.594  14.732 -0.5928  1.3686  1.0375
  412TMC3    C1 6198   1.035   1.010  14.460  0.7821  0.0985 -0.9497
  412TMC3    C2 6199   0.929   0.925  14.466 -0.2322  0.3146  0.3372
  412TMC3    C3 6200   0.864   0.896  14.353  0.6955  0.6691 -0.6005
  412TMC3    C4 6201   1.084   1.060  14.345  0.0420 -0.3246 -0.9082
  412TMC3    C5 6202   1.007   1.041  14.233  0.4699 -1.1447 -0.4667
  412TMC3    C6 6203   0.901   0.953  14.233 -0.4506 -0.2115  0.1735
  412TMC3     C 6204   1.024   1.114  14.565 -0.5059 -0.3650  0.2035
  412TMC3     O 6205   0.914   1.170  14.563  0.4747 -0.0667  0.1457
  412TMC3     H 6206   0.878   0.893  14.557  1.0340 -4.1043 -0.4797
  412TMC3    H1 6207   1.163   1.135  14.350 -0.3055 -0.0710  0.5912
  412TMC3    H2 6208   0.839   0.950  14.144 -1.7117  1.0731  1.0141
  412TMC3    C7 6209   0.971   1.168  14.179 -1.2218  0.1239 -0.0611
  412TMC3    C8 6210   0.718   0.893  14.376 -0.3350  0.7533  0.2656
  412TMC3    O1 6211   0.851   1.177  14.189  0.2369 -0.2591 -0.7298
  412TMC3    O2 6212   0.673   0.834  14.475  0.3616 -0.1328 -0.0510
  413MPD2     C 6213   3.330   0.352  15.520  0.3311  0.3186 -0.4991
  413MPD2    C1 6214   3.238   0.250  15.537 -0.0935  0.2884 -0.4577
  413MPD2    C2 6215   3.279   0.116  15.526 -0.0059 -0.0071 -0.7297
  413MPD2    C3 6216   3.408   0.088  15.500  0.2593 -0.1399  0.0353
  413MPD2    C4 6217   3.503   0.186  15.480  0.6893  0.1250  0.3769
  413MPD2    C5 6218   3.456   0.315  15.488 -0.1964  0.1462 -0.2152
  413MPD2     H 6219   3.212   0.032  15.533  0.3967 -0.1933  0.8340
  413MPD2    H1 6220   3.604   0.171  15.442  1.3429  2.1423  1.2778
  413MPD2    H2 6221   3.290   0.453  15.517  0.6536  0.4487 -0.3673
  413MPD2    H3 6222   3.528   0.394  15.471  1.5705 -1.8286 -1.7309
  413MPD2     N 6223   3.440   4.694  15.465 -0.5905 -0.0756  0.3859
  413MPD2    H5 6224   3.366   4.624  15.466  0.4395 -1.1427  0.4047
  413MPD2    N1 6225   3.113   0.286  15.582  0.1829  0.1088 -0.1836
  413MPD2    H7 6226   3.092   0.384  15.598 -0.4786 -0.3799  1.8650
  414TMC3    C1 6227   3.552   4.522  15.368  0.4022 -0.3766 -0.3638
  414TMC3    C2 6228   3.620   4.410  15.418 -0.4965  0.0120  0.1227
  414TMC3    C3 6229   3.606   4.290  15.351 -1.3390 -0.0342 -0.2828
  414TMC3    C4 6230   3.481   4.517  15.252  0.7748 -0.9596 -0.1286
  414TMC3    C5 6231   3.482   4.399  15.184 -0.8572  1.0496  0.9699
  414TMC3    C6 6232   3.529   4.284  15.236  0.5592 -0.2421 -0.2369
  414TMC3     C 6233   3.563   4.649  15.436 -0.2655  0.0267 -0.2716
  414TMC3     O 6234   3.674   4.692  15.466  0.3292 -0.2455  0.5914
  414TMC3     H 6235   3.681   4.414  15.508  2.1386  0.3460 -1.6651
  414TMC3    H1 6236   3.436   4.608  15.213  0.7522 -0.4247  1.1323
  414TMC3    H2 6237   3.520   4.194  15.177 -0.6257  0.5600 -1.2962
  414TMC3    C7 6238   3.414   4.403  15.061  0.0655 -1.2145  0.3717
  414TMC3    C8 6239   3.653   4.163  15.400  0.2662 -0.4321  0.0521
  414TMC3    O1 6240   3.310   4.474  15.064 -0.9098 -1.1742 -0.2317
  414TMC3    O2 6241   3.574   4.072  15.371  0.4086  0.0538  0.3090
  415TMC3    C1 6242   3.736   2.634  10.301 -0.1282  0.3351  0.3533
  415TMC3    C2 6243   3.759   2.726  10.199 -0.3796 -0.2077  0.0992
  415TMC3    C3 6244   3.768   2.678  10.072 -0.4103  0.0596  0.3608
  415TMC3    C4 6245   3.728   2.502  10.271 -0.5897  0.1442 -0.0325
  415TMC3    C5 6246   3.728   2.464  10.146 -0.3181  0.5387  0.1492
  415TMC3    C6 6247   3.752   2.550  10.043  0.6782  0.1726  0.3683
  415TMC3     C 6248   3.715   2.659  10.441  0.1292 -0.0521  0.5010
  415TMC3     O 6249   3.652   2.572  10.498 -0.7730  0.0421 -0.1431
  415TMC3     H 6250   3.767   2.831  10.225 -0.7801 -0.3225  0.6826
  415TMC3    H1 6251   3.732   2.426  10.349  0.8400  2.2340  1.9553
  415TMC3    H2 6252   3.762   2.511   9.942 -0.7524 -0.1958  0.3658
  415TMC3    C7 6253   3.693   2.330  10.121 -0.2276 -0.1261  0.2461
  415TMC3    C8 6254   3.804   2.773   9.963 -0.4372 -0.0880  0.3429
  415TMC3    O1 6255   3.750   2.286  10.021  0.5651 -0.4414 -0.0215
  415TMC3    O2 6256   3.790   2.734   9.849 -0.2296  0.1836  0.0952
  416MPD2     C 6257   0.495   1.969  11.772  0.5785 -0.3493  0.6355
  416MPD2    C1 6258   0.442   1.861  11.839 -0.2865  0.0107 -0.0519
  416MPD2    C2 6259   0.515   1.739  11.837  0.0770 -0.5706 -0.5649
  416MPD2    C3 6260   0.633   1.724  11.771  0.5132  0.2240 -0.2596
  416MPD2    C4 6261   0.681   1.836  11.704 -0.2616 -0.2207  0.0734
  416MPD2    C5 6262   0.608   1.952  11.693  0.1975  0.0645 -0.4363
  416MPD2     H 6263   0.481   1.648  11.884 -0.6713  0.4573  0.8704
  416MPD2    H1 6264   0.766   1.825  11.637  0.1824  3.6375  0.0166
  416MPD2    H2 6265   0.444   2.065  11.768 -0.4777 -0.9289  0.2778
  416MPD2    H3 6266   0.643   2.039  11.639  1.7849  0.2849  0.9524
  416MPD2     N 6267   0.701   1.601  11.759 -0.1552  0.1314 -0.4035
  416MPD2    H5 6268   0.776   1.597  11.691  0.6124 -1.8958  0.5684
  416MPD2    N1 6269   0.314   1.873  11.909  0.3388 -0.5119 -0.7673
  416MPD2    H7 6270   0.268   1.959  11.883  0.0963 -0.7211 -1.0371
  417TMC3    C1 6271   0.121   1.822  12.033 -0.0407  0.7960 -0.4995
  417TMC3    C2 6272   0.100   1.813  12.174  0.2248 -0.0366  0.5717
  417TMC3    C3 6273   0.000   1.898  12.216  0.0337 -0.3137  0.6940
  417TMC3    C4 6274   0.046   1.900  11.946  0.7515  0.7571 -0.2302
  417TMC3    C5 6275   4.677   1.962  12.001  0.1708  0.3464 -0.0580
  417TMC3    C6 6276   4.656   1.973  12.135 -0.0560 -0.3006 -0.7325
  417TMC3     C 6277   0.252   1.781  11.985  0.4688  0.6288 -0.2694
  417TMC3     O 6278   0.296   1.672  12.023  0.0844  0.0712  0.1817
  417TMC3     H 6279   0.189   1.788  12.231  1.0007 -1.9605 -1.4933
  417TMC3    H1 6280   0.065   1.885  11.840  0.9706  0.4075 -0.1412
  417TMC3    H2 6281   4.568   2.018  12.180  0.5241  1.2088 -1.1168
  417TMC3    C7 6282   4.585   2.018  11.903 -0.0839 -0.0097 -0.0675
  417TMC3    C8 6283   4.713   1.909  12.359 -0.1696  0.0986 -0.2747
  417TMC3    O1 6284   4.620   2.001  11.786  0.0690  0.6106 -0.5530
  417TMC3    O2 6285   4.641   1.997  12.393 -0.4604 -0.3840 -0.3714
  418TMC3    C1 6286   3.697   3.175   0.506 -0.5248  0.5034 -0.2369
  418TMC3    C2 6287   3.607   3.127   0.411  0.6229  0.3530 -0.3371
  418TMC3    C3 6288   3.551   3.010   0.435  0.3269  0.2864  0.4006
  418TMC3    C4 6289   3.739   3.097   0.617 -0.0806 -0.0169 -0.2308
  418TMC3    C5 6290   3.660   2.983   0.643  0.2939 -0.7572  0.7130
  418TMC3    C6 6291   3.562   2.937   0.552 -0.3034 -0.3406 -0.1718
  418TMC3     C 6292   3.801   3.261   0.447  0.3252 -0.5460  0.0798
  418TMC3     O 6293   3.758   3.341   0.365  0.2269  0.3459  0.2506
  418TMC3     H 6294   3.587   3.188   0.324 -1.1034 -0.4980 -0.5386
  418TMC3    H1 6295   3.824   3.123   0.678  0.8868  0.2376 -1.6910
  418TMC3    H2 6296   3.500   2.849   0.570  0.3897 -0.8987 -0.4989
  418TMC3    C7 6297   3.706   2.889   0.744 -0.0184 -0.3472 -0.4552
  418TMC3    C8 6298   3.483   2.948   0.325 -0.2583 -0.2706  0.5200
  418TMC3    O1 6299   3.671   2.775   0.723 -0.1928  0.2865  0.4091
  418TMC3    O2 6300   3.426   3.004   0.232 -0.0992  0.1999  0.7504
  419MPD2     C 6301   2.554   1.466  12.831  0.0550  0.1283  0.2586
  419MPD2    C1 6302   2.533   1.594  12.780 -0.4882 -0.2117  0.2914
  419MPD2    C2 6303   2.538   1.698  12.866 -0.2743 -0.2549  0.6780
  419MPD2    C3 6304   2.574   1.675  13.000 -0.1644  0.8023  0.2607
  419MPD2    C4 6305   2.599   1.553  13.047 -0.1188  0.7607  0.1641
  419MPD2    C5 6306   2.586   1.450  12.963  0.7426 -0.0870  0.2336
  419MPD2     H 6307   2.524   1.793  12.816  2.2368 -0.9435 -1.3319
  419MPD2    H1 6308   2.632   1.540  13.149  2.0232 -0.9512 -0.7574
  419MPD2    H2 6309   2.553   1.386  12.758  0.1340 -0.1655  0.5801
  419MPD2    H3 6310   2.599   1.350  13.004 -0.7334  0.2376  1.5073
  419MPD2     N 6311   2.576   1.791  13.080  0.9106 -0.5316 -0.5638
  419MPD2    H5 6312   2.569   1.877  13.025  0.8224 -1.1261 -1.4913
  419MPD2    N1 6313   2.498   1.626  12.645 -0.4911  0.4398 -0.4841
  419MPD2    H7 6314   2.507   1.722  12.613 -1.5303  0.4099 -0.8459
  420TMC3    C1 6315   2.619   1.945  13.253  0.4915  0.6054  0.1799
  420TMC3    C2 6316   2.531   2.036  13.200  0.6743  0.2783 -0.2133
  420TMC3    C3 6317   2.496   2.148  13.275 -0.2083  0.3447 -0.6285
  420TMC3    C4 6318   2.666   1.963  13.377 -0.2004 -0.0514  0.4389
  420TMC3    C5 6319   2.647   2.087  13.436 -0.1783  0.4231  0.5094
  420TMC3    C6 6320   2.559   2.177  13.395  0.0635 -0.3410 -0.2458
  420TMC3     C 6321   2.595   1.803  13.212 -0.3405 -0.5994 -0.7669
  420TMC3     O 6322   2.604   1.711  13.293  1.0702  0.4941 -0.0040
  420TMC3     H 6323   2.465   1.996  13.123 -0.6285  0.7405  0.6663
  420TMC3    H1 6324   2.738   1.891  13.416  2.4054  1.0627 -2.4018
  420TMC3    H2 6325   2.516   2.252  13.461 -1.2529 -0.8847 -0.4748
  420TMC3    C7 6326   2.653   2.075  13.576 -0.0558 -0.3638 -0.0082
  420TMC3    C8 6327   2.363   2.208  13.256 -0.5039  0.1245  0.7067
  420TMC3    O1 6328   2.675   1.963  13.627  0.3044  0.8329  0.0744
  420TMC3    O2 6329   2.331   2.321  13.292 -0.1143  0.4237  0.5329
  421TMC3    C1 6330   3.806   3.359  13.513  0.7206 -0.2379  0.7005
  421TMC3    C2 6331   3.773   3.480  13.564 -0.3035 -0.0771 -0.0070
  421TMC3    C3 6332   3.838   3.525  13.675  0.6138  0.1864  0.2754
  421TMC3    C4 6333   3.896   3.274  13.562 -0.2888 -0.3209 -0.5796
  421TMC3    C5 6334   3.963   3.324  13.675  0.0539  0.0990  0.2720
  421TMC3    C6 6335   3.942   3.453  13.721 -1.2545  0.3728  1.1359
  421TMC3     C 6336   3.734   3.325  13.396 -0.0104 -0.1205  0.2331
  421TMC3     O 6337   3.714   3.405  13.302 -0.0099 -0.4819  0.3060
  421TMC3     H 6338   3.707   3.548  13.511 -0.0158  0.6059  0.5073
  421TMC3    H1 6339   3.944   3.194  13.506  3.0265  0.9490  0.4238
  421TMC3    H2 6340   4.007   3.493  13.797  0.2763  1.9947 -1.0128
  421TMC3    C7 6341   4.089   3.260  13.727 -0.2028  1.1511  0.0581
  421TMC3    C8 6342   3.816   3.656  13.732  0.2647  0.6330 -0.2034
  421TMC3    O1 6343   4.162   3.330  13.796  0.4481  0.0963  0.3814
  421TMC3    O2 6344   3.765   3.736  13.659  0.2370  0.7977  0.2574
  422TMC3    C1 6345   1.557   4.660  12.871  1.2603 -0.2972  0.2610
  422TMC3    C2 6346   1.557   0.054  12.839 -0.0545 -0.4873 -0.9250
  422TMC3    C3 6347   1.439   0.117  12.820 -0.3376  0.1275 -0.4425
  422TMC3    C4 6348   1.435   4.589  12.884 -0.1691  0.1777  0.6861
  422TMC3    C5 6349   1.320   4.664  12.864 -0.2884  0.4886  0.4094
  422TMC3    C6 6350   1.319   0.056  12.824 -0.1419 -0.5152  0.2778
  422TMC3     C 6351   1.678   4.585  12.838 -0.4206 -0.2832 -0.5828
  422TMC3     O 6352   1.754   4.649  12.772 -0.3532  0.0178 -0.3053
  422TMC3     H 6353   1.650   0.108  12.823  0.5515 -1.5524 -0.9580
  422TMC3    H1 6354   1.441   4.487  12.919 -2.1068 -1.1592 -2.9543
  422TMC3    H2 6355   1.225   0.109  12.826  0.7238  0.9227  3.4517
  422TMC3    C7 6356   1.193   4.604  12.889 -0.8604 -0.3841 -0.6057
  422TMC3    C8 6357   1.450   0.248  12.777 -1.1745  0.4839 -0.7247
  422TMC3    O1 6358   1.095   4.670  12.864  0.6137  0.0842 -0.1924
  422TMC3    O2 6359   1.539   0.319  12.819  0.0311 -0.7206  0.2712
  423MPD2     C 6360   1.822   0.239   0.665  0.6108  0.2741 -0.4828
  423MPD2    C1 6361   1.926   0.159   0.714  0.2376  0.6664  0.8205
  423MPD2    C2 6362   2.043   0.139   0.641 -0.3044  0.4091 -0.4800
  423MPD2    C3 6363   2.054   0.198   0.517 -0.6411  0.5349  0.2550
  423MPD2    C4 6364   1.944   0.275   0.468 -0.4104 -0.6529 -0.6516
  423MPD2    C5 6365   1.829   0.292   0.544  0.1204  0.5073  0.1983
  423MPD2     H 6366   2.116   0.068   0.677 -0.5780 -0.1576 -1.0391
  423MPD2    H1 6367   1.950   0.313   0.367  0.0885 -3.1014 -1.5345
  423MPD2    H2 6368   1.734   0.265   0.722  0.9455 -0.1453  0.2291
  423MPD2    H3 6369   1.740   0.334   0.498 -0.3588  2.2791  2.7436
  423MPD2     N 6370   2.174   0.172   0.439  0.0486  0.3879  0.3498
  423MPD2    H5 6371   2.245   0.120   0.489  0.7718 -0.6844 -1.7799
  423MPD2    N1 6372   1.910   0.084   0.833  0.0485 -0.0709  0.6048
  423MPD2    H7 6373   1.979   0.011   0.847  0.1726  0.0368  0.5533
  424TMC3    C1 6374   1.861   0.056   1.062  0.4374 -0.2762  0.8015
  424TMC3    C2 6375   1.996   0.058   1.080  0.2976  0.7351  0.1705
  424TMC3    C3 6376   2.039   0.052   1.206 -0.4859  0.5056 -0.0198
  424TMC3    C4 6377   1.779   0.090   1.170  0.1947 -0.0424  0.3895
  424TMC3    C5 6378   1.832   0.100   1.298  0.4008  0.5760  0.6531
  424TMC3    C6 6379   1.962   0.067   1.318 -0.5360 -0.1867  0.2517
  424TMC3     C 6380   1.814   0.093   0.934  0.0084 -0.3172  0.0023
  424TMC3     O 6381   1.703   0.143   0.930 -0.3179 -0.0973 -0.0575
  424TMC3     H 6382   2.064   0.050   0.996 -2.7925 -2.0478 -2.0751
  424TMC3    H1 6383   1.673   0.085   1.146 -0.0978  1.9909  1.1720
  424TMC3    H2 6384   1.996   0.067   1.421  0.1916 -0.8832  0.0150
  424TMC3    C7 6385   1.748   0.089   1.417  0.3456 -0.1732 -0.2994
  424TMC3    C8 6386   2.177   0.004   1.225  0.7096  0.3947  0.5083
  424TMC3    O1 6387   1.797   0.091   1.529 -0.9795  0.2355  0.3334
  424TMC3    O2 6388   2.210   4.678   1.125  0.1284 -0.4226 -0.5434
  425MPD2     C 6389   1.938   4.562  17.435 -0.0427 -0.4056  0.5626
  425MPD2    C1 6390   1.874   4.446  17.471 -0.0915 -0.3458 -0.5094
  425MPD2    C2 6391   1.763   4.444  17.563 -1.0426  0.4424 -0.7457
  425MPD2    C3 6392   1.717   4.563  17.617 -0.3282  0.6098 -0.2553
  425MPD2    C4 6393   1.770   4.679  17.564 -0.0374 -0.3970 -0.7132
  425MPD2    C5 6394   1.879   4.675  17.481 -0.1986  0.1708  0.3607
  425MPD2     H 6395   1.713   4.354  17.596  0.3785 -0.2012 -0.3217
  425MPD2    H1 6396   1.723   0.033  17.592 -0.5082 -0.4568 -1.2914
  425MPD2    H2 6397   2.025   4.578  17.373 -0.6374  0.7663  0.0324
  425MPD2    H3 6398   1.919   0.026  17.436  2.5443 -1.0970  0.2234
  425MPD2     N 6399   1.606   4.560  17.703  0.1748 -0.4239  0.3292
  425MPD2    H5 6400   1.565   4.469  17.717 -0.1522 -0.2300  0.6210
  425MPD2    N1 6401   1.930   4.322  17.430  0.1378  0.2197 -0.8948
  425MPD2    H7 6402   2.007   4.328  17.365  1.1245  4.3114  0.6545
  426TMC3    C1 6403   1.973   4.095  17.417 -0.2685 -0.5715 -0.8064
  426TMC3    C2 6404   1.977   4.097  17.285  0.5234 -0.4290 -0.1690
  426TMC3    C3 6405   2.008   3.979  17.222  0.7965  0.3815  0.3765
  426TMC3    C4 6406   2.003   3.979  17.487 -0.2319  0.6081 -0.0425
  426TMC3    C5 6407   2.034   3.865  17.416  0.5196  0.1680 -0.4322
  426TMC3    C6 6408   2.044   3.863  17.279 -0.0679 -0.0327  0.1411
  426TMC3     C 6409   1.903   4.200  17.484  0.0157 -0.7731 -0.1932
  426TMC3     O 6410   1.865   4.178  17.595  0.4841  0.1701  0.1059
  426TMC3     H 6411   1.932   4.178  17.228 -0.0317  0.1499  1.1014
  426TMC3    H1 6412   1.991   3.976  17.595 -1.0126 -1.8783 -0.1989
  426TMC3    H2 6413   2.080   3.773  17.231  1.5781 -1.4017  3.9472
  426TMC3    C7 6414   2.082   3.743  17.488  0.6928  0.6507  0.1287
  426TMC3    C8 6415   2.024   3.988  17.086 -0.1470  0.2293  0.0205
  426TMC3    O1 6416   2.164   3.679  17.421  0.0249 -0.2727  0.4101
  426TMC3    O2 6417   2.006   4.102  17.033 -0.6972 -0.0128 -0.1385
  427MPD2     C 6418   0.294   1.733  14.898  0.7235  0.2265  0.5885
  427MPD2    C1 6419   0.216   1.711  15.013  0.2184  0.2260  0.0977
  427MPD2    C2 6420   0.072   1.725  14.995 -0.1845 -0.0281  0.1060
  427MPD2    C3 6421   0.012   1.748  14.870  0.0036 -0.4180 -0.1885
  427MPD2    C4 6422   0.099   1.773  14.765  0.0097 -0.0205 -0.6536
  427MPD2    C5 6423   0.230   1.757  14.781  0.7497 -1.0936 -0.2137
  427MPD2     H 6424   0.008   1.718  15.082  1.4814 -0.4628  1.3030
  427MPD2    H1 6425   0.064   1.818  14.673  0.2121  1.6863  0.1160
  427MPD2    H2 6426   0.402   1.728  14.906  0.6664  1.0094  1.8663
  427MPD2    H3 6427   0.295   1.775  14.695  0.7839 -0.4819 -0.0656
  427MPD2     N 6428   4.612   1.752  14.852  0.3590 -0.0798 -0.2946
  427MPD2    H5 6429   4.578   1.781  14.761  1.6186  0.9807 -0.4230
  427MPD2    N1 6430   0.268   1.674  15.142  0.4439 -0.0053 -0.0426
  427MPD2    H7 6431   0.205   1.668  15.221  0.3795 -3.0442 -0.3006
  428TMC3    C1 6432   0.436   1.622  15.305 -0.3890  0.0146 -0.1030
  428TMC3    C2 6433   0.350   1.568  15.394 -0.3316  0.4646 -0.1464
  428TMC3    C3 6434   0.406   1.546  15.515  0.0283  0.6221 -0.2029
  428TMC3    C4 6435   0.570   1.637  15.324 -0.4250 -0.1759 -0.1418
  428TMC3    C5 6436   0.622   1.611  15.445 -0.2909  0.3407  0.4615
  428TMC3    C6 6437   0.533   1.572  15.542  0.4312  0.7449  0.1249
  428TMC3     C 6438   0.400   1.648  15.169 -0.4186 -0.0343 -0.1034
  428TMC3     O 6439   0.491   1.634  15.086  0.3550 -0.5181 -0.1873
  428TMC3     H 6440   0.248   1.545  15.366 -0.3364 -1.1704  1.2181
  428TMC3    H1 6441   0.636   1.673  15.246 -2.6523 -2.2260 -2.9953
  428TMC3    H2 6442   0.566   1.536  15.638  1.7343  1.7495  0.0563
  428TMC3    C7 6443   0.755   1.638  15.496  0.5813 -0.1096 -0.0619
  428TMC3    C8 6444   0.329   1.501  15.629 -0.0351  0.0170 -0.2514
  428TMC3    O1 6445   0.762   1.656  15.619 -0.2039 -0.2721  0.2129
  428TMC3    O2 6446   0.245   1.410  15.618 -0.2563 -0.6714  0.9162
  429MPD2     C 6447   1.430   1.288   0.381 -0.2203  0.0449 -0.8973
  429MPD2    C1 6448   1.464   1.244   0.254 -0.2875  0.2828  0.4859
  429MPD2    C2 6449   1.523   1.331   0.172 -0.4379 -0.0496 -0.7924
  429MPD2    C3 6450   1.549   1.461   0.211 -0.3236 -0.6537  0.3159
  429MPD2    C4 6451   1.525   1.504   0.341  0.2172 -0.5653  0.2229
  429MPD2    C5 6452   1.458   1.421   0.425 -0.2127 -0.2698  0.1518
  429MPD2     H 6453   1.535   1.306   0.067  1.2717  2.8303 -1.2808
  429MPD2    H1 6454   1.557   1.601   0.378  0.8916  0.5298 -3.2879
  429MPD2    H2 6455   1.358   1.229   0.436  1.5641 -1.2552  0.0008
  429MPD2    H3 6456   1.438   1.456   0.526 -1.7418 -0.6591 -0.0158
  429MPD2     N 6457   1.591   1.550   0.105  0.8173  0.4046  0.3239
  429MPD2    H5 6458   1.591   1.505   0.014  2.4118 -2.1055  1.5587
  429MPD2    N1 6459   1.449   1.111   0.206  0.2852  0.1866  0.1608
  429MPD2    H7 6460   1.469   1.095   0.108  2.6671 -2.1649  1.0155
  430TMC3    C1 6461   1.659   1.744  17.741  0.4015  0.0348  0.3894
  430TMC3    C2 6462   1.611   1.870  17.735  0.1236 -0.4134  0.1118
  430TMC3    C3 6463   1.649   1.961  17.640 -0.1129  0.0333  1.1605
  430TMC3    C4 6464   1.748   1.697  17.646  0.0213 -0.2874 -0.2391
  430TMC3    C5 6465   1.778   1.787  17.541  0.4792 -0.1445 -0.2797
  430TMC3    C6 6466   1.738   1.918  17.539 -0.1895  0.0926 -0.1713
  430TMC3     C 6467   1.642   1.679   0.114  0.3699 -0.5110 -0.1997
  430TMC3     O 6468   1.629   1.745   0.217  0.0845 -0.0221  0.2399
  430TMC3     H 6469   1.548   1.903   0.062  1.8546  1.1551  0.8179
  430TMC3    H1 6470   1.782   1.594  17.645  0.3095 -0.2000  0.5895
  430TMC3    H2 6471   1.744   1.976  17.448  0.9784  0.6383  0.2597
  430TMC3    C7 6472   1.884   1.749  17.458  0.4287  0.4220 -1.2572
  430TMC3    C8 6473   1.586   2.093  17.627 -0.3170 -0.2702  0.4946
  430TMC3    O1 6474   1.905   1.630  17.450  0.2824  0.4076 -0.6256
  430TMC3    O2 6475   1.482   2.105  17.689  0.3093  0.0985 -0.0998
  431MPD2     C 6476   2.147   2.320  12.653 -0.2967 -0.2297  0.3421
  431MPD2    C1 6477   2.263   2.310  12.581 -0.5452 -0.6043  0.2932
  431MPD2    C2 6478   2.288   2.198  12.512 -0.5165  0.1771  0.3450
  431MPD2    C3 6479   2.201   2.096  12.525  0.5710 -0.4807  0.2353
  431MPD2    C4 6480   2.083   2.101  12.597 -0.1313 -0.4838  0.8450
  431MPD2    C5 6481   2.059   2.217  12.658  0.1087  0.7204 -0.1081
  431MPD2     H 6482   2.363   2.195  12.434 -0.2686  0.3976  0.5792
  431MPD2    H1 6483   2.012   2.018  12.592 -1.6753  0.8508  0.7425
  431MPD2    H2 6484   2.122   2.417  12.694 -0.4277 -0.5156  0.9285
  431MPD2    H3 6485   1.967   2.229  12.712 -1.1045 -0.8777 -1.8190
  431MPD2     N 6486   2.223   1.970  12.456  0.2276 -0.0823 -0.2164
  431MPD2    H5 6487   2.171   1.889  12.487 -0.9614  0.6362 -0.3357
  431MPD2    N1 6488   2.347   2.426  12.584 -0.1441 -0.3149 -0.6145
  431MPD2    H7 6489   2.305   2.496  12.643 -1.9949 -0.7026 -1.4494
  432TMC3    C1 6490   2.354   1.813  12.334  0.1485  0.4591 -0.6132
  432TMC3    C2 6491   2.380   1.781  12.205  0.0333 -0.2350 -1.1267
  432TMC3    C3 6492   2.425   1.653  12.187 -0.7314 -0.1971  0.1396
  432TMC3    C4 6493   2.371   1.736  12.448 -0.4538  0.6193 -0.0022
  432TMC3    C5 6494   2.427   1.615  12.422 -0.3404 -0.0695  0.1613
  432TMC3    C6 6495   2.456   1.571  12.294 -0.0613  1.3526 -0.4906
  432TMC3     C 6496   2.321   1.947  12.358 -0.2268  0.7887 -0.0628
  432TMC3     O 6497   2.370   2.029  12.280  0.0226  0.6576 -0.2678
  432TMC3     H 6498   2.342   1.838  12.121  0.8955 -2.3182 -2.9062
  432TMC3    H1 6499   2.343   1.775  12.545 -0.6247  1.1120 -0.2477
  432TMC3    H2 6500   2.486   1.467  12.293 -1.2031  1.0124  0.6299
  432TMC3    C7 6501   2.474   1.543  12.540 -0.8496 -0.4063  0.6515
  432TMC3    C8 6502   2.507   1.626  12.074 -0.3723  0.4645  0.6121
  432TMC3    O1 6503   2.489   1.419  12.531 -0.0371  0.0556  0.4586
  432TMC3    O2 6504   2.534   1.512  12.044  0.3797 -0.2547  0.5210
  433MPD2     C 6505   1.385   0.941  10.988  0.6036  0.3879  0.1488
  433MPD2    C1 6506   1.395   0.825  11.066  0.1527  0.0284 -0.3229
  433MPD2    C2 6507   1.442   0.852  11.195 -0.6234 -0.1290  0.4378
  433MPD2    C3 6508   1.479   0.974  11.251 -0.3249 -0.3312 -0.3950
  433MPD2    C4 6509   1.463   1.085  11.174  0.5553 -0.0270  0.2502
  433MPD2    C5 6510   1.410   1.065  11.047 -0.4114 -0.7729  0.1411
  433MPD2     H 6511   1.474   0.779  11.268 -0.3300 -0.4799 -0.0395
  433MPD2    H1 6512   1.487   1.181  11.218 -2.7192  1.6610 -1.6714
  433MPD2    H2 6513   1.367   0.925  10.882  0.9990 -0.7922  0.2579
  433MPD2    H3 6514   1.395   1.152  10.984  2.4594  0.0068  0.5092
  433MPD2     N 6515   1.530   0.972  11.382 -0.3156 -0.0531  0.5017
  433MPD2    H5 6516   1.550   0.881  11.421 -0.1748 -0.1360  0.2391
  433MPD2    N1 6517   1.372   0.690  11.015  0.3660  0.1599 -0.1843
  433MPD2    H7 6518   1.386   0.609  11.074  2.1128 -0.1086 -0.9818
  434TMC3    C1 6519   1.346   0.510  10.867 -0.8506 -0.5970  0.9478
  434TMC3    C2 6520   1.449   0.441  10.928 -0.5701  0.5904  0.2081
  434TMC3    C3 6521   1.428   0.303  10.951 -0.3019 -0.5910  0.1991
  434TMC3    C4 6522   1.221   0.460  10.852 -0.0871 -0.0353 -0.0811
  434TMC3    C5 6523   1.199   0.324  10.879  0.5522 -0.9383 -0.0618
  434TMC3    C6 6524   1.302   0.248  10.942  0.0431 -0.2024  0.2937
  434TMC3     C 6525   1.342   0.658  10.885 -0.7084 -0.6401 -0.4120
  434TMC3     O 6526   1.294   0.731  10.803  0.1753  0.5000 -0.3362
  434TMC3     H 6527   1.547   0.486  10.935 -0.3677 -0.1112  1.8385
  434TMC3    H1 6528   1.143   0.517  10.804  1.7533  2.5290 -0.0520
  434TMC3    H2 6529   1.285   0.149  10.985  0.9599 -1.3153 -1.9095
  434TMC3    C7 6530   1.060   0.285  10.890 -0.6005 -0.3046 -0.2299
  434TMC3    C8 6531   1.544   0.227  11.020  0.8316 -0.0773 -0.3598
  434TMC3    O1 6532   0.975   0.370  10.886 -0.3603  0.6725 -0.1905
  434TMC3    O2 6533   1.636   0.285  11.075 -0.1083  0.6880  1.0584
  435MPD2     C 6534   3.557   0.688  15.496 -0.0266  0.4704  0.2669
  435MPD2    C1 6535   3.501   0.675  15.618 -0.1150 -0.1335  0.0144
  435MPD2    C2 6536   3.568   0.615  15.721 -0.0511 -0.0188  0.1435
  435MPD2    C3 6537   3.705   0.587  15.700 -0.2907  0.2030 -0.1035
  435MPD2    C4 6538   3.760   0.598  15.571 -0.0149 -0.3116 -0.3607
  435MPD2    C5 6539   3.685   0.656  15.472 -0.1090  0.1042  0.7320
  435MPD2     H 6540   3.529   0.619  15.822 -1.0902  0.1284 -0.2676
  435MPD2    H1 6541   3.858   0.557  15.549  0.5312  1.1776 -0.7090
  435MPD2    H2 6542   3.502   0.732  15.414 -0.2351  1.2939  0.8620
  435MPD2    H3 6543   3.720   0.663  15.370 -1.9130 -3.9061 -0.1752
  435MPD2     N 6544   3.772   0.533  15.809  0.6016 -0.2294 -0.4147
  435MPD2    H5 6545   3.716   0.526  15.893  1.5719 -0.6520  0.2010
  435MPD2    N1 6546   3.368   0.709  15.643  1.2924  0.0067 -0.9027
  435MPD2    H7 6547   3.343   0.719  15.741  3.8534 -1.8568 -0.0359
  436TMC3    C1 6548   3.026   0.784  15.804 -0.7143  0.6080  0.5395
  436TMC3    C2 6549   3.147   0.814  15.744  0.3456  0.1271  0.2487
  436TMC3    C3 6550   3.156   0.807  15.608 -0.4324 -0.9451 -0.3598
  436TMC3    C4 6551   2.925   0.752  15.725  0.1407  0.2066  0.3380
  436TMC3    C5 6552   2.933   0.751  15.588 -0.2567 -0.0292  0.2304
  436TMC3    C6 6553   3.049   0.769  15.530 -0.6068 -0.6433 -0.1725
  436TMC3     C 6554   2.986   0.862  15.928 -0.6483 -0.7505 -0.4526
  436TMC3     O 6555   3.080   0.939  15.961 -0.0936  0.3437  0.1105
  436TMC3     H 6556   3.235   0.836  15.804  0.1061  0.5197  0.4555
  436TMC3    H1 6557   2.837   0.703  15.764  1.9741 -2.2194  1.4432
  436TMC3    H2 6558   3.054   0.768  15.421 -0.4770  1.1809 -0.1855
  436TMC3    C7 6559   2.869   0.645  15.511  0.0115  0.3133  0.1889
  436TMC3    C8 6560   3.282   0.762  15.551 -0.7897 -0.1530  0.4068
  436TMC3    O1 6561   2.930   0.549  15.476 -0.0263  0.1934 -0.1168
  436TMC3    O2 6562   3.276   0.739  15.428 -0.1786  0.0350  0.2909
  437TMC3    C1 6563   1.947   3.247  12.928  0.5917 -0.4390  0.2266
  437TMC3    C2 6564   1.831   3.314  12.931  0.8571  0.5514  0.8709
  437TMC3    C3 6565   1.820   3.420  12.844  0.1086  0.5818 -0.7116
  437TMC3    C4 6566   2.056   3.287  12.857  0.6507  0.2893 -0.2978
  437TMC3    C5 6567   2.034   3.389  12.760 -0.6605  0.2178  0.4556
  437TMC3    C6 6568   1.913   3.454  12.749  0.2751  0.4722  0.2398
  437TMC3     C 6569   1.967   3.142  13.017  0.3095  0.0272  0.3877
  437TMC3     O 6570   2.079   3.110  13.039  0.0571 -0.2814  0.0520
  437TMC3     H 6571   1.756   3.298  13.008  0.3419 -1.8796 -0.1370
  437TMC3    H1 6572   2.140   3.219  12.852  0.9610  0.6735 -0.2566
  437TMC3    H2 6573   1.890   3.512  12.661 -2.6178  1.9365  1.9873
  437TMC3    C7 6574   2.138   3.435  12.675  0.6155 -0.1860 -0.5774
  437TMC3    C8 6575   1.680   3.447  12.820  1.4056 -0.0306 -0.4229
  437TMC3    O1 6576   2.109   3.519  12.593 -0.6801 -0.6168 -0.4920
  437TMC3    O2 6577   1.602   3.356  12.842 -0.0017  0.0232  0.3618
  438MPD2     C 6578   4.230   3.727  16.886 -0.3152 -0.1313 -0.1856
  438MPD2    C1 6579   4.261   3.594  16.918 -0.0189  0.1140  0.3670
  438MPD2    C2 6580   4.211   3.548  17.036  0.1301  0.3192  0.3723
  438MPD2    C3 6581   4.175   3.640  17.139 -0.1236  0.2294  0.8973
  438MPD2    C4 6582   4.144   3.767  17.098 -0.5006 -0.7802  0.1454
  438MPD2    C5 6583   4.156   3.806  16.969 -0.7013  0.3045  0.5233
  438MPD2     H 6584   4.224   3.443  17.060 -0.7396 -0.4769 -2.6606
  438MPD2    H1 6585   4.105   3.838  17.170 -1.0234 -0.3285 -0.5918
  438MPD2    H2 6586   4.258   3.773  16.791 -0.2973  0.7782  0.2630
  438MPD2    H3 6587   4.126   3.908  16.945 -2.3622 -0.6416 -1.4043
  438MPD2     N 6588   4.164   3.605  17.277  0.1355 -0.0241 -0.2499
  438MPD2    H5 6589   4.146   3.684  17.339 -2.2204 -0.6217 -0.1955
  438MPD2    N1 6590   4.341   3.513  16.837  0.1810 -0.2259  0.2337
  438MPD2    H7 6591   4.368   3.426  16.880 -0.2328  0.1116  1.1821
  439TMC3    C1 6592   4.431   3.443  16.628  0.0613 -1.1964  0.0685
  439TMC3    C2 6593   4.405   3.433  16.500  0.2899  0.1145  0.4379
  439TMC3    C3 6594   4.468   3.333  16.428 -0.1525  0.0684  0.2320
  439TMC3    C4 6595   4.516   3.362  16.687 -0.4182  0.2939 -0.2734
  439TMC3    C5 6596   4.580   3.259  16.618  0.3390  0.3169  0.0433
  439TMC3    C6 6597   4.562   3.247  16.481  0.4765 -0.0198  0.6726
  439TMC3     C 6598   4.377   3.548  16.707  0.0168 -0.0278  0.6683
  439TMC3     O 6599   4.350   3.647  16.641  0.5174  0.4684 -0.7226
  439TMC3     H 6600   4.330   3.493  16.448  1.8603  0.1757 -1.7741
  439TMC3    H1 6601   4.548   3.379  16.789 -1.8100 -2.8347  0.6948
  439TMC3    H2 6602   4.620   3.178  16.421 -0.1054  1.2503 -1.3747
  439TMC3    C7 6603   4.667   3.165  16.697  0.4456  0.1390  0.4186
  439TMC3    C8 6604   4.459   3.340  16.279  0.8381  0.3340 -0.4375
  439TMC3    O1 6605   4.684   3.187  16.818  0.3001  0.5696 -0.1433
  439TMC3    O2 6606   4.420   3.446  16.234  0.2727 -0.3858 -0.2697
  440MPD2     C 6607   3.347   3.811  15.069  0.6038  0.0116  0.3015
  440MPD2    C1 6608   3.352   3.856  15.198  0.2091 -0.6149  0.2950
  440MPD2    C2 6609   3.406   3.770  15.291 -0.0387  0.3596 -0.0534
  440MPD2    C3 6610   3.455   3.646  15.261 -0.4789 -0.1875  0.1247
  440MPD2    C4 6611   3.468   3.613  15.128  0.2164  0.1599  0.3775
  440MPD2    C5 6612   3.404   3.688  15.034 -0.8871  0.5012  0.6919
  440MPD2     H 6613   3.409   3.803  15.394  1.0955  1.7940 -0.5392
  440MPD2    H1 6614   3.512   3.519  15.098 -1.0942  0.0870 -1.3766
  440MPD2    H2 6615   3.312   3.873  14.988  0.8588 -1.2294 -0.7518
  440MPD2    H3 6616   3.414   3.659  14.930  2.6291  1.9817  0.6021
  440MPD2     N 6617   3.509   3.567  15.366  0.5951 -0.1745  0.3548
  440MPD2    H5 6618   3.496   3.596  15.462  3.3637  1.5992  0.2095
  440MPD2    N1 6619   3.306   3.979  15.245 -0.7280 -0.1160 -0.2617
  440MPD2    H7 6620   3.313   3.997  15.345 -0.2774 -2.7664  0.1960
  441TMC3    C1 6621   3.626   3.406  15.470 -0.3005  0.1693  0.0861
  441TMC3    C2 6622   3.695   3.504  15.533  0.2349  0.4436 -0.6836
  441TMC3    C3 6623   3.724   3.493  15.665  0.3421 -1.2061  0.4052
  441TMC3    C4 6624   3.581   3.293  15.530  0.5648  0.7595 -0.8448
  441TMC3    C5 6625   3.615   3.281  15.666 -0.1938 -0.2207 -0.5289
  441TMC3    C6 6626   3.674   3.387  15.737  0.3194 -1.3499 -0.0471
  441TMC3     C 6627   3.570   3.442  15.347 -0.9496  0.0511 -0.2639
  441TMC3     O 6628   3.595   3.369  15.254 -0.0387  0.2612  0.0092
  441TMC3     H 6629   3.738   3.572  15.460  1.4186  2.0883  1.5225
  441TMC3    H1 6630   3.517   3.221  15.481  0.4510 -1.0144  1.8716
  441TMC3    H2 6631   3.676   3.394  15.845 -1.8694 -0.0818 -0.0834
  441TMC3    C7 6632   3.530   3.189  15.753  0.2371  0.1474 -0.5921
  441TMC3    C8 6633   3.753   3.617  15.740 -0.2838  0.3517 -0.6418
  441TMC3    O1 6634   3.418   3.155  15.711 -1.0406  1.0231 -0.0032
  441TMC3    O2 6635   3.800   3.606  15.852 -0.1694  0.0374 -0.1531
  442MPD2     C 6636   1.684   3.867  16.404 -0.2565  0.3617 -0.4203
  442MPD2    C1 6637   1.627   3.786  16.501  0.2716  0.4971  0.8556
  442MPD2    C2 6638   1.564   3.667  16.470 -0.7742  0.4872  0.7385
  442MPD2    C3 6639   1.566   3.632  16.333 -0.6931  0.2232 -1.2890
  442MPD2    C4 6640   1.633   3.706  16.239 -0.5237 -0.4079 -0.4131
  442MPD2    C5 6641   1.685   3.822  16.277 -0.5827 -0.4159 -0.8130
  442MPD2     H 6642   1.531   3.601  16.550 -0.7395 -0.9167 -0.4183
  442MPD2    H1 6643   1.634   3.684  16.133 -2.2579 -1.6258 -0.1638
  442MPD2    H2 6644   1.733   3.962  16.425 -1.5052  1.1388 -1.0229
  442MPD2    H3 6645   1.744   3.885  16.211 -0.3618  0.6457  0.3977
  442MPD2     N 6646   1.503   3.524  16.278  0.8798  0.2234  0.0605
  442MPD2    H5 6647   1.515   3.507  16.179  1.6063  0.0615  0.1805
  442MPD2    N1 6648   1.617   3.825  16.633 -0.0472 -0.0543 -0.3468
  442MPD2    H7 6649   1.565   3.762  16.694 -1.7067  1.0864 -0.5829
  443TMC3    C1 6650   1.688   3.905  16.846  0.4521  0.2884  0.6553
  443TMC3    C2 6651   1.704   4.024  16.908  0.1350  0.0920 -0.4357
  443TMC3    C3 6652   1.625   4.055  17.014 -0.1605 -0.2861  0.7352
  443TMC3    C4 6653   1.595   3.815  16.897 -0.0754 -0.9924 -0.1909
  443TMC3    C5 6654   1.535   3.839  17.013  0.0831  0.4682 -0.4690
  443TMC3    C6 6655   1.541   3.963  17.075  0.1497  0.1317 -0.6464
  443TMC3     C 6656   1.692   3.921  16.700  0.2722  0.0685 -0.1944
  443TMC3     O 6657   1.764   4.011  16.660 -0.2873 -0.2094 -0.1393
  443TMC3     H 6658   1.765   4.104  16.868 -2.0271  1.6048 -0.7139
  443TMC3    H1 6659   1.584   3.718  16.849 -1.9066 -0.6478 -0.4497
  443TMC3    H2 6660   1.476   3.998  17.154  2.0334  0.3488  0.7945
  443TMC3    C7 6661   1.423   3.752  17.038 -0.5191 -0.0829  0.0167
  443TMC3    C8 6662   1.636   4.181  17.083 -0.2146 -0.3919  0.3524
  443TMC3    O1 6663   1.412   3.659  16.957  0.1603  0.2777 -0.2492
  443TMC3    O2 6664   1.626   4.187  17.201 -0.7054 -0.2370  0.3367
  444MPD2     C 6665   1.534   3.640  17.383  0.1901 -0.3693 -0.2025
  444MPD2    C1 6666   1.441   3.548  17.340 -0.6967  0.6625  0.5858
  444MPD2    C2 6667   1.490   3.448  17.256 -0.1331  0.6950 -0.8820
  444MPD2    C3 6668   1.611   3.465  17.194  0.4166 -0.1241  0.6326
  444MPD2    C4 6669   1.701   3.556  17.243  0.3380 -0.1677 -0.2424
  444MPD2    C5 6670   1.660   3.631  17.340 -0.2415  0.0805 -0.7052
  444MPD2     H 6671   1.430   3.370  17.211  0.0643  0.3262 -0.5094
  444MPD2    H1 6672   1.803   3.569  17.207 -0.0088 -3.4019 -2.4495
  444MPD2    H2 6673   1.520   3.716  17.459 -2.8481  0.6986 -1.8109
  444MPD2    H3 6674   1.723   3.706  17.386  0.5249 -1.3356  0.5495
  444MPD2     N 6675   1.638   3.372  17.089 -0.4685 -0.1745 -0.3890
  444MPD2    H5 6676   1.554   3.326  17.052 -1.5708  0.1881  1.6672
  444MPD2    N1 6677   1.315   3.546  17.396  0.5691 -0.3275 -0.1668
  444MPD2    H7 6678   1.256   3.466  17.373  0.1757 -0.6048  1.8637
  445TMC3    C1 6679   1.770   3.219  16.961  0.0986  0.3215  0.0603
  445TMC3    C2 6680   1.666   3.126  16.973 -0.5382 -0.1303  0.0397
  445TMC3    C3 6681   1.677   3.005  16.922  0.0921 -0.4703 -0.3015
  445TMC3    C4 6682   1.889   3.178  16.907  0.1857  0.3035 -0.1321
  445TMC3    C5 6683   1.906   3.046  16.866 -0.2509 -0.1407 -0.6804
  445TMC3    C6 6684   1.794   2.962  16.872 -0.3971 -0.3008  0.6434
  445TMC3     C 6685   1.765   3.339  17.045 -0.5811 -0.3381  0.1725
  445TMC3     O 6686   1.880   3.373  17.082  0.1859  0.0716 -1.5936
  445TMC3     H 6687   1.575   3.158  17.022 -0.6928  0.1362 -0.4246
  445TMC3    H1 6688   1.979   3.238  16.907  0.2782  0.1661 -0.0953
  445TMC3    H2 6689   1.801   2.864  16.827 -1.9957 -0.5412  0.9180
  445TMC3    C7 6690   2.019   3.014  16.789 -0.0708  0.1273  0.0021
  445TMC3    C8 6691   1.560   2.922  16.896 -0.0376  0.1040 -0.2664
  445TMC3    O1 6692   2.078   3.100  16.730 -0.4086  0.3623 -0.0836
  445TMC3    O2 6693   1.586   2.821  16.837  0.0124  0.4115  0.1864
  446MPD2     C 6694   1.165   0.002  11.300  0.1969 -0.0647 -0.4392
  446MPD2    C1 6695   1.130   0.130  11.299 -0.0289  0.1897  0.4854
  446MPD2    C2 6696   1.234   0.224  11.306 -0.5976  0.4786 -0.1986
  446MPD2    C3 6697   1.366   0.185  11.333  0.5435 -0.3399 -0.0838
  446MPD2    C4 6698   1.391   0.055  11.321 -0.3298 -0.0096  0.1140
  446MPD2    C5 6699   1.298   4.702  11.301 -0.3272 -0.1156  0.4955
  446MPD2     H 6700   1.212   0.330  11.308 -0.4047  0.5251 -0.5317
  446MPD2    H1 6701   1.495   0.025  11.330  0.1937  1.8628  0.2701
  446MPD2    H2 6702   1.096   4.658  11.293 -1.8852  1.3855  2.6593
  446MPD2    H3 6703   1.338   4.602  11.285  1.0568  0.5406 -0.1797
  446MPD2     N 6704   1.462   0.283  11.362 -0.0804 -0.0288 -0.2309
  446MPD2    H5 6705   1.442   0.379  11.339 -0.4532 -0.2657 -0.9108
  446MPD2    N1 6706   0.997   0.171  11.308  0.0032 -0.6694 -0.8928
  446MPD2    H7 6707   0.982   0.271  11.301  2.5800 -0.1260  1.6205
  447TMC3    C1 6708   1.673   0.379  11.423  0.6379  0.0802 -0.3000
  447TMC3    C2 6709   1.663   0.470  11.320  0.2268 -0.1311  0.0711
  447TMC3    C3 6710   1.774   0.532  11.276 -0.8677 -0.3568  0.7389
  447TMC3    C4 6711   1.798   0.350  11.472  0.5862 -0.4670  0.6361
  447TMC3    C5 6712   1.909   0.412  11.429  0.5981  0.3299 -0.0537
  447TMC3    C6 6713   1.898   0.505  11.332 -0.3293 -0.1366  0.4888
  447TMC3     C 6714   1.589   0.260  11.405 -0.0229 -0.1672  0.1245
  447TMC3     O 6715   1.630   0.153  11.447  0.0582 -0.2466 -0.2870
  447TMC3     H 6716   1.569   0.489  11.270  0.5459  0.7056 -0.2014
  447TMC3    H1 6717   1.804   0.267  11.541 -2.2208 -0.1722  1.2302
  447TMC3    H2 6718   1.985   0.553  11.288 -0.9264  1.2167  0.7953
  447TMC3    C7 6719   2.018   0.320  11.419 -0.3067 -0.3169  0.7814
  447TMC3    C8 6720   1.749   0.640  11.182  0.2508 -0.2127  0.2525
  447TMC3    O1 6721   1.983   0.208  11.382 -0.2108  0.3760  0.0261
  447TMC3    O2 6722   1.648   0.626  11.115 -0.1236  0.1249 -0.4977
  448TMC3    C1 6723   4.207   0.181  17.091 -0.1693 -1.0278  1.0810
  448TMC3    C2 6724   4.266   0.077  17.023 -0.3750  0.6816 -0.4751
  448TMC3    C3 6725   4.328   4.713  17.083 -0.5291 -0.2035 -0.3512
  448TMC3    C4 6726   4.225   0.183  17.230 -0.8929 -0.1243  0.0684
  448TMC3    C5 6727   4.289   0.076  17.286  0.3333  0.8576  0.8486
  448TMC3    C6 6728   4.339   4.704  17.217  0.1363  0.0454 -0.1079
  448TMC3     C 6729   4.123   0.275  17.020  0.3768 -0.3027  0.5659
  448TMC3     O 6730   4.154   0.296  16.906 -0.5402 -0.0627 -0.0356
  448TMC3     H 6731   4.238   0.069  16.919  1.1683 -0.0160 -0.8424
  448TMC3    H1 6732   4.181   0.263  17.289  0.4029  1.5351 -1.2318
  448TMC3    H2 6733   4.407   4.634  17.265  1.7567  1.7299  0.0720
  448TMC3    C7 6734   4.306   0.085  17.433  0.0409  0.4448  0.4516
  448TMC3    C8 6735   4.378   4.608  16.999  0.9180 -0.4876 -0.2425
  448TMC3    O1 6736   4.268   0.185  17.491  0.3038  0.5268 -0.4977
  448TMC3    O2 6737   4.421   4.507  17.054 -0.1705 -0.1746 -0.8290
  449MPD2     C 6738   0.853   3.056  14.117  0.2238  0.4929  0.8550
  449MPD2    C1 6739   0.742   3.120  14.074  0.1663 -0.5381 -0.7320
  449MPD2    C2 6740   0.645   3.161  14.159  0.5448  0.1395 -0.4177
  449MPD2    C3 6741   0.659   3.134  14.293  0.5626 -0.1515  0.0334
  449MPD2    C4 6742   0.769   3.064  14.338  0.1157 -1.1157 -0.7030
  449MPD2    C5 6743   0.865   3.023  14.247 -0.3748 -0.0985 -0.3043
  449MPD2     H 6744   0.560   3.219  14.124  0.2440 -0.1013 -0.0872
  449MPD2    H1 6745   0.777   3.030  14.441  1.5789 -1.1820 -0.8431
  449MPD2    H2 6746   0.927   3.018  14.047  0.2855 -0.8237  1.6478
  449MPD2    H3 6747   0.949   2.961  14.274  0.1280  1.1660  1.0657
  449MPD2     N 6748   0.546   3.175  14.371 -0.5565 -0.4213 -0.0595
  449MPD2    H5 6749   0.477   3.226  14.316 -0.5539 -2.8274 -2.2757
  449MPD2    N1 6750   0.714   3.142  13.938 -0.1865  0.6194  0.2044
  449MPD2    H7 6751   0.622   3.179  13.915 -0.2694 -0.1044 -0.6375
  450TMC3    C1 6752   0.757   3.200  13.718  0.8330 -0.2382 -0.5491
  450TMC3    C2 6753   0.846   3.296  13.694 -0.3137  0.3507  0.4055
  450TMC3    C3 6754   0.795   3.419  13.663  0.0346 -0.0778  0.6165
  450TMC3    C4 6755   0.624   3.223  13.722 -0.1877  0.0772  0.3696
  450TMC3    C5 6756   0.581   3.350  13.714 -0.8240 -1.0822  0.0351
  450TMC3    C6 6757   0.664   3.448  13.676 -0.6431 -0.0377  0.3929
  450TMC3     C 6758   0.808   3.136  13.837  0.1166 -0.4315  0.8028
  450TMC3     O 6759   0.927   3.118  13.861 -0.1596  0.0515  0.0875
  450TMC3     H 6760   0.952   3.281  13.708 -0.6390 -0.4838  1.8964
  450TMC3    H1 6761   0.555   3.141  13.740  0.1350 -0.6440 -1.7361
  450TMC3    H2 6762   0.636   3.553  13.671 -2.4328 -0.4913  0.9172
  450TMC3    C7 6763   0.472   3.373  13.807  1.4043  0.5916  0.3031
  450TMC3    C8 6764   0.887   3.529  13.656  0.9766  0.4589 -0.6496
  450TMC3    O1 6765   0.460   3.292  13.898  0.0142 -0.2573  0.4016
  450TMC3    O2 6766   0.854   3.630  13.720  0.6443 -0.3238 -0.1945
  451MPD2     C 6767   1.849   1.709   1.334 -0.7573  0.0579  0.1522
  451MPD2    C1 6768   1.948   1.716   1.240 -0.5909 -0.1836 -0.0284
  451MPD2    C2 6769   1.985   1.598   1.178  0.7348  0.5730  0.3987
  451MPD2    C3 6770   1.920   1.480   1.207 -0.0637 -0.1188  0.4101
  451MPD2    C4 6771   1.821   1.480   1.303 -0.2396  0.9388  0.4893
  451MPD2    C5 6772   1.792   1.594   1.367 -0.5433 -0.2144  0.0437
  451MPD2     H 6773   2.067   1.599   1.108 -2.8262 -0.5904 -3.8054
  451MPD2    H1 6774   1.770   1.393   1.342  3.7233 -1.4240  0.4656
  451MPD2    H2 6775   1.834   1.798   1.395 -1.0861  0.5051 -0.5875
  451MPD2    H3 6776   1.730   1.585   1.456 -0.3344  0.5328  0.2667
  451MPD2     N 6777   1.943   1.357   1.138  0.2928 -0.1093 -0.0852
  451MPD2    H5 6778   1.879   1.283   1.165 -0.3503  0.6198  0.3799
  451MPD2    N1 6779   2.010   1.842   1.215  0.3796 -0.0672 -0.5952
  451MPD2    H7 6780   1.968   1.932   1.238 -1.0849 -0.6679 -0.9533
  452TMC3    C1 6781   2.017   1.208   0.959  0.7774  0.6143  0.1864
  452TMC3    C2 6782   1.912   1.120   0.982 -0.0815  0.0315  0.0563
  452TMC3    C3 6783   1.891   1.018   0.895 -0.4062 -0.1143  0.6565
  452TMC3    C4 6784   2.099   1.189   0.848 -0.2402 -0.3647 -0.7392
  452TMC3    C5 6785   2.077   1.079   0.770  0.1598  0.1217 -0.5241
  452TMC3    C6 6786   1.977   0.992   0.793  0.4059 -0.0183  0.7409
  452TMC3     C 6787   2.029   1.334   1.029  0.1513  0.5604 -0.1309
  452TMC3     O 6788   2.107   1.411   0.976  0.4655  0.6581 -0.1845
  452TMC3     H 6789   1.860   1.112   1.076  0.2696  0.5623  0.2963
  452TMC3    H1 6790   2.174   1.265   0.829 -0.3166 -0.4191 -1.2397
  452TMC3    H2 6791   1.976   0.900   0.735  1.1501  0.6514 -0.3257
  452TMC3    C7 6792   2.140   1.087   0.637  0.6739  0.6514  0.4921
  452TMC3    C8 6793   1.787   0.916   0.918 -0.6456  0.9737  0.5409
  452TMC3    O1 6794   2.216   1.179   0.623 -0.1061  0.0506 -0.0488
  452TMC3    O2 6795   1.804   0.809   0.861  0.0728  0.0893 -0.6186
  453TMC3    C1 6796   3.841   4.182  11.923 -0.5756  0.2126 -0.1921
  453TMC3    C2 6797   3.761   4.078  11.970 -0.4294 -0.1109  0.3027
  453TMC3    C3 6798   3.677   4.030  11.873  0.1671 -0.7925 -0.4281
  453TMC3    C4 6799   3.845   4.233  11.794  0.2110  0.1993  0.4194
  453TMC3    C5 6800   3.758   4.181  11.706  0.6257 -0.9678  0.8519
  453TMC3    C6 6801   3.672   4.082  11.750 -0.1978 -0.1975 -0.1770
  453TMC3     C 6802   3.945   4.229  12.013  0.3521 -0.1525 -0.0959
  453TMC3     O 6803   4.019   4.310  11.957 -0.2715 -0.0304 -0.3134
  453TMC3     H 6804   3.748   4.051  12.074  1.8577 -0.9113  0.3811
  453TMC3    H1 6805   3.919   4.306  11.764  0.3247 -0.9704 -2.1267
  453TMC3    H2 6806   3.616   4.044  11.666 -0.1452 -0.3310 -0.1505
  453TMC3    C7 6807   3.760   4.222  11.564  0.1778  0.5470 -0.4724
  453TMC3    C8 6808   3.576   3.931  11.908  0.2357  1.0785  0.2883
  453TMC3    O1 6809   3.718   4.147  11.478  0.4028 -0.4369 -0.2632
  453TMC3    O2 6810   3.500   3.900  11.821  0.4904  0.3306 -0.0314
  454MPD2     C 6811   2.223   2.776  16.178 -0.1432 -0.2944  0.5003
  454MPD2    C1 6812   2.209   2.907  16.127 -0.5198  0.1848 -0.2097
  454MPD2    C2 6813   2.155   3.003  16.210  0.0846  0.0248  0.1418
  454MPD2    C3 6814   2.088   2.961  16.329 -0.3801 -0.2309  0.5666
  454MPD2    C4 6815   2.093   2.831  16.367  0.0099  0.2638  0.1038
  454MPD2    C5 6816   2.156   2.738  16.291 -0.4060 -0.1181  0.8012
  454MPD2     H 6817   2.147   3.107  16.179  1.1031 -0.9640 -3.4497
  454MPD2    H1 6818   2.036   2.793  16.451 -1.8441 -1.2739 -1.8696
  454MPD2    H2 6819   2.258   2.693  16.118 -1.0704  1.0519 -1.9330
  454MPD2    H3 6820   2.158   2.634  16.322 -1.2096  0.3962  2.5536
  454MPD2     N 6821   1.997   3.047  16.395  0.2132 -0.5772  0.3867
  454MPD2    H5 6822   1.929   3.006  16.458  1.6647 -1.1091  1.6032
  454MPD2    N1 6823   2.242   2.948  15.993  0.1301 -0.0017  0.4769
  454MPD2    H7 6824   2.224   3.046  15.970 -0.9028  0.4205  3.1001
  455TMC3    C1 6825   1.898   3.247  16.466 -0.0246 -0.8537 -0.0595
  455TMC3    C2 6826   1.904   3.373  16.510  0.6763  0.0181 -0.4047
  455TMC3    C3 6827   1.800   3.424  16.579 -0.3919  0.3248  0.5103
  455TMC3    C4 6828   1.789   3.175  16.496  0.2307 -0.8532  0.7575
  455TMC3    C5 6829   1.683   3.229  16.558 -0.0683 -0.4242 -0.0288
  455TMC3    C6 6830   1.690   3.347  16.614  0.6183  0.2584 -0.0194
  455TMC3     C 6831   2.010   3.184  16.399 -0.9613  0.1631  0.2972
  455TMC3     O 6832   2.100   3.252  16.355  1.3698 -0.1791 -0.1240
  455TMC3     H 6833   1.992   3.426  16.477  0.3575  1.4667  1.0387
  455TMC3    H1 6834   1.782   3.074  16.459 -2.1517 -0.7968  1.0191
  455TMC3    H2 6835   1.607   3.389  16.670  1.6053  1.6104  0.4448
  455TMC3    C7 6836   1.554   3.157  16.549  0.3039  0.0513  0.1929
  455TMC3    C8 6837   1.842   3.524  16.677  0.2681  0.5687  0.2179
  455TMC3    O1 6838   1.475   3.158  16.641  0.1004  0.3324  0.2874
  455TMC3    O2 6839   1.798   3.509  16.791 -0.1656 -0.2176  0.2253
  456MPD2     C 6840   0.097   3.504  16.080  0.3453  0.6575 -0.3599
  456MPD2    C1 6841   0.097   3.435  16.198  0.3500  0.0231  0.1006
  456MPD2    C2 6842   0.043   3.492  16.310  0.2428  0.0151  1.0052
  456MPD2    C3 6843   4.735   3.625  16.302 -0.1753  0.3676  0.4980
  456MPD2    C4 6844   4.735   3.693  16.182  0.4986  0.4322  0.1204
  456MPD2    C5 6845   0.045   3.628  16.073 -0.0155  0.3589 -0.1018
  456MPD2     H 6846   0.038   3.446  16.408  1.2156  0.7555  1.4083
  456MPD2    H1 6847   4.690   3.791  16.173 -1.3928 -0.3474  0.8199
  456MPD2    H2 6848   0.122   3.448  15.991  0.4763 -0.7733  0.5804
  456MPD2    H3 6849   0.046   3.688  15.983  0.6692  0.1673 -0.2259
  456MPD2     N 6850   4.676   3.672  16.419  0.0284 -0.1477 -0.2198
  456MPD2    H5 6851   4.710   3.616  16.497  0.4265  0.2242 -0.1292
  456MPD2    N1 6852   0.148   3.304  16.191  0.0391 -0.0246 -0.5005
  456MPD2    H7 6853   0.172   3.276  16.096 -1.5298 -0.8166 -0.6573
  457TMC3    C1 6854   4.613   3.847  16.559  0.7692 -0.5067 -0.2038
  457TMC3    C2 6855   4.556   3.973  16.580  0.3429  0.2592  0.0480
  457TMC3    C3 6856   4.538   4.012  16.704 -0.4977  0.4841  0.0553
  457TMC3    C4 6857   4.651   3.772  16.667 -0.1413 -0.6572 -0.1700
  457TMC3    C5 6858   4.616   3.812  16.792  0.3469  0.7653 -0.2281
  457TMC3    C6 6859   4.552   3.932  16.810  0.4770  0.0841 -0.2787
  457TMC3     C 6860   4.619   3.793  16.428 -0.5624 -0.2774 -0.2555
  457TMC3     O 6861   4.568   3.864  16.342  0.0700 -0.3221 -0.0651
  457TMC3     H 6862   4.536   4.043  16.499  1.7890 -0.4749 -0.9347
  457TMC3    H1 6863   4.681   3.668  16.655 -3.0233 -1.4230 -0.6112
  457TMC3    H2 6864   4.530   3.970  16.909  0.1922 -0.4701 -0.1279
  457TMC3    C7 6865   4.644   3.714  16.896 -0.5497  0.4505 -0.3500
  457TMC3    C8 6866   4.496   4.147  16.742  0.4082 -0.3989 -0.1869
  457TMC3    O1 6867   4.693   3.606  16.859  0.4877  0.0454  0.6195
  457TMC3    O2 6868   4.429   4.164  16.841  0.1928  0.2425  0.3034
  458MPD2     C 6869   2.645   3.453  12.554 -0.4922  0.1057 -0.4102
  458MPD2    C1 6870   2.625   3.384  12.676  0.6408 -0.0553 -0.2068
  458MPD2    C2 6871   2.495   3.356  12.718  0.3016  0.3494  0.7810
  458MPD2    C3 6872   2.387   3.408  12.651 -0.5611  0.1481  0.2739
  458MPD2    C4 6873   2.410   3.476  12.533 -0.5972 -0.5330  0.8807
  458MPD2    C5 6874   2.536   3.486  12.480 -0.3434  0.3210  0.2398
  458MPD2     H 6875   2.474   3.303  12.810 -1.0882  0.3496  0.4733
  458MPD2    H1 6876   2.326   3.508  12.471 -0.1334 -2.7226 -0.8619
  458MPD2    H2 6877   2.746   3.451  12.515  0.6675  1.4522  2.4669
  458MPD2    H3 6878   2.553   3.533  12.384 -0.3866 -0.5118 -0.1769
  458MPD2     N 6879   2.264   3.388  12.716  0.2879 -0.0650 -0.2454
  458MPD2    H5 6880   2.268   3.332  12.800 -0.9805  1.2003  0.6677
  458MPD2    N1 6881   2.740   3.340  12.744  0.7321 -0.9630 -0.2295
  458MPD2    H7 6882   2.824   3.393  12.721  0.2122 -0.2841 -0.5678
  459TMC3    C1 6883   2.877   3.236  12.903 -0.1247  0.1160  0.2654
  459TMC3    C2 6884   2.989   3.292  12.848 -0.5284  0.5428 -0.1834
  459TMC3    C3 6885   3.121   3.283  12.903  0.1260  0.0271 -0.2463
  459TMC3    C4 6886   2.895   3.165  13.017  1.2288  0.1089 -0.7922
  459TMC3    C5 6887   3.018   3.145  13.065 -0.3221 -0.2357  0.3974
  459TMC3    C6 6888   3.130   3.206  13.014 -0.3377 -0.6812  0.2395
  459TMC3     C 6889   2.741   3.248  12.851 -0.3025 -0.7781 -0.1077
  459TMC3     O 6890   2.651   3.188  12.906  0.1550  0.0484 -0.4315
  459TMC3     H 6891   2.976   3.339  12.751  0.3504  0.6092 -0.2751
  459TMC3    H1 6892   2.808   3.120  13.064  0.0203  0.9903 -2.1884
  459TMC3    H2 6893   3.229   3.172  13.044 -0.5799 -1.9952 -0.4504
  459TMC3    C7 6894   3.025   3.056  13.174  0.4924  0.8182  0.2417
  459TMC3    C8 6895   3.237   3.358  12.851 -0.1157  0.0622  0.5288
  459TMC3    O1 6896   2.938   2.966  13.179 -0.4224  0.4517  0.5802
  459TMC3    O2 6897   3.330   3.366  12.927  0.8331 -0.6908  0.1614
  460MPD2     C 6898   1.912   0.969  11.132 -0.5816 -0.2770  0.7281
  460MPD2    C1 6899   1.832   0.863  11.099  0.4204 -0.2844  0.0308
  460MPD2    C2 6900   1.748   0.877  10.994 -0.9253 -0.0360  1.0641
  460MPD2    C3 6901   1.749   0.995  10.919 -0.3689 -0.4219  0.0537
  460MPD2    C4 6902   1.827   1.102  10.947 -0.2849 -0.4042  0.0985
  460MPD2    C5 6903   1.915   1.080  11.053 -0.5363 -0.2808  0.0648
  460MPD2     H 6904   1.682   0.797  10.963 -0.9341 -0.1433  1.3553
  460MPD2    H1 6905   1.831   1.201  10.903  1.4903 -0.9258 -0.8986
  460MPD2    H2 6906   1.991   0.959  11.205 -0.6859 -0.8491  0.7611
  460MPD2    H3 6907   1.986   1.161  11.067  0.5897 -1.5590  1.7634
  460MPD2     N 6908   1.662   1.007  10.807  0.3539 -0.9798  0.1809
  460MPD2    H5 6909   1.596   0.930  10.806 -1.3464  0.4441  3.1442
  460MPD2    N1 6910   1.840   0.740  11.169 -0.2113 -0.6343  0.9458
  460MPD2    H7 6911   1.921   0.731  11.230  0.9837 -1.9561 -0.8379
  461TMC3    C1 6912   1.536   1.099  10.628 -0.2026  0.2632 -0.3552
  461TMC3    C2 6913   1.496   0.974  10.592 -0.1057 -0.4874  0.3747
  461TMC3    C3 6914   1.370   0.960  10.535 -0.0898 -0.3009  0.3909
  461TMC3    C4 6915   1.461   1.209  10.613  0.0203  0.2852  0.5898
  461TMC3    C5 6916   1.331   1.195  10.562 -0.4326 -0.3470 -1.0324
  461TMC3    C6 6917   1.287   1.067  10.524 -0.3220 -0.6896 -0.4001
  461TMC3     C 6918   1.654   1.110  10.717 -0.5793  0.3207 -0.1546
  461TMC3     O 6919   1.707   1.219  10.706 -0.2017 -0.6026 -0.3560
  461TMC3     H 6920   1.561   0.888  10.602  0.9688  0.4978  1.8763
  461TMC3    H1 6921   1.498   1.307  10.641 -0.6698  0.6873  0.0872
  461TMC3    H2 6922   1.185   1.063  10.488 -0.0406  1.9672 -1.4852
  461TMC3    C7 6923   1.263   1.307  10.493  0.1556  0.4695  0.0240
  461TMC3    C8 6924   1.343   0.849  10.455 -0.2301 -0.1179 -0.2468
  461TMC3    O1 6925   1.195   1.280  10.395  0.2428 -0.4271 -0.2978
  461TMC3    O2 6926   1.435   0.779  10.417 -0.1944  0.5246 -0.6312
  462TMC3    C1 6927   1.959   1.462   0.171 -0.1648  0.1118 -0.0092
  462TMC3    C2 6928   1.959   1.403   0.046  0.3066 -0.1136 -0.4063
  462TMC3    C3 6929   1.920   1.269   0.038  0.5723  0.0434  0.4634
  462TMC3    C4 6930   1.924   1.397   0.283  0.4376  0.8193 -0.2929
  462TMC3    C5 6931   1.885   1.264   0.275 -0.4243  0.3565 -0.2717
  462TMC3    C6 6932   1.887   1.202   0.151 -0.5405 -0.3269  0.4200
  462TMC3     C 6933   1.958   1.607   0.195 -0.1257 -0.4257  0.3295
  462TMC3     O 6934   1.918   1.642   0.308 -0.2036  0.5303 -0.6363
  462TMC3     H 6935   1.963   1.467  17.714  1.5216 -1.6418 -1.4617
  462TMC3    H1 6936   1.911   1.444   0.380  0.8764  2.5616 -1.0707
  462TMC3    H2 6937   1.840   1.105   0.147 -0.9678 -0.1691  1.4772
  462TMC3    C7 6938   1.818   1.188   0.387 -0.1636  0.3339  0.6263
  462TMC3    C8 6939   1.859   1.234  17.670  0.1231 -0.5227 -0.9765
  462TMC3    O1 6940   1.760   1.082   0.364 -0.0956  0.0365 -0.4606
  462TMC3    O2 6941   1.815   1.328  17.603  0.4505 -0.6054 -0.2828
  463MPD2     C 6942   2.877   4.508   1.343  0.4146 -0.3659 -0.8452
  463MPD2    C1 6943   2.876   4.400   1.259 -0.4194 -0.2621 -0.1183
  463MPD2    C2 6944   2.994   4.335   1.232  0.0054 -0.4127  0.7510
  463MPD2    C3 6945   3.114   4.380   1.287  0.0851  0.1587  0.0498
  463MPD2    C4 6946   3.106   4.493   1.361  0.0509 -0.1589 -0.2069
  463MPD2    C5 6947   2.993   4.558   1.392  0.3280  0.2578  0.2123
  463MPD2     H 6948   2.986   4.252   1.163  0.0064  0.7860 -0.6851
  463MPD2    H1 6949   3.200   4.533   1.398 -0.8629  0.5323  1.3394
  463MPD2    H2 6950   2.791   4.572   1.357 -0.3706 -1.4785 -0.6062
  463MPD2    H3 6951   3.000   4.653   1.444  0.9986 -0.2300  1.0176
  463MPD2     N 6952   3.239   4.313   1.274  0.0179  0.3542  0.8420
  463MPD2    H5 6953   3.322   4.366   1.296 -0.4438  1.4148  0.0751
  463MPD2    N1 6954   2.759   4.348   1.196 -0.6722 -0.0847 -0.8049
  463MPD2    H7 6955   2.773   4.285   1.117 -0.2577  1.3155 -1.8388
  464TMC3    C1 6956   2.537   4.283   1.162  0.3062 -0.8189  0.3213
  464TMC3    C2 6957   2.411   4.337   1.165  0.4779 -0.5588 -0.0143
  464TMC3    C3 6958   2.318   4.283   1.081 -0.0886  0.5474  0.3175
  464TMC3    C4 6959   2.566   4.166   1.094  0.0174 -0.0845 -0.5114
  464TMC3    C5 6960   2.467   4.110   1.018 -0.4511  0.5658  0.3642
  464TMC3    C6 6961   2.342   4.162   1.012  0.0168  0.7128 -0.0300
  464TMC3     C 6962   2.627   4.365   1.235  0.7660  0.8232 -0.0995
  464TMC3     O 6963   2.590   4.425   1.337  0.3342 -0.0258 -0.1122
  464TMC3     H 6964   2.388   4.438   1.197  0.0147 -0.3527 -0.9767
  464TMC3    H1 6965   2.655   4.108   1.113 -0.3493 -0.6993 -0.6772
  464TMC3    H2 6966   2.264   4.119   0.950  1.6654  0.7732 -2.1586
  464TMC3    C7 6967   2.484   3.969   0.976  0.2239 -0.5468 -0.5627
  464TMC3    C8 6968   2.177   4.319   1.089 -0.0324  0.4514 -0.1478
  464TMC3    O1 6969   2.597   3.933   0.944  0.4303  0.2255 -0.6364
  464TMC3    O2 6970   2.103   4.268   1.005  0.3593  0.4068 -0.2358
  465MPD2     C 6971   4.171   3.178  16.760  0.4480  0.2879 -0.5241
  465MPD2    C1 6972   4.074   3.226  16.842  0.0422  0.2985  0.0162
  465MPD2    C2 6973   3.991   3.327  16.789  0.1287  0.3834  0.3778
  465MPD2    C3 6974   3.987   3.354  16.651  0.0071  0.1771 -0.3312
  465MPD2    C4 6975   4.088   3.308  16.575 -0.3275  0.3329  0.3433
  465MPD2    C5 6976   4.186   3.219  16.627  0.4044 -0.0330  0.7180
  465MPD2     H 6977   3.912   3.368  16.851  0.9276  0.7934  1.1357
  465MPD2    H1 6978   4.097   3.334  16.470 -1.1930  2.7912  0.8693
  465MPD2    H2 6979   4.241   3.102  16.794 -0.3764  0.7024  2.0290
  465MPD2    H3 6980   4.266   3.186  16.562  1.7536  0.4636  2.1478
  465MPD2     N 6981   3.894   3.447  16.599  0.1290 -0.1385  0.2274
  465MPD2    H5 6982   3.835   3.486  16.671 -0.5487  0.0155 -0.4226
  465MPD2    N1 6983   4.043   3.186  16.976 -0.3857  0.2422  0.1595
  465MPD2    H7 6984   3.971   3.233  17.029 -0.8033  0.4809 -0.6313
  466TMC3    C1 6985   3.544   3.604  16.503 -0.1795  0.0905 -0.1687
  466TMC3    C2 6986   3.537   3.724  16.431 -0.8293  0.4261  0.2124
  466TMC3    C3 6987   3.659   3.763  16.380  0.2625  0.0105 -0.3849
  466TMC3    C4 6988   3.661   3.537  16.529 -0.2588 -0.3065  0.2999
  466TMC3    C5 6989   3.772   3.581  16.465  0.2022  0.0458  0.0471
  466TMC3    C6 6990   3.775   3.693  16.385 -0.1353 -0.2290  0.9785
  466TMC3     C 6991   3.446   3.595  16.606  0.2608  0.0843  0.6730
  466TMC3     O 6992   3.492   3.559  16.715 -0.2488 -0.0527  0.1854
  466TMC3     H 6993   3.447   3.770  16.391  1.0962  0.9655 -3.4495
  466TMC3    H1 6994   3.664   3.451  16.595 -0.3216 -2.1732 -2.1247
  466TMC3    H2 6995   3.868   3.737  16.350 -0.7989  1.8289  1.7593
  466TMC3    C7 6996   3.890   3.505  16.479 -0.0947 -1.0727 -0.0545
  466TMC3    C8 6997   3.667   3.899  16.340 -1.1056  0.1273 -0.2131
  466TMC3    O1 6998   3.977   3.502  16.389  0.0117  0.9446  0.1199
  466TMC3    O2 6999   3.740   3.936  16.249 -0.4807 -0.4924  0.0825
  467TMC3    C1 7000   4.649   2.313  14.138 -0.0149  0.0096 -0.4774
  467TMC3    C2 7001   4.610   2.401  14.042  0.0267 -0.0312 -0.0236
  467TMC3    C3 7002   4.494   2.385  13.973 -0.3792 -0.9650  0.6405
  467TMC3    C4 7003   4.586   2.196  14.154 -0.3811 -0.4526  0.3087
  467TMC3    C5 7004   4.470   2.175  14.083  0.0534  0.1085 -0.3093
  467TMC3    C6 7005   4.413   2.271  14.001  0.3640  0.3304 -0.2170
  467TMC3     C 7006   0.026   2.349  14.226  0.5705 -0.6130  0.3194
  467TMC3     O 7007   0.092   2.257  14.271 -0.1642  0.3040  0.3774
  467TMC3     H 7008   4.673   2.489  14.036 -1.6273  1.1317 -0.3244
  467TMC3    H1 7009   4.601   2.128  14.237  2.7213 -0.2490 -0.0976
  467TMC3    H2 7010   4.323   2.249  13.946 -0.6094  2.1868  0.6453
  467TMC3    C7 7011   4.407   2.049  14.094 -0.0368  0.5555  0.1598
  467TMC3    C8 7012   4.512   2.413  13.831 -0.1775  0.2679 -0.0528
  467TMC3    O1 7013   4.475   1.947  14.118  0.0629  0.7649  0.1915
  467TMC3    O2 7014   4.429   2.366  13.754 -0.1639 -0.1345 -0.3119
  468MPD2     C 7015   3.168   0.806  11.145  0.4563 -0.3463 -0.0563
  468MPD2    C1 7016   3.298   0.812  11.188 -0.4408 -0.4905 -0.9961
  468MPD2    C2 7017   3.371   0.698  11.168 -0.8401  0.3640 -0.3352
  468MPD2    C3 7018   3.324   0.581  11.102 -0.0892  0.8418 -1.1628
  468MPD2    C4 7019   3.191   0.577  11.063 -0.8714  0.6646 -0.5820
  468MPD2    C5 7020   3.114   0.690  11.085  0.8019  0.4631  0.4683
  468MPD2     H 7021   3.475   0.723  11.187 -1.5148  1.9659  1.1813
  468MPD2    H1 7022   3.139   0.495  11.015  0.1950  0.5308 -1.5119
  468MPD2    H2 7023   3.099   0.889  11.157  1.3949  0.2166  1.3816
  468MPD2    H3 7024   3.013   0.696  11.046  1.6201 -3.6176 -2.3050
  468MPD2     N 7025   3.398   0.465  11.090  0.9254 -0.5589  0.2298
  468MPD2    H5 7026   3.351   0.377  11.070 -0.2161  0.0183  0.3599
  468MPD2    N1 7027   3.347   0.925  11.266 -0.6802 -0.3990  0.0367
  468MPD2    H7 7028   3.442   0.919  11.301 -1.4940 -2.9040  1.8314
  469TMC3    C1 7029   3.342   1.121  11.393 -0.3681  0.3098  0.2455
  469TMC3    C2 7030   3.462   1.084  11.435  0.6502 -0.3606 -0.0040
  469TMC3    C3 7031   3.520   1.173  11.523 -0.8181  0.6952 -0.9316
  469TMC3    C4 7032   3.272   1.243  11.428 -1.1082  0.2619  0.6426
  469TMC3    C5 7033   3.345   1.330  11.502  0.5323  0.1603 -0.3959
  469TMC3    C6 7034   3.473   1.295  11.556 -0.1664  0.0039 -0.8021
  469TMC3     C 7035   3.267   1.029  11.314 -0.7720 -0.8028 -0.1881
  469TMC3     O 7036   3.152   1.067  11.286  0.5855 -0.1736  0.1305
  469TMC3     H 7037   3.518   0.994  11.411  1.9642  1.2537 -3.0181
  469TMC3    H1 7038   3.169   1.264  11.399 -0.8215  1.6683  0.6537
  469TMC3    H2 7039   3.530   1.352  11.628  1.1297 -2.4282  0.0917
  469TMC3    C7 7040   3.276   1.430  11.574 -0.6236 -0.1006  0.0104
  469TMC3    C8 7041   3.647   1.141  11.591 -0.8486 -0.0582 -0.3680
  469TMC3    O1 7042   3.154   1.442  11.555 -0.5502 -0.2652  0.0994
  469TMC3    O2 7043   3.741   1.100  11.526 -0.0199  0.0092  0.1820
  470TMC3    C1 7044   0.821   1.160   0.795 -0.2282  0.1920  0.1271
  470TMC3    C2 7045   0.919   1.246   0.831  0.0777 -0.5061 -0.3035
  470TMC3    C3 7046   0.919   1.312   0.947  0.0925 -0.7896 -0.1919
  470TMC3    C4 7047   0.724   1.154   0.884 -0.2575 -0.1676  0.2715
  470TMC3    C5 7048   0.725   1.223   0.999 -0.0366 -0.3892 -0.1294
  470TMC3    C6 7049   0.815   1.311   1.034 -0.2686  0.0340 -0.7983
  470TMC3     C 7050   0.833   1.081   0.674  0.3967 -0.1582 -0.1947
  470TMC3     O 7051   0.912   1.117   0.592 -0.2822 -0.6403  0.0258
  470TMC3     H 7052   1.009   1.242   0.769  0.3050 -0.3390  0.0133
  470TMC3    H1 7053   0.635   1.097   0.858  0.0432  1.1855 -3.7891
  470TMC3    H2 7054   0.829   1.344   1.136  0.8901  0.4854 -1.1121
  470TMC3    C7 7055   0.607   1.193   1.081  0.2498 -0.4154 -0.6893
  470TMC3    C8 7056   1.025   1.409   0.982 -0.5340  0.0254  0.5422
  470TMC3    O1 7057   0.541   1.089   1.062  0.1275  0.5171  0.0474
  470TMC3    O2 7058   1.004   1.467   1.087 -0.2014 -0.2659 -0.1005
  471MPD2     C 7059   1.530   2.499  17.336 -0.5055 -0.2027 -0.9128
  471MPD2    C1 7060   1.447   2.385  17.363 -0.4342 -0.0793 -1.0057
  471MPD2    C2 7061   1.490   2.279  17.435  0.3914  0.6916 -0.5750
  471MPD2    C3 7062   1.618   2.292  17.491 -0.8277 -0.0615  0.6688
  471MPD2    C4 7063   1.702   2.395  17.454  0.1472 -0.2501  0.2875
  471MPD2    C5 7064   1.658   2.497  17.373  1.3768 -0.1697 -0.0041
  471MPD2     H 7065   1.422   2.197  17.449  1.3985 -0.3824 -1.9488
  471MPD2    H1 7066   1.806   2.397  17.486  0.0944  1.4744  0.3423
  471MPD2    H2 7067   1.499   2.579  17.269  1.4013 -0.7817 -2.4777
  471MPD2    H3 7068   1.722   2.583  17.355  2.5936 -0.9642  0.5365
  471MPD2     N 7069   1.665   2.183  17.564  0.6519  0.5361 -0.3816
  471MPD2    H5 7070   1.766   2.180  17.559  0.6459  1.3869 -0.9428
  471MPD2    N1 7071   1.320   2.372  17.306  0.0653  0.5023 -0.5862
  471MPD2    H7 7072   1.275   2.281  17.313  3.1156 -0.8244  1.8249
  472TMC3    C1 7073   1.123   2.396  17.182 -0.3460  0.0426  1.0667
  472TMC3    C2 7074   1.075   2.405  17.063  0.2000  0.2758 -0.3824
  472TMC3    C3 7075   0.971   2.322  17.029  0.0672 -0.0135 -0.3394
  472TMC3    C4 7076   1.070   2.309  17.272  0.4559  0.3690  0.5619
  472TMC3    C5 7077   0.950   2.246  17.249 -0.4093 -0.4143  0.7614
  472TMC3    C6 7078   0.906   2.242  17.126 -0.5241  0.5733  0.3883
  472TMC3     C 7079   1.263   2.452  17.213 -0.8037 -0.2767 -1.2856
  472TMC3     O 7080   1.299   2.547  17.147  0.1200 -0.4701  0.0326
  472TMC3     H 7081   1.129   2.466  16.991 -0.7826  0.7477 -0.7234
  472TMC3    H1 7082   1.107   2.306  17.374  1.8456 -2.6840 -0.0459
  472TMC3    H2 7083   0.813   2.190  17.107 -0.3788  0.3982  0.1556
  472TMC3    C7 7084   0.944   2.111  17.304  0.1070 -0.1354  0.0971
  472TMC3    C8 7085   0.944   2.309  16.889 -0.0348 -0.1106  0.0698
  472TMC3    O1 7086   0.951   2.031  17.213 -0.2680  0.4251 -0.1620
  472TMC3    O2 7087   0.973   2.400  16.817 -0.3997  0.0137  0.1476
  473MPD2     C 7088   1.139   4.365  13.868 -0.4754 -0.2835 -0.1330
  473MPD2    C1 7089   1.148   4.471  13.777 -0.1621  0.3652  0.4899
  473MPD2    C2 7090   1.242   4.563  13.804  0.3200  0.2354  0.3657
  473MPD2    C3 7091   1.322   4.550  13.911  0.4493  0.2202  0.4860
  473MPD2    C4 7092   1.305   4.446  13.999 -0.4071 -0.2357 -0.8888
  473MPD2    C5 7093   1.216   4.350  13.978  0.3133  0.2897 -0.0803
  473MPD2     H 7094   1.254   4.644  13.733 -1.0133 -0.4897 -0.6733
  473MPD2    H1 7095   1.371   4.435  14.084 -2.2382  0.4915  0.6279
  473MPD2    H2 7096   1.059   4.293  13.855  0.2159 -0.9952 -0.4443
  473MPD2    H3 7097   1.200   4.273  14.053 -1.9815  0.9236  0.0676
  473MPD2     N 7098   1.414   4.643  13.957  0.0877 -0.1850 -0.1442
  473MPD2    H5 7099   1.473   4.620  14.036 -0.4619  1.5979  0.7860
  473MPD2    N1 7100   1.074   4.479  13.661 -0.1400 -0.1385  0.4980
  473MPD2    H7 7101   1.083   4.565  13.609 -0.7928  0.8618  2.0392
  474TMC3    C1 7102   1.531   0.116  13.969  0.2356 -0.2357 -0.8477
  474TMC3    C2 7103   1.590   0.213  13.897 -0.5345  0.1194  0.3044
  474TMC3    C3 7104   1.621   0.332  13.966  0.3181  0.7044 -0.2389
  474TMC3    C4 7105   1.514   0.124  14.105 -0.1696 -0.1598  0.4704
  474TMC3    C5 7106   1.560   0.243  14.165 -0.8505 -0.8823  0.7834
  474TMC3    C6 7107   1.622   0.343  14.098  0.3308 -0.3806 -0.1550
  474TMC3     C 7108   1.460   0.013  13.885  0.4286  0.0851  0.4891
  474TMC3     O 7109   1.437   0.035  13.763  1.2420  0.2429  0.4088
  474TMC3     H 7110   1.594   0.212  13.789 -1.4506  0.5544  0.2716
  474TMC3    H1 7111   1.463   0.049  14.164 -1.0872 -0.1096 -0.2607
  474TMC3    H2 7112   1.652   0.435  14.147  1.6938 -0.7479 -0.2967
  474TMC3    C7 7113   1.578   0.217  14.305  0.3498  0.6210 -0.0023
  474TMC3    C8 7114   1.669   0.440  13.881  1.1771  0.1542 -0.1555
  474TMC3    O1 7115   1.594   0.101  14.337  0.0559 -0.1533  0.0670
  474TMC3    O2 7116   1.678   0.400  13.765  0.6719 -0.3967  0.1004
  475MPD2     C 7117   3.647   3.255  11.213  0.3552 -0.0745 -0.4639
  475MPD2    C1 7118   3.759   3.242  11.135  0.3734 -0.1242 -0.2263
  475MPD2    C2 7119   3.750   3.237  10.996 -0.1057 -0.1844  0.1488
  475MPD2    C3 7120   3.624   3.216  10.935 -0.1840 -0.2771 -0.2571
  475MPD2    C4 7121   3.512   3.215  11.012  0.6754 -1.5943  0.2575
  475MPD2    C5 7122   3.522   3.240  11.151  0.5374 -0.6072 -0.6515
  475MPD2     H 7123   3.840   3.231  10.936  0.4546 -2.5136  1.2037
  475MPD2    H1 7124   3.421   3.184  10.963  0.2620  0.8401 -0.5221
  475MPD2    H2 7125   3.658   3.267  11.320 -0.2852 -1.5318 -0.2302
  475MPD2    H3 7126   3.432   3.261  11.208  0.4587  1.0950 -1.3999
  475MPD2     N 7127   3.632   3.184  10.795  0.1138  0.1083  0.0795
  475MPD2    H5 7128   3.722   3.204  10.751 -0.1122 -0.6211 -0.7128
  475MPD2    N1 7129   3.890   3.259  11.199 -0.0904  0.0924  0.6052
  475MPD2    H7 7130   3.893   3.285  11.298  1.9580 -0.1197  0.5911
  476TMC3    C1 7131   4.120   3.269  11.216 -0.9097 -0.1624  0.4120
  476TMC3    C2 7132   4.233   3.281  11.141  0.0055 -1.0439  0.1108
  476TMC3    C3 7133   4.346   3.338  11.190  0.2761  0.3359  0.8341
  476TMC3    C4 7134   4.116   3.326  11.343 -0.0948 -0.2108 -0.0630
  476TMC3    C5 7135   4.238   3.378  11.388 -0.7567  0.2117 -0.0061
  476TMC3    C6 7136   4.353   3.391  11.317  0.5289  0.2432  0.3614
  476TMC3     C 7137   4.008   3.219  11.141  0.3891 -0.6450  0.9186
  476TMC3     O 7138   4.023   3.140  11.050  0.1555  0.6208 -0.8269
  476TMC3     H 7139   4.217   3.255  11.037 -1.4209  1.0336 -0.1828
  476TMC3    H1 7140   4.025   3.323  11.402 -1.2776 -1.0666 -1.9399
  476TMC3    H2 7141   4.449   3.422  11.356  0.6832 -1.3833  1.2570
  476TMC3    C7 7142   4.236   3.438  11.523 -0.8457 -0.1264 -0.3735
  476TMC3    C8 7143   4.452   3.366  11.092 -0.4952 -0.1931 -0.8155
  476TMC3    O1 7144   4.161   3.408  11.617  0.0885 -0.2293 -0.0790
  476TMC3    O2 7145   4.534   3.450  11.133  0.4534 -1.1241 -0.6150
  477MPD2     C 7146   2.511   4.712  12.010 -0.8739 -0.6032  1.3299
  477MPD2    C1 7147   2.416   4.620  11.978 -0.4494 -0.1438 -0.2697
  477MPD2    C2 7148   2.429   4.495  12.041  0.3311  0.0845 -0.2581
  477MPD2    C3 7149   2.515   4.477  12.151 -0.0955 -0.2219  0.1602
  477MPD2    C4 7150   2.605   4.576  12.180 -0.0941 -0.0137 -0.5027
  477MPD2    C5 7151   2.593   4.697  12.118 -0.2515 -0.6701  0.9847
  477MPD2     H 7152   2.380   4.402  12.014  0.9623  0.1211 -1.5459
  477MPD2    H1 7153   2.676   4.582  12.262 -0.5670  4.7755 -0.4547
  477MPD2    H2 7154   2.527   0.061  11.949  0.6316 -0.3349  2.1102
  477MPD2    H3 7155   2.659   0.038  12.147  0.0524 -0.7068  0.4071
  477MPD2     N 7156   2.514   4.348  12.207  0.3054  0.0748 -0.4426
  477MPD2    H5 7157   2.461   4.276  12.160 -0.8498  0.1662  0.7162
  477MPD2    N1 7158   2.315   4.654  11.878 -0.1619  0.0632 -0.4096
  477MPD2    H7 7159   2.312   0.014  11.855 -0.7928  0.6630  2.2378
  478TMC3    C1 7160   2.127   4.647  11.733 -0.0281  1.1604  0.6552
  478TMC3    C2 7161   2.083   0.016  11.788 -0.6379 -0.0947 -0.2318
  478TMC3    C3 7162   1.978   0.077  11.733  0.1841  0.0533  0.6563
  478TMC3    C4 7163   2.081   4.597  11.626 -0.3924 -0.3843  0.1632
  478TMC3    C5 7164   1.977   4.659  11.562  0.4852 -0.3041 -0.5182
  478TMC3    C6 7165   1.923   0.030  11.615  0.3964 -0.4064 -0.0198
  478TMC3     C 7166   2.222   4.570  11.819  0.6838  0.2455 -0.0887
  478TMC3     O 7167   2.216   4.449  11.826  0.4551  0.7735 -0.6431
  478TMC3     H 7168   2.121   0.052  11.882  0.7837  0.7837 -1.1446
  478TMC3    H1 7169   2.115   4.502  11.585 -1.6903 -1.3034  1.2109
  478TMC3    H2 7170   1.839   0.082  11.570  0.7448 -0.8754 -1.2194
  478TMC3    C7 7171   1.943   4.616  11.425  0.2375  0.3463  0.1220
  478TMC3    C8 7172   1.945   0.213  11.775  0.4539  0.0808 -0.0076
  478TMC3    O1 7173   1.953   4.498  11.406  0.0158  0.1017  0.1674
  478TMC3    O2 7174   1.825   0.246  11.772 -0.1434  0.5882  0.0774
  479MPD2     C 7175   1.029   1.803  15.308  0.5820  0.4293 -0.6171
  479MPD2    C1 7176   0.956   1.753  15.417  0.0645  0.0623 -0.3343
  479MPD2    C2 7177   1.009   1.781  15.546 -0.2122 -0.1820  0.3196
  479MPD2    C3 7178   1.101   1.888  15.563 -0.2561 -0.0728  0.1926
  479MPD2    C4 7179   1.154   1.950  15.450  0.0631 -0.0721  0.0158
  479MPD2    C5 7180   1.123   1.903  15.325 -0.1067  0.9553 -0.4956
  479MPD2     H 7181   0.973   1.735  15.637 -0.4772  0.9567  0.7843
  479MPD2    H1 7182   1.239   2.017  15.461 -0.4844  0.4038  1.3762
  479MPD2    H2 7183   0.998   1.781  15.206  0.2785 -0.8029 -0.2562
  479MPD2    H3 7184   1.179   1.939  15.239  1.2673 -0.4100 -0.1807
  479MPD2     N 7185   1.154   1.948  15.680 -0.4373 -0.6576  0.3187
  479MPD2    H5 7186   1.232   2.011  15.660  0.7551 -2.0364  0.6100
  479MPD2    N1 7187   0.846   1.665  15.393 -0.4963  0.1696  0.1770
  479MPD2    H7 7188   0.817   1.638  15.299  0.7016  0.0241 -0.1488
  480TMC3    C1 7189   0.877   1.726  15.991  0.7675 -0.0759  0.0769
  480TMC3    C2 7190   0.762   1.786  15.945  0.0556  0.3694 -0.0487
  480TMC3    C3 7191   0.776   1.882  15.845 -0.4412  0.8947  0.3288
  480TMC3    C4 7192   1.000   1.770  15.946 -0.4707 -0.1820 -0.0514
  480TMC3    C5 7193   1.004   1.857  15.843 -0.2641  0.4113 -0.2975
  480TMC3    C6 7194   0.892   1.927  15.798 -0.2906  0.5652 -0.5727
  480TMC3     C 7195   0.873   1.609  16.079  0.0649 -0.3269 -0.0960
  480TMC3     O 7196   0.968   1.528  16.075  0.4284 -0.0688 -0.4522
  480TMC3     H 7197   0.664   1.757  15.982  0.1942 -0.6340 -0.4600
  480TMC3    H1 7198   1.088   1.713  15.977 -0.3941 -0.8983 -1.5892
  480TMC3    H2 7199   0.898   2.024  15.749  1.5289 -0.0094 -1.5068
  480TMC3    C7 7200   1.135   1.905  15.808  0.3753 -0.6002  0.0770
  480TMC3    C8 7201   0.665   1.914  15.766 -0.4861  0.2828  0.1156
  480TMC3    O1 7202   1.207   1.927  15.906  0.1967 -0.0336  0.5259
  480TMC3    O2 7203   0.555   1.890  15.814 -0.3796 -0.2635  0.4498
  481MPD2     C 7204   2.949   1.821  14.734  0.7561  0.5883  0.5230
  481MPD2    C1 7205   2.837   1.733  14.713  1.0083  0.0025 -0.3239
  481MPD2    C2 7206   2.787   1.674  14.830  0.0036 -0.0199 -0.4779
  481MPD2    C3 7207   2.831   1.719  14.956 -0.8017 -0.2040  0.1305
  481MPD2    C4 7208   2.933   1.807  14.961 -0.8943 -0.5511 -0.1947
  481MPD2    C5 7209   2.998   1.848  14.855  0.1327  0.0841 -0.0395
  481MPD2     H 7210   2.718   1.591  14.824  1.5832 -1.5763  2.7862
  481MPD2    H1 7211   2.987   1.828  15.053  1.2805 -0.7672 -1.4284
  481MPD2    H2 7212   3.007   1.866  14.654 -0.0697  0.4068 -0.1753
  481MPD2    H3 7213   3.086   1.909  14.866  0.2185 -0.3147  1.4597
  481MPD2     N 7214   2.764   1.691  15.085 -0.2685  0.0364 -0.0994
  481MPD2    H5 7215   2.816   1.719  15.167 -1.0403  2.1443 -0.3251
  481MPD2    N1 7216   2.778   1.727  14.586 -0.6835 -0.2452  0.3664
  481MPD2    H7 7217   2.830   1.775  14.513  0.7955 -0.0253  1.5542
  482TMC3    C1 7218   2.636   1.683  14.409  0.2360  0.3359 -0.1536
  482TMC3    C2 7219   2.555   1.599  14.339 -0.2115  0.3111 -0.2095
  482TMC3    C3 7220   2.502   1.644  14.221 -0.2407 -0.2651 -0.2217
  482TMC3    C4 7221   2.639   1.817  14.382  0.1687 -0.4554  0.5695
  482TMC3    C5 7222   2.594   1.856  14.260 -0.2244  0.0038  0.9036
  482TMC3    C6 7223   2.516   1.774  14.183  0.0424 -0.3818 -0.6413
  482TMC3     C 7224   2.673   1.651  14.545 -0.0102  0.5970  0.5332
  482TMC3     O 7225   2.605   1.565  14.605  0.3766 -0.4121  0.1761
  482TMC3     H 7226   2.543   1.495  14.367 -3.7271  0.8419  0.3287
  482TMC3    H1 7227   2.666   1.893  14.455  1.0519  1.5705 -1.8886
  482TMC3    H2 7228   2.461   1.809  14.097  0.0305  0.2727 -0.3643
  482TMC3    C7 7229   2.600   1.996  14.229 -0.3132  0.8326 -0.3124
  482TMC3    C8 7230   2.439   1.540  14.133 -1.3197  0.6491 -0.2110
  482TMC3    O1 7231   2.558   2.075  14.312  0.6671 -0.3493  0.3351
  482TMC3    O2 7232   2.424   1.432  14.187 -0.1795  0.6805 -0.0608
  483TMC3    C1 7233   0.359   4.726   0.931 -0.1633 -0.2239  0.2282
  483TMC3    C2 7234   0.418   0.109   0.934 -0.1534 -0.1203  0.4749
  483TMC3    C3 7235   0.553   0.117   0.971 -0.9228  1.2377  0.3793
  483TMC3    C4 7236   0.431   4.613   0.948  0.0863  0.0894 -0.2888
  483TMC3    C5 7237   0.564   4.618   0.984 -0.0284 -0.5951 -0.6856
  483TMC3    C6 7238   0.628   0.003   0.991  0.1522  0.6703 -0.1341
  483TMC3     C 7239   0.234   4.731   0.860  0.0868 -0.1372 -0.1047
  483TMC3     O 7240   0.175   0.100   0.861  0.4345  0.1914 -0.0687
  483TMC3     H 7241   0.357   0.198   0.920 -0.7778 -0.5418  0.5033
  483TMC3    H1 7242   0.377   4.521   0.966 -1.3784  1.0716  0.3379
  483TMC3    H2 7243   0.731   0.007   1.024  0.8571  0.3615 -2.2784
  483TMC3    C7 7244   0.645   4.497   1.007 -0.4543 -0.4449  0.0577
  483TMC3    C8 7245   0.625   0.243   0.989 -0.4842  0.0013  0.5174
  483TMC3    O1 7246   0.760   4.518   1.042  0.3567  0.4592  0.1155
  483TMC3    O2 7247   0.743   0.244   0.963  0.4345  0.4735 -0.7218
  484MPD2     C 7248   3.248   3.592  12.560 -0.0737 -0.3992  0.5836
  484MPD2    C1 7249   3.296   3.515  12.666 -0.2185  0.2191  0.0090
  484MPD2    C2 7250   3.429   3.538  12.705 -0.0642 -0.6151 -0.3672
  484MPD2    C3 7251   3.504   3.633  12.641 -1.0035 -0.1633 -0.1268
  484MPD2    C4 7252   3.452   3.715  12.541  0.1490  0.1300 -0.7055
  484MPD2    C5 7253   3.326   3.686  12.500  0.3120 -0.0948 -0.3465
  484MPD2     H 7254   3.471   3.477  12.784 -0.5114 -0.0563  0.2992
  484MPD2    H1 7255   3.507   3.795  12.493  1.1271 -0.4436 -0.5450
  484MPD2    H2 7256   3.142   3.578  12.541  0.3469 -1.7581 -0.6897
  484MPD2    H3 7257   3.276   3.753  12.431 -0.8380  0.1747  0.7604
  484MPD2     N 7258   3.636   3.669  12.675  0.0706 -0.4622  0.3123
  484MPD2    H5 7259   3.674   3.748  12.626  0.3406 -0.3474  0.7059
  484MPD2    N1 7260   3.209   3.423  12.731 -0.4056 -0.3814  0.6623
  484MPD2    H7 7261   3.117   3.418  12.690 -0.3639 -0.3821  0.5684
  485TMC3    C1 7262   3.856   3.635  12.741 -0.2651 -0.1344  0.9047
  485TMC3    C2 7263   3.947   3.551  12.811  1.1024  0.0101 -0.2055
  485TMC3    C3 7264   4.079   3.557  12.783  0.6964  0.6623  0.2291
  485TMC3    C4 7265   3.899   3.724  12.648  0.4058 -0.9128 -0.0887
  485TMC3    C5 7266   4.037   3.721  12.621  0.2816  0.1807 -0.5117
  485TMC3    C6 7267   4.129   3.641  12.688  0.1214 -0.2869 -0.3908
  485TMC3     C 7268   3.721   3.593  12.746  0.1791  0.2098  0.2256
  485TMC3     O 7269   3.701   3.476  12.792  0.1925 -0.1878  0.7844
  485TMC3     H 7270   3.914   3.484  12.889  1.4929  0.8719  0.6946
  485TMC3    H1 7271   3.830   3.770  12.578  0.2312  1.0041  1.3271
  485TMC3    H2 7272   4.235   3.659  12.678  0.1757  0.9224  2.4061
  485TMC3    C7 7273   4.057   3.716  12.478 -0.7802 -0.4775 -0.3732
  485TMC3    C8 7274   4.151   3.436  12.780  0.3649  0.1359 -0.2545
  485TMC3    O1 7275   3.991   3.794  12.409 -0.1163 -0.1213 -0.0933
  485TMC3    O2 7276   4.224   3.423  12.686  0.3375  0.7062 -0.1353
  486MPD2     C 7277   0.732   2.183  12.859  0.1315 -0.7420  0.1506
  486MPD2    C1 7278   0.608   2.117  12.863  0.7009  0.7357 -0.5901
  486MPD2    C2 7279   0.496   2.199  12.866  0.3620 -0.0262  0.1098
  486MPD2    C3 7280   0.504   2.338  12.879  0.2904  0.1996  0.3855
  486MPD2    C4 7281   0.625   2.398  12.877  0.0407 -0.1621  0.5678
  486MPD2    C5 7282   0.735   2.320  12.863  0.2207  0.1852 -0.1184
  486MPD2     H 7283   0.400   2.150  12.870  0.4181 -0.0343  1.3925
  486MPD2    H1 7284   0.646   2.504  12.893  1.5968 -0.5905  1.3483
  486MPD2    H2 7285   0.820   2.120  12.859  0.9556  0.4223 -0.5422
  486MPD2    H3 7286   0.833   2.365  12.852 -0.1559  0.4717 -2.1547
  486MPD2     N 7287   0.387   2.416  12.883  0.0843 -0.4069  0.1835
  486MPD2    H5 7288   0.302   2.364  12.867  0.4209 -0.4871 -1.3398
  486MPD2    N1 7289   0.605   1.982  12.872  1.0815 -0.0331 -0.1852
  486MPD2    H7 7290   0.691   1.928  12.870  0.6781 -0.5845 -2.1586
  487TMC3    C1 7291   0.517   1.765  12.899  0.2080 -0.1133  0.4036
  487TMC3    C2 7292   0.423   1.680  12.866  0.2414 -0.1831  0.5452
  487TMC3    C3 7293   0.446   1.553  12.908 -0.3638  0.8598 -0.2004
  487TMC3    C4 7294   0.628   1.738  12.970  0.1797  0.3034 -0.1094
  487TMC3    C5 7295   0.655   1.606  13.007  0.5459 -0.1725  0.4154
  487TMC3    C6 7296   0.550   1.511  12.983 -0.2051  0.6993  0.2127
  487TMC3     C 7297   0.493   1.904  12.876 -0.1255 -0.5328  0.7482
  487TMC3     O 7298   0.379   1.941  12.898  0.6601 -0.2413 -0.0316
  487TMC3     H 7299   0.344   1.694  12.792  1.1663 -1.6194 -0.7293
  487TMC3    H1 7300   0.698   1.813  13.005 -0.1075 -0.5800  2.3398
  487TMC3    H2 7301   0.568   1.404  12.993 -0.1703  0.6547 -0.3458
  487TMC3    C7 7302   0.689   1.590  13.146 -0.3647  0.3044 -0.5241
  487TMC3    C8 7303   0.336   1.462  12.919  0.3004 -0.2810  0.0499
  487TMC3    O1 7304   0.677   1.691  13.215  0.0357 -0.1151  0.5514
  487TMC3    O2 7305   0.271   1.426  12.819 -0.2288  0.3924  0.5764
  488MPD2     C 7306   1.055   3.500  16.261  1.1644  0.3524  0.4632
  488MPD2    C1 7307   1.091   3.566  16.372  0.2077 -0.7973 -0.1310
  488MPD2    C2 7308   1.038   3.528  16.496 -0.0551  0.1167  0.1298
  488MPD2    C3 7309   0.942   3.433  16.508  0.0764 -0.4541  0.5277
  488MPD2    C4 7310   0.890   3.372  16.394  0.2626 -0.4870 -0.2979
  488MPD2    C5 7311   0.950   3.403  16.274 -0.3681  0.0002 -0.2730
  488MPD2     H 7312   1.073   3.574  16.588 -2.8637 -0.5734  1.5778
  488MPD2    H1 7313   0.814   3.295  16.406 -0.2457  0.1013  0.2348
  488MPD2    H2 7314   1.096   3.528  16.164  0.5116  4.1847  1.3007
  488MPD2    H3 7315   0.930   3.340  16.188 -0.7557 -0.1152 -0.0955
  488MPD2     N 7316   0.892   3.401  16.639  0.7143 -0.4006 -0.3039
  488MPD2    H5 7317   0.949   3.439  16.713 -0.1045  0.3796 -0.0846
  488MPD2    N1 7318   1.175   3.680  16.382  0.2754  0.1381 -0.5842
  488MPD2    H7 7319   1.185   3.730  16.470 -0.4140 -3.3321  1.4636
  489TMC3    C1 7320   0.802   3.270  16.812  1.2325  0.0585 -0.2109
  489TMC3    C2 7321   0.921   3.269  16.873 -0.0372 -0.0144  0.4051
  489TMC3    C3 7322   0.916   3.266  17.015  0.2437 -0.0541  0.5963
  489TMC3    C4 7323   0.680   3.284  16.881 -0.0744  0.1100 -0.3094
  489TMC3    C5 7324   0.684   3.292  17.015  0.4020 -0.2144  0.1639
  489TMC3    C6 7325   0.803   3.281  17.079 -0.6400  0.5281 -0.9234
  489TMC3     C 7326   0.800   3.303  16.669 -0.3360 -0.1497 -1.3535
  489TMC3     O 7327   0.719   3.239  16.603 -0.0743 -0.4098 -0.3116
  489TMC3     H 7328   1.014   3.248  16.823 -0.1014 -1.2409  0.7960
  489TMC3    H1 7329   0.591   3.290  16.820  0.2803 -1.8581 -1.0307
  489TMC3    H2 7330   0.810   3.282  17.188 -4.0779 -0.0359 -0.7073
  489TMC3    C7 7331   0.578   3.363  17.085 -0.2436  0.2171 -0.0184
  489TMC3    C8 7332   1.029   3.347  17.062  0.0260  0.1622 -0.2324
  489TMC3    O1 7333   0.491   3.402  17.006  0.0358  0.3685 -0.6586
  489TMC3    O2 7334   1.144   3.338  17.018 -0.2011  0.2815  0.3048
  490MPD2     C 7335   1.514   3.119  17.476  0.2164  0.4011 -0.6650
  490MPD2    C1 7336   1.502   2.994  17.541 -0.1796  0.6134  0.0654
  490MPD2    C2 7337   1.618   2.941  17.588  0.4538 -0.3497 -0.4579
  490MPD2    C3 7338   1.742   3.004  17.578  0.0498 -0.6088  0.1242
  490MPD2    C4 7339   1.754   3.121  17.505  0.0354 -0.6912 -0.0771
  490MPD2    C5 7340   1.636   3.167  17.454  0.9483 -0.2213 -0.2901
  490MPD2     H 7341   1.603   2.853  17.649  3.0696  0.2311  1.0292
  490MPD2    H1 7342   1.848   3.172  17.487 -0.8786  0.9947  0.0015
  490MPD2    H2 7343   1.426   3.171  17.440  0.3320  0.5395 -0.7497
  490MPD2    H3 7344   1.636   3.261  17.399  0.9879 -0.2114 -0.2734
  490MPD2     N 7345   1.854   2.935  17.618 -0.1119 -0.9839 -0.0055
  490MPD2    H5 7346   1.937   2.951  17.561 -0.5141 -2.2098 -0.9188
  490MPD2    N1 7347   1.383   2.929  17.571  1.1040 -0.0269  0.2324
  490MPD2    H7 7348   1.377   2.848  17.633 -0.2354 -0.9868 -1.1532
  491TMC3    C1 7349   1.161   2.867  17.540 -0.2938  0.5241 -0.6507
  491TMC3    C2 7350   1.160   2.808  17.663  0.2632  0.2890 -0.4589
  491TMC3    C3 7351   1.067   2.703  17.684  0.7660 -0.3391  0.6606
  491TMC3    C4 7352   1.086   2.823  17.435 -0.2372  0.2316  0.1275
  491TMC3    C5 7353   1.005   2.718  17.456 -0.2469 -0.2865  1.0917
  491TMC3    C6 7354   0.997   2.653  17.579 -0.1206 -0.3527  0.0267
  491TMC3     C 7355   1.259   2.966  17.507  0.9588  0.6516 -0.5496
  491TMC3     O 7356   1.228   3.052  17.432 -0.5033 -0.5649  0.2316
  491TMC3     H 7357   1.205   2.856  17.749  1.3733  0.8531 -1.3398
  491TMC3    H1 7358   1.100   2.849  17.331 -0.3597  1.2220  0.3566
  491TMC3    H2 7359   0.930   2.569  17.596  0.6185 -0.5277  2.0298
  491TMC3    C7 7360   0.898   2.686  17.363 -0.1041  0.3797  0.0928
  491TMC3    C8 7361   1.024   2.661   0.066 -0.7315 -0.3103  0.6160
  491TMC3    O1 7362   0.851   2.576  17.374 -0.4493 -0.5057  0.6633
  491TMC3    O2 7363   0.943   2.573   0.063 -0.0994 -0.2054  0.2615
  492MPD2     C 7364   1.403   3.526  11.160  0.3913  0.3236 -0.0593
  492MPD2    C1 7365   1.328   3.422  11.110  0.0521  0.3158 -0.5137
  492MPD2    C2 7366   1.314   3.314  11.190  0.3032 -0.2316  0.4368
  492MPD2    C3 7367   1.362   3.310  11.324 -0.2672  0.2180  0.2021
  492MPD2    C4 7368   1.418   3.422  11.375  0.5434 -0.2905  0.1589
  492MPD2    C5 7369   1.445   3.528  11.294 -0.1477 -0.0041  0.1317
  492MPD2     H 7370   1.265   3.226  11.151  2.0697 -0.2563 -1.6843
  492MPD2    H1 7371   1.464   3.419  11.473  0.2328  1.5015  0.3542
  492MPD2    H2 7372   1.437   3.609  11.099  0.9795  0.3414  0.2911
  492MPD2    H3 7373   1.500   3.616  11.326 -0.3832  0.4412 -0.6914
  492MPD2     N 7374   1.366   3.188  11.404 -0.4307 -0.3493 -0.7655
  492MPD2    H5 7375   1.396   3.198  11.500 -0.4032 -2.5864 -0.5267
  492MPD2    N1 7376   1.298   3.413  10.972  0.5314 -0.6938  0.0805
  492MPD2    H7 7377   1.289   3.502  10.925  0.4689  0.8244  2.9443
  493TMC3    C1 7378   1.234   3.328  10.763  0.8497 -0.2179  0.7216
  493TMC3    C2 7379   1.249   3.456  10.710  0.7258 -0.0565  0.5900
  493TMC3    C3 7380   1.220   3.480  10.580  0.1202 -0.6842  0.2480
  493TMC3    C4 7381   1.173   3.221  10.700  0.2086  0.1858  0.1139
  493TMC3    C5 7382   1.139   3.254  10.569 -0.5684 -0.5842 -0.1347
  493TMC3    C6 7383   1.167   3.376  10.506  0.1248 -0.4596 -0.4468
  493TMC3     C 7384   1.289   3.299  10.897 -0.0719  0.1519 -0.3238
  493TMC3     O 7385   1.329   3.188  10.919  0.4824  0.1873  0.6760
  493TMC3     H 7386   1.291   3.536  10.770 -0.4215  0.1923  1.0496
  493TMC3    H1 7387   1.152   3.121  10.736  3.7001 -1.0900 -1.4537
  493TMC3    H2 7388   1.131   3.388  10.404  0.7572 -1.7011 -0.8167
  493TMC3    C7 7389   1.028   3.180  10.516 -0.4145 -0.6501  0.3167
  493TMC3    C8 7390   1.164   3.599  10.542 -0.5772  0.0736 -0.6747
  493TMC3    O1 7391   0.937   3.246  10.471  0.6147 -0.1138  0.4898
  493TMC3    O2 7392   1.045   3.596  10.511 -0.2277  0.0028 -0.4366
  494TMC3    C1 7393   1.889   4.347   0.157 -0.3035  0.1344  0.1844
  494TMC3    C2 7394   1.960   4.247   0.217 -0.5625  0.5912  0.0745
  494TMC3    C3 7395   2.100   4.249   0.208 -0.6373 -0.4110  0.0093
  494TMC3    C4 7396   1.955   4.455   0.099 -0.1963  0.1441  0.4313
  494TMC3    C5 7397   2.094   4.448   0.097 -0.0234 -0.4845  0.2511
  494TMC3    C6 7398   2.170   4.347   0.146  0.1351  0.4311  0.1104
  494TMC3     C 7399   1.763   4.379   0.219 -0.8388 -0.6429  0.0296
  494TMC3     O 7400   1.734   4.492   0.253  0.0084 -0.0211 -0.1101
  494TMC3     H 7401   1.909   4.169   0.272 -0.3026  1.3878  1.4490
  494TMC3    H1 7402   1.905   4.531   0.039  2.0522  1.6415  0.4466
  494TMC3    H2 7403   2.278   4.356   0.147  0.0321  1.6468  0.3460
  494TMC3    C7 7404   2.158   4.533   0.008 -0.5021 -1.1679  0.3381
  494TMC3    C8 7405   2.173   4.134   0.249  0.2906 -0.4018  0.2275
  494TMC3    O1 7406   2.238   4.483  17.687 -0.0092 -0.2621 -0.1356
  494TMC3    O2 7407   2.292   4.130   0.222  0.2921 -0.2610 -0.2670
  495TMC3    C1 7408   0.899   1.801  14.868 -0.0131  0.1520 -0.4928
  495TMC3    C2 7409   0.802   1.786  14.770  0.5081  0.5829 -0.1903
  495TMC3    C3 7410   0.684   1.848  14.788 -0.1697  0.0219 -0.2096
  495TMC3    C4 7411   0.883   1.887  14.969  0.5018  0.9319 -0.7190
  495TMC3    C5 7412   0.755   1.950  14.982 -0.5432  0.0954  0.5289
  495TMC3    C6 7413   0.656   1.925  14.897  0.6045  0.0348 -0.1323
  495TMC3     C 7414   1.020   1.716  14.867 -0.0441  0.1266 -0.2004
  495TMC3     O 7415   1.114   1.755  14.930  0.2866 -0.0980  0.2720
  495TMC3     H 7416   0.832   1.728  14.683 -2.5779 -2.3010  0.6704
  495TMC3    H1 7417   0.962   1.891  15.043  0.2638 -0.0116 -0.4144
  495TMC3    H2 7418   0.556   1.966  14.894  0.6799  0.2578  0.4392
  495TMC3    C7 7419   0.723   2.001  15.112 -0.1642 -0.7385  0.3565
  495TMC3    C8 7420   0.607   1.871  14.670  0.5037 -0.0357 -0.5436
  495TMC3    O1 7421   0.815   2.034  15.185 -0.4641 -0.3650  0.4575
  495TMC3    O2 7422   0.491   1.902  14.683 -0.4143  0.1146 -0.7125
  496MPD2     C 7423   2.792   2.516  15.677 -0.3569 -0.1760 -0.2060
  496MPD2    C1 7424   2.811   2.429  15.580  0.6344  0.3059  0.2807
  496MPD2    C2 7425   2.710   2.366  15.509 -0.1929  0.8416  0.4865
  496MPD2    C3 7426   2.582   2.397  15.545  0.5320  0.6589 -0.1207
  496MPD2    C4 7427   2.559   2.486  15.651  0.4618  0.1620 -0.0124
  496MPD2    C5 7428   2.668   2.540  15.719 -0.7244 -0.6004  0.2734
  496MPD2     H 7429   2.734   2.299  15.428  1.8218  2.3365 -0.1504
  496MPD2    H1 7430   2.460   2.503  15.692 -0.1750 -1.7571 -0.7516
  496MPD2    H2 7431   2.876   2.564  15.727 -0.7778  0.0622  0.2657
  496MPD2    H3 7432   2.656   2.603  15.807  2.0489 -1.6052  1.3605
  496MPD2     N 7433   2.469   2.335  15.483  0.1548 -0.0466 -0.2982
  496MPD2    H5 7434   2.373   2.342  15.515 -0.8003 -2.0784 -2.7086
  496MPD2    N1 7435   2.935   2.382  15.553 -0.1228  0.7048 -0.4829
  496MPD2    H7 7436   3.016   2.439  15.576  0.1536  0.2267 -0.2836
  497TMC3    C1 7437   2.363   2.169  15.366 -0.5475 -0.2024  0.0119
  497TMC3    C2 7438   2.348   2.094  15.244  0.0132  0.3640 -0.3151
  497TMC3    C3 7439   2.304   1.965  15.250 -0.9974  0.4117 -0.2156
  497TMC3    C4 7440   2.319   2.112  15.487 -0.6148  0.1241  0.4486
  497TMC3    C5 7441   2.275   1.983  15.482 -0.1434 -0.0516  0.3829
  497TMC3    C6 7442   2.261   1.914  15.368 -0.7124 -0.7461 -0.6011
  497TMC3     C 7443   2.478   2.254  15.374 -0.6035 -0.4927  0.6589
  497TMC3     O 7444   2.570   2.235  15.295 -0.1626  0.0262 -0.1463
  497TMC3     H 7445   2.382   2.139  15.152 -1.7167  0.6764 -0.8136
  497TMC3    H1 7446   2.327   2.162  15.582  0.1128 -1.1490  1.0600
  497TMC3    H2 7447   2.247   1.807  15.379 -0.3967 -0.8189 -0.9301
  497TMC3    C7 7448   2.261   1.909  15.610  0.4383  0.6273  0.3828
  497TMC3    C8 7449   2.292   1.886  15.132 -0.6529  0.4063 -0.0047
  497TMC3    O1 7450   2.170   1.825  15.606 -0.7107  0.3609  0.3253
  497TMC3    O2 7451   2.224   1.788  15.144 -0.0954  0.0812 -0.6893
  498MPD2     C 7452   3.955   3.239   9.815  0.7815 -0.2637  0.5285
  498MPD2    C1 7453   3.988   3.230   9.946  0.1954 -0.0468 -0.5741
  498MPD2    C2 7454   3.966   3.110  10.007 -0.2479  0.2428  0.7815
  498MPD2    C3 7455   3.894   3.006   9.948 -0.5606 -0.7261  0.2597
  498MPD2    C4 7456   3.855   3.031   9.820  0.7357 -0.1320  0.4513
  498MPD2    C5 7457   3.890   3.143   9.755 -0.0749  0.5167 -1.3578
  498MPD2     H 7458   4.013   3.095  10.103 -0.6389 -0.5540  0.8495
  498MPD2    H1 7459   3.798   2.961   9.759 -0.3807  2.1019 -1.0679
  498MPD2    H2 7460   3.973   3.332   9.761  1.9763 -1.0597 -0.4445
  498MPD2    H3 7461   3.855   3.156   9.654  1.9511  1.3004 -1.9725
  498MPD2     N 7462   3.862   2.886  10.021  0.5918  0.1079  0.7835
  498MPD2    H5 7463   3.897   2.887  10.117  0.8567  2.3898  0.6636
  498MPD2    N1 7464   4.067   3.338   9.998 -0.3878  0.0843  0.5233
  498MPD2    H7 7465   4.050   3.425   9.948  2.5794  1.5452  2.0871
  499TMC3    C1 7466   4.188   3.478  10.148  0.6503 -0.2436  0.0245
  499TMC3    C2 7467   4.255   3.476  10.267 -0.1877  0.4000  0.1604
  499TMC3    C3 7468   4.308   3.597  10.305 -0.7115  0.0766  0.7035
  499TMC3    C4 7469   4.169   3.591  10.069  0.1270 -0.4208  0.2654
  499TMC3    C5 7470   4.223   3.710  10.108  0.5006 -0.0610 -0.6144
  499TMC3    C6 7471   4.291   3.708  10.224  0.1399 -1.0853 -0.4674
  499TMC3     C 7472   4.144   3.342  10.112  0.4840  0.3027  0.3198
  499TMC3     O 7473   4.167   3.248  10.186  0.2715  0.0726 -0.5158
  499TMC3     H 7474   4.269   3.389  10.330 -1.5748  0.6268  0.7689
  499TMC3    H1 7475   4.114   3.586   9.976  0.0252  1.1836  0.2418
  499TMC3    H2 7476   4.338   3.804  10.243 -0.9698 -1.0810  2.1589
  499TMC3    C7 7477   4.196   3.830  10.030 -0.6979  0.3200  0.2250
  499TMC3    C8 7478   4.348   3.611  10.443  0.2457 -0.4740 -0.1440
  499TMC3    O1 7479   4.252   3.931  10.073 -0.2738 -0.3922 -0.1867
  499TMC3    O2 7480   4.410   3.518  10.491  0.4267 -0.3110  0.1860
  500MPD2     C 7481   0.586   3.806  11.022 -0.0990  0.3484 -0.4279
  500MPD2    C1 7482   0.619   3.920  10.957  0.3945 -0.1144 -0.2323
  500MPD2    C2 7483   0.548   3.953  10.848  0.4522  0.1437 -0.4299
  500MPD2    C3 7484   0.448   3.871  10.810 -0.0046 -0.1130 -0.4250
  500MPD2    C4 7485   0.419   3.752  10.869 -0.4055  1.1301 -0.0641
  500MPD2    C5 7486   0.491   3.719  10.981  0.1979 -0.4224  0.7747
  500MPD2     H 7487   0.571   4.046  10.798  0.8083  0.9662  1.2591
  500MPD2    H1 7488   0.347   3.679  10.834  0.8752  0.6719 -1.7047
  500MPD2    H2 7489   0.640   3.765  11.107  0.4283 -0.3823 -1.1157
  500MPD2    H3 7490   0.469   3.621  11.023  0.4760 -0.4084  0.9530
  500MPD2     N 7491   0.368   3.901  10.699  0.1718 -0.2116 -0.2056
  500MPD2    H5 7492   0.289   3.841  10.676  0.6375 -1.0294  0.3267
  500MPD2    N1 7493   0.735   3.999  10.990 -0.7526  0.5039  0.2290
  500MPD2    H7 7494   0.757   4.078  10.931  1.0524  0.6820  1.1242
  501TMC3    C1 7495   0.932   4.067  11.090 -0.0343 -0.3366 -0.0363
  501TMC3    C2 7496   0.912   4.205  11.096  0.4673 -0.1714 -0.4590
  501TMC3    C3 7497   1.013   4.283  11.133  0.3169 -0.0736  0.4437
  501TMC3    C4 7498   1.044   4.017  11.151  0.4247 -0.9887 -0.3417
  501TMC3    C5 7499   1.141   4.095  11.200 -0.5436  0.1717  0.6409
  501TMC3    C6 7500   1.128   4.231  11.184 -0.1300  0.2281 -0.1888
  501TMC3     C 7501   0.821   3.972  11.090  0.4045 -0.2368  0.1644
  501TMC3     O 7502   0.828   3.882  11.178 -0.3453  0.1385  0.0453
  501TMC3     H 7503   0.829   4.238  11.035 -1.0028 -0.0802  1.5732
  501TMC3    H1 7504   1.059   3.910  11.144 -1.2947 -1.3363  1.2295
  501TMC3    H2 7505   1.195   4.301  11.233 -1.2658  0.4551  1.0518
  501TMC3    C7 7506   1.279   4.046  11.182 -0.1326  0.1629  1.8207
  501TMC3    C8 7507   1.017   4.421  11.103 -0.3603  0.3080 -0.2093
  501TMC3    O1 7508   1.284   3.929  11.156  0.3450  0.2307 -0.7348
  501TMC3    O2 7509   1.127   4.480  11.107  0.4894  0.2911  0.7970
  502TMC3    C1 7510   0.268   2.673  14.860 -0.2802  0.8624  0.6230
  502TMC3    C2 7511   0.353   2.769  14.817  0.4563 -1.0593  0.0323
  502TMC3    C3 7512   0.308   2.883  14.774 -0.7267 -0.2469  0.3218
  502TMC3    C4 7513   0.130   2.696  14.863 -0.4155  0.6314 -0.5013
  502TMC3    C5 7514   0.086   2.819  14.821  0.4911  0.1521 -0.1357
  502TMC3    C6 7515   0.171   2.912  14.778  0.2553  0.7709 -0.1371
  502TMC3     C 7516   0.327   2.574  14.947  0.6505 -0.4629 -0.0745
  502TMC3     O 7517   0.430   2.516  14.921  0.4211 -0.2747  0.0289
  502TMC3     H 7518   0.459   2.756  14.834  0.7611  0.0800 -0.9965
  502TMC3    H1 7519   0.063   2.618  14.899  0.0037  1.0875  1.2524
  502TMC3    H2 7520   0.135   3.010  14.749  0.0967  0.5405 -0.7246
  502TMC3    C7 7521   4.688   2.860  14.844 -0.0264  0.4565 -0.2968
  502TMC3    C8 7522   0.363   2.993  14.846 -0.2216  0.9716  1.0650
  502TMC3    O1 7523   4.649   2.956  14.777  0.2519  0.0496 -0.8097
  502TMC3    O2 7524   0.338   3.104  14.802 -0.4594  0.5033  0.0272
  503MPD2     C 7525   2.571   3.444  17.081  0.1916  0.0982 -1.2082
  503MPD2    C1 7526   2.609   3.530  17.183 -1.0616 -0.7437  1.2737
  503MPD2    C2 7527   2.724   3.501  17.258 -0.0158  0.3725 -0.3446
  503MPD2    C3 7528   2.806   3.397  17.214  0.1725  0.3688  0.6003
  503MPD2    C4 7529   2.774   3.324  17.104  0.1537  0.7405 -0.2902
  503MPD2    C5 7530   2.652   3.345  17.040 -0.2846 -0.7424  0.7145
  503MPD2     H 7531   2.738   3.549  17.354  1.3358  0.4625 -0.5878
  503MPD2    H1 7532   2.832   3.241  17.065 -0.4024 -0.1962  0.8411
  503MPD2    H2 7533   2.470   3.455  17.043  0.2648 -0.0870 -1.4513
  503MPD2    H3 7534   2.625   3.284  16.955 -1.7303 -2.8915  2.7308
  503MPD2     N 7535   2.928   3.368  17.288 -0.1977 -0.4638  0.3691
  503MPD2    H5 7536   2.932   3.409  17.381 -0.4702 -0.3790  0.3416
  503MPD2    N1 7537   2.540   3.639  17.234 -0.3046 -0.3881  0.1712
  503MPD2    H7 7538   2.566   3.674  17.326 -0.3611 -0.5943  0.2650
  504TMC3    C1 7539   3.149   3.304  17.331 -0.0157  0.1239 -0.1751
  504TMC3    C2 7540   3.117   3.267  17.454 -0.1208  0.3239  0.0933
  504TMC3    C3 7541   3.230   3.241  17.529  0.1712  0.0101 -0.7642
  504TMC3    C4 7542   3.277   3.319  17.278 -0.6556 -0.0417  0.5326
  504TMC3    C5 7543   3.385   3.302  17.361  0.4546 -0.3467 -0.9452
  504TMC3    C6 7544   3.354   3.259  17.485  0.2416  0.2592 -0.3432
  504TMC3     C 7545   3.037   3.311  17.231 -0.2066  0.6354 -0.8314
  504TMC3     O 7546   3.060   3.295  17.114  0.0479 -0.3007  0.5209
  504TMC3     H 7547   3.015   3.255  17.488 -0.0592  0.3546  0.2868
  504TMC3    H1 7548   3.295   3.349  17.175 -0.1097  3.1469  1.5336
  504TMC3    H2 7549   3.443   3.246  17.546  0.6115 -0.3945 -1.0151
  504TMC3    C7 7550   3.503   3.264  17.289 -0.1909 -0.3511  0.2066
  504TMC3    C8 7551   3.212   3.164  17.648  0.2726 -0.8389  0.0423
  504TMC3    O1 7552   3.525   3.316  17.180 -0.0567 -0.0112  0.0099
  504TMC3    O2 7553   3.297   3.170  17.734 -0.4592  0.0508 -0.0951
  505MPD2     C 7554   2.823   2.348  10.505 -0.7172 -0.6963 -0.1012
  505MPD2    C1 7555   2.892   2.279  10.601 -0.0783 -0.2774 -0.5727
  505MPD2    C2 7556   2.941   2.356  10.707 -0.3800  0.0557  0.7543
  505MPD2    C3 7557   2.934   2.497  10.712 -0.0426  0.8879  0.1813
  505MPD2    C4 7558   2.874   2.561  10.604 -0.6509 -0.4943 -0.0978
  505MPD2    C5 7559   2.817   2.483  10.509  0.7857 -0.0703 -0.3921
  505MPD2     H 7560   3.006   2.309  10.780 -0.1556 -0.0170  0.5085
  505MPD2    H1 7561   2.881   2.668  10.589 -1.6377 -0.8711 -3.0675
  505MPD2    H2 7562   2.790   2.298  10.414 -0.3961 -1.7395  0.3650
  505MPD2    H3 7563   2.775   2.537  10.424  0.6263 -1.4608 -1.2079
  505MPD2     N 7564   3.005   2.564  10.816  0.3615 -0.1784 -0.0333
  505MPD2    H5 7565   2.993   2.664  10.812  0.2817 -0.2973 -2.4630
  505MPD2    N1 7566   2.908   2.139  10.586 -0.7017 -0.1574 -0.6213
  505MPD2    H7 7567   2.872   2.095  10.503 -0.2475  0.0864 -0.9501
  506TMC3    C1 7568   2.976   1.913  10.633  0.6596  0.6992 -0.7640
  506TMC3    C2 7569   3.073   1.914  10.535 -0.8738  0.1911  0.2718
  506TMC3    C3 7570   3.183   1.832  10.556 -0.2310 -0.0574  0.2989
  506TMC3    C4 7571   2.991   1.832  10.743  0.1585  0.2855 -0.1659
  506TMC3    C5 7572   3.099   1.745  10.762 -0.1384 -0.0626  0.4762
  506TMC3    C6 7573   3.197   1.746  10.661  0.5514  0.4248 -0.0625
  506TMC3     C 7574   2.947   2.047  10.683 -0.4760  0.7250  0.0393
  506TMC3     O 7575   2.965   2.057  10.800 -0.2334 -0.6327 -0.4176
  506TMC3     H 7576   3.064   1.980  10.449  2.3372 -1.5498 -1.4144
  506TMC3    H1 7577   2.918   1.841  10.823  0.3896  2.5836 -0.2197
  506TMC3    H2 7578   3.279   1.675  10.663 -1.2589 -1.6878 -0.9968
  506TMC3    C7 7579   3.153   1.764  10.897 -0.1861  0.5238 -0.2911
  506TMC3    C8 7580   3.276   1.826  10.446  0.4665 -0.1730 -0.4811
  506TMC3    O1 7581   3.225   1.676  10.943  1.0947  0.2369  0.1851
  506TMC3    O2 7582   3.294   1.717  10.388  0.0215  0.7068 -0.8186
  507TMC3    C1 7583   3.570   3.060  15.099 -0.0830 -0.0093 -0.6549
  507TMC3    C2 7584   3.510   3.003  14.986  0.1178 -0.2368  0.2495
  507TMC3    C3 7585   3.594   2.977  14.883  0.0915  0.5802 -1.0605
  507TMC3    C4 7586   3.701   3.102  15.110 -0.0486  0.0382  0.4215
  507TMC3    C5 7587   3.771   3.084  14.996 -0.3468 -0.1615 -0.6387
  507TMC3    C6 7588   3.725   3.000  14.896 -0.4292  0.3613 -0.0661
  507TMC3     C 7589   3.494   3.058  15.219  0.0086 -0.3209 -0.3064
  507TMC3     O 7590   3.539   3.017  15.323  0.2900  0.2464  0.1587
  507TMC3     H 7591   3.407   2.969  14.981  0.3907 -0.8461 -1.1559
  507TMC3    H1 7592   3.744   3.155  15.195 -0.5988 -0.5546  1.0770
  507TMC3    H2 7593   3.785   2.977  14.809 -1.2713 -0.1038 -0.5195
  507TMC3    C7 7594   3.802   3.204  14.919  0.1408 -0.2442  1.1645
  507TMC3    C8 7595   3.537   2.981  14.746 -0.3953  0.1776  0.1917
  507TMC3    O1 7596   3.845   3.188  14.808 -0.5660 -0.0933 -0.2030
  507TMC3    O2 7597   3.422   2.941  14.746  0.3056 -0.5634  0.2136
  508MPD2     C 7598   4.712   0.572  16.065  0.8114 -0.4394 -0.2897
  508MPD2    C1 7599   4.651   0.647  16.160  0.3831  0.4026 -0.8947
  508MPD2    C2 7600   4.577   0.756  16.122  0.1614  0.1248 -0.0328
  508MPD2    C3 7601   4.584   0.805  15.992  0.3753  0.1877  0.5654
  508MPD2    C4 7602   4.652   0.727  15.900 -0.0190 -0.3822 -0.0125
  508MPD2    C5 7603   4.703   0.605  15.931  0.4769  0.1752  0.1260
  508MPD2     H 7604   4.531   0.819  16.197 -0.6105 -0.9115  0.3660
  508MPD2    H1 7605   4.653   0.757  15.796  0.4391 -1.1405 -0.2247
  508MPD2    H2 7606   0.042   0.490  16.080  1.8505  0.2521 -1.2396
  508MPD2    H3 7607   0.010   0.541  15.857 -0.0216  0.8773 -0.7874
  508MPD2     N 7608   4.523   0.930  15.970  0.1596  0.2504  0.1687
  508MPD2    H5 7609   4.501   0.976  16.058  1.0539  2.4249 -0.7542
  508MPD2    N1 7610   4.660   0.595  16.296 -0.3305 -0.1520 -0.3647
  508MPD2    H7 7611   4.722   0.517  16.317 -1.2807 -0.5859  0.8351
  509TMC3    C1 7612   4.423   1.335  15.773  0.6549  0.0958  0.6772
  509TMC3    C2 7613   4.482   1.402  15.875 -0.6832  0.0073 -0.2441
  509TMC3    C3 7614   4.541   1.326  15.973  0.2280 -0.1770 -0.4097
  509TMC3    C4 7615   4.435   1.200  15.752 -0.4409  0.2811  0.2514
  509TMC3    C5 7616   4.500   1.135  15.854  0.2828  0.7161  0.6804
  509TMC3    C6 7617   4.557   1.188  15.966 -0.6701  0.3051 -0.5045
  509TMC3     C 7618   4.377   1.414  15.666 -0.5580 -0.8821  0.5697
  509TMC3     O 7619   4.371   1.365  15.554  0.1921  0.0810  0.4896
  509TMC3     H 7620   4.480   1.510  15.880 -0.1143 -0.0640  1.6680
  509TMC3    H1 7621   4.385   1.142  15.675 -1.2073  2.3304 -0.7980
  509TMC3    H2 7622   4.610   1.144  16.050  1.2375 -1.7538 -2.7672
  509TMC3    C7 7623   4.505   0.992  15.845  0.4076 -0.3033 -0.7350
  509TMC3    C8 7624   4.590   1.386  16.090 -0.4937 -0.7416  0.1843
  509TMC3    O1 7625   4.509   0.941  15.733  0.2959 -0.3404 -0.2339
  509TMC3    O2 7626   4.594   1.321  16.194  0.4326  0.2311  0.5205
  510MPD2     C 7627   2.300   2.535  14.609  0.1886  0.0146 -0.4875
  510MPD2    C1 7628   2.348   2.442  14.703 -0.2202 -0.5391 -0.4518
  510MPD2    C2 7629   2.485   2.418  14.716  0.0336  0.0838 -0.4885
  510MPD2    C3 7630   2.581   2.464  14.629  0.2714  0.0011 -0.2436
  510MPD2    C4 7631   2.527   2.546  14.530 -0.3042  0.1451  0.9846
  510MPD2    C5 7632   2.395   2.579  14.523  0.7601  0.6643 -0.3577
  510MPD2     H 7633   2.520   2.350  14.793  0.5481  0.4244 -0.4197
  510MPD2    H1 7634   2.593   2.580  14.451 -2.1935 -0.2393 -0.7220
  510MPD2    H2 7635   2.193   2.550  14.600  0.2554  0.6101 -0.2434
  510MPD2    H3 7636   2.356   2.627  14.434 -0.3304 -0.9924 -0.7866
  510MPD2     N 7637   2.720   2.422  14.632  0.8894  0.5057 -0.6898
  510MPD2    H5 7638   2.741   2.365  14.713 -0.3817  2.3333  0.9433
  510MPD2    N1 7639   2.252   2.379  14.781 -0.0789 -0.3240 -0.0950
  510MPD2    H7 7640   2.155   2.381  14.748  0.1140 -0.4698 -0.6759
  511TMC3    C1 7641   2.152   2.265  14.951 -0.1667  0.3898 -0.3006
  511TMC3    C2 7642   2.129   2.274  15.085  0.1610 -0.4320 -0.1389
  511TMC3    C3 7643   2.045   2.184  15.145 -0.9658  0.3676  0.7553
  511TMC3    C4 7644   2.092   2.165  14.878 -0.3022  0.2754 -0.0680
  511TMC3    C5 7645   2.018   2.065  14.936  0.4292  0.0857  0.1016
  511TMC3    C6 7646   1.987   2.076  15.065 -0.4007 -0.3683 -0.1096
  511TMC3     C 7647   2.273   2.311  14.895  0.2526 -0.1315 -0.7150
  511TMC3     O 7648   2.375   2.273  14.949  0.0674  0.5603 -0.6089
  511TMC3     H 7649   2.186   2.350  15.137  0.8974 -1.2313  0.2126
  511TMC3    H1 7650   2.118   2.150  14.774  0.9975 -1.2015  0.4606
  511TMC3    H2 7651   1.908   2.019  15.111 -1.9284  2.8334  1.2346
  511TMC3    C7 7652   1.979   1.949  14.855 -0.1254  0.0148 -0.1972
  511TMC3    C8 7653   1.990   2.225  15.270 -0.4178 -0.7929  0.2204
  511TMC3    O1 7654   1.991   1.950  14.732  0.4483  0.7203  0.3141
  511TMC3    O2 7655   2.033   2.332  15.314 -0.1128 -0.7505 -0.0055
  512TMC3    C1 7656   1.027   2.186  13.312 -0.3113  0.2196 -0.1311
  512TMC3    C2 7657   1.137   2.147  13.385 -0.2604 -0.3212 -0.2892
  512TMC3    C3 7658   1.200   2.028  13.372 -0.2420 -0.6506 -0.3678
  512TMC3    C4 7659   0.967   2.095  13.226  0.0347 -1.6845 -0.2294
  512TMC3    C5 7660   1.034   1.977  13.204 -0.5699 -0.4618  0.2971
  512TMC3    C6 7661   1.148   1.943  13.276 -0.3143 -0.3935 -0.1266
  512TMC3     C 7662   0.965   2.319  13.345  1.1900 -0.6311  0.1814
  512TMC3     O 7663   1.036   2.400  13.407 -0.9044 -0.0380 -0.0518
  512TMC3     H 7664   1.181   2.223  13.448 -0.8589  0.5061 -0.8675
  512TMC3    H1 7665   0.876   2.114  13.170  0.9592  0.3774 -1.0454
  512TMC3    H2 7666   1.206   1.856  13.246  0.7313  0.4250 -0.4703
  512TMC3    C7 7667   0.996   1.897  13.083 -0.6624  0.3393 -0.0302
  512TMC3    C8 7668   1.323   1.986  13.437 -0.2693 -0.0873  0.0204
  512TMC3    O1 7669   0.930   1.959  13.002 -0.3107 -0.3318  0.3660
  512TMC3    O2 7670   1.354   1.873  13.407 -0.3795  0.3849  0.0018
  513MPD2     C 7671   2.890   1.564  13.444 -0.0884  0.4943  1.0722
  513MPD2    C1 7672   2.981   1.657  13.385  0.7273  0.6403 -0.0267
  513MPD2    C2 7673   3.031   1.755  13.471  0.0098  0.8204  0.2966
  513MPD2    C3 7674   3.005   1.766  13.605  0.1823 -0.0231 -0.0062
  513MPD2    C4 7675   2.901   1.685  13.661 -0.3041  0.2330  0.4156
  513MPD2    C5 7676   2.843   1.595  13.574  1.0349 -0.1096 -0.7469
  513MPD2     H 7677   3.106   1.822  13.430  1.7656 -1.5037 -0.2836
  513MPD2    H1 7678   2.851   1.695  13.757  1.5478  0.5947  1.3591
  513MPD2    H2 7679   2.841   1.488  13.384  0.6405 -0.1782  1.3335
  513MPD2    H3 7680   2.779   1.519  13.617 -0.4824 -0.1313 -3.0327
  513MPD2     N 7681   3.083   1.855  13.684 -0.0470 -0.1351 -0.0231
  513MPD2    H5 7682   3.159   1.898  13.633  0.6418  1.1249  2.0532
  513MPD2    N1 7683   3.023   1.645  13.250  0.5014  0.2007 -0.3004
  513MPD2    H7 7684   3.099   1.708  13.227 -0.0458  0.7975 -0.4797
  514TMC3    C1 7685   3.029   1.591  13.031 -0.2571 -0.4781  0.3697
  514TMC3    C2 7686   2.952   1.678  12.959  0.6129  0.2952 -0.4964
  514TMC3    C3 7687   3.012   1.778  12.899 -0.1147  0.1132 -0.6025
  514TMC3    C4 7688   3.165   1.616  13.048  0.5053  0.2043 -0.1211
  514TMC3    C5 7689   3.222   1.722  12.980 -0.1109 -0.2989  0.9042
  514TMC3    C6 7690   3.149   1.803  12.902 -0.0108 -0.1542  0.1869
  514TMC3     C 7691   2.968   1.563  13.154  0.0550 -0.3288  0.1670
  514TMC3     O 7692   2.871   1.486  13.160 -0.5682  0.1271 -0.5834
  514TMC3     H 7693   2.844   1.681  12.963  0.5092 -0.2826 -2.4789
  514TMC3    H1 7694   3.217   1.547  13.113 -2.5579 -0.0025  2.0639
  514TMC3    H2 7695   3.199   1.886  12.852 -0.5119  0.0642  0.0381
  514TMC3    C7 7696   3.328   1.783  13.053 -0.4966  0.0893 -0.0586
  514TMC3    C8 7697   2.934   1.851  12.803  0.1132 -0.9592 -0.2700
  514TMC3    O1 7698   3.300   1.889  13.099  0.1877  0.2225  0.6888
  514TMC3    O2 7699   2.813   1.851  12.821  0.3364  0.2444  0.6625
  515MPD2     C 7700   0.937   3.813  15.218 -0.2900  0.4681  0.1744
  515MPD2    C1 7701   0.982   3.794  15.092  0.0976  0.6855 -0.6013
  515MPD2    C2 7702   1.100   3.855  15.047  0.4057 -0.2773 -0.4248
  515MPD2    C3 7703   1.169   3.941  15.132 -0.1359 -0.6404  0.3646
  515MPD2    C4 7704   1.119   3.967  15.255  0.0830  0.1682 -0.2173
  515MPD2    C5 7705   1.005   3.902  15.299  0.5653 -0.9999 -0.5077
  515MPD2     H 7706   1.136   3.835  14.947  1.4614 -1.4597  0.1954
  515MPD2    H1 7707   1.182   4.027  15.320 -2.2840  0.8122  1.5184
  515MPD2    H2 7708   0.841   3.777  15.253 -0.1413  1.9988  2.1641
  515MPD2    H3 7709   0.961   3.915  15.397  0.2450  0.0479 -0.7893
  515MPD2     N 7710   1.297   3.997  15.104 -0.0273 -0.4275  0.0836
  515MPD2    H5 7711   1.327   4.051  15.184  0.1417 -1.1640  0.5262
  515MPD2    N1 7712   0.914   3.717  15.000  0.5631 -0.4137  0.1717
  515MPD2    H7 7713   0.946   3.732  14.905  1.3815 -2.2690  0.1545
  516TMC3    C1 7714   0.794   3.526  14.917 -0.0429  0.7728 -0.1048
  516TMC3    C2 7715   0.791   3.583  14.798 -0.2217  0.3094 -0.4662
  516TMC3    C3 7716   0.802   3.504  14.689  0.0011 -0.4758  0.3534
  516TMC3    C4 7717   0.806   3.390  14.937  0.8030  0.4705 -0.1373
  516TMC3    C5 7718   0.818   3.314  14.828 -0.7024 -0.0211  0.1206
  516TMC3    C6 7719   0.820   3.365  14.700 -0.4193 -0.1787 -0.2185
  516TMC3     C 7720   0.844   3.600  15.032  0.4847  0.1634 -0.8463
  516TMC3     O 7721   0.836   3.557  15.147  0.2214 -0.4009 -0.2005
  516TMC3     H 7722   0.775   3.689  14.781 -2.7727 -0.0928 -0.5528
  516TMC3    H1 7723   0.815   3.347  15.036 -1.1825  1.9606  0.6943
  516TMC3    H2 7724   0.839   3.300  14.616  0.1977 -0.8650  0.4522
  516TMC3    C7 7725   0.871   3.183  14.865  0.3757  0.2886  0.7460
  516TMC3    C8 7726   0.752   3.569  14.565  0.1341 -0.3177  0.4975
  516TMC3    O1 7727   0.958   3.174  14.949 -0.5269 -0.0129  0.0795
  516TMC3    O2 7728   0.662   3.648  14.584  0.1197 -0.1515 -0.5096
  517MPD2     C 7729   1.435   0.129   0.698 -0.0155  0.5332 -0.6440
  517MPD2    C1 7730   1.374   0.182   0.583 -0.6128  0.3758  0.5720
  517MPD2    C2 7731   1.324   0.311   0.586  0.5031 -0.3648  0.2448
  517MPD2    C3 7732   1.315   0.380   0.708 -0.0229  0.8106 -0.2319
  517MPD2    C4 7733   1.342   0.309   0.826  0.5885  0.3076  0.0350
  517MPD2    C5 7734   1.405   0.189   0.824 -0.4289 -0.2531 -1.3351
  517MPD2     H 7735   1.304   0.360   0.492 -2.0939 -0.0214  0.9809
  517MPD2    H1 7736   1.307   0.343   0.923 -0.9127  0.2081 -0.4713
  517MPD2    H2 7737   1.497   0.041   0.710 -1.1886 -0.0404  1.1347
  517MPD2    H3 7738   1.437   0.134   0.912  1.1273  1.8974 -0.5620
  517MPD2     N 7739   1.257   0.510   0.723  0.3764 -0.2968 -0.4069
  517MPD2    H5 7740   1.223   0.525   0.818  2.2476  0.1005  0.1991
  517MPD2    N1 7741   1.378   0.119   0.458 -0.1073  0.4520 -0.0481
  517MPD2    H7 7742   1.355   0.172   0.374  2.5386  3.6213  1.2201
  518TMC3    C1 7743   1.351   4.663   0.317 -0.2656  0.2221  0.2612
  518TMC3    C2 7744   1.274   4.550   0.303  0.3582  0.6005 -0.3081
  518TMC3    C3 7745   1.285   4.473   0.189 -0.4573  0.3613 -0.2824
  518TMC3    C4 7746   1.438   4.704   0.225 -0.8314 -0.4231 -0.5724
  518TMC3    C5 7747   1.460   4.621   0.116 -0.4576  0.2293 -0.0563
  518TMC3    C6 7748   1.384   4.503   0.095 -0.2326  0.7296  0.3496
  518TMC3     C 7749   1.374   4.717   0.454 -0.1368  0.2214  0.4323
  518TMC3     O 7750   1.342   4.641   0.545 -0.5978  0.1326 -0.1126
  518TMC3     H 7751   1.207   4.523   0.384  0.5769 -0.7284 -0.5698
  518TMC3    H1 7752   1.502   0.050   0.242 -0.2952 -0.8398 -0.4645
  518TMC3    H2 7753   1.409   4.426   0.022  1.1634  1.8252 -0.3280
  518TMC3    C7 7754   1.558   4.665   0.025 -0.2981  0.1299 -1.1840
  518TMC3    C8 7755   1.213   4.352   0.156 -0.1928  0.3795  0.0691
  518TMC3    O1 7756   1.610   0.039   0.041 -0.0985  0.1401 -0.1045
  518TMC3    O2 7757   1.243   4.296   0.056  0.0385  0.1880  0.1218
  519MPD2     C 7758   2.748   3.390  14.795  0.3863 -1.0420  0.0426
  519MPD2    C1 7759   2.639   3.416  14.726 -0.4776 -0.5985 -0.1659
  519MPD2    C2 7760   2.636   3.356  14.605  0.0062 -0.2042  0.9658
  519MPD2    C3 7761   2.737   3.278  14.556 -0.2289  0.2897 -1.2448
  519MPD2    C4 7762   2.849   3.248  14.635  0.0463  0.2796 -0.2807
  519MPD2    C5 7763   2.843   3.298  14.758  0.3210 -0.2407 -0.2085
  519MPD2     H 7764   2.539   3.359  14.555  0.5611 -3.6100 -0.2867
  519MPD2    H1 7765   2.930   3.178  14.621  1.1693  1.3328  0.8908
  519MPD2    H2 7766   2.745   3.440  14.891 -2.1131 -0.5495 -0.2756
  519MPD2    H3 7767   2.933   3.278  14.813  0.6381  0.8865 -0.3221
  519MPD2     N 7768   2.734   3.212  14.428  0.1146 -0.1188  0.1328
  519MPD2    H5 7769   2.822   3.167  14.406  0.0937  0.3007 -0.8268
  519MPD2    N1 7770   2.542   3.514  14.770  0.5184  0.3412 -1.0335
  519MPD2    H7 7771   2.567   3.577  14.845 -1.3845  1.0972 -1.0238
  520TMC3    C1 7772   2.666   3.130  14.214  0.0349  0.2348 -0.0521
  520TMC3    C2 7773   2.622   3.197  14.099 -0.2341 -0.0724 -0.1087
  520TMC3    C3 7774   2.700   3.199  13.988 -0.0190 -0.1521 -0.2548
  520TMC3    C4 7775   2.779   3.054  14.218 -0.2731  0.2223  0.0217
  520TMC3    C5 7776   2.852   3.060  14.103  0.4754  0.0852 -0.5140
  520TMC3    C6 7777   2.813   3.127  13.985  0.2338  0.4737  0.1579
  520TMC3     C 7778   2.632   3.208  14.333  0.7807 -0.0089  0.3797
  520TMC3     O 7779   2.533   3.281  14.321 -0.2002  0.5827 -0.0608
  520TMC3     H 7780   2.541   3.268  14.111  0.7180  0.8218  1.0420
  520TMC3    H1 7781   2.820   2.997  14.300  1.1390  0.1175 -0.7517
  520TMC3    H2 7782   2.873   3.130  13.895  0.7204 -2.1953  0.3970
  520TMC3    C7 7783   2.977   2.984  14.113 -0.6056  0.1128 -0.1696
  520TMC3    C8 7784   2.642   3.227  13.855  0.0491  0.8247 -0.4348
  520TMC3    O1 7785   2.985   2.884  14.179 -1.1804 -0.2515 -0.3951
  520TMC3    O2 7786   2.704   3.172  13.761 -0.6917 -0.0288 -0.3518
  521MPD2     C 7787   3.179   0.776  17.741  0.1787 -0.9039  0.0227
  521MPD2    C1 7788   3.194   0.867  17.643 -0.8124  0.3027  0.5684
  521MPD2    C2 7789   3.309   0.883  17.577 -0.0278 -0.0773 -0.3380
  521MPD2    C3 7790   3.422   0.803  17.603  0.2050 -0.5277  0.8785
  521MPD2    C4 7791   3.401   0.702  17.694 -0.3973 -0.5209  0.1108
  521MPD2    C5 7792   3.291   0.691   0.013  0.0330  1.4188  0.5969
  521MPD2     H 7793   3.318   0.961  17.503  1.4726 -1.4370 -1.5903
  521MPD2    H1 7794   3.479   0.627  17.705  1.5508  1.5669  0.6713
  521MPD2    H2 7795   3.086   0.762   0.040 -0.6874  0.1995 -1.1876
  521MPD2    H3 7796   3.294   0.621   0.096  0.9019 -1.0931 -1.5718
  521MPD2     N 7797   3.530   0.811  17.509  0.1364 -0.3497 -0.3887
  521MPD2    H5 7798   3.522   0.888  17.444  1.6310  0.5533  0.4840
  521MPD2    N1 7799   3.080   0.950  17.616  0.1639 -0.1419  0.2348
  521MPD2    H7 7800   2.997   0.909  17.657  0.2781  2.8051  3.4285
  522TMC3    C1 7801   3.751   0.749  17.427  0.1701  0.1273 -0.4526
  522TMC3    C2 7802   3.853   0.659  17.438  1.2608  0.6587  0.1940
  522TMC3    C3 7803   3.941   0.660  17.336  0.1838 -0.5903 -0.9137
  522TMC3    C4 7804   3.735   0.839  17.320  0.0282 -0.7674 -0.3701
  522TMC3    C5 7805   3.831   0.836  17.224  0.5216  0.3094 -0.5714
  522TMC3    C6 7806   3.939   0.749  17.232 -0.2609 -0.2213 -0.0131
  522TMC3     C 7807   3.646   0.742  17.529 -0.4091  0.0407 -0.4036
  522TMC3     O 7808   3.680   0.680  17.633 -0.2624  0.4352  0.1309
  522TMC3     H 7809   3.853   0.590  17.522  0.8382  0.0475 -0.3026
  522TMC3    H1 7810   3.653   0.909  17.315  0.2137 -0.6155 -1.1610
  522TMC3    H2 7811   4.000   0.742  17.143  0.9108 -0.7920  0.8395
  522TMC3    C7 7812   3.816   0.922  17.099  0.0658 -0.3258  0.3746
  522TMC3    C8 7813   4.067   0.581  17.332 -0.2740 -0.5285  0.3238
  522TMC3    O1 7814   3.923   0.944  17.050 -0.1552 -0.0822 -0.0079
  522TMC3    O2 7815   4.071   0.484  17.408  0.0971 -0.1733  0.4030
  523MPD2     C 7816   1.296   1.659  10.575  0.3585  0.4086 -0.1607
  523MPD2    C1 7817   1.254   1.549  10.498  0.3031 -0.4298  0.8329
  523MPD2    C2 7818   1.189   1.576  10.379  0.7628 -0.7135 -0.0215
  523MPD2    C3 7819   1.167   1.707  10.342 -1.0107 -0.5962  0.4597
  523MPD2    C4 7820   1.199   1.813  10.429  0.3270  0.2548  0.1015
  523MPD2    C5 7821   1.264   1.787  10.546  0.7956 -0.4776  0.2762
  523MPD2     H 7822   1.175   1.499  10.304 -2.0736  0.2918 -0.5463
  523MPD2    H1 7823   1.181   1.917  10.404 -0.7913  0.1208  0.3446
  523MPD2    H2 7824   1.352   1.642  10.666  0.8891 -1.9110 -0.9399
  523MPD2    H3 7825   1.306   1.861  10.613 -1.5635 -0.0194  1.2426
  523MPD2     N 7826   1.135   1.755  10.210  0.5333 -0.4095  0.0802
  523MPD2    H5 7827   1.140   1.855  10.195  0.4569 -0.2847  0.9070
  523MPD2    N1 7828   1.295   1.424  10.546  0.5990 -0.0419  0.3474
  523MPD2    H7 7829   1.345   1.422  10.633  1.0038 -1.2157  0.0823
  524TMC3    C1 7830   1.070   1.744   9.979 -0.2464  0.0757 -0.2876
  524TMC3    C2 7831   1.065   1.663   9.870  0.2560  0.6488 -0.3356
  524TMC3    C3 7832   1.022   1.721   9.753  0.9653  0.2564 -0.2700
  524TMC3    C4 7833   1.025   1.874   9.986  0.8007 -0.6582 -0.3140
  524TMC3    C5 7834   0.988   1.927   9.863 -1.1020 -0.2534 -0.4084
  524TMC3    C6 7835   0.996   1.854   9.751 -0.8679  0.3609  0.0549
  524TMC3     C 7836   1.099   1.675  10.104  0.0139 -0.3459  0.2280
  524TMC3     O 7837   1.124   1.554  10.093  0.1058  0.6182  0.9319
  524TMC3     H 7838   1.079   1.556   9.874 -0.8273  0.5755  1.1138
  524TMC3    H1 7839   1.007   1.931  10.076  1.9112  0.0786 -0.5514
  524TMC3    H2 7840   1.003   1.913   9.661  0.3482  2.2266  1.3720
  524TMC3    C7 7841   0.982   2.072   9.855 -0.1541 -0.0734  0.2790
  524TMC3    C8 7842   1.061   1.661   9.627  0.7808 -0.7627  0.0103
  524TMC3    O1 7843   1.044   2.131   9.939  0.1451  0.3758 -0.3821
  524TMC3    O2 7844   1.014   1.717   9.527  0.1960  0.1463 -0.9100
  525MPD2     C 7845   3.887   2.758  14.616  0.3361 -0.2750 -0.1713
  525MPD2    C1 7846   4.020   2.754  14.658  0.0702 -0.8330 -0.0540
  525MPD2    C2 7847   4.088   2.872  14.665  0.1072  0.2610  0.1670
  525MPD2    C3 7848   4.031   2.994  14.634  0.2845 -0.1922 -0.2643
  525MPD2    C4 7849   3.901   2.984  14.571 -0.5694 -0.4025  0.0774
  525MPD2    C5 7850   3.833   2.868  14.550  0.8727 -0.4808  0.5425
  525MPD2     H 7851   4.187   2.863  14.710 -0.1085 -0.5680  0.4840
  525MPD2    H1 7852   3.838   3.069  14.544  1.8629  1.6745  0.9771
  525MPD2    H2 7853   3.826   2.668  14.612 -0.9523  0.5891  0.2449
  525MPD2    H3 7854   3.730   2.860  14.515  0.3388 -0.1429  2.0174
  525MPD2     N 7855   4.088   3.117  14.673  0.1344 -0.4332 -0.2781
  525MPD2    H5 7856   4.030   3.200  14.675  0.6850 -0.0471 -0.3248
  525MPD2    N1 7857   4.084   2.637  14.714 -0.7954 -0.5809 -0.0860
  525MPD2    H7 7858   4.182   2.635  14.742 -0.9901  1.1128  0.7236
  526TMC3    C1 7859   4.081   2.448  14.858  0.5538 -0.6705  0.5344
  526TMC3    C2 7860   4.032   2.429  14.986  0.2204  0.6011 -0.1961
  526TMC3    C3 7861   4.104   2.363  15.082  0.0978  0.0744  0.5931
  526TMC3    C4 7862   4.205   2.420  14.827 -0.1008 -0.3701  0.5724
  526TMC3    C5 7863   4.266   2.338  14.914  0.1426 -0.3257  0.5430
  526TMC3    C6 7864   4.226   2.309  15.046  0.1024  0.1613  0.2081
  526TMC3     C 7865   4.005   2.536  14.776  0.9224  0.4727  0.0160
  526TMC3     O 7866   3.887   2.527  14.791  0.4126  0.4304 -0.0595
  526TMC3     H 7867   3.931   2.465  15.006 -0.3437 -0.2848 -1.4774
  526TMC3    H1 7868   4.232   2.408  14.723  0.6333 -0.9737  0.8273
  526TMC3    H2 7869   4.283   2.247  15.115 -1.4876 -1.2438  0.2700
  526TMC3    C7 7870   4.393   2.296  14.883 -0.3341 -0.4642 -0.3838
  526TMC3    C8 7871   4.090   2.407  15.226 -0.1037 -0.2694 -0.3374
  526TMC3    O1 7872   4.436   2.191  14.927 -0.3770  0.6126 -0.6031
  526TMC3    O2 7873   4.192   2.433  15.291  0.1763  0.0328 -0.4343
  527MPD2     C 7874   1.293   0.053   1.648  0.0319 -0.0990 -0.5265
  527MPD2    C1 7875   1.272   0.064   1.510 -0.2783  0.2243  0.3464
  527MPD2    C2 7876   1.381   0.084   1.429 -0.0673 -0.3869 -0.7155
  527MPD2    C3 7877   1.508   0.067   1.478  0.5594 -0.2739  0.8710
  527MPD2    C4 7878   1.528   0.037   1.610 -0.1121 -0.1368 -0.1218
  527MPD2    C5 7879   1.422   0.033   1.693  0.1394  0.1348 -0.3215
  527MPD2     H 7880   1.366   0.097   1.323  1.1691  0.9050 -0.7266
  527MPD2    H1 7881   1.630   0.022   1.643  0.8562  3.3801 -1.4245
  527MPD2    H2 7882   1.203   0.052   1.709 -0.8863  0.3209 -1.8728
  527MPD2    H3 7883   1.440   0.012   1.797 -3.5493 -0.4086  0.2062
  527MPD2     N 7884   1.612   0.090   1.386 -0.2512  0.1328  0.3496
  527MPD2    H5 7885   1.589   0.099   1.288 -0.7882 -0.1459  0.4494
  527MPD2    N1 7886   1.146   0.061   1.446 -0.3053 -0.6617 -0.7062
  527MPD2    H7 7887   1.136   0.078   1.346 -0.8137  0.2442 -0.5044
  528TMC3    C1 7888   0.925   0.088   1.411  0.0482  0.0489 -0.1703
  528TMC3    C2 7889   0.933   0.215   1.362 -0.4963 -0.7058 -0.5963
  528TMC3    C3 7890   0.819   0.273   1.322 -0.0532  0.0007 -0.0150
  528TMC3    C4 7891   0.810   0.017   1.410 -0.0467  0.3887  0.8881
  528TMC3    C5 7892   0.696   0.077   1.357 -0.0241  0.6065  0.2897
  528TMC3    C6 7893   0.695   0.207   1.324  0.1395  0.4364  0.5939
  528TMC3     C 7894   1.025   0.062   1.508 -0.2368  0.3410 -0.3292
  528TMC3     O 7895   0.995   0.022   1.617 -0.3346 -0.0376 -0.2907
  528TMC3     H 7896   1.023   0.272   1.384 -0.3740 -2.0035  2.2697
  528TMC3    H1 7897   0.818   4.654   1.444  0.3140  0.5285  1.2216
  528TMC3    H2 7898   0.603   0.255   1.292 -1.0430 -0.7362  2.2701
  528TMC3    C7 7899   0.567   0.001   1.339  0.1865  0.3336 -0.3813
  528TMC3    C8 7900   0.816   0.417   1.319  0.0901  0.2773 -0.7286
  528TMC3    O1 7901   0.467   0.059   1.303 -0.3156  0.2934  0.1536
  528TMC3    O2 7902   0.929   0.467   1.309 -0.0827  0.0720  0.0231
  529MPD2     C 7903   3.979   3.570   0.637 -0.6368 -0.0188  0.3165
  529MPD2    C1 7904   4.105   3.546   0.593  0.5234 -0.1901  0.6015
  529MPD2    C2 7905   4.161   3.626   0.493 -0.2167 -0.4630 -0.1363
  529MPD2    C3 7906   4.088   3.725   0.441  0.0903  0.3288  0.2969
  529MPD2    C4 7907   3.967   3.755   0.498 -0.0457 -0.1549  0.4012
  529MPD2    C5 7908   3.914   3.670   0.588  0.3810 -0.0444  0.6646
  529MPD2     H 7909   4.259   3.605   0.453  0.0676  0.9224 -0.1583
  529MPD2    H1 7910   3.912   3.842   0.464 -2.0727 -0.7803  2.0365
  529MPD2    H2 7911   3.934   3.508   0.715 -0.6054 -2.2661 -1.4620
  529MPD2    H3 7912   3.813   3.684   0.623 -0.7866  1.7648 -3.4115
  529MPD2     N 7913   4.135   3.821   0.348 -0.3177 -0.6786  0.3487
  529MPD2    H5 7914   4.076   3.902   0.332  0.1354 -0.3988  0.0582
  529MPD2    N1 7915   4.178   3.421   0.624 -0.0022 -0.0171 -0.0124
  529MPD2    H7 7916   4.273   3.419   0.588  0.3332  0.5627  0.8410
  530TMC3    C1 7917   4.221   3.203   0.698  0.0800 -0.3309  0.4755
  530TMC3    C2 7918   4.327   3.195   0.609 -0.3956 -0.4043 -0.1549
  530TMC3    C3 7919   4.423   3.101   0.615 -0.7622  0.0758 -0.3872
  530TMC3    C4 7920   4.209   3.115   0.798 -0.2693  0.5796 -0.2199
  530TMC3    C5 7921   4.302   3.017   0.799 -1.0546 -0.0437  0.3028
  530TMC3    C6 7922   4.401   3.003   0.709 -0.3425 -0.9611  0.0831
  530TMC3     C 7923   4.127   3.313   0.692  0.5994  0.0429  0.0104
  530TMC3     O 7924   4.027   3.294   0.755 -0.3618  0.6980  0.4654
  530TMC3     H 7925   4.340   3.266   0.528  2.3197  0.4897  1.0614
  530TMC3    H1 7926   4.129   3.115   0.871 -0.1119  1.1502 -0.0483
  530TMC3    H2 7927   4.462   2.914   0.724  0.9870  0.2551  1.8945
  530TMC3    C7 7928   4.351   2.986   0.934 -0.2101  0.6128  0.0888
  530TMC3    C8 7929   4.554   3.150   0.609 -0.2045 -0.5133 -0.2692
  530TMC3    O1 7930   4.398   2.875   0.968 -0.0570  0.0387  0.4802
  530TMC3    O2 7931   4.582   3.247   0.535  0.1917  0.0819  0.1967
  531MPD2     C 7932   3.625   1.663  13.460 -0.2139  0.5733  0.1210
  531MPD2    C1 7933   3.523   1.754  13.449 -0.0367 -0.1281 -0.3065
  531MPD2    C2 7934   3.459   1.764  13.327 -0.5160  0.0064 -0.1177
  531MPD2    C3 7935   3.496   1.685  13.218  0.3472  0.5858  0.3027
  531MPD2    C4 7936   3.607   1.603  13.222  0.1398  0.2774 -0.0454
  531MPD2    C5 7937   3.668   1.598  13.347  0.0657 -0.8462 -0.3936
  531MPD2     H 7938   3.370   1.825  13.335 -2.2263 -2.1615 -2.5234
  531MPD2    H1 7939   3.643   1.543  13.140 -0.5459 -1.8287  1.2162
  531MPD2    H2 7940   3.671   1.644  13.556 -0.3876  0.4127  0.1732
  531MPD2    H3 7941   3.749   1.528  13.365  1.9857  0.7685 -2.7040
  531MPD2     N 7942   3.424   1.689  13.089  0.6129  0.7954  0.1203
  531MPD2    H5 7943   3.445   1.618  13.020 -1.5101  1.3072 -1.0686
  531MPD2    N1 7944   3.501   1.832  13.558 -0.7218  0.1150  0.2190
  531MPD2    H7 7945   3.549   1.795  13.639  0.3442  0.0065 -0.4627
  532TMC3    C1 7946   3.395   1.975  13.716  0.3853 -0.3901  0.0100
  532TMC3    C2 7947   3.267   2.015  13.750  0.2088 -0.4707  0.4479
  532TMC3    C3 7948   3.201   1.943  13.850 -0.5582 -0.2168 -0.4570
  532TMC3    C4 7949   3.471   1.918  13.813 -0.5092  0.6424  0.0943
  532TMC3    C5 7950   3.414   1.873  13.929  0.0290 -0.0025 -0.2807
  532TMC3    C6 7951   3.278   1.870  13.942  0.0770  0.0075 -0.1266
  532TMC3     C 7952   3.407   1.925  13.578  0.1616 -0.2303 -0.0818
  532TMC3     O 7953   3.330   1.977  13.501  0.1011 -0.9455 -0.1639
  532TMC3     H 7954   3.206   2.068  13.678  0.4681  0.1457  0.6799
  532TMC3    H1 7955   3.574   1.889  13.799 -0.6322 -0.4063  1.3678
  532TMC3    H2 7956   3.232   1.821  14.027 -1.5983  0.0702 -1.0037
  532TMC3    C7 7957   3.483   1.818  14.043 -0.0572 -0.4915 -0.5932
  532TMC3    C8 7958   3.073   1.885  13.820  0.3269  0.4241  0.3884
  532TMC3    O1 7959   3.425   1.813  14.150 -0.2448 -0.4775 -0.1625
  532TMC3    O2 7960   2.999   1.843  13.908 -0.5453 -0.2011  0.4966
  533TMC3    C1 7961   4.229   3.233  14.804 -0.3200  0.1202 -0.3635
  533TMC3    C2 7962   4.347   3.309  14.808 -0.0124 -0.4397 -1.0633
  533TMC3    C3 7963   4.374   3.368  14.928  0.8978 -0.1712  0.0801
  533TMC3    C4 7964   4.141   3.228  14.907 -0.8115  0.2999 -0.1443
  533TMC3    C5 7965   4.169   3.297  15.017  0.3680 -1.1123  0.1049
  533TMC3    C6 7966   4.287   3.376  15.027 -0.0518  0.4608 -0.0609
  533TMC3     C 7967   4.218   3.129  14.708  0.4945 -0.6762  0.3375
  533TMC3     O 7968   4.323   3.082  14.668 -0.4433 -0.3836 -0.0262
  533TMC3     H 7969   4.421   3.314  14.729  0.5826  1.3437 -0.3953
  533TMC3    H1 7970   4.070   3.147  14.916  0.0260 -0.3330  0.7605
  533TMC3    H2 7971   4.314   3.437  15.113  0.6156 -1.0330  0.8091
  533TMC3    C7 7972   4.090   3.278  15.137  0.2790  0.0934  0.4670
  533TMC3    C8 7973   4.502   3.439  14.941  0.2830 -0.3799  0.2892
  533TMC3    O1 7974   4.032   3.172  15.141 -0.0278  0.2155  0.2618
  533TMC3    O2 7975   4.559   3.457  15.050  0.4413  0.2255 -0.2419
  534MPD2     C 7976   2.461   3.675   0.897  0.1028  0.6032  0.0915
  534MPD2    C1 7977   2.362   3.745   0.954 -0.2763  0.4283  0.2560
  534MPD2    C2 7978   2.238   3.682   0.977  0.1445  0.4094 -0.5073
  534MPD2    C3 7979   2.219   3.554   0.933  0.4886  0.2856 -0.6446
  534MPD2    C4 7980   2.316   3.482   0.859 -0.0677 -0.0568  1.2066
  534MPD2    C5 7981   2.434   3.548   0.854 -0.2279 -0.6471  0.1518
  534MPD2     H 7982   2.159   3.739   1.025 -0.6319  1.0029 -2.5146
  534MPD2    H1 7983   2.304   3.375   0.842 -2.1252  0.4825 -0.6681
  534MPD2    H2 7984   2.563   3.710   0.888  0.3961  0.2626  2.1202
  534MPD2    H3 7985   2.519   3.496   0.811 -0.4617  0.1652 -1.2837
  534MPD2     N 7986   2.084   3.491   0.942 -0.3218  0.1588  0.2456
  534MPD2    H5 7987   2.078   3.399   0.900  2.1381 -0.2298  0.7266
  534MPD2    N1 7988   2.374   3.884   0.994 -0.3905  0.2192 -0.7003
  534MPD2    H7 7989   2.291   3.934   1.024  0.0012  0.3342  0.1899
  535TMC3    C1 7990   1.861   3.461   0.984  0.2109 -0.6208  0.0649
  535TMC3    C2 7991   1.756   3.527   1.041 -0.0184  0.3867 -0.2856
  535TMC3    C3 7992   1.644   3.546   0.959 -0.7182 -0.5853 -0.4637
  535TMC3    C4 7993   1.850   3.415   0.854  0.4231 -0.2750 -0.1996
  535TMC3    C5 7994   1.742   3.453   0.776  0.3349 -0.3694 -0.2625
  535TMC3    C6 7995   1.637   3.517   0.830  0.5169 -0.4025  0.1431
  535TMC3     C 7996   1.971   3.542   1.002 -0.4338 -0.4261  0.1344
  535TMC3     O 7997   1.954   3.652   1.059  0.3274 -0.1535 -0.4557
  535TMC3     H 7998   1.756   3.545   1.148 -0.3782 -0.3507 -0.1666
  535TMC3    H1 7999   1.936   3.377   0.800  1.1245 -0.2977  0.9216
  535TMC3    H2 8000   1.554   3.549   0.767  0.0871 -1.0196  0.3981
  535TMC3    C7 8001   1.772   3.469   0.635 -0.4824  0.6543 -0.3019
  535TMC3    C8 8002   1.513   3.571   1.018  0.3422 -0.0014 -0.4586
  535TMC3    O1 8003   1.830   3.375   0.581  0.2310  0.1460  0.0033
  535TMC3    O2 8004   1.421   3.518   0.959  0.1960  0.6394 -0.6702
  536MPD2     C 8005   0.728   2.466  16.320 -0.3844 -0.2013  0.2669
  536MPD2    C1 8006   0.606   2.425  16.366 -0.4921  0.4872  0.0362
  536MPD2    C2 8007   0.503   2.449  16.279 -0.0280  1.0206  0.5105
  536MPD2    C3 8008   0.526   2.501  16.151  0.2664 -0.2980  0.8467
  536MPD2    C4 8009   0.655   2.531  16.112 -0.3440  0.3167  0.0628
  536MPD2    C5 8010   0.761   2.507  16.192  0.3167 -0.2671  1.0335
  536MPD2     H 8011   0.404   2.419  16.310 -0.1202  2.0548  1.1955
  536MPD2    H1 8012   0.679   2.563  16.011  0.6345 -1.1919 -0.1926
  536MPD2    H2 8013   0.810   2.449  16.389 -0.3209  0.6080  0.3891
  536MPD2    H3 8014   0.865   2.523  16.168 -0.2056  0.0958 -1.0340
  536MPD2     N 8015   0.419   2.536  16.057  0.0922  0.3842  0.1438
  536MPD2    H5 8016   0.453   2.589  15.978  1.6077  0.6272  0.9577
  536MPD2    N1 8017   0.595   2.377  16.492  0.5138 -0.6157  0.4740
  536MPD2    H7 8018   0.681   2.384  16.545  1.0573 -2.9187 -0.1250
  537TMC3    C1 8019   0.502   2.268  16.675 -0.8094 -0.0903  0.5447
  537TMC3    C2 8020   0.543   2.360  16.765 -0.0630  0.1669  0.1559
  537TMC3    C3 8021   0.559   2.329  16.899  0.0651 -0.4159 -0.2828
  537TMC3    C4 8022   0.469   2.151  16.711 -0.0018  0.1822  0.0800
  537TMC3    C5 8023   0.480   2.118  16.845  0.3810 -0.4246 -0.0511
  537TMC3    C6 8024   0.530   2.200  16.941  0.1795  0.2318 -0.1615
  537TMC3     C 8025   0.494   2.300  16.536  0.3240  0.3913 -0.4552
  537TMC3     O 8026   0.405   2.250  16.467  0.0275 -0.3842  0.4229
  537TMC3     H 8027   0.565   2.461  16.734 -0.8375  1.0410  2.4338
  537TMC3    H1 8028   0.446   2.077  16.636  0.9665  0.8763 -0.8999
  537TMC3    H2 8029   0.538   2.178  17.047 -1.1738 -0.7226 -0.2609
  537TMC3    C7 8030   0.415   1.995  16.875 -0.3734 -0.3436  0.4563
  537TMC3    C8 8031   0.595   2.435  16.988  0.9432  0.1011 -0.1460
  537TMC3    O1 8032   0.338   1.949  16.791 -0.2837  0.1346 -0.0894
  537TMC3    O2 8033   0.617   2.406  17.102  0.7134  0.2043  0.2498
  538TMC3    C1 8034   1.986   1.186  11.698 -0.1860 -0.2937 -0.9035
  538TMC3    C2 8035   2.041   1.073  11.640 -0.0201  0.0200  0.3061
  538TMC3    C3 8036   2.074   1.086  11.507  0.1424  0.3704 -0.2286
  538TMC3    C4 8037   1.976   1.305  11.635  0.1885  0.9578 -0.2367
  538TMC3    C5 8038   1.991   1.310  11.497 -0.2654 -0.0702  0.4119
  538TMC3    C6 8039   2.042   1.199  11.430  0.6601  0.3079 -0.3797
  538TMC3     C 8040   1.923   1.185  11.822 -0.2861 -0.7186  0.4366
  538TMC3     O 8041   1.837   1.267  11.851 -0.7364 -0.0042  0.7299
  538TMC3     H 8042   2.061   0.984  11.699  0.9913  0.6153  0.8791
  538TMC3    H1 8043   1.922   1.385  11.685  0.5444  0.1732  1.3861
  538TMC3    H2 8044   2.053   1.199  11.322  1.2814 -1.3118 -0.3287
  538TMC3    C7 8045   1.891   1.390  11.424  0.7521  0.9270 -0.2867
  538TMC3    C8 8046   2.111   0.961  11.443 -0.8937 -0.6065 -0.0514
  538TMC3    O1 8047   1.813   1.450  11.495 -0.0141 -0.0543  0.9487
  538TMC3    O2 8048   2.088   0.862  11.506 -0.0511 -0.0631 -0.1095
  539MPD2     C 8049   2.147   0.462  11.933 -0.3177 -0.4076 -1.0318
  539MPD2    C1 8050   2.047   0.420  11.849  0.0586  0.0633 -0.2098
  539MPD2    C2 8051   1.949   0.507  11.804  0.4284 -0.2152 -0.1204
  539MPD2    C3 8052   1.947   0.630  11.859 -0.2940  0.0111 -0.1234
  539MPD2    C4 8053   2.036   0.666  11.956  0.4703 -0.5962  0.2775
  539MPD2    C5 8054   2.130   0.578  12.000 -0.0250 -0.4333 -0.5164
  539MPD2     H 8055   1.874   0.483  11.730 -0.0486  0.1616  0.2414
  539MPD2    H1 8056   2.020   0.764  12.001  1.9408 -0.4855  0.5681
  539MPD2    H2 8057   2.214   0.389  11.977  0.3015  0.2649 -0.8709
  539MPD2    H3 8058   2.192   0.600  12.086 -1.5687  4.0810 -0.5545
  539MPD2     N 8059   1.855   0.735  11.816 -0.4295 -0.0280  0.0683
  539MPD2    H5 8060   1.871   0.824  11.861 -1.9430 -0.7260  1.9807
  539MPD2    N1 8061   2.052   0.288  11.813  0.1138  0.6888  0.1208
  539MPD2    H7 8062   2.144   0.245  11.817 -1.5142 -2.7750  1.0823
  540TMC3    C1 8063   1.718   0.875  11.693  0.3374 -0.1145  0.4759
  540TMC3    C2 8064   1.687   0.919  11.570 -0.3596 -0.0619 -0.0215
  540TMC3    C3 8065   1.614   1.039  11.572 -0.3509 -0.2530 -0.2204
  540TMC3    C4 8066   1.676   0.936  11.809  0.4891 -0.3858 -0.3111
  540TMC3    C5 8067   1.606   1.055  11.806  0.2221  0.0489  0.5470
  540TMC3    C6 8068   1.573   1.110  11.686  0.5807 -0.3928 -0.2746
  540TMC3     C 8069   1.783   0.743  11.699 -0.3754 -0.1999 -0.1348
  540TMC3     O 8070   1.759   0.662  11.607 -0.3296  0.1800  0.2691
  540TMC3     H 8071   1.728   0.868  11.484 -1.7221  1.4029 -1.5421
  540TMC3    H1 8072   1.678   0.879  11.902 -0.1072 -0.9035 -0.6148
  540TMC3    H2 8073   1.498   1.187  11.673 -0.5939 -1.6217 -0.7960
  540TMC3    C7 8074   1.502   1.062  11.910  0.0277 -0.3462 -0.3409
  540TMC3    C8 8075   1.560   1.080  11.446  0.2828 -0.2548  0.3288
  540TMC3    O1 8076   1.480   0.964  11.985 -0.0757 -0.0914 -0.0959
  540TMC3    O2 8077   1.531   1.196  11.434  0.4257  0.6849  0.1521
  541MPD2     C 8078   4.371   1.816  13.814  0.6733  0.2285  0.0944
  541MPD2    C1 8079   4.467   1.769  13.731  0.5084 -0.3713 -0.0935
  541MPD2    C2 8080   4.497   1.838  13.610  0.1486  0.0269 -0.9852
  541MPD2    C3 8081   4.425   1.951  13.578 -0.3488 -0.0751 -0.1024
  541MPD2    C4 8082   4.326   1.989  13.665 -0.1405  0.4336 -0.4957
  541MPD2    C5 8083   4.298   1.922  13.779 -0.5876  0.0598 -0.0112
  541MPD2     H 8084   4.581   1.801  13.552  0.1663 -0.4824 -0.6240
  541MPD2    H1 8085   4.257   2.068  13.638 -0.3797  0.0724 -0.9197
  541MPD2    H2 8086   4.353   1.767  13.909 -0.2107 -3.6477 -2.0430
  541MPD2    H3 8087   4.225   1.960  13.850  1.1243  2.6437  0.3897
  541MPD2     N 8088   4.437   2.029  13.461 -0.4884 -0.7749  0.4226
  541MPD2    H5 8089   4.376   2.111  13.462  2.4750  1.4396  0.3869
  541MPD2    N1 8090   4.530   1.643  13.765 -0.0039 -0.0103  0.1390
  541MPD2    H7 8091   4.485   1.582  13.832 -0.4614 -1.6999 -1.6868
  542TMC3    C1 8092   4.499   2.075  13.228  0.0095 -0.3108 -0.2910
  542TMC3    C2 8093   4.541   2.006  13.115  0.9057  0.3220  0.1012
  542TMC3    C3 8094   4.496   2.064  12.999 -0.1795  0.1052 -0.5560
  542TMC3    C4 8095   4.426   2.186  13.226  0.5448 -0.4017  0.2342
  542TMC3    C5 8096   4.375   2.231  13.108  0.8405  0.1603  0.2704
  542TMC3    C6 8097   4.414   2.174  12.988 -0.5329  0.2536 -1.0171
  542TMC3     C 8098   4.514   1.998  13.348 -0.2784  0.0234  0.1531
  542TMC3     O 8099   4.589   1.900  13.338 -0.1824 -0.6938  0.5307
  542TMC3     H 8100   4.613   1.925  13.124  1.5360  0.9913  1.0874
  542TMC3    H1 8101   4.395   2.239  13.315  1.8202  3.5396 -1.6695
  542TMC3    H2 8102   4.384   2.209  12.889 -0.9601 -0.5801 -1.1801
  542TMC3    C7 8103   4.273   2.340  13.106  1.0047 -1.5839  0.1149
  542TMC3    C8 8104   4.538   2.009  12.865 -0.0093 -0.2162  0.1175
  542TMC3    O1 8105   4.266   2.411  13.208  0.3215 -0.1050  0.3179
  542TMC3    O2 8106   4.512   2.075  12.765  0.1959  0.3008 -0.2532
  543TMC3    C1 8107   4.187   3.473  17.473 -0.1320 -0.6091 -0.4291
  543TMC3    C2 8108   4.200   3.351  17.526  0.5672 -0.5316  0.4191
  543TMC3    C3 8109   4.124   3.323  17.638 -0.3228  0.0099 -0.1343
  543TMC3    C4 8110   4.122   3.580  17.534 -0.1828  0.7206 -0.5031
  543TMC3    C5 8111   4.064   3.551  17.653 -0.3974  0.7916 -0.1030
  543TMC3    C6 8112   4.051   3.421  17.701  0.6063  0.1058  0.1522
  543TMC3     C 8113   4.201   3.481  17.331 -0.0114  0.2325  0.0457
  543TMC3     O 8114   4.237   3.373  17.284  0.2545 -0.1005 -0.2534
  543TMC3     H 8115   4.262   3.275  17.480 -1.7374 -1.6090 -0.8736
  543TMC3    H1 8116   4.122   3.681  17.495  0.4722  1.0147  0.2414
  543TMC3    H2 8117   4.010   3.401   0.043  2.1721  1.1508  1.0201
  543TMC3    C7 8118   3.997   3.658  17.717 -0.2433  0.4598  0.3020
  543TMC3    C8 8119   4.126   3.186  17.693  0.3278  0.1435 -0.0878
  543TMC3    O1 8120   4.032   3.771  17.677  0.1320  0.0516 -0.0812
  543TMC3    O2 8121   4.225   3.128  17.647  0.1681  0.2734  0.1531
  544MPD2     C 8122   3.912   2.762   0.130 -0.5521 -0.4799 -0.3522
  544MPD2    C1 8123   4.028   2.773   0.062  0.2718  0.0170  0.1958
  544MPD2    C2 8124   4.060   2.899   0.021  0.4907  0.0653 -1.0274
  544MPD2    C3 8125   3.983   3.014   0.044  0.2827  0.2729 -0.0794
  544MPD2    C4 8126   3.872   3.003   0.122  0.1041 -0.3844 -0.2630
  544MPD2    C5 8127   3.833   2.874   0.161  0.8791  0.5511  0.2129
  544MPD2     H 8128   4.158   2.920  17.734 -0.1378 -0.2838 -2.6422
  544MPD2    H1 8129   3.809   3.089   0.141  0.3159 -0.8418  2.4799
  544MPD2    H2 8130   3.880   2.662   0.155  1.4727 -1.0813 -0.1004
  544MPD2    H3 8131   3.749   2.861   0.229  1.0614 -2.0402 -0.0476
  544MPD2     N 8132   4.010   3.149   0.010  0.4965  0.1537  0.1900
  544MPD2    H5 8133   3.930   3.208   0.027  1.6025  1.3280  1.2060
  544MPD2    N1 8134   4.112   2.665   0.032 -0.3211 -0.2764 -0.5066
  544MPD2    H7 8135   4.083   2.576   0.071  1.1766 -0.3824  0.3696
  545TMC3    C1 8136   4.236   2.529  17.642 -0.0253 -0.0462  0.4788
  545TMC3    C2 8137   4.265   2.502  17.511  0.0738  0.1016  0.1534
  545TMC3    C3 8138   4.273   2.369  17.470 -0.0307  0.6602 -0.5003
  545TMC3    C4 8139   4.225   2.427  17.738  0.1848 -0.8477  0.0846
  545TMC3    C5 8140   4.240   2.297  17.696  0.8108 -0.0991 -0.4057
  545TMC3    C6 8141   4.255   2.269  17.562 -0.2401  0.2285  0.1322
  545TMC3     C 8142   4.209   2.663  17.684 -0.5570 -0.1932  0.1045
  545TMC3     O 8143   4.255   2.755  17.617 -0.2939  0.4737  0.0795
  545TMC3     H 8144   4.265   2.577  17.432  0.5738  0.1928  0.2406
  545TMC3    H1 8145   4.229   2.454   0.088 -0.6176  0.7396 -0.2999
  545TMC3    H2 8146   4.234   2.166  17.535  2.1566 -0.1159 -0.3987
  545TMC3    C7 8147   4.182   2.197   0.025 -0.1607  0.1956  0.0314
  545TMC3    C8 8148   4.303   2.347  17.334  0.4231  0.0158  0.6887
  545TMC3    O1 8149   4.114   2.234   0.117  0.1113 -0.1822  0.0822
  545TMC3    O2 8150   4.323   2.444  17.258  0.1225 -0.2092  0.2847
  546MPD2     C 8151   0.749   2.905  17.721  0.4651 -0.5138 -0.2746
  546MPD2    C1 8152   0.701   2.978  17.606 -0.0265  0.0701 -0.1557
  546MPD2    C2 8153   0.749   3.105  17.588 -0.2065  0.0786  0.4772
  546MPD2    C3 8154   0.849   3.157  17.671 -0.2357  0.4935  0.2107
  546MPD2    C4 8155   0.884   3.083   0.020 -0.1907  0.0679  0.8492
  546MPD2    C5 8156   0.832   2.963   0.064  0.7055 -0.0697 -0.2135
  546MPD2     H 8157   0.720   3.161  17.500 -1.4449 -1.5326 -0.1335
  546MPD2    H1 8158   0.963   3.112   0.089  1.2022  0.9517 -1.1223
  546MPD2    H2 8159   0.699   2.811  17.744  3.2397 -2.0488 -0.4704
  546MPD2    H3 8160   0.857   2.908   0.153 -3.2564 -0.4633  0.6699
  546MPD2     N 8161   0.887   3.295  17.660  0.1543 -0.2326 -0.6361
  546MPD2    H5 8162   0.941   3.337  17.734 -3.3111  2.0443  0.5814
  546MPD2    N1 8163   0.613   2.914  17.511  0.3549  1.0146  0.6603
  546MPD2    H7 8164   0.572   2.824  17.533  1.3375  0.3694 -0.1602
  547TMC3    C1 8165   0.472   2.885  17.329  0.1184 -0.2310 -0.9161
  547TMC3    C2 8166   0.401   2.949  17.237 -0.5220  0.0037  0.6201
  547TMC3    C3 8167   0.323   2.866  17.157 -0.3312 -0.2912 -0.5943
  547TMC3    C4 8168   0.469   2.749  17.351 -0.4171 -0.3838 -0.6153
  547TMC3    C5 8169   0.386   2.676  17.279  0.3723  0.1539  0.2705
  547TMC3    C6 8170   0.311   2.730  17.179 -0.0403  0.0361 -0.6153
  547TMC3     C 8171   0.561   2.973  17.400  0.3408  0.1412  0.4750
  547TMC3     O 8172   0.591   3.077  17.338 -0.2323  0.3743  0.4128
  547TMC3     H 8173   0.400   3.057  17.225 -3.6049 -0.0798  0.0350
  547TMC3    H1 8174   0.531   2.707  17.430 -2.0324 -0.8454  0.4095
  547TMC3    H2 8175   0.240   2.674  17.118 -0.6536  1.1451 -0.9148
  547TMC3    C7 8176   0.377   2.537  17.318 -0.3732  0.0150  0.0526
  547TMC3    C8 8177   0.258   2.916  17.040 -0.3883  0.2481 -0.1265
  547TMC3    O1 8178   0.439   2.505  17.417 -0.4499 -0.3614 -0.4416
  547TMC3    O2 8179   0.240   3.038  17.021 -0.4024  0.2069 -0.4072
  548MPD2     C 8180   0.908   3.660  12.525 -0.3979  0.4120  0.0074
  548MPD2    C1 8181   0.840   3.578  12.610 -0.8510  0.7187 -0.1620
  548MPD2    C2 8182   0.896   3.457  12.640  0.3139  0.0283  0.1639
  548MPD2    C3 8183   1.014   3.409  12.576 -0.4986  0.1205  0.3879
  548MPD2    C4 8184   1.062   3.495  12.478  0.0631  0.0100 -0.1779
  548MPD2    C5 8185   1.024   3.626  12.473 -0.2440 -0.3282  0.2948
  548MPD2     H 8186   0.855   3.396  12.720  1.5079 -0.6932  0.2289
  548MPD2    H1 8187   1.145   3.472  12.412  0.1470 -0.4304  0.0784
  548MPD2    H2 8188   0.863   3.752  12.490 -1.4063  0.4201  1.3164
  548MPD2    H3 8189   1.069   3.689  12.397  0.1209 -0.0573  0.7342
  548MPD2     N 8190   1.067   3.281  12.603  0.0331  0.0521 -0.5243
  548MPD2    H5 8191   1.014   3.230  12.673  1.7988 -0.1079  0.6905
  548MPD2    N1 8192   0.712   3.621  12.656  0.5623 -0.0531  0.8584
  548MPD2    H7 8193   0.671   3.702  12.611  0.8174 -0.7129 -0.5965
  549TMC3    C1 8194   0.503   3.615  12.762 -0.4313  0.1807 -1.0320
  549TMC3    C2 8195   0.495   3.753  12.743 -0.1468 -1.1186  0.0636
  549TMC3    C3 8196   0.387   3.827  12.780 -0.8846 -0.3720 -0.3485
  549TMC3    C4 8197   0.404   3.550  12.832 -0.3232 -0.1567  0.4643
  549TMC3    C5 8198   0.293   3.625  12.861  0.2823  0.1708  0.2329
  549TMC3    C6 8199   0.285   3.758  12.841 -0.2838 -0.6354  0.5241
  549TMC3     C 8200   0.628   3.544  12.739  0.4885 -0.1609  0.5071
  549TMC3     O 8201   0.637   3.426  12.782  0.0972 -0.0101  0.4028
  549TMC3     H 8202   0.571   3.801  12.682 -0.9513  0.8715  0.6229
  549TMC3    H1 8203   0.422   3.445  12.853  0.3318 -0.3582 -1.1216
  549TMC3    H2 8204   0.198   3.818  12.866 -1.2929 -1.7689 -0.2877
  549TMC3    C7 8205   0.159   3.558  12.875 -0.3914 -0.2484 -0.0962
  549TMC3    C8 8206   0.355   3.945  12.709  0.1094  0.3057  1.0264
  549TMC3    O1 8207   0.060   3.630  12.886 -0.5077  0.7459  0.0249
  549TMC3    O2 8208   0.236   3.975  12.706 -0.2948  0.3953 -0.0512
  550TMC3    C1 8209   4.232   1.779  12.480 -0.2396  0.1176  0.6088
  550TMC3    C2 8210   4.222   1.814  12.607  0.3137 -0.5927 -0.6357
  550TMC3    C3 8211   4.141   1.918  12.642 -0.0684 -0.3544  0.0606
  550TMC3    C4 8212   4.151   1.847  12.387  0.4680  0.1525  0.0525
  550TMC3    C5 8213   4.067   1.951  12.428 -0.0901  0.4856  0.2408
  550TMC3    C6 8214   4.059   1.985  12.560  0.7443  0.2913 -0.6682
  550TMC3     C 8215   4.343   1.711  12.423  0.0506 -0.0316  0.2364
  550TMC3     O 8216   4.382   1.611  12.484 -0.2195 -0.3833  0.0215
  550TMC3     H 8217   4.296   1.775  12.676  1.0576  0.9302 -0.5718
  550TMC3    H1 8218   4.134   1.796  12.293  1.4800 -2.5193  1.3226
  550TMC3    H2 8219   3.992   2.060  12.601 -0.1114 -1.9857  2.0632
  550TMC3    C7 8220   3.968   2.004  12.330  0.6279  0.2733  0.5651
  550TMC3    C8 8221   4.178   1.982  12.770  0.4604  0.7174  0.2610
  550TMC3    O1 8222   3.873   2.059  12.382 -1.1502  0.9812 -0.5754
  550TMC3    O2 8223   4.175   2.103  12.778  0.0627  0.2362 -0.0196
  551TMC3    C1 8224   1.968   4.149  13.751 -0.0156  0.3371 -0.4605
  551TMC3    C2 8225   2.085   4.076  13.780  0.1922  0.7133 -0.5185
  551TMC3    C3 8226   2.171   4.127  13.873  0.0371 -0.3066 -0.4352
  551TMC3    C4 8227   1.928   4.248  13.838  0.1326 -0.1974 -0.7517
  551TMC3    C5 8228   2.014   4.276  13.946 -0.3370  0.1410 -0.2279
  551TMC3    C6 8229   2.137   4.225  13.964  0.0272 -0.2073 -0.0516
  551TMC3     C 8230   1.899   4.138  13.617 -0.1512  0.2069  0.2443
  551TMC3     O 8231   1.789   4.193  13.612  0.0981 -0.2315 -0.0817
  551TMC3     H 8232   2.114   3.989  13.721 -1.1854  0.1236 -0.3392
  551TMC3    H1 8233   1.844   4.314  13.821  0.8113  0.7799 -0.2881
  551TMC3    H2 8234   2.211   4.280  14.020  0.5914 -1.5596  0.5361
  551TMC3    C7 8235   1.982   4.393  14.027  0.0687  0.7208  0.5861
  551TMC3    C8 8236   2.292   4.154  13.803 -0.1231 -0.3683 -0.1452
  551TMC3    O1 8237   1.899   4.468  13.976 -0.1237  0.0626  0.3867
  551TMC3    O2 8238   2.352   4.060  13.751 -0.4156 -0.2180  0.0878
  552MPD2     C 8239   3.243   1.617  14.472  0.3854 -0.4185 -0.4857
  552MPD2    C1 8240   3.299   1.514  14.393 -1.3166  0.1886  1.0826
  552MPD2    C2 8241   3.394   1.434  14.457 -0.5147 -0.2261  0.1194
  552MPD2    C3 8242   3.423   1.443  14.595 -0.0545 -0.0879 -0.6786
  552MPD2    C4 8243   3.354   1.542  14.674 -0.4128  0.1538 -0.1841
  552MPD2    C5 8244   3.263   1.619  14.607 -0.3627  0.7914  0.1628
  552MPD2     H 8245   3.432   1.355  14.393 -1.6608 -2.4660  2.2004
  552MPD2    H1 8246   3.355   1.546  14.782 -1.9934 -1.1142 -0.1169
  552MPD2    H2 8247   3.173   1.692  14.437  3.1789  1.3656 -2.2498
  552MPD2    H3 8248   3.210   1.700  14.657 -0.8575  0.8101 -0.3855
  552MPD2     N 8249   3.542   1.387  14.654 -0.3547  0.3331  0.6497
  552MPD2    H5 8250   3.547   1.386  14.755  0.9252 -1.1923  0.5754
  552MPD2    N1 8251   3.255   1.489  14.263  0.0900  0.0417 -0.4363
  552MPD2    H7 8252   3.276   1.397  14.224 -1.2863 -0.1304 -0.7727
  553TMC3    C1 8253   3.138   1.486  14.073 -0.0056 -0.3782 -0.7311
  553TMC3    C2 8254   3.133   1.545  13.950  0.6164 -0.2161 -0.5223
  553TMC3    C3 8255   3.092   1.462  13.852 -0.4692  0.8280 -0.2314
  553TMC3    C4 8256   3.092   1.353  14.099 -0.3564 -0.3959  0.1869
  553TMC3    C5 8257   3.049   1.277  13.999  0.5756  0.7267 -0.1625
  553TMC3    C6 8258   3.036   1.343  13.875 -0.1696 -0.2580 -0.5693
  553TMC3     C 8259   3.174   1.565  14.185  0.0286  0.1890 -0.8819
  553TMC3     O 8260   3.141   1.680  14.198  0.6681  0.6526  0.4549
  553TMC3     H 8261   3.194   1.631  13.926  3.3734 -1.5002  1.7609
  553TMC3    H1 8262   3.088   1.311  14.199  1.2822  0.1839  0.4844
  553TMC3    H2 8263   3.015   1.287  13.785 -0.1631  0.6935 -1.1662
  553TMC3    C7 8264   3.143   1.170  13.973  0.5605 -1.0273 -0.3797
  553TMC3    C8 8265   3.201   1.460  13.746 -0.6308 -0.4730  0.0829
  553TMC3    O1 8266   3.154   1.133  13.859  0.1908  0.1032  0.2357
  553TMC3    O2 8267   3.309   1.516  13.775 -0.3077  0.5226  0.0761
  554TMC3    C1 8268   0.598   0.487  11.651  0.1386 -0.5050 -0.4057
  554TMC3    C2 8269   0.511   0.517  11.543 -0.1115  0.7611 -0.0338
  554TMC3    C3 8270   0.571   0.558  11.426 -0.2725 -0.2498  0.6348
  554TMC3    C4 8271   0.735   0.522  11.643 -0.1359 -0.3100 -0.5554
  554TMC3    C5 8272   0.778   0.588  11.536  0.2061 -0.1909 -0.9744
  554TMC3    C6 8273   0.703   0.593  11.420  0.0113  0.4598 -0.9297
  554TMC3     C 8274   0.547   0.423  11.768  0.1771  0.3949 -0.2495
  554TMC3     O 8275   0.435   0.385  11.744  0.0423  0.5437  0.2806
  554TMC3     H 8276   0.403   0.514  11.554 -0.2789  1.3237 -1.4937
  554TMC3    H1 8277   0.797   0.517  11.732 -0.2773 -0.4985 -0.4668
  554TMC3    H2 8278   0.741   0.635  11.328  0.8472 -0.2604 -0.9197
  554TMC3    C7 8279   0.913   0.652  11.546 -0.4170  0.3841  0.1371
  554TMC3    C8 8280   0.491   0.645  11.348 -0.6239 -1.2122  0.4793
  554TMC3    O1 8281   0.956   0.685  11.434 -0.0143  0.1872  0.4388
  554TMC3    O2 8282   0.539   0.753  11.336  0.1879  0.1969  0.0083
  555TMC3    C1 8283   4.701   0.086  14.982  0.7219 -0.2147 -0.0911
  555TMC3    C2 8284   0.009   0.171  15.082 -0.7589  0.0105 -0.6011
  555TMC3    C3 8285   0.079   0.118  15.187  0.5419  0.3875  0.3182
  555TMC3    C4 8286   4.723   4.690  14.985 -0.5956 -0.3457  0.5706
  555TMC3    C5 8287   0.054   4.645  15.092  0.7608  0.1832 -0.0372
  555TMC3    C6 8288   0.103   4.718  15.196 -0.1017  0.2531  0.1678
  555TMC3     C 8289   4.585   0.138  14.913 -0.4177  1.1583  0.1188
  555TMC3     O 8290   4.565   0.100  14.796 -0.6826 -0.6868 -0.3470
  555TMC3     H 8291   0.002   0.279  15.072 -1.7211 -0.1193 -1.3312
  555TMC3    H1 8292   4.670   4.624  14.917 -1.3630 -1.9978  2.7736
  555TMC3    H2 8293   0.164   4.669  15.271  2.7415  1.9878 -0.9969
  555TMC3    C7 8294   0.044   4.506  15.137 -0.2460 -0.9900  0.3989
  555TMC3    C8 8295   0.076   0.206  15.302  0.6268 -0.3787  0.6315
  555TMC3    O1 8296   0.032   4.479  15.255 -0.2843  0.5805  0.1821
  555TMC3    O2 8297   0.029   0.321  15.289 -0.2030 -0.3828 -0.0062
  556MPD2     C 8298   2.697   1.687  10.834  0.6961  0.1548  0.7423
  556MPD2    C1 8299   2.681   1.589  10.933  0.3314 -0.2177  0.1675
  556MPD2    C2 8300   2.635   1.464  10.905 -0.1495 -0.2311 -0.1515
  556MPD2    C3 8301   2.604   1.432  10.768  0.0051 -0.9357  0.5020
  556MPD2    C4 8302   2.612   1.531  10.673  1.0353 -0.4909  0.1061
  556MPD2    C5 8303   2.663   1.657  10.703 -0.1400  0.3152  0.9313
  556MPD2     H 8304   2.647   1.385  10.978 -0.9298 -1.0911 -0.9598
  556MPD2    H1 8305   2.587   1.506  10.570 -3.1144 -0.8641  1.2086
  556MPD2    H2 8306   2.724   1.791  10.852 -0.5103  0.8866 -1.7008
  556MPD2    H3 8307   2.679   1.726  10.621  0.3382  1.1156  1.6993
  556MPD2     N 8308   2.572   1.295  10.740 -0.4161  0.3383 -0.1975
  556MPD2    H5 8309   2.573   1.230  10.818 -1.0552  1.7779  1.0084
  556MPD2    N1 8310   2.697   1.627  11.068  0.0057  0.4422  0.1943
  556MPD2    H7 8311   2.666   1.573  11.148  0.5609 -2.3395 -1.4901
  557TMC3    C1 8312   2.514   1.103  10.621 -0.0391  0.7849  0.0334
  557TMC3    C2 8313   2.445   1.057  10.506 -0.7029  0.7308 -0.1359
  557TMC3    C3 8314   2.410   0.925  10.502 -0.6687  1.2752  0.0949
  557TMC3    C4 8315   2.539   1.022  10.730 -0.0319 -0.5480 -0.2326
  557TMC3    C5 8316   2.492   0.895  10.721  0.1714 -0.2758 -0.1655
  557TMC3    C6 8317   2.426   0.850  10.612  0.6450 -0.4184  0.5033
  557TMC3     C 8318   2.536   1.245  10.618 -0.4111 -0.3468  0.2994
  557TMC3     O 8319   2.521   1.298  10.506 -0.6652 -0.3417 -0.7760
  557TMC3     H 8320   2.420   1.121  10.422  1.9711  0.7789 -0.8875
  557TMC3    H1 8321   2.607   1.047  10.811  0.4666 -3.0987  0.1291
  557TMC3    H2 8322   2.383   0.751  10.609 -0.5503  0.0954  0.7385
  557TMC3    C7 8323   2.478   0.806  10.835 -0.6200  0.5552  0.5028
  557TMC3    C8 8324   2.349   0.869  10.379  0.1146 -0.3049  0.3369
  557TMC3    O1 8325   2.465   0.687  10.815  0.5869  0.0471 -0.5212
  557TMC3    O2 8326   2.310   0.960  10.306  0.3579  0.0671 -0.3407
  558TMC3    C1 8327   0.254   4.029  10.538  0.0927 -0.7325 -0.0006
  558TMC3    C2 8328   0.134   4.026  10.614  0.1535 -0.5766 -0.1773
  558TMC3    C3 8329   0.034   4.118  10.576  0.3202  1.0172  0.6133
  558TMC3    C4 8330   0.262   4.100  10.422 -0.1077 -0.1064 -0.0803
  558TMC3    C5 8331   0.161   4.184  10.392  0.0446 -0.5258 -0.7972
  558TMC3    C6 8332   0.046   4.197  10.467  1.3890 -0.4187  0.2477
  558TMC3     C 8333   0.375   4.012  10.613 -0.0477  0.2661  0.5177
  558TMC3     O 8334   0.462   4.096  10.597 -0.1980 -0.4919 -0.3032
  558TMC3     H 8335   0.121   3.968  10.705 -0.4599  0.9367  0.7062
  558TMC3    H1 8336   0.358   4.105  10.371  0.2582  0.0048  0.6037
  558TMC3    H2 8337   4.703   4.263  10.443  1.9754 -0.4450 -1.7867
  558TMC3    C7 8338   0.182   4.271  10.277  0.4743  0.3540 -0.1267
  558TMC3    C8 8339   4.711   4.171  10.693 -0.0587 -0.3869  0.7456
  558TMC3    O1 8340   0.295   4.287  10.234 -0.1687 -0.6336 -0.3935
  558TMC3    O2 8341   0.040   4.148  10.797  0.2173 -0.0546  0.1031
  559MPD2     C 8342   0.391   0.605  10.706 -0.3733 -0.0247  0.2380
  559MPD2    C1 8343   0.318   0.491  10.729  0.2705  0.5961  0.1099
  559MPD2    C2 8344   0.377   0.399  10.818  0.2361  0.5010 -0.0755
  559MPD2    C3 8345   0.482   0.437  10.901 -0.0485 -0.7106  0.4268
  559MPD2    C4 8346   0.561   0.544  10.867  0.0985 -0.5950  0.5585
  559MPD2    C5 8347   0.515   0.627  10.771  0.1546  0.4803  0.8622
  559MPD2     H 8348   0.345   0.298  10.840  0.0057  0.7338  0.6513
  559MPD2    H1 8349   0.649   0.578  10.922  0.9885 -1.7813 -0.1336
  559MPD2    H2 8350   0.349   0.677  10.636 -1.7162  1.0571  2.1621
  559MPD2    H3 8351   0.566   0.722  10.759  0.0756  0.1570 -1.9299
  559MPD2     N 8352   0.503   0.355  11.024  0.0071 -0.2079  0.2703
  559MPD2    H5 8353   0.442   0.275  11.041  2.8134 -2.5248 -0.7130
  559MPD2    N1 8354   0.199   0.477  10.666 -0.7695  0.0847  0.0064
  559MPD2    H7 8355   0.183   0.560  10.610 -0.7465 -0.2440 -0.4818
  560TMC3    C1 8356   0.625   0.269  11.205  0.4106  0.7479  0.9708
  560TMC3    C2 8357   0.519   0.222  11.269  0.8519  1.0119  0.4004
  560TMC3    C3 8358   0.543   0.152  11.384  0.4985 -0.1119  0.9351
  560TMC3    C4 8359   0.754   0.244  11.239  0.6116 -0.8904 -0.0289
  560TMC3    C5 8360   0.774   0.160  11.346 -0.5295  0.6648  0.2464
  560TMC3    C6 8361   0.666   0.107  11.416  0.1451  0.0587  0.6375
  560TMC3     C 8362   0.606   0.376  11.109  0.3927  0.5183  0.4175
  560TMC3     O 8363   0.696   0.465  11.108 -0.7402 -0.4493  0.0746
  560TMC3     H 8364   0.419   0.253  11.241  1.6755  0.4155 -3.2114
  560TMC3    H1 8365   0.835   0.280  11.176  2.6091 -0.6427  2.7270
  560TMC3    H2 8366   0.691   0.053  11.506 -0.5963  2.5293  2.3282
  560TMC3    C7 8367   0.898   0.083  11.339  0.1858  0.4140 -0.3125
  560TMC3    C8 8368   0.435   0.081  11.444  0.1273 -0.1887  0.7343
  560TMC3    O1 8369   0.890   4.706  11.380 -0.2477 -0.3948  0.3507
  560TMC3    O2 8370   0.332   0.062  11.381 -0.2439  0.0838 -0.6786
  561TMC3    C1 8371   3.394   3.915  11.473  0.1092  0.6711  0.6348
  561TMC3    C2 8372   3.300   3.839  11.541 -0.1471  0.2384 -0.2335
  561TMC3    C3 8373   3.226   3.900  11.639 -0.1682  0.2677  0.4946
  561TMC3    C4 8374   3.421   4.046  11.500 -0.0969  0.0937  0.2339
  561TMC3    C5 8375   3.329   4.103  11.589  0.5760  0.3068 -0.3147
  561TMC3    C6 8376   3.236   4.029  11.664  0.2987 -0.6103  0.4179
  561TMC3     C 8377   3.485   3.843  11.378 -0.2268 -0.6567 -0.8098
  561TMC3     O 8378   3.457   3.725  11.360  0.3095  0.2381  0.0527
  561TMC3     H 8379   3.295   3.734  11.515 -1.3527 -0.9187  4.6988
  561TMC3    H1 8380   3.470   4.115  11.432  0.6212 -1.0179 -0.3751
  561TMC3    H2 8381   3.191   4.077  11.750  0.4718  0.0536  0.1461
  561TMC3    C7 8382   3.344   4.239  11.628 -0.1587 -0.0839 -0.7620
  561TMC3    C8 8383   3.166   3.804  11.737  0.0623  0.3175 -0.5974
  561TMC3    O1 8384   3.316   4.269  11.742 -0.2611  0.4505 -0.4598
  561TMC3    O2 8385   3.196   3.689  11.712 -0.9263  0.3914 -0.0451
  562TMC3    C1 8386   4.580   0.253  16.495  0.4328  0.0511 -0.1289
  562TMC3    C2 8387   4.484   0.353  16.502  0.2751 -0.1802 -0.3458
  562TMC3    C3 8388   4.409   0.374  16.388 -0.0331 -0.1091 -0.2867
  562TMC3    C4 8389   4.608   0.188  16.377 -0.2157  1.0636 -0.5836
  562TMC3    C5 8390   4.520   0.195  16.281  0.1492  0.6283 -0.9502
  562TMC3    C6 8391   4.430   0.298  16.275 -0.0202 -0.8721  0.0894
  562TMC3     C 8392   4.673   0.232  16.604 -0.7045  0.4448 -0.3090
  562TMC3     O 8393   0.050   0.205  16.580  0.4066  0.3142  0.0058
  562TMC3     H 8394   4.471   0.412  16.592 -0.1850  0.3174 -0.7414
  562TMC3    H1 8395   4.687   0.113  16.379 -1.5512 -0.3531 -0.3268
  562TMC3    H2 8396   4.373   0.300  16.183  1.3272  1.4234 -0.6975
  562TMC3    C7 8397   4.537   0.125  16.155  0.3651  0.7566 -0.6181
  562TMC3    C8 8398   4.273   0.437  16.412 -0.5575 -0.2249 -0.3155
  562TMC3    O1 8399   4.488   0.183  16.057 -0.0308  0.1269 -0.0553
  562TMC3    O2 8400   4.243   0.446  16.529 -0.3411  0.0060  0.3214
  563MPD2     C 8401   1.710   1.561  15.690 -0.4970  0.2502 -0.1808
  563MPD2    C1 8402   1.754   1.629  15.803 -0.1559  0.2614  0.0524
  563MPD2    C2 8403   1.874   1.595  15.858  0.2737  0.0747 -0.0276
  563MPD2    C3 8404   1.956   1.503  15.794 -0.1266 -0.7343  0.0315
  563MPD2    C4 8405   1.918   1.438  15.681  1.0079 -0.0808  0.0989
  563MPD2    C5 8406   1.795   1.474  15.630 -0.2571  0.1813 -0.0404
  563MPD2     H 8407   1.912   1.644  15.947 -0.0801  0.0340  0.1490
  563MPD2    H1 8408   1.950   1.343  15.638  0.2971  0.4434 -1.5911
  563MPD2    H2 8409   1.610   1.568  15.649 -0.7634  0.0272  0.4447
  563MPD2    H3 8410   1.750   1.422  15.546 -0.2405 -0.2246  0.2052
  563MPD2     N 8411   2.079   1.476  15.859  0.4645 -0.4439  1.0373
  563MPD2    H5 8412   2.093   1.520  15.949 -0.4918  1.0386  0.4437
  563MPD2    N1 8413   1.665   1.714  15.877  0.2663 -0.3158  0.3614
  563MPD2    H7 8414   1.570   1.717  15.841  0.4801  1.6165 -0.0553
  564TMC3    C1 8415   1.611   1.802  16.091  0.0474 -0.9537 -0.4811
  564TMC3    C2 8416   1.489   1.764  16.058 -1.1100 -0.2012  0.6278
  564TMC3    C3 8417   1.424   1.669  16.142 -0.9647  0.1420 -0.1007
  564TMC3    C4 8418   1.674   1.762  16.211  0.4322 -0.3626  0.2308
  564TMC3    C5 8419   1.621   1.651  16.268 -0.0647  0.6694  0.0600
  564TMC3    C6 8420   1.491   1.612  16.239  0.0046  0.2248  0.2634
  564TMC3     C 8421   1.711   1.804  15.977 -0.4669  0.3187 -0.1275
  564TMC3     O 8422   1.821   1.854  15.998 -0.0877  0.4485 -0.1766
  564TMC3     H 8423   1.435   1.804  15.973  0.0813  1.4648  0.6538
  564TMC3    H1 8424   1.781   1.776  16.222  0.7363 -0.6250 -2.4457
  564TMC3    H2 8425   1.460   1.525  16.296 -1.5738 -0.6803 -1.9926
  564TMC3    C7 8426   1.705   1.536  16.255 -0.1177  0.2081 -0.0094
  564TMC3    C8 8427   1.339   1.572  16.086  0.3138  0.5500  0.0361
  564TMC3    O1 8428   1.814   1.549  16.306  0.3258 -0.1471  0.1486
  564TMC3    O2 8429   1.307   1.478  16.158 -0.1817  0.1607  0.0599
  565TMC3    C1 8430   2.760   3.072  10.531 -0.2008  0.7105 -0.6867
  565TMC3    C2 8431   2.727   2.979  10.626 -0.9942 -0.5407 -0.2182
  565TMC3    C3 8432   2.664   2.863  10.588 -0.5386 -0.9296 -0.1660
  565TMC3    C4 8433   2.738   3.044  10.399 -0.5313 -0.2173 -0.1605
  565TMC3    C5 8434   2.673   2.931  10.361  0.5948  0.4234 -0.0606
  565TMC3    C6 8435   2.629   2.840  10.455  0.4707 -0.1099  0.3395
  565TMC3     C 8436   2.836   3.194  10.563  0.3611 -0.3896 -0.5603
  565TMC3     O 8437   2.874   3.268  10.477 -0.5321  0.1228 -0.1908
  565TMC3     H 8438   2.761   2.984  10.729  0.9025  0.1018 -0.8612
  565TMC3    H1 8439   2.789   3.108  10.328 -0.4132 -0.5950 -0.4128
  565TMC3    H2 8440   2.602   2.738  10.428 -3.4171  0.3768  2.3431
  565TMC3    C7 8441   2.638   2.900  10.225 -0.0568 -0.0175  0.4805
  565TMC3    C8 8442   2.621   2.775  10.696 -0.2865  0.4230  0.1615
  565TMC3    O1 8443   2.591   2.790  10.195  0.2022  0.2130  0.3840
  565TMC3    O2 8444   2.669   2.790  10.808  0.6386  0.2511 -0.2617
  566MPD2     C 8445   4.122   4.428  14.648  1.0405  0.0083 -0.1706
  566MPD2    C1 8446   4.073   4.529  14.560  0.2027 -0.2378 -0.6388
  566MPD2    C2 8447   3.954   4.512  14.495  0.1352 -0.5006  0.3354
  566MPD2    C3 8448   3.885   4.390  14.516 -0.4138  0.3742  0.4810
  566MPD2    C4 8449   3.932   4.287  14.605  0.8615 -0.3869 -0.0036
  566MPD2    C5 8450   4.053   4.308  14.668 -0.3698  0.1044  0.7708
  566MPD2     H 8451   3.911   4.590  14.433  3.1342  3.2520  2.9832
  566MPD2    H1 8452   3.893   4.186  14.600  0.2987 -0.1870  0.2495
  566MPD2    H2 8453   4.214   4.445  14.703  0.0467  0.6673  1.2973
  566MPD2    H3 8454   4.090   4.231  14.734  2.0935 -0.7266 -1.5503
  566MPD2     N 8455   3.772   4.361  14.438  0.5217  0.0924  0.2236
  566MPD2    H5 8456   3.740   4.267  14.421 -0.8072  0.5002  0.4432
  566MPD2    N1 8457   4.150   4.645  14.547  0.0311  0.3295  0.3741
  566MPD2    H7 8458   4.237   4.645  14.598 -0.0750  3.3112  0.5366
  567TMC3    C1 8459   4.228   0.121  14.464  0.5018 -0.9069 -0.5451
  567TMC3    C2 8460   4.227   0.189  14.343  0.3306  0.0275  0.1420
  567TMC3    C3 8461   4.344   0.223  14.285  0.0920  0.3047  0.1794
  567TMC3    C4 8462   4.342   0.094  14.530  0.4067 -0.0303 -0.3107
  567TMC3    C5 8463   4.460   0.124  14.471 -0.2064 -0.6472 -0.1487
  567TMC3    C6 8464   4.463   0.186  14.349  0.5569 -0.6144 -0.8023
  567TMC3     C 8465   4.123   0.022  14.478  0.4509 -0.2524  0.5787
  567TMC3     O 8466   4.024   0.048  14.411 -0.3155  0.4976 -0.3068
  567TMC3     H 8467   4.133   0.196  14.289 -0.7358 -0.5730  1.8994
  567TMC3    H1 8468   4.327   0.056  14.630 -2.5614  0.3487 -0.6136
  567TMC3    H2 8469   4.553   0.192  14.288 -0.4794  0.4413 -2.2270
  567TMC3    C7 8470   4.546   0.000  14.476 -0.4867 -0.3886  0.2782
  567TMC3    C8 8471   4.331   0.292  14.162  0.0518 -0.1015  0.6120
  567TMC3    O1 8472   4.602   4.705  14.373  0.2979 -0.1487  0.5178
  567TMC3    O2 8473   4.220   0.332  14.132 -0.3722  0.0115 -0.0339
  568MPD2     C 8474   2.120   0.388  16.261  0.2641  0.1183 -0.6230
  568MPD2    C1 8475   1.998   0.342  16.303  0.2025  0.9073 -0.4689
  568MPD2    C2 8476   1.888   0.415  16.269  0.4477  0.5201  0.1706
  568MPD2    C3 8477   1.896   0.535  16.199  0.7360 -0.3182 -0.5346
  568MPD2    C4 8478   2.021   0.575  16.156 -0.5623  0.1204 -0.0318
  568MPD2    C5 8479   2.129   0.503  16.183  0.6750 -0.3631 -0.3109
  568MPD2     H 8480   1.797   0.374  16.312  1.8239 -0.3365  2.2580
  568MPD2    H1 8481   2.042   0.654  16.085  0.6873 -0.6717 -0.5471
  568MPD2    H2 8482   2.208   0.329  16.283  0.0159  0.3522  1.0221
  568MPD2    H3 8483   2.229   0.536  16.154  0.1839  0.9513 -0.5336
  568MPD2     N 8484   1.780   0.607  16.179  0.4206  0.0203  0.3954
  568MPD2    H5 8485   1.696   0.563  16.215 -0.7965 -0.0538 -2.5279
  568MPD2    N1 8486   1.992   0.238  16.399  0.2944 -0.0615 -0.3569
  568MPD2    H7 8487   2.086   0.211  16.426 -0.4911  0.5290  2.9694
  569TMC3    C1 8488   1.643   0.789  16.122 -0.3030  0.5131  0.6477
  569TMC3    C2 8489   1.556   0.785  16.228 -0.3075 -1.1193 -0.1107
  569TMC3    C3 8490   1.429   0.841  16.212  0.0415  0.0036 -0.1380
  569TMC3    C4 8491   1.607   0.839  15.999  0.1882 -0.3343  0.6020
  569TMC3    C5 8492   1.477   0.871  15.974 -0.0158  0.0438 -0.2031
  569TMC3    C6 8493   1.389   0.874  16.079  0.3344  0.4692 -0.0723
  569TMC3     C 8494   1.773   0.727  16.119 -0.6024 -0.0698 -0.4753
  569TMC3     O 8495   1.863   0.802  16.070  0.5508 -0.1243 -0.4822
  569TMC3     H 8496   1.586   0.751  16.326  0.7819  2.0133  0.6211
  569TMC3    H1 8497   1.680   0.831  15.919 -0.8042  0.9411 -0.4181
  569TMC3    H2 8498   1.295   0.924  16.062 -0.4353 -1.4829 -1.5805
  569TMC3    C7 8499   1.465   0.964  15.870 -0.3412  0.2257  0.8458
  569TMC3    C8 8500   1.404   0.957  16.297  0.0882  0.4652  0.1315
  569TMC3    O1 8501   1.511   0.930  15.762 -0.3965  0.9579 -0.2140
  569TMC3    O2 8502   1.305   1.021  16.265  0.1690  0.0807 -0.2933
  570TMC3    C1 8503   1.309   3.862  16.291  0.7077 -0.5415 -0.9647
  570TMC3    C2 8504   1.343   3.937  16.183  0.2722 -0.1698  0.0648
  570TMC3    C3 8505   1.387   4.065  16.201  0.5203 -0.3268 -0.3205
  570TMC3    C4 8506   1.321   3.909  16.416  0.2308 -0.3383  0.6586
  570TMC3    C5 8507   1.377   4.037  16.432 -0.7408  0.5030  0.7397
  570TMC3    C6 8508   1.410   4.116  16.323  0.1860  0.4750 -0.7505
  570TMC3     C 8509   1.246   3.732  16.266 -0.5999  0.8304  0.0366
  570TMC3     O 8510   1.265   3.681  16.156  0.4202  0.8742 -0.3542
  570TMC3     H 8511   1.354   3.894  16.084 -0.5118 -0.4891  0.1178
  570TMC3    H1 8512   1.295   3.861  16.510 -1.3009  0.7682  0.7981
  570TMC3    H2 8513   1.456   4.214  16.330  2.2511 -0.5965  0.6864
  570TMC3    C7 8514   1.397   4.094  16.564 -0.0161 -0.6197  0.0536
  570TMC3    C8 8515   1.423   4.146  16.084 -0.8517  0.8221  0.0679
  570TMC3    O1 8516   1.379   4.021  16.662 -0.4892 -0.3889 -0.0055
  570TMC3    O2 8517   1.508   4.238  16.083  0.5293  0.2927  0.0651
  571MPD2     C 8518   2.811   0.959   0.202 -0.1574  0.7335  0.1500
  571MPD2    C1 8519   2.880   0.870   0.273  0.5893 -0.6336  0.9131
  571MPD2    C2 8520   3.011   0.901   0.307 -0.0421 -0.1107  0.3561
  571MPD2    C3 8521   3.070   1.015   0.263 -0.6829  0.0853  0.4712
  571MPD2    C4 8522   3.005   1.102   0.181  0.8730  0.0138 -0.0558
  571MPD2    C5 8523   2.873   1.069   0.155 -0.6020 -0.2150  0.3104
  571MPD2     H 8524   3.067   0.825   0.361  0.7119 -1.4188 -2.2837
  571MPD2    H1 8525   3.060   1.188   0.147  1.0048  0.1454  0.4834
  571MPD2    H2 8526   2.710   0.935   0.171 -0.3403  3.7875 -1.5788
  571MPD2    H3 8527   2.819   1.138   0.092 -1.3810 -0.3792  0.7976
  571MPD2     N 8528   3.209   1.040   0.276 -0.0642 -0.0089  0.6264
  571MPD2    H5 8529   3.248   1.124   0.233 -0.9771  0.6334  1.0489
  571MPD2    N1 8530   2.818   0.751   0.299  0.3337  0.2341  0.3332
  571MPD2    H7 8531   2.728   0.732   0.255  0.4211  1.4790 -0.3876
  572TMC3    C1 8532   3.425   1.004   0.337 -0.5320 -0.2079 -0.1125
  572TMC3    C2 8533   3.515   1.004   0.442  0.9949 -0.1755  0.3189
  572TMC3    C3 8534   3.649   1.022   0.410 -0.7809 -0.4945  1.1188
  572TMC3    C4 8535   3.465   1.001   0.207  0.2213  0.3347 -0.4179
  572TMC3    C5 8536   3.604   1.009   0.187  0.4120  0.0857  0.7816
  572TMC3    C6 8537   3.695   1.027   0.281 -0.5144 -0.6222 -0.0251
  572TMC3     C 8538   3.287   0.982   0.368  0.0084  0.3212  0.3333
  572TMC3     O 8539   3.253   0.926   0.472 -0.0381  0.0804  0.2210
  572TMC3     H 8540   3.488   1.016   0.546 -0.3121  0.1169 -0.0517
  572TMC3    H1 8541   3.406   0.978   0.119 -1.2357  2.9780 -0.1309
  572TMC3    H2 8542   3.799   1.057   0.267 -0.6331 -1.4980 -2.5979
  572TMC3    C7 8543   3.648   1.039   0.054 -0.5092  0.2963  0.4489
  572TMC3    C8 8544   3.740   1.068   0.513 -0.2702  0.0394  0.0850
  572TMC3    O1 8545   3.565   1.062  17.723 -0.4055 -0.2865  0.0304
  572TMC3    O2 8546   3.817   1.158   0.488 -0.1184  0.5296  0.1889
  573MPD2     C 8547   0.216   1.987   1.105  0.1856 -0.7031  0.4284
  573MPD2    C1 8548   0.093   1.980   1.044 -1.0045  0.7443 -0.5737
  573MPD2    C2 8549   0.076   1.905   0.927  0.4094  0.1342 -0.2099
  573MPD2    C3 8550   0.190   1.839   0.875  0.2335  0.3651 -0.3926
  573MPD2    C4 8551   0.312   1.856   0.930  0.2898  0.2343 -0.0082
  573MPD2    C5 8552   0.323   1.926   1.051  0.7759 -0.7264  0.7630
  573MPD2     H 8553   4.718   1.904   0.879 -0.0053  2.5190  0.5777
  573MPD2    H1 8554   0.403   1.833   0.876 -0.5420  0.6663 -1.5983
  573MPD2    H2 8555   0.235   2.050   1.191 -1.4726  0.6760 -0.2300
  573MPD2    H3 8556   0.416   1.943   1.105  2.1960  0.8432 -2.1287
  573MPD2     N 8557   0.186   1.790   0.741  0.1735 -0.4783  0.3765
  573MPD2    H5 8558   0.276   1.777   0.695  0.9300 -0.1329  1.7817
  573MPD2    N1 8559   4.726   2.028   1.120  0.5380 -0.1980  0.2210
  573MPD2    H7 8560   0.008   2.065   1.212 -0.9923  1.0195  0.0839
  574TMC3    C1 8561   0.082   1.736   0.535  0.1686 -0.5393 -0.9143
  574TMC3    C2 8562   4.706   1.755   0.463  0.5791 -0.1009  0.0537
  574TMC3    C3 8563   4.715   1.758   0.329 -0.3266  0.4793  0.2564
  574TMC3    C4 8564   0.208   1.705   0.476  0.1729  0.6785 -0.1055
  574TMC3    C5 8565   0.202   1.722   0.346  0.0590  0.8146 -0.0147
  574TMC3    C6 8566   0.090   1.748   0.270  0.0784 -1.1514  0.1591
  574TMC3     C 8567   0.069   1.752   0.681  0.1173  0.2175 -0.2585
  574TMC3     O 8568   4.691   1.739   0.720 -0.7645  0.0689  0.2399
  574TMC3     H 8569   4.609   1.770   0.509  0.7435 -0.7331  0.6109
  574TMC3    H1 8570   0.290   1.665   0.534 -0.1536 -1.4117 -1.1155
  574TMC3    H2 8571   0.097   1.732   0.163  0.2799 -1.8646  0.2747
  574TMC3    C7 8572   0.330   1.723   0.277  0.3584 -0.3204  0.4386
  574TMC3    C8 8573   4.600   1.793   0.241 -0.1112 -0.0227 -0.1394
  574TMC3    O1 8574   0.328   1.783   0.166  0.8003  0.0936  1.0067
  574TMC3    O2 8575   4.631   1.840   0.133  0.0952 -0.2995  0.1975
  575TMC3    C1 8576   2.499   2.394  11.512 -0.0231  0.6670  0.0012
  575TMC3    C2 8577   2.422   2.280  11.523  0.0214 -0.0961  0.1187
  575TMC3    C3 8578   2.388   2.213  11.407  0.0086  0.4933 -0.2159
  575TMC3    C4 8579   2.533   2.451  11.388 -0.6696 -0.5647 -0.4476
  575TMC3    C5 8580   2.496   2.386  11.274  0.0432  0.5906  0.0320
  575TMC3    C6 8581   2.426   2.262  11.279  0.4794 -0.3743  0.3941
  575TMC3     C 8582   2.552   2.450  11.634 -0.5204  0.1046  0.0082
  575TMC3     O 8583   2.666   2.494  11.628 -0.1718  0.0683 -0.4776
  575TMC3     H 8584   2.407   2.232  11.619  2.7994 -0.5773  0.3199
  575TMC3    H1 8585   2.584   2.546  11.377  2.7779 -2.4552 -0.7618
  575TMC3    H2 8586   2.401   2.190  11.203 -1.1139 -0.5220  1.0746
  575TMC3    C7 8587   2.527   2.448  11.146  0.1182 -0.0295 -0.5781
  575TMC3    C8 8588   2.322   2.085  11.423 -0.1351  0.3556 -0.0352
  575TMC3    O1 8589   2.601   2.543  11.143 -0.2602  0.1995  0.0140
  575TMC3    O2 8590   2.356   2.021  11.525  0.5118  0.2325 -0.2016
  576MPD2     C 8591   2.446   3.962  12.975  0.0818  0.1983  0.5800
  576MPD2    C1 8592   2.430   4.081  12.904  0.0373  0.5386 -1.2186
  576MPD2    C2 8593   2.389   4.193  12.980  0.0093  0.0386  1.1089
  576MPD2    C3 8594   2.368   4.192  13.115 -0.4146  0.1660  0.4728
  576MPD2    C4 8595   2.395   4.073  13.180 -0.9968 -0.3865 -0.3099
  576MPD2    C5 8596   2.424   3.961  13.107  0.4058  0.0142 -0.1699
  576MPD2     H 8597   2.369   4.282  12.922  0.2900  0.0809  1.0762
  576MPD2    H1 8598   2.390   4.050  13.285 -0.6669  2.0034  0.2201
  576MPD2    H2 8599   2.462   3.865  12.930  0.6777  0.4137  0.3296
  576MPD2    H3 8600   2.454   3.871  13.160 -1.6919  0.0020  1.0333
  576MPD2     N 8601   2.312   4.312  13.179  0.2523  0.1468  0.0593
  576MPD2    H5 8602   2.304   4.394  13.120 -2.3820  0.0330  0.2615
  576MPD2    N1 8603   2.440   4.086  12.765 -0.5657 -0.5357 -0.6605
  576MPD2    H7 8604   2.418   4.178  12.726 -0.7257  0.0634  0.8421
  577TMC3    C1 8605   2.524   4.025  12.553 -0.1997  0.1739 -0.0437
  577TMC3    C2 8606   2.566   3.930  12.468  0.3135  0.3038 -0.1832
  577TMC3    C3 8607   2.606   3.964  12.342  0.0942  0.7977  0.0333
  577TMC3    C4 8608   2.524   4.155  12.511  0.0972  0.3757  0.2599
  577TMC3    C5 8609   2.544   4.186  12.378 -0.4758  0.2096 -0.2359
  577TMC3    C6 8610   2.589   4.091  12.286 -0.3998 -0.0299  0.3230
  577TMC3     C 8611   2.493   3.986  12.689  0.6720 -0.0470  0.1306
  577TMC3     O 8612   2.504   3.868  12.719  0.3928 -0.6471 -0.1605
  577TMC3     H 8613   2.575   3.829  12.504  0.3115  0.5933  0.6165
  577TMC3    H1 8614   2.508   4.235  12.583 -0.7351  0.0829  0.4036
  577TMC3    H2 8615   2.641   4.115  12.193  0.3491 -0.8817  0.5301
  577TMC3    C7 8616   2.539   4.321  12.339  0.0548 -0.0311  0.3721
  577TMC3    C8 8617   2.656   3.857  12.260 -0.2716  0.5343 -0.1851
  577TMC3    O1 8618   2.574   4.402  12.424 -0.4747 -0.1846  0.0642
  577TMC3    O2 8619   2.642   3.742  12.298  0.2259 -0.0930 -0.4894
  578MPD2     C 8620   0.067   3.938   1.102 -0.3341 -0.0213  0.1636
  578MPD2    C1 8621   0.079   3.846   1.002 -0.3003  0.5462 -0.3977
  578MPD2    C2 8622   0.193   3.762   1.004 -0.3298  0.0046  0.1574
  578MPD2    C3 8623   0.282   3.770   1.106  0.3625  0.9629  0.4075
  578MPD2    C4 8624   0.253   3.851   1.217  0.0315 -0.0149 -0.6996
  578MPD2    C5 8625   0.156   3.938   1.209  0.7962 -0.1635  0.0887
  578MPD2     H 8626   0.213   3.691   0.925  1.8094  1.3285 -0.4986
  578MPD2    H1 8627   0.315   3.857   1.306 -1.9279  1.8937  0.5362
  578MPD2    H2 8628   4.733   4.016   1.089  0.0290 -0.0430 -1.9679
  578MPD2    H3 8629   0.144   4.001   1.296  1.4185  0.7086 -0.4475
  578MPD2     N 8630   0.394   3.680   1.106 -0.3686  0.5973 -0.0119
  578MPD2    H5 8631   0.406   3.626   1.021  1.6020 -0.6022  1.0328
  578MPD2    N1 8632   4.734   3.866   0.893  0.2324  0.3282 -0.1004
  578MPD2    H7 8633   4.661   3.935   0.906  0.1820  0.0302  1.2259
  579TMC3    C1 8634   0.600   3.595   1.185  0.8771  0.5842 -0.3988
  579TMC3    C2 8635   0.703   3.653   1.255  0.5024  0.0146  0.5477
  579TMC3    C3 8636   0.833   3.618   1.227 -0.1524 -0.5716 -0.8195
  579TMC3    C4 8637   0.613   3.495   1.094 -0.0869 -0.1522 -0.0287
  579TMC3    C5 8638   0.744   3.458   1.083  0.3572 -0.1290 -0.0961
  579TMC3    C6 8639   0.851   3.518   1.143 -0.0808 -0.4929  0.2397
  579TMC3     C 8640   0.475   3.663   1.211 -0.3562 -0.5847 -0.6048
  579TMC3     O 8641   0.469   3.699   1.329 -0.3828  0.1916  0.0220
  579TMC3     H 8642   0.689   3.740   1.319 -1.1450  1.1488 -1.3595
  579TMC3    H1 8643   0.523   3.453   1.052 -1.4936 -0.7922  3.7291
  579TMC3    H2 8644   0.943   3.482   1.098  1.0296  1.4508  0.9709
  579TMC3    C7 8645   0.769   3.329   1.035 -0.1042 -0.2437 -0.3526
  579TMC3    C8 8646   0.939   3.692   1.286  0.4039 -0.5311  0.4194
  579TMC3    O1 8647   0.872   3.274   1.077 -0.2459  0.3583  0.3727
  579TMC3    O2 8648   0.915   3.795   1.351 -0.1442 -0.3202  0.2395
  580TMC3    C1 8649   4.550   3.543  12.132 -0.0559 -0.0856  0.2569
  580TMC3    C2 8650   4.531   3.503  12.003  0.0697  0.3524  0.5816
  580TMC3    C3 8651   4.593   3.391  11.948  0.1949  0.1891 -0.0097
  580TMC3    C4 8652   4.611   3.454  12.215 -0.2898 -0.0792 -0.2607
  580TMC3    C5 8653   4.653   3.338  12.161 -0.6823  0.0396 -0.4201
  580TMC3    C6 8654   4.663   3.305  12.029  0.2882 -0.4693  0.3303
  580TMC3     C 8655   4.605   3.678  12.137  0.1066  0.8941 -0.7343
  580TMC3     O 8656   4.560   3.760  12.060  0.1917 -0.0366  0.2190
  580TMC3     H 8657   4.478   3.568  11.935 -1.3335 -2.9422 -1.4783
  580TMC3    H1 8658   4.604   3.469  12.322  0.1913  3.2784 -0.7025
  580TMC3    H2 8659   4.716   3.217  11.993  0.0221 -1.6606  2.8020
  580TMC3    C7 8660   4.689   3.232  12.257 -0.4375  0.2856 -0.8863
  580TMC3    C8 8661   4.670   3.437  11.829  0.8432  0.5142  0.2053
  580TMC3    O1 8662   4.711   3.265  12.374 -0.1185 -0.3059  0.4106
  580TMC3    O2 8663   4.611   3.481  11.727 -0.0411 -0.6770  0.5230
  581MPD2     C 8664   2.916   2.814  14.629  0.2420  0.5618 -0.1524
  581MPD2    C1 8665   2.885   2.874  14.746 -0.1210 -0.0908 -0.0364
  581MPD2    C2 8666   2.767   2.936  14.766 -0.3252  0.1394 -0.4574
  581MPD2    C3 8667   2.665   2.917  14.673  0.1612 -0.7189 -0.6238
  581MPD2    C4 8668   2.692   2.864  14.550  0.1224  0.0731  0.3396
  581MPD2    C5 8669   2.817   2.814  14.529  0.5971 -0.0399  0.9820
  581MPD2     H 8670   2.751   2.975  14.867  1.0625  1.5867 -0.7928
  581MPD2    H1 8671   2.616   2.842  14.476  0.6804 -2.9989  0.7006
  581MPD2    H2 8672   3.011   2.764  14.618  0.2831  0.7723 -0.7457
  581MPD2    H3 8673   2.837   2.762  14.437 -1.1537 -2.2765  1.8840
  581MPD2     N 8674   2.533   2.968  14.710  0.1010  0.1470  0.0142
  581MPD2    H5 8675   2.528   3.007  14.803  0.3807 -0.6297  0.3544
  581MPD2    N1 8676   2.981   2.857  14.849 -0.4178  0.3008  0.9600
  581MPD2    H7 8677   3.067   2.807  14.828  0.0004 -0.0820  3.6490
  582TMC3    C1 8678   3.063   2.820  15.059  0.3759 -0.3613  0.1704
  582TMC3    C2 8679   3.080   2.867  15.188  0.2626 -0.0345  0.3217
  582TMC3    C3 8680   3.077   2.787  15.297  0.1343  0.6606 -0.3484
  582TMC3    C4 8681   3.052   2.686  15.036  0.3567  0.0682 -0.2586
  582TMC3    C5 8682   3.034   2.606  15.144  0.2236 -0.0480  0.0519
  582TMC3    C6 8683   3.053   2.652  15.271 -0.1600 -0.3903  0.4784
  582TMC3     C 8684   2.972   2.907  14.976 -0.5864  0.7906 -0.1328
  582TMC3     O 8685   2.897   2.987  15.030  0.0590 -0.0697 -0.6365
  582TMC3     H 8686   3.065   2.971  15.216 -1.4558  0.2069 -1.4778
  582TMC3    H1 8687   3.021   2.644  14.941 -0.5203 -0.0470  0.0812
  582TMC3    H2 8688   3.043   2.589  15.359 -2.3052 -0.2918  0.3069
  582TMC3    C7 8689   2.902   2.550  15.133 -0.8036 -0.8138 -0.2927
  582TMC3    C8 8690   3.022   2.827  15.423 -0.3325  0.1364 -0.5907
  582TMC3    O1 8691   2.874   2.479  15.035  0.2275 -0.0593  0.2622
  582TMC3    O2 8692   2.903   2.846  15.420  0.4722 -0.3184  1.0033
  583MPD2     C 8693   2.628   0.020  16.390  0.1315 -0.5675  0.2057
  583MPD2    C1 8694   2.724   4.684  16.450  0.0173 -0.5039 -0.2095
  583MPD2    C2 8695   2.709   4.632  16.576  0.0800  0.4957  0.6211
  583MPD2    C3 8696   2.598   4.663  16.646  0.1361 -0.5262  0.6077
  583MPD2    C4 8697   2.497   0.007  16.591 -0.1821  0.9196 -0.8830
  583MPD2    C5 8698   2.520   0.057  16.468  0.5429 -0.0700  0.3600
  583MPD2     H 8699   2.783   4.567  16.620 -0.0760  0.7099  1.1944
  583MPD2    H1 8700   2.409   0.042  16.645  1.1040  1.4227  0.8595
  583MPD2    H2 8701   2.648   0.065  16.293 -1.1389  0.2384  0.3168
  583MPD2    H3 8702   2.454   0.135  16.431 -0.5042  0.7014  3.8497
  583MPD2     N 8703   2.583   4.624  16.777 -0.1896  0.3375  0.5120
  583MPD2    H5 8704   2.655   4.563  16.815  0.1933  0.0864 -0.6140
  583MPD2    N1 8705   2.850   4.663  16.378  0.0684  0.7219 -0.0667
  583MPD2    H7 8706   2.924   4.616  16.429  0.4171  0.5665 -0.7218
  584TMC3    C1 8707   2.535   4.639  17.005  0.1945 -0.2681 -0.8565
  584TMC3    C2 8708   2.656   4.705  17.026  1.1798  0.5478  0.2563
  584TMC3    C3 8709   2.669   0.058  17.132  0.1656 -0.3947 -1.0074
  584TMC3    C4 8710   2.437   4.640  17.101  0.0957  0.2044 -0.1643
  584TMC3    C5 8711   2.461   4.720  17.213 -0.3440 -0.4087  0.7618
  584TMC3    C6 8712   2.573   0.064  17.231 -0.1765 -0.4998  0.0983
  584TMC3     C 8713   2.488   4.649  16.867 -0.4499 -0.2779 -0.0610
  584TMC3     O 8714   2.377   4.697  16.841  0.0069 -0.4454  0.3116
  584TMC3     H 8715   2.732   4.699  16.950  0.8100  0.4667 -0.1069
  584TMC3    H1 8716   2.342   4.590  17.087  0.4859 -0.5215 -0.1868
  584TMC3    H2 8717   2.593   0.132  17.313 -2.7500  0.9940 -0.5169
  584TMC3    C7 8718   2.364   4.706  17.314 -0.2674 -0.0636 -0.7608
  584TMC3    C8 8719   2.772   0.152  17.099 -1.1382  0.0201 -0.1970
  584TMC3    O1 8720   2.310   4.597  17.336  0.1522  0.8041 -0.6846
  584TMC3    O2 8721   2.872   0.112  17.048  0.6457 -0.9369 -0.3843
  585MPD2     C 8722   2.329   3.206   0.563  0.2405  0.5072 -0.5791
  585MPD2    C1 8723   2.366   3.223   0.434  0.6178  0.9279  0.3074
  585MPD2    C2 8724   2.340   3.118   0.344 -0.1870 -0.0660 -0.0788
  585MPD2    C3 8725   2.292   2.998   0.381  0.1437  0.5579 -0.2920
  585MPD2    C4 8726   2.271   2.979   0.521  0.2467  0.1675 -0.5671
  585MPD2    C5 8727   2.295   3.080   0.609 -0.1399 -0.7336  0.4389
  585MPD2     H 8728   2.362   3.125   0.238 -1.4953 -2.4644 -0.4939
  585MPD2    H1 8729   2.232   2.885   0.559 -0.8986  0.9282  0.1227
  585MPD2    H2 8730   2.339   3.282   0.639 -2.5465 -0.2087  0.5070
  585MPD2    H3 8731   2.281   3.062   0.715 -2.1742 -2.3630 -0.0986
  585MPD2     N 8732   2.258   2.882   0.307  0.2924 -0.2650  0.3112
  585MPD2    H5 8733   2.208   2.807   0.354 -1.3788 -0.2023 -1.3658
  585MPD2    N1 8734   2.403   3.349   0.385 -0.1420  0.8549  0.2266
  585MPD2    H7 8735   2.400   3.430   0.447  2.0131  0.7826  0.4282
  586TMC3    C1 8736   2.187   2.777   0.101  0.7323 -0.4833  0.1665
  586TMC3    C2 8737   2.258   2.727  17.747  0.2775  0.1258 -0.2393
  586TMC3    C3 8738   2.185   2.707  17.628 -1.3303  0.4701  1.4968
  586TMC3    C4 8739   2.052   2.790   0.089  0.1200  0.0233 -0.1996
  586TMC3    C5 8740   1.996   2.789  17.728  0.5859 -0.2387  0.0221
  586TMC3    C6 8741   2.063   2.755  17.615 -0.1185 -0.6823  0.3783
  586TMC3     C 8742   2.255   2.887   0.168 -0.7594 -1.1294  0.1615
  586TMC3     O 8743   2.294   2.974   0.092 -0.0846  0.2225  0.7292
  586TMC3     H 8744   2.360   2.692   0.001  0.8947  2.8012  2.5405
  586TMC3    H1 8745   1.994   2.819   0.176  1.5287 -1.1683  1.1275
  586TMC3    H2 8746   2.010   2.759  17.521 -0.8216  0.7924  0.8276
  586TMC3    C7 8747   1.864   2.852  17.723  0.1642  0.6186 -0.0935
  586TMC3    C8 8748   2.259   2.656  17.517  0.5716 -0.6936 -0.0054
  586TMC3    O1 8749   1.777   2.815   0.046 -0.3307  0.2199  0.3160
  586TMC3    O2 8750   2.349   2.581  17.549 -0.2725 -0.0884 -0.4431
  587TMC3    C1 8751   3.801   2.208  15.711  0.0261 -0.9493 -0.8459
  587TMC3    C2 8752   3.853   2.278  15.821 -0.1538 -0.0276 -0.0023
  587TMC3    C3 8753   3.990   2.288  15.823 -0.0091 -0.2853  0.3782
  587TMC3    C4 8754   3.875   2.169  15.603 -0.6422  0.3962  0.5691
  587TMC3    C5 8755   4.009   2.172  15.622  0.0818  0.4993 -0.2141
  587TMC3    C6 8756   4.072   2.231  15.727 -0.0147 -0.5282  0.2925
  587TMC3     C 8757   3.661   2.235  15.690  0.3700  0.0060  0.1371
  587TMC3     O 8758   3.621   2.266  15.577  0.1298  0.5522  0.1602
  587TMC3     H 8759   3.788   2.312  15.900  0.6549  1.0627  0.1966
  587TMC3    H1 8760   3.818   2.121  15.524  0.0379  1.1343 -0.3777
  587TMC3    H2 8761   4.180   2.236  15.735 -0.1634  2.5838  0.1186
  587TMC3    C7 8762   4.086   2.125  15.514  0.4734 -0.0625  0.5139
  587TMC3    C8 8763   4.069   2.329  15.940  0.1509 -0.7460 -0.1099
  587TMC3    O1 8764   4.031   2.134  15.406 -0.5271 -0.1104  0.2825
  587TMC3    O2 8765   4.170   2.263  15.958 -0.8493  0.4374  0.0998
  588TMC3    C1 8766   1.697   0.781  10.168  1.0159  0.3124 -0.2677
  588TMC3    C2 8767   1.617   0.672  10.146  0.4168 -0.3419  0.0869
  588TMC3    C3 8768   1.658   0.551  10.201  0.4040  0.2506  0.6138
  588TMC3    C4 8769   1.822   0.770  10.222  0.5524  0.4477 -0.7832
  588TMC3    C5 8770   1.859   0.649  10.275  0.5415 -0.1412  0.1231
  588TMC3    C6 8771   1.774   0.542  10.267  0.3885  0.3262 -0.3291
  588TMC3     C 8772   1.623   0.907  10.171 -0.2698 -0.7470 -0.0950
  588TMC3     O 8773   1.503   0.919  10.134  0.4953  0.8928  0.1837
  588TMC3     H 8774   1.522   0.686  10.096 -0.4235 -0.2329  1.7063
  588TMC3    H1 8775   1.897   0.848  10.216  2.8139 -1.7176 -0.4910
  588TMC3    H2 8776   1.808   0.452  10.315  1.3653  1.0756  0.3874
  588TMC3    C7 8777   1.943   0.653  10.400 -1.0431 -0.3901  0.4869
  588TMC3    C8 8778   1.578   0.435  10.168 -0.3489 -0.1140  0.0840
  588TMC3    O1 8779   1.949   0.556  10.470 -0.0200  0.1088  0.1569
  588TMC3    O2 8780   1.474   0.468  10.116  0.4422 -0.6381  0.2193
  589TMC3    C1 8781   1.000   2.258   1.126  0.6896 -0.0386  0.6196
  589TMC3    C2 8782   1.104   2.342   1.108 -0.2223  0.3472 -0.3531
  589TMC3    C3 8783   1.229   2.289   1.078 -0.5687  0.5284  0.3230
  589TMC3    C4 8784   1.011   2.121   1.122 -0.3722 -0.8825  0.5427
  589TMC3    C5 8785   1.138   2.074   1.080  0.6902  0.1660 -0.6007
  589TMC3    C6 8786   1.247   2.159   1.064  0.2596  0.2054  0.4506
  589TMC3     C 8787   0.868   2.309   1.182  0.1438 -0.1029 -0.4265
  589TMC3     O 8788   0.779   2.230   1.158 -0.3501  0.4025  0.7123
  589TMC3     H 8789   1.083   2.446   1.132  0.6684  0.5135 -0.2936
  589TMC3    H1 8790   0.926   2.055   1.130 -0.5241 -0.6099  1.1347
  589TMC3    H2 8791   1.340   2.103   1.073  1.1543  0.7811 -4.9447
  589TMC3    C7 8792   1.151   1.935   1.064  0.3599  0.5106  0.1136
  589TMC3    C8 8793   1.344   2.379   1.094  0.2084  0.1142 -0.4514
  589TMC3    O1 8794   1.056   1.874   1.111 -0.3201 -0.7903  0.0616
  589TMC3    O2 8795   1.322   2.500   1.072 -0.0703  0.0009  0.1674
  590MPD2     C 8796   0.451   0.309  16.527  0.3368  0.2936  0.6611
  590MPD2    C1 8797   0.423   0.430  16.580  0.0470  0.5707 -0.1790
  590MPD2    C2 8798   0.516   0.526  16.606 -0.2654  0.1839  0.1584
  590MPD2    C3 8799   0.650   0.500  16.561  1.0446 -0.1067  0.5422
  590MPD2    C4 8800   0.677   0.369  16.510 -0.3933 -0.0149  0.0595
  590MPD2    C5 8801   0.580   0.276  16.492  0.1866 -0.0425 -0.2285
  590MPD2     H 8802   0.495   0.625  16.643  3.6030  1.5311 -1.2727
  590MPD2    H1 8803   0.774   0.335  16.476 -0.8092 -0.7712 -0.3892
  590MPD2    H2 8804   0.377   0.232  16.509  0.8652  0.0469 -0.4013
  590MPD2    H3 8805   0.601   0.184  16.438 -1.3921 -0.6416  0.1671
  590MPD2     N 8806   0.739   0.612  16.567  0.2335  0.2930  0.4538
  590MPD2    H5 8807   0.703   0.704  16.588  0.5367  0.5478 -0.1507
  590MPD2    N1 8808   0.284   0.448  16.610  0.2521  0.2022  0.1925
  590MPD2    H7 8809   0.231   0.376  16.561  1.5867  0.8538 -2.2150
  591TMC3    C1 8810   0.915   0.718  16.444 -0.0109 -0.1534  0.3188
  591TMC3    C2 8811   0.961   0.700  16.317 -0.2684  0.3630  0.4309
  591TMC3    C3 8812   0.966   0.810  16.238  0.5026  0.0834 -0.0618
  591TMC3    C4 8813   0.886   0.842  16.494  0.0957 -0.7553  0.3303
  591TMC3    C5 8814   0.906   0.956  16.414 -0.0207  0.7820 -0.2559
  591TMC3    C6 8815   0.946   0.940  16.280  0.4374  0.0671 -0.4036
  591TMC3     C 8816   0.865   0.598  16.502  0.6947  0.2387 -0.4904
  591TMC3     O 8817   0.944   0.504  16.491 -0.4294  0.4609  0.2864
  591TMC3     H 8818   0.959   0.601  16.275  1.4654  0.4367  0.1709
  591TMC3    H1 8819   0.853   0.852  16.597 -2.2977 -0.8752 -0.4267
  591TMC3    H2 8820   0.966   1.026  16.216 -2.4273 -0.7650 -2.4098
  591TMC3    C7 8821   0.832   1.075  16.461 -0.1763 -0.5218 -0.0728
  591TMC3    C8 8822   1.027   0.792  16.109 -0.0774  0.1296  0.4222
  591TMC3    O1 8823   0.784   1.071  16.575 -0.0928  0.4604  0.9643
  591TMC3    O2 8824   1.082   0.687  16.087 -0.2447 -0.2910  0.7754
  592MPD2     C 8825   0.994   2.959  11.659  0.1268 -0.8381  0.1097
  592MPD2    C1 8826   0.980   2.999  11.786 -0.5159 -0.1925 -0.3714
  592MPD2    C2 8827   0.909   2.920  11.878 -0.0011  0.3526 -0.9035
  592MPD2    C3 8828   0.844   2.806  11.840  0.1977  0.6913 -0.2732
  592MPD2    C4 8829   0.870   2.761  11.710  0.2750 -1.0328  0.8686
  592MPD2    C5 8830   0.953   2.828  11.627 -0.5157  0.1478  0.2787
  592MPD2     H 8831   0.890   2.947  11.981  1.0550  1.0890 -0.8960
  592MPD2    H1 8832   0.839   2.660  11.686 -0.5381 -0.5488 -0.1439
  592MPD2    H2 8833   1.050   3.019  11.588  0.6305 -1.1218  0.2653
  592MPD2    H3 8834   0.970   2.781  11.531 -3.0103 -1.4873  0.6400
  592MPD2     N 8835   0.769   2.731  11.939 -0.0235 -1.0233  0.2479
  592MPD2    H5 8836   0.772   2.770  12.032 -1.5172 -1.1568  0.3362
  592MPD2    N1 8837   1.044   3.125  11.809 -0.5825  0.1107  0.3718
  592MPD2    H7 8838   1.081   3.173  11.728  1.4258 -1.1753  0.5192
  593TMC3    C1 8839   1.149   3.302  11.935  0.1324 -0.5635 -0.1218
  593TMC3    C2 8840   1.131   3.411  12.015 -0.0462 -0.2547  0.4178
  593TMC3    C3 8841   1.230   3.505  12.010  0.3323  0.1131 -0.2159
  593TMC3    C4 8842   1.275   3.279  11.877  0.5230 -0.2674 -0.2374
  593TMC3    C5 8843   1.378   3.369  11.891 -0.3142  0.2431  0.0773
  593TMC3    C6 8844   1.359   3.493  11.947  0.4316  0.3142 -0.1355
  593TMC3     C 8845   1.060   3.185  11.930  0.3622 -0.3093  0.2312
  593TMC3     O 8846   0.992   3.167  12.031  0.1215  0.3299  0.4536
  593TMC3     H 8847   1.042   3.440  12.071 -0.1352  1.2192 -0.5028
  593TMC3    H1 8848   1.293   3.185  11.827  0.5537  0.0097 -0.7465
  593TMC3    H2 8849   1.440   3.564  11.959  1.5040 -0.6749 -1.4017
  593TMC3    C7 8850   1.496   3.371  11.799  0.5014  0.1494  0.3706
  593TMC3    C8 8851   1.197   3.625  12.086  0.1499  0.5652 -0.0725
  593TMC3    O1 8852   1.524   3.472  11.730  0.0299  0.1261  0.2449
  593TMC3    O2 8853   1.089   3.677  12.056  0.6453  0.1741  0.2697
  594MPD2     C 8854   4.134   1.348  14.213 -0.1264  0.4260 -0.2949
  594MPD2    C1 8855   4.166   1.368  14.347 -0.8304  0.3670  0.1975
  594MPD2    C2 8856   4.270   1.454  14.373 -0.4320 -0.6723 -0.0280
  594MPD2    C3 8857   4.351   1.510  14.277 -0.2345 -0.9445 -0.5250
  594MPD2    C4 8858   4.321   1.481  14.146  0.4695 -0.7345 -0.6722
  594MPD2    C5 8859   4.204   1.413  14.119  0.3393  0.5192  0.1099
  594MPD2     H 8860   4.306   1.471  14.474 -0.0221 -1.4793 -0.0451
  594MPD2    H1 8861   4.372   1.520  14.058  0.0938  2.9788  0.7421
  594MPD2    H2 8862   4.051   1.287  14.180  0.1558 -0.2169  0.1959
  594MPD2    H3 8863   4.178   1.413  14.013 -0.2747 -0.5171  0.2557
  594MPD2     N 8864   4.460   1.589  14.322 -0.1903 -0.1624 -0.0090
  594MPD2    H5 8865   4.479   1.613  14.419  0.7689 -0.2376 -0.1862
  594MPD2    N1 8866   4.069   1.323  14.442 -0.1364  0.5625  0.2582
  594MPD2    H7 8867   3.980   1.286  14.410 -0.3377  1.6530 -0.4395
  595TMC3    C1 8868   0.118   1.837  14.259 -0.0705 -0.6195 -0.4898
  595TMC3    C2 8869   0.037   1.729  14.249 -0.9371 -0.1052  0.2882
  595TMC3    C3 8870   4.654   1.727  14.304  0.0043 -0.5646  0.8682
  595TMC3    C4 8871   0.074   1.928  14.349 -0.0778 -0.4803  0.2792
  595TMC3    C5 8872   4.703   1.912  14.433 -0.2733 -0.1245  0.5835
  595TMC3    C6 8873   4.610   1.816  14.401 -0.0947 -0.7976  0.8285
  595TMC3     C 8874   0.254   1.799  14.280  0.8678  0.0243  0.0615
  595TMC3     O 8875   0.270   1.695  14.347 -0.3329  0.1386  0.0214
  595TMC3     H 8876   0.064   1.635  14.204  1.0287 -0.2789  1.8363
  595TMC3    H1 8877   0.148   1.999  14.384  0.0933 -1.1728  1.3320
  595TMC3    H2 8878   4.505   1.822  14.431 -0.5199 -1.7234 -0.4761
  595TMC3    C7 8879   4.671   2.006  14.538 -0.4620  0.5463 -0.2609
  595TMC3    C8 8880   4.557   1.636  14.239 -0.3382 -0.1284 -0.6497
  595TMC3    O1 8881   4.579   1.971  14.611  0.0359  0.4384 -0.2905
  595TMC3    O2 8882   4.580   1.603  14.120 -0.3363  0.5240  0.2801
  596MPD2     C 8883   3.511   4.411  16.930 -0.4185  0.4976 -0.8721
  596MPD2    C1 8884   3.519   4.540  16.890  0.4159  0.2556 -0.3922
  596MPD2    C2 8885   3.608   4.571  16.787 -0.2223  0.1045 -0.5237
  596MPD2    C3 8886   3.671   4.461  16.716  0.0074  0.2139 -0.2210
  596MPD2    C4 8887   3.662   4.330  16.766 -0.2113 -0.1844  0.9120
  596MPD2    C5 8888   3.581   4.309  16.872 -0.3285 -0.0993  0.5711
  596MPD2     H 8889   3.626   4.673  16.755 -1.0797 -0.0608 -1.5612
  596MPD2    H1 8890   3.720   4.251  16.720  0.4232 -0.5535  2.3252
  596MPD2    H2 8891   3.430   4.387  16.998  1.2299  0.5417  1.0915
  596MPD2    H3 8892   3.564   4.207  16.902 -0.2193 -0.1712  0.3880
  596MPD2     N 8893   3.737   4.481  16.591 -0.5683 -0.2130  0.0152
  596MPD2    H5 8894   3.777   4.395  16.556  0.8650  0.9361 -1.1381
  596MPD2    N1 8895   3.451   4.641  16.955 -0.3128 -0.3118  0.2014
  596MPD2    H7 8896   3.457   4.729  16.904  3.7625 -0.4966  0.3580
  597TMC3    C1 8897   3.337   0.030  17.119  0.0889 -0.4523  0.4400
  597TMC3    C2 8898   3.376   0.150  17.061 -0.0268 -0.0792 -0.8440
  597TMC3    C3 8899   3.296   0.257  17.082  0.8549  0.3310 -0.2049
  597TMC3    C4 8900   3.237   0.021  17.211  0.7316 -0.1410 -0.0147
  597TMC3    C5 8901   3.162   0.138  17.236 -0.4023 -0.7622 -0.4593
  597TMC3    C6 8902   3.189   0.254  17.172 -0.7495 -0.1619  0.6563
  597TMC3     C 8903   3.391   4.641  17.075 -0.2797 -0.1394  0.5399
  597TMC3     O 8904   3.351   4.544  17.136 -0.3264  1.1686  0.2055
  597TMC3     H 8905   3.454   0.152  16.986  0.9785  0.0825  0.2187
  597TMC3    H1 8906   3.200   4.667  17.252  1.0983 -0.8302 -1.2627
  597TMC3    H2 8907   3.117   0.334  17.181 -2.5926 -1.6220 -1.1414
  597TMC3    C7 8908   3.075   0.141  17.353  0.3819 -0.0520  0.3541
  597TMC3    C8 8909   3.313   0.384  17.026  0.1059 -1.0480 -0.2118
  597TMC3    O1 8910   3.015   0.039  17.386  1.0216  0.1598 -0.0823
  597TMC3    O2 8911   3.251   0.471  17.088 -0.0671 -0.2954  0.4529
  598TMC3    C1 8912   1.693   1.111  15.307  0.2581  0.4583  0.1399
  598TMC3    C2 8913   1.603   1.010  15.281  0.0598 -0.1768 -0.5340
  598TMC3    C3 8914   1.509   1.049  15.184  0.1080 -0.0102 -0.1115
  598TMC3    C4 8915   1.685   1.240  15.264 -0.8640  0.0343 -0.9974
  598TMC3    C5 8916   1.578   1.273  15.190 -0.5198  0.3057 -0.7097
  598TMC3    C6 8917   1.499   1.175  15.137  0.4965  0.8093  0.3564
  598TMC3     C 8918   1.790   1.093  15.409 -0.0834  0.4881 -0.7504
  598TMC3     O 8919   1.875   1.181  15.413  0.0595 -0.0862  0.2045
  598TMC3     H 8920   1.617   0.909  15.317 -0.1349 -0.3341 -0.9005
  598TMC3    H1 8921   1.762   1.315  15.279 -0.1697 -0.5169 -1.8655
  598TMC3    H2 8922   1.407   1.201  15.088 -0.2567  1.0536  1.8909
  598TMC3    C7 8923   1.610   1.355  15.067 -0.0551  0.0633 -0.0337
  598TMC3    C8 8924   1.456   0.943  15.091 -0.6381  0.6520 -0.6357
  598TMC3    O1 8925   1.571   1.304  14.963 -0.1859 -0.1935 -0.6740
  598TMC3    O2 8926   1.465   0.823  15.124  0.1998 -0.5163  0.5170
  599MPD2     C 8927   1.633   3.099  15.465 -0.1674 -0.1250  0.2682
  599MPD2    C1 8928   1.695   3.067  15.584 -0.4225 -0.1490 -0.1785
  599MPD2    C2 8929   1.628   3.091  15.702 -0.4210 -0.6805  0.2218
  599MPD2    C3 8930   1.497   3.128  15.709 -0.0597  0.7074  0.0309
  599MPD2    C4 8931   1.433   3.155  15.586 -0.3719 -0.3524  0.4651
  599MPD2    C5 8932   1.502   3.144  15.471  0.1176  0.6127 -0.6854
  599MPD2     H 8933   1.676   3.082  15.798  0.3053 -1.0872 -0.1763
  599MPD2    H1 8934   1.330   3.188  15.575  0.6635  2.4277 -0.5644
  599MPD2    H2 8935   1.684   3.091  15.370 -2.5162  0.1201 -1.0091
  599MPD2    H3 8936   1.445   3.165  15.381 -1.3043  0.1767  0.1048
  599MPD2     N 8937   1.420   3.159  15.823  0.5905 -0.0205 -0.0543
  599MPD2    H5 8938   1.323   3.186  15.808  0.3831  0.7891  2.8068
  599MPD2    N1 8939   1.832   3.022  15.579 -0.2734 -0.2797 -0.0698
  599MPD2    H7 8940   1.875   3.003  15.489  2.4778  0.0292  1.1970
  600TMC3    C1 8941   1.389   3.220  16.053  0.0081  0.1895 -0.4321
  600TMC3    C2 8942   1.283   3.142  16.082  0.2470  0.8727 -0.2829
  600TMC3    C3 8943   1.231   3.162  16.208  0.7750  0.5604 -0.1278
  600TMC3    C4 8944   1.442   3.315  16.136  0.0514 -0.2406 -1.2337
  600TMC3    C5 8945   1.383   3.330  16.262 -0.3466  0.3824  0.2893
  600TMC3    C6 8946   1.282   3.249  16.304 -0.3069  0.4815 -0.0708
  600TMC3     C 8947   1.476   3.168  15.950  0.1043  1.0187  0.0778
  600TMC3     O 8948   1.595   3.180  15.977 -0.0051 -0.4247 -0.2735
  600TMC3     H 8949   1.248   3.063  16.016 -1.1095  0.8990  0.4001
  600TMC3    H1 8950   1.522   3.369  16.087 -1.0305  2.2731 -0.2657
  600TMC3    H2 8951   1.236   3.273  16.400  1.8382  2.6962  0.4007
  600TMC3    C7 8952   1.415   3.444  16.338  0.1434 -0.4472  0.1620
  600TMC3    C8 8953   1.121   3.075  16.246  0.1027 -0.1095 -0.4601
  600TMC3    O1 8954   1.379   3.458  16.455 -0.0347 -0.2326 -0.0179
  600TMC3    O2 8955   1.072   3.002  16.162  0.1082 -0.4575  0.6923
  601MPD2     C 8956   3.988   1.031  17.442 -0.3549 -0.4047  0.6181
  601MPD2    C1 8957   3.876   1.109  17.448  0.5204 -0.4730  0.1806
  601MPD2    C2 8958   3.807   1.107  17.571  0.4189  0.6006 -0.1970
  601MPD2    C3 8959   3.854   1.027  17.674 -0.3734 -0.9049  0.7046
  601MPD2    C4 8960   3.971   0.960  17.662  0.0821  0.2223  0.5666
  601MPD2    C5 8961   4.036   0.961  17.546 -0.0863  0.4291  0.1132
  601MPD2     H 8962   3.710   1.156  17.579 -0.3393 -1.0324  0.5180
  601MPD2    H1 8963   4.002   0.898  17.745  0.8895  0.3531  0.3645
  601MPD2    H2 8964   4.044   1.019  17.351  1.4835 -1.1607  1.8593
  601MPD2    H3 8965   4.131   0.908  17.540  0.0650  0.9272 -2.1123
  601MPD2     N 8966   3.781   1.006   0.035  0.6131  0.3281 -0.0344
  601MPD2    H5 8967   3.824   0.962   0.116  2.0763  0.4319 -0.7402
  601MPD2    N1 8968   3.832   1.193  17.346  0.3161 -0.4369  0.3947
  601MPD2    H7 8969   3.743   1.241  17.358 -0.1992 -0.7317 -2.2860
  602TMC3    C1 8970   3.832   1.317  17.139 -0.7219  0.3976 -0.0960
  602TMC3    C2 8971   3.915   1.414  17.090 -0.0154 -0.7802  0.7135
  602TMC3    C3 8972   3.855   1.523  17.030  0.2108 -0.6145  0.0931
  602TMC3    C4 8973   3.695   1.323  17.130 -0.0627  0.1317  0.2613
  602TMC3    C5 8974   3.637   1.434  17.062  0.1978 -0.0285 -0.7177
  602TMC3    C6 8975   3.718   1.528  17.002  0.2942 -0.6777  0.0459
  602TMC3     C 8976   3.903   1.223  17.233  0.2268 -0.0237  0.4633
  602TMC3     O 8977   4.022   1.209  17.202 -0.0821 -0.3901 -0.0487
  602TMC3     H 8978   4.023   1.412  17.098 -0.1218  0.2613  2.3898
  602TMC3    H1 8979   3.637   1.249  17.184 -1.8866  2.7484  1.9099
  602TMC3    H2 8980   3.679   1.594  16.926  0.4111  0.6676  1.1484
  602TMC3    C7 8981   3.488   1.448  17.047  1.1316 -0.6777 -0.0664
  602TMC3    C8 8982   3.932   1.629  16.978  0.3156  0.4124 -0.6285
  602TMC3    O1 8983   3.414   1.352  17.073  0.0483 -0.3018 -0.6210
  602TMC3    O2 8984   4.050   1.619  16.951  0.1835  0.5225  0.4154
  603TMC3    C1 8985   2.050   2.461  11.189  0.8764 -0.3326  0.2931
  603TMC3    C2 8986   2.102   2.448  11.314 -0.1386 -0.4035  0.0297
  603TMC3    C3 8987   2.082   2.552  11.396  0.0979  0.2462 -0.2982
  603TMC3    C4 8988   1.972   2.562  11.151  0.1392  0.2258  0.7033
  603TMC3    C5 8989   1.941   2.665  11.239 -0.2179 -0.9188  0.1196
  603TMC3    C6 8990   2.008   2.662  11.360  0.2698  0.2910  0.1662
  603TMC3     C 8991   2.071   2.349  11.092 -0.2032 -0.0780 -0.5084
  603TMC3     O 8992   2.168   2.276  11.119  0.0326  0.2041 -0.3165
  603TMC3     H 8993   2.172   2.370  11.342 -1.4830 -1.5571  0.2083
  603TMC3    H1 8994   1.960   2.575  11.044 -2.0092 -0.3295  0.8777
  603TMC3    H2 8995   1.983   2.736  11.436  1.8992 -2.1728  3.1213
  603TMC3    C7 8996   1.861   2.777  11.195 -0.1461  0.2336 -0.0321
  603TMC3    C8 8997   2.106   2.514  11.543  0.2537 -0.0049  1.1497
  603TMC3    O1 8998   1.878   2.884  11.253  1.0618  0.4175 -0.2133
  603TMC3    O2 8999   2.135   2.395  11.558  0.3879  0.1260 -0.6287
  604MPD2     C 9000   2.692   0.994  16.325  0.6160  0.3968  0.4422
  604MPD2    C1 9001   2.611   0.925  16.235  1.0436 -0.0567 -0.6869
  604MPD2    C2 9002   2.657   0.891  16.107  0.7667  0.2524 -0.0321
  604MPD2    C3 9003   2.791   0.916  16.080  0.0334  0.5806  0.1785
  604MPD2    C4 9004   2.862   0.998  16.158  1.4843 -0.5653 -0.1268
  604MPD2    C5 9005   2.814   1.043  16.277 -0.1717  0.1929 -0.0728
  604MPD2     H 9006   2.599   0.820  16.048  0.8210 -0.3670  0.6632
  604MPD2    H1 9007   2.960   1.028  16.122  1.1075  1.9395  0.9105
  604MPD2    H2 9008   2.669   1.014  16.429 -2.6993  0.5464 -0.3052
  604MPD2    H3 9009   2.878   1.107  16.337  0.0830  0.7101 -0.8989
  604MPD2     N 9010   2.852   0.863  15.961  0.7739 -0.1139 -0.3497
  604MPD2    H5 9011   2.789   0.800  15.912 -2.7257 -0.5635  4.6941
  604MPD2    N1 9012   2.472   0.900  16.276  0.2468 -0.8379 -0.0274
  604MPD2    H7 9013   2.440   0.939  16.364  0.6962  0.3767 -0.4129
  605TMC3    C1 9014   2.260   0.807  16.286 -0.4001  0.9213  0.6889
  605TMC3    C2 9015   2.300   0.779  16.418 -0.1884 -0.0401  0.3977
  605TMC3    C3 9016   2.243   0.859  16.519  0.6070 -0.4497  0.2194
  605TMC3    C4 9017   2.159   0.898  16.252 -0.3600  0.5285  0.0610
  605TMC3    C5 9018   2.105   0.975  16.354 -0.4758  0.0614 -0.8374
  605TMC3    C6 9019   2.154   0.957  16.479  0.1423 -0.5651  0.3970
  605TMC3     C 9020   2.379   0.835  16.209  0.2435 -0.4192  0.3090
  605TMC3     O 9021   2.373   0.821  16.088  0.3372  0.3262 -0.3885
  605TMC3     H 9022   2.376   0.706  16.443 -0.5323 -0.5277  0.0237
  605TMC3    H1 9023   2.129   0.912  16.149 -0.7976  1.2205  0.2795
  605TMC3    H2 9024   2.119   1.026  16.555 -1.5179 -0.4198 -0.4941
  605TMC3    C7 9025   2.011   1.085  16.325  0.1291  0.0422  0.3098
  605TMC3    C8 9026   2.348   0.903  16.597  0.5619  0.6224  0.2727
  605TMC3    O1 9027   1.976   1.152  16.419  0.2795  0.0183  0.4566
  605TMC3    O2 9028   2.377   1.023  16.584  1.2986 -0.0067 -0.5851
  606TMC3    C1 9029   4.037   4.397  16.959  0.3078  0.3892  0.3106
  606TMC3    C2 9030   4.125   4.291  16.954  0.3689  0.6986 -0.1119
  606TMC3    C3 9031   4.085   4.177  17.015 -0.5875  0.1298 -0.7528
  606TMC3    C4 9032   3.913   4.389  17.015  0.0673 -0.0708 -0.4003
  606TMC3    C5 9033   3.877   4.270  17.076 -0.0714  0.3500 -0.1351
  606TMC3    C6 9034   3.962   4.168  17.075 -0.3131  0.2328 -1.1356
  606TMC3     C 9035   4.061   4.528  16.905 -0.8747 -0.5774 -0.6434
  606TMC3     O 9036   3.990   4.619  16.942  0.5082  0.3548  0.4742
  606TMC3     H 9037   4.227   4.293  16.917  0.9789  0.1696  1.5562
  606TMC3    H1 9038   3.847   4.476  17.017 -0.4839 -0.4884 -0.4901
  606TMC3    H2 9039   3.929   4.079  17.128  2.7953  0.0086  0.4067
  606TMC3    C7 9040   3.810   4.282  17.205 -0.0550  0.1143 -0.2890
  606TMC3    C8 9041   4.179   4.128  17.117 -0.1718  0.6703 -0.8024
  606TMC3    O1 9042   3.820   4.387  17.273 -0.2084 -0.7708 -0.3145
  606TMC3    O2 9043   4.129   4.109  17.225  0.6589 -0.0030  0.0003
  607MPD2     C 9044   1.076   2.371  11.489 -0.2328 -0.4161  0.1685
  607MPD2    C1 9045   1.115   2.446  11.605  0.4244  0.0328 -0.2824
  607MPD2    C2 9046   1.068   2.404  11.726  0.5436 -0.2214 -0.8491
  607MPD2    C3 9047   0.998   2.280  11.743 -0.3819 -0.0585 -0.0868
  607MPD2    C4 9048   0.968   2.204  11.632  0.0700  0.4023  0.0903
  607MPD2    C5 9049   1.003   2.247  11.506  0.8428 -0.2561 -0.7793
  607MPD2     H 9050   1.089   2.457  11.818  0.8952  0.0924 -1.1110
  607MPD2    H1 9051   0.913   2.111  11.639  1.7802 -0.4860  1.6523
  607MPD2    H2 9052   1.084   2.404  11.386  2.5031 -0.4276  0.3742
  607MPD2    H3 9053   0.980   2.192  11.416  0.2995 -1.3130  0.0070
  607MPD2     N 9054   0.952   2.250  11.877  0.2583 -0.1258  0.4081
  607MPD2    H5 9055   0.953   2.331  11.937  0.0648 -0.0488  0.3079
  607MPD2    N1 9056   1.199   2.562  11.603  0.3253 -0.3585  0.2922
  607MPD2    H7 9057   1.223   2.609  11.689 -1.4935  1.6045 -0.2821
  608TMC3    C1 9058   1.315   2.737  11.533 -0.4110 -0.2201  0.0241
  608TMC3    C2 9059   1.342   2.768  11.666  0.2871  0.2575  0.0703
  608TMC3    C3 9060   1.391   2.893  11.696  0.5146 -0.3566  0.3733
  608TMC3    C4 9061   1.314   2.829  11.432 -0.2047 -0.1751 -0.2966
  608TMC3    C5 9062   1.339   2.964  11.474 -0.4875  0.9290 -0.2076
  608TMC3    C6 9063   1.383   2.989  11.602 -0.5509 -0.1124  0.4278
  608TMC3     C 9064   1.268   2.605  11.495 -0.3007  0.0370  0.0464
  608TMC3     O 9065   1.258   2.579  11.375 -0.4266 -0.6668  0.2589
  608TMC3     H 9066   1.343   2.685  11.737 -0.3725  0.0762 -0.1334
  608TMC3    H1 9067   1.260   2.807  11.341  1.2020 -1.2850 -0.8406
  608TMC3    H2 9068   1.406   3.092  11.626 -1.6361  0.5394 -1.3441
  608TMC3    C7 9069   1.310   3.072  11.376  0.3234  0.1813 -0.1332
  608TMC3    C8 9070   1.362   2.934  11.837  0.0828  1.3049  0.3312
  608TMC3    O1 9071   1.255   3.039  11.275 -0.0282  0.8904 -0.0572
  608TMC3    O2 9072   1.431   3.022  11.891 -0.1401 -0.2606 -0.5902
  609TMC3    C1 9073   4.522   1.837   9.508  0.0221  0.4479 -0.4981
  609TMC3    C2 9074   4.467   1.929   9.419  0.5251  0.1134 -0.5042
  609TMC3    C3 9075   4.529   1.951   9.304 -0.0924 -0.3829 -0.0074
  609TMC3    C4 9076   4.627   1.757   9.476  0.5111  0.6980  0.1808
  609TMC3    C5 9077   4.664   1.765   9.339  0.3769 -0.0170  0.1698
  609TMC3    C6 9078   4.626   1.873   9.261 -0.3797  0.6817  0.0627
  609TMC3     C 9079   4.475   1.847   9.649  0.1626 -0.6619 -0.7308
  609TMC3     O 9080   4.492   1.754   9.726 -0.0273  0.7410  0.4067
  609TMC3     H 9081   4.372   1.981   9.428  0.9472  1.0079 -1.2653
  609TMC3    H1 9082   4.652   1.668   9.533 -0.4283  1.3014  1.5363
  609TMC3    H2 9083   4.686   1.905   9.176 -1.8345  0.8746 -0.8929
  609TMC3    C7 9084   0.053   1.703   9.307 -0.5593 -0.6901  0.1978
  609TMC3    C8 9085   4.441   2.013   9.195  0.5130 -0.0510  0.0502
  609TMC3    O1 9086   0.109   1.645   9.395 -0.1247  0.0674  0.4050
  609TMC3    O2 9087   4.352   2.089   9.241  0.4509 -0.3294  0.3789
  610TMC3    C1 9088   1.668   2.711  12.916 -0.2615  0.8343  0.4219
  610TMC3    C2 9089   1.729   2.826  12.870  0.1065 -1.1218  0.2659
  610TMC3    C3 9090   1.861   2.826  12.841  0.3197  0.3691 -0.3479
  610TMC3    C4 9091   1.746   2.600  12.953 -0.5533 -0.3935 -0.9989
  610TMC3    C5 9092   1.882   2.607  12.930  0.8644 -0.0231  0.4796
  610TMC3    C6 9093   1.945   2.716  12.869  0.1472 -0.5079  0.3494
  610TMC3     C 9094   1.528   2.712  12.944  0.1260  0.1556  0.4416
  610TMC3     O 9095   1.473   2.819  12.971 -0.2557  0.3814  0.9510
  610TMC3     H 9096   1.669   2.914  12.847  1.6876  0.1314  0.9329
  610TMC3    H1 9097   1.701   2.519  13.008  0.2004  0.3412  0.7225
  610TMC3    H2 9098   2.053   2.717  12.861  0.2917 -0.8989  2.1606
  610TMC3    C7 9099   1.977   2.498  12.973  0.0071  0.5995  0.3044
  610TMC3    C8 9100   1.899   2.939  12.760  0.5117  0.3056  0.3200
  610TMC3    O1 9101   2.099   2.520  12.969  0.0743  0.9619  0.2843
  610TMC3    O2 9102   1.823   3.033  12.741 -0.4097 -0.0116 -0.0647
  611MPD2     C 9103   0.323   2.689  10.687 -0.2288 -0.1679  0.1932
  611MPD2    C1 9104   0.382   2.613  10.588  0.2789  0.6307  0.2241
  611MPD2    C2 9105   0.519   2.593  10.603 -0.1891  0.2943  0.3974
  611MPD2    C3 9106   0.595   2.636  10.712  0.6519  0.3696  0.9086
  611MPD2    C4 9107   0.529   2.714  10.802 -0.2307 -0.0546  0.4682
  611MPD2    C5 9108   0.400   2.736  10.791 -0.5975 -0.3054 -0.6235
  611MPD2     H 9109   0.570   2.538  10.525 -2.3474  0.4233 -1.0861
  611MPD2    H1 9110   0.566   2.745  10.899  0.4866 -4.0733  1.4817
  611MPD2    H2 9111   0.217   2.708  10.678 -0.4891 -1.5173  0.3959
  611MPD2    H3 9112   0.355   2.778  10.880 -1.7550 -0.7391 -0.9959
  611MPD2     N 9113   0.734   2.611  10.734  0.3230  0.6016 -0.1767
  611MPD2    H5 9114   0.785   2.663  10.805  2.3673 -1.0461 -0.4421
  611MPD2    N1 9115   0.303   2.540  10.497  0.3759 -0.1938 -0.1266
  611MPD2    H7 9116   0.204   2.563  10.495  0.5343  0.3430 -2.7967
  612TMC3    C1 9117   0.954   2.534  10.685  0.2895  0.0359 -0.2625
  612TMC3    C2 9118   0.994   2.626  10.768  0.3138 -0.1233 -0.2108
  612TMC3    C3 9119   1.125   2.608  10.820  0.3879 -0.5336  0.4005
  612TMC3    C4 9120   1.035   2.438  10.633  0.0673 -0.5905 -0.3653
  612TMC3    C5 9121   1.166   2.430  10.677  0.1210 -0.9148  0.3431
  612TMC3    C6 9122   1.213   2.511  10.775  0.5453  0.2702  0.0451
  612TMC3     C 9123   0.811   2.531  10.648  0.5079 -0.5528 -0.7351
  612TMC3     O 9124   0.768   2.442  10.576  0.6330  0.0427  0.2015
  612TMC3     H 9125   0.934   2.703  10.814  0.8942 -0.0151  0.3566
  612TMC3    H1 9126   0.990   2.359  10.575 -1.5734  0.5933 -0.7138
  612TMC3    H2 9127   1.316   2.499  10.808 -0.2688 -0.2113  2.3230
  612TMC3    C7 9128   1.258   2.341  10.615 -0.5884  0.8915 -0.1864
  612TMC3    C8 9129   1.183   2.721  10.895  0.3435 -0.4645  0.7822
  612TMC3    O1 9130   1.364   2.326  10.678 -0.4801  0.1472  0.3085
  612TMC3    O2 9131   1.134   2.832  10.886  0.2610 -0.0989  0.3334
  613MPD2     C 9132   0.294   4.464  16.682  0.1875 -0.6283  0.4871
  613MPD2    C1 9133   0.239   4.500  16.561  0.2797  0.0720  0.2640
  613MPD2    C2 9134   0.171   4.392  16.490  0.0860  0.1291 -0.3617
  613MPD2    C3 9135   0.161   4.266  16.552 -0.1194 -0.3048 -0.2760
  613MPD2    C4 9136   0.231   4.236  16.670 -0.3197  0.2809  0.4109
  613MPD2    C5 9137   0.298   4.336  16.728 -0.3408  0.6334  0.4958
  613MPD2     H 9138   0.136   4.413  16.389 -0.4580  1.1827  0.0389
  613MPD2    H1 9139   0.227   4.139  16.717  1.7632  0.9275  1.9427
  613MPD2    H2 9140   0.344   4.534  16.748  0.1263 -1.1083  1.0387
  613MPD2    H3 9141   0.354   4.313  16.818 -0.2514 -2.7954 -0.4388
  613MPD2     N 9142   0.115   4.155  16.481  0.4578 -0.6410 -0.1898
  613MPD2    H5 9143   0.142   4.063  16.515  0.5997 -0.4649  0.1768
  613MPD2    N1 9144   0.266   4.625  16.510  0.4040  0.0778  0.3315
  613MPD2    H7 9145   0.325   4.686  16.567 -1.3488 -0.0664  2.3210
  614TMC3    C1 9146   0.288   0.040  16.336 -0.5250 -0.2807  0.2579
  614TMC3    C2 9147   0.415   4.732  16.312  0.4279 -0.0183 -0.2796
  614TMC3    C3 9148   0.446   4.717  16.179 -0.5126  0.0208  0.3779
  614TMC3    C4 9149   0.212   0.103  16.240 -0.4688 -0.8666  0.7679
  614TMC3    C5 9150   0.257   0.094  16.113 -0.6150  0.7517  0.2483
  614TMC3    C6 9151   0.369   0.030  16.076 -0.1880  0.0172 -0.6881
  614TMC3     C 9152   0.212   4.672  16.387 -0.7325  0.3262  0.2360
  614TMC3     O 9153   0.115   4.629  16.323  0.4751  0.5607  0.0161
  614TMC3     H 9154   0.473   4.672  16.381  1.7073 -1.3668 -2.5322
  614TMC3    H1 9155   0.111   0.130  16.269  0.1992  0.6937  1.6910
  614TMC3    H2 9156   0.405   0.019  15.974  2.1216  0.1626  0.1083
  614TMC3    C7 9157   0.180   0.176  16.021  0.0418  0.0781 -0.6762
  614TMC3    C8 9158   0.496   4.585  16.146  0.2505  0.0357  0.5289
  614TMC3    O1 9159   0.137   0.282  16.060  0.1506 -0.3590 -0.4484
  614TMC3    O2 9160   0.446   4.546  16.042 -0.0677  0.0153  0.1371
  615MPD2     C 9161   4.206   1.141  16.234  0.5960 -0.3288 -0.5604
  615MPD2    C1 9162   4.128   1.253  16.226  0.0704 -0.4738 -0.0672
  615MPD2    C2 9163   4.074   1.297  16.111  0.2959 -0.1782  0.1234
  615MPD2    C3 9164   4.091   1.222  16.003 -1.5126  0.3568  0.0805
  615MPD2    C4 9165   4.180   1.110  16.001  0.1698  0.1825 -0.3767
  615MPD2    C5 9166   4.226   1.068  16.116  0.0774  0.4263 -0.4097
  615MPD2     H 9167   4.006   1.382  16.115 -0.0163 -0.5198  2.1468
  615MPD2    H1 9168   4.190   1.038  15.921  1.1884 -0.7548  0.5781
  615MPD2    H2 9169   4.246   1.104  16.327  1.8569  1.1334 -0.5294
  615MPD2    H3 9170   4.279   0.974  16.126  0.2104  0.2630 -2.6674
  615MPD2     N 9171   4.030   1.280  15.896 -0.2202  0.1682 -0.8054
  615MPD2    H5 9172   3.972   1.363  15.904 -0.1834  0.0999  0.1549
  615MPD2    N1 9173   4.100   1.336  16.343 -0.8933  0.1696  0.0486
  615MPD2    H7 9174   4.035   1.413  16.339 -0.8855  0.2049  0.7592
  616TMC3    C1 9175   4.152   1.433  16.558 -0.3133  0.5418 -0.9824
  616TMC3    C2 9176   4.254   1.524  16.572 -0.2209  0.5428 -0.1622
  616TMC3    C3 9177   4.215   1.652  16.601 -0.2498 -0.6055  0.3104
  616TMC3    C4 9178   4.025   1.465  16.591 -0.8263 -0.0729  0.5558
  616TMC3    C5 9179   3.994   1.590  16.629  0.7714 -0.4032 -0.1936
  616TMC3    C6 9180   4.088   1.686  16.625  0.7788  0.0060 -0.2225
  616TMC3     C 9181   4.175   1.329  16.459 -0.3978 -0.7025  0.3104
  616TMC3     O 9182   4.284   1.273  16.474 -0.3220 -0.4340  0.1340
  616TMC3     H 9183   4.354   1.496  16.539 -0.1653 -0.8309  1.1499
  616TMC3    H1 9184   3.944   1.403  16.553 -0.9278  1.5031 -1.8073
  616TMC3    H2 9185   4.064   1.786  16.660 -0.0371 -0.0069 -0.7402
  616TMC3    C7 9186   3.851   1.629  16.638 -0.0939 -0.2691  0.1059
  616TMC3    C8 9187   4.307   1.758  16.602 -0.5447  1.0391  0.5471
  616TMC3    O1 9188   3.763   1.550  16.653  0.1148 -0.3095  0.1067
  616TMC3    O2 9189   4.259   1.871  16.613  0.1768 -0.0202  0.4539
  617MPD2     C 9190   2.629   4.254  14.469 -0.0193 -0.0894 -0.1168
  617MPD2    C1 9191   2.555   4.220  14.362 -0.5394  0.1017  0.7114
  617MPD2    C2 9192   2.427   4.180  14.358  0.4357 -0.1177 -0.3459
  617MPD2    C3 9193   2.371   4.166  14.482  0.1707 -0.2755 -0.2139
  617MPD2    C4 9194   2.446   4.191  14.594  0.5081 -0.4642 -0.5930
  617MPD2    C5 9195   2.571   4.238  14.590 -0.0259  0.2922 -0.2364
  617MPD2     H 9196   2.372   4.158  14.267 -0.1381  1.0540 -0.2771
  617MPD2    H1 9197   2.411   4.165  14.694 -1.4566  0.2942 -1.0764
  617MPD2    H2 9198   2.730   4.293  14.464  0.6342 -1.8833 -0.8821
  617MPD2    H3 9199   2.631   4.238  14.680 -0.1504  0.6112 -0.1532
  617MPD2     N 9200   2.241   4.112  14.510 -0.0177 -0.3260  0.6428
  617MPD2    H5 9201   2.223   4.086  14.606  1.5604 -1.6199  0.5781
  617MPD2    N1 9202   2.624   4.228  14.243  0.3536 -0.2124 -0.4276
  617MPD2    H7 9203   2.718   4.263  14.256  0.3124 -0.5154  0.7126
  618TMC3    C1 9204   2.703   4.238  14.027  0.5281  0.2612 -0.0470
  618TMC3    C2 9205   2.829   4.231  14.078 -0.0115  0.2539  0.0106
  618TMC3    C3 9206   2.930   4.303  14.013  0.2613 -1.0335  0.2420
  618TMC3    C4 9207   2.668   4.317  13.923 -0.3118  0.4516 -0.5533
  618TMC3    C5 9208   2.763   4.393  13.867 -0.3806 -0.2916  0.6884
  618TMC3    C6 9209   2.896   4.378  13.901 -0.6463  0.6210 -0.5435
  618TMC3     C 9210   2.590   4.198  14.114  0.5404 -0.0376 -0.2104
  618TMC3     O 9211   2.483   4.174  14.055  0.1065 -0.8075 -0.0249
  618TMC3     H 9212   2.854   4.168  14.163 -0.2327 -0.7713 -0.6819
  618TMC3    H1 9213   2.563   4.329  13.897 -0.7586 -3.0751 -0.3221
  618TMC3    H2 9214   2.963   4.457  13.869 -0.2946 -0.0912 -1.5783
  618TMC3    C7 9215   2.722   4.513  13.802 -0.0194 -0.0232 -0.6298
  618TMC3    C8 9216   3.068   4.272  14.045  0.1351 -0.3047  0.7127
  618TMC3    O1 9217   2.634   4.572  13.863  0.4342  0.0397  0.6876
  618TMC3    O2 9218   3.096   4.266  14.163  0.3731 -0.0546  0.1967
  619MPD2     C 9219   3.772   0.703  13.933 -0.4102  0.0133 -0.6187
  619MPD2    C1 9220   3.699   0.793  13.858  0.5378 -0.0876  1.1710
  619MPD2    C2 9221   3.562   0.782  13.865  0.4796  0.3225 -0.2568
  619MPD2    C3 9222   3.506   0.679  13.932  0.1443 -0.1007 -0.6995
  619MPD2    C4 9223   3.585   0.595  14.011  0.0469 -0.0045 -0.4785
  619MPD2    C5 9224   3.718   0.611  14.007  0.1197  0.3388 -0.5650
  619MPD2     H 9225   3.503   0.852  13.807  0.8399  1.0569  0.2560
  619MPD2    H1 9226   3.546   0.504  14.054  2.0899 -0.4306  0.4747
  619MPD2    H2 9227   3.878   0.715  13.955 -0.1024  0.5887 -2.4080
  619MPD2    H3 9228   3.778   0.541  14.064  0.2858  2.2377  1.5916
  619MPD2     N 9229   3.367   0.659  13.941  0.0537  0.1949 -0.0844
  619MPD2    H5 9230   3.323   0.611  14.018 -1.9316 -1.7744 -2.4819
  619MPD2    N1 9231   3.751   0.899  13.787  0.3688  0.3670  0.2237
  619MPD2    H7 9232   3.685   0.956  13.737  3.6106  4.2590  0.3341
  620TMC3    C1 9233   3.883   1.082  13.733  0.3045  0.2589 -0.9008
  620TMC3    C2 9234   3.803   1.125  13.631  0.8062 -0.1481 -0.1221
  620TMC3    C3 9235   3.807   1.256  13.597 -0.3315 -0.1430 -0.7126
  620TMC3    C4 9236   3.949   1.172  13.811  0.2107 -0.2283  0.0117
  620TMC3    C5 9237   3.962   1.304  13.774 -0.6878  0.2267 -0.6644
  620TMC3    C6 9238   3.896   1.337  13.661  0.1862  0.3127 -0.5608
  620TMC3     C 9239   3.880   0.941  13.770  0.1190  0.3410 -0.0122
  620TMC3     O 9240   3.981   0.894  13.823  0.1453  0.2276  0.2833
  620TMC3     H 9241   3.749   1.051  13.574 -0.1793  1.0819 -0.7802
  620TMC3    H1 9242   3.993   1.130  13.901  2.7749 -0.9611 -1.5810
  620TMC3    H2 9243   3.885   1.443  13.642 -1.5308  0.2320  0.0152
  620TMC3    C7 9244   3.947   1.414  13.862  0.1289  0.1260  0.7379
  620TMC3    C8 9245   3.683   1.319  13.567 -0.5924 -0.6614  0.1602
  620TMC3    O1 9246   3.974   1.530  13.827  0.0645 -0.0643 -0.1902
  620TMC3    O2 9247   3.661   1.411  13.643 -0.2985 -0.3654 -0.6555
  621MPD2     C 9248   4.269   0.901  10.475  0.5175  0.3857  0.4141
  621MPD2    C1 9249   4.294   0.861  10.348 -0.0827 -0.2796 -0.9885
  621MPD2    C2 9250   4.358   0.953  10.265 -0.5343 -0.0794  0.5416
  621MPD2    C3 9251   4.406   1.067  10.311  0.6115 -0.4320 -0.3610
  621MPD2    C4 9252   4.384   1.108  10.442 -0.5165  0.4701  0.0954
  621MPD2    C5 9253   4.309   1.025  10.523  0.9470  0.0310  0.0234
  621MPD2     H 9254   4.389   0.924  10.165  0.3313  0.9818  0.5109
  621MPD2    H1 9255   4.432   1.199  10.473 -1.3130  1.4449 -1.5168
  621MPD2    H2 9256   4.217   0.834  10.543 -0.2264  1.0569  0.5124
  621MPD2    H3 9257   4.292   1.055  10.626 -2.1022  0.6694 -0.6667
  621MPD2     N 9258   4.452   1.168  10.223 -0.2138 -0.5046 -0.1784
  621MPD2    H5 9259   4.456   1.261  10.263 -0.5783 -0.7758  0.4782
  621MPD2    N1 9260   4.239   0.743  10.292 -0.4457  0.0807 -0.1767
  621MPD2    H7 9261   4.243   0.735  10.191 -0.0233  1.1922 -0.2524
  622TMC3    C1 9262   4.090   0.561  10.298 -0.7519  0.4919 -0.2297
  622TMC3    C2 9263   3.999   0.494  10.374  0.0700 -0.3149 -0.1337
  622TMC3    C3 9264   3.880   0.461  10.321  0.6832 -0.0119  0.3643
  622TMC3    C4 9265   4.060   0.585  10.161  0.1955  0.1774 -0.3379
  622TMC3    C5 9266   3.944   0.531  10.110  0.0675  0.4620  0.1554
  622TMC3    C6 9267   3.852   0.467  10.190 -0.6130 -0.0661  0.6008
  622TMC3     C 9268   4.176   0.650  10.370 -0.0116  0.0703 -0.2651
  622TMC3     O 9269   4.194   0.621  10.487 -0.5476 -0.4688  0.2246
  622TMC3     H 9270   4.024   0.462  10.475 -2.8847  0.2498  0.7816
  622TMC3    H1 9271   4.135   0.631  10.098 -0.6935 -0.5835 -1.9559
  622TMC3    H2 9272   3.750   0.459  10.155 -0.9958 -1.1011  2.0067
  622TMC3    C7 9273   3.893   0.583   9.983  0.2022  0.6610  0.2864
  622TMC3    C8 9274   3.760   0.415  10.398  0.9104  0.1158  0.0723
  622TMC3    O1 9275   3.775   0.606   9.973  0.0850  0.1415  0.3842
  622TMC3    O2 9276   3.684   0.333  10.346 -0.1492 -0.3747 -0.7400
  623MPD2     C 9277   2.836   1.592  15.956  0.0613 -0.0760 -0.8620
  623MPD2    C1 9278   2.789   1.474  15.989 -0.1144 -0.1102 -0.4010
  623MPD2    C2 9279   2.842   1.399  16.099 -0.0835  1.1061  0.0969
  623MPD2    C3 9280   2.935   1.462  16.180  0.2393  0.1990  0.1494
  623MPD2    C4 9281   2.983   1.584  16.141  0.7223 -0.3770  0.4460
  623MPD2    C5 9282   2.941   1.647  16.029 -0.0553 -0.1134 -0.7004
  623MPD2     H 9283   2.794   1.305  16.124  2.1795 -0.3800 -1.0948
  623MPD2    H1 9284   3.054   1.633  16.207  1.1335  1.4922 -1.3796
  623MPD2    H2 9285   2.790   1.658  15.883  2.0325  2.2771  0.0283
  623MPD2    H3 9286   2.976   1.748  16.010  0.8254 -0.4514 -0.8669
  623MPD2     N 9287   2.971   1.395  16.302  0.1231  0.2224  0.4303
  623MPD2    H5 9288   2.905   1.324  16.332  0.4382 -0.3531 -0.2293
  623MPD2    N1 9289   2.679   1.420  15.919  0.6812  0.1355 -0.4187
  623MPD2    H7 9290   2.631   1.494  15.868 -1.1985 -0.7764  0.0602
  624TMC3    C1 9291   3.190   1.241  16.675  0.1561  0.0925 -0.4305
  624TMC3    C2 9292   3.075   1.171  16.707  0.2107  0.0786 -0.7749
  624TMC3    C3 9293   2.963   1.190  16.629 -0.7776  0.0330  0.0887
  624TMC3    C4 9294   3.189   1.342  16.581 -0.7471  0.2580  0.4868
  624TMC3    C5 9295   3.068   1.369  16.518  0.7043 -0.3021  0.1690
  624TMC3    C6 9296   2.957   1.293  16.538  0.3091 -0.1024 -0.4181
  624TMC3     C 9297   3.303   1.215  16.767 -0.3164  0.4265 -0.4379
  624TMC3     O 9298   3.267   1.156  16.869  0.1966  0.0159  0.0533
  624TMC3     H 9299   3.067   1.097  16.785  2.0736 -1.3439 -1.9232
  624TMC3    H1 9300   3.288   1.383  16.563 -1.0963  0.9367  0.1001
  624TMC3    H2 9301   2.862   1.325  16.498 -0.4614 -1.6081  0.2117
  624TMC3    C7 9302   3.068   1.442  16.391  0.0650  0.3425  0.3467
  624TMC3    C8 9303   2.844   1.109  16.644  0.7340 -0.0547 -0.3067
  624TMC3    O1 9304   3.159   1.521  16.380 -0.1759  0.2629  0.0423
  624TMC3    O2 9305   2.743   1.174  16.645 -0.6169 -0.1109  0.3551
  625MPD2     C 9306   3.364   2.276   0.644 -0.2905 -0.3152 -0.1056
  625MPD2    C1 9307   3.425   2.387   0.709 -0.0562  1.0371 -0.2019
  625MPD2    C2 9308   3.540   2.362   0.784  0.7184 -0.1920  0.7106
  625MPD2    C3 9309   3.599   2.241   0.793 -0.0672 -0.1864  0.3000
  625MPD2    C4 9310   3.542   2.135   0.727  0.5584 -0.1176  0.0387
  625MPD2    C5 9311   3.425   2.149   0.651 -0.5229 -0.5921 -0.0871
  625MPD2     H 9312   3.596   2.439   0.834 -0.5374  2.1282 -1.4521
  625MPD2    H1 9313   3.589   2.037   0.734  1.6163  0.3467 -0.5086
  625MPD2    H2 9314   3.291   2.298   0.566  1.3132  0.9073 -1.2549
  625MPD2    H3 9315   3.381   2.065   0.599 -0.5179 -1.6595  1.6210
  625MPD2     N 9316   3.709   2.232   0.880 -0.4597  0.1801 -0.1009
  625MPD2    H5 9317   3.731   2.311   0.939 -1.8386 -0.1627  0.8772
  625MPD2    N1 9318   3.388   2.515   0.694  0.0491 -0.1100 -0.0239
  625MPD2    H7 9319   3.449   2.586   0.734  1.6832 -1.4097 -0.2122
  626TMC3    C1 9320   3.260   2.700   0.625 -0.2635 -0.1436  0.0371
  626TMC3    C2 9321   3.217   2.765   0.517  0.0525 -0.2238  0.0646
  626TMC3    C3 9322   3.192   2.897   0.510 -0.5138 -0.3181 -0.2228
  626TMC3    C4 9323   3.288   2.766   0.742 -0.3792 -0.4752  0.1019
  626TMC3    C5 9324   3.262   2.904   0.739  0.1531  0.0414  0.1927
  626TMC3    C6 9325   3.213   2.965   0.626  0.3852  0.1565 -0.2585
  626TMC3     C 9326   3.276   2.560   0.622 -0.5400 -0.0368  0.1235
  626TMC3     O 9327   3.194   2.496   0.558 -0.5804  0.2474 -0.3386
  626TMC3     H 9328   3.214   2.711   0.423  2.6460 -1.3952  0.6260
  626TMC3    H1 9329   3.339   2.721   0.826  1.5159  0.5774 -0.4909
  626TMC3    H2 9330   3.190   3.070   0.628  1.1434  0.3118  0.3894
  626TMC3    C7 9331   3.323   2.983   0.845  0.1619 -0.0697  0.1529
  626TMC3    C8 9332   3.129   2.957   0.392  0.3163  0.3326  0.3560
  626TMC3    O1 9333   3.407   2.914   0.909 -0.7792  0.0930 -0.4184
  626TMC3    O2 9334   3.148   3.075   0.375 -0.9267  0.2441 -0.3455
  627MPD2     C 9335   1.771   2.950  14.384  0.3286 -0.1633  0.2875
  627MPD2    C1 9336   1.814   2.870  14.488  0.0742 -0.2609  0.2027
  627MPD2    C2 9337   1.777   2.736  14.513  1.2934 -0.1407  0.2705
  627MPD2    C3 9338   1.674   2.686  14.432 -0.2276  0.1714  0.6097
  627MPD2    C4 9339   1.623   2.768  14.332  0.7415  0.1490  0.1481
  627MPD2    C5 9340   1.670   2.893  14.309 -0.2965 -0.1989  0.2746
  627MPD2     H 9341   1.821   2.675  14.590 -1.5798 -1.0311  1.2004
  627MPD2    H1 9342   1.545   2.728  14.268 -0.2762  3.5160 -0.6976
  627MPD2    H2 9343   1.800   3.052  14.364 -1.5890  0.3463  0.0976
  627MPD2    H3 9344   1.638   2.956  14.226  0.3217 -0.3082 -0.0501
  627MPD2     N 9345   1.634   2.551  14.451 -0.2047  0.2547  0.5245
  627MPD2    H5 9346   1.677   2.506  14.532 -3.8135 -3.2069  0.5277
  627MPD2    N1 9347   1.930   2.910  14.570  0.1521 -0.1591  0.2521
  627MPD2    H7 9348   1.975   2.843  14.632 -0.0599 -1.6068 -1.1603
  628TMC3    C1 9349   2.073   3.057  14.682  0.1492 -0.3239  0.1961
  628TMC3    C2 9350   2.185   2.987  14.638  0.6008 -0.5154  0.2257
  628TMC3    C3 9351   2.299   3.009  14.708  0.3354  0.0960  0.6644
  628TMC3    C4 9352   2.082   3.152  14.780 -0.5244 -0.4970 -0.0792
  628TMC3    C5 9353   2.200   3.180  14.834 -0.0461 -0.3658  0.4688
  628TMC3    C6 9354   2.313   3.102  14.814 -0.4884 -0.5174  0.3337
  628TMC3     C 9355   1.951   3.043  14.609 -0.1956 -0.3447 -0.2800
  628TMC3     O 9356   1.890   3.143  14.573  0.3727 -0.1387 -0.0942
  628TMC3     H 9357   2.166   2.911  14.563  1.0089 -1.2016  0.8177
  628TMC3    H1 9358   1.994   3.206  14.813  0.9529  1.4874  0.6776
  628TMC3    H2 9359   2.410   3.133  14.851 -0.9476 -1.0490  1.9846
  628TMC3    C7 9360   2.205   3.290  14.930 -0.4443 -0.3475  0.3814
  628TMC3    C8 9361   2.420   2.954  14.635 -0.0025  0.8481  0.3759
  628TMC3    O1 9362   2.283   3.268  15.022 -0.0236 -0.4553  0.5083
  628TMC3    O2 9363   2.403   2.913  14.519 -0.5059 -0.2409  0.1411
  629MPD2     C 9364   0.043   1.925  16.694  0.0712 -0.2531  0.0657
  629MPD2    C1 9365   0.055   1.786  16.702  0.0297 -0.5459 -0.2125
  629MPD2    C2 9366   4.672   1.718  16.678 -0.1846  0.1979 -0.5186
  629MPD2    C3 9367   4.554   1.789  16.647  0.0063 -0.2766  0.3200
  629MPD2    C4 9368   4.547   1.926  16.632  0.4825 -0.2058  0.3863
  629MPD2    C5 9369   4.665   1.990  16.662  0.0136 -0.3276  0.0271
  629MPD2     H 9370   4.658   1.611  16.686  1.7669 -0.1650 -2.0705
  629MPD2    H1 9371   4.463   1.991  16.611 -0.0611 -0.1344  2.8477
  629MPD2    H2 9372   0.131   1.989  16.696 -1.8354  2.3806  0.1963
  629MPD2    H3 9373   4.672   2.096  16.644 -2.8780 -0.5432 -2.3783
  629MPD2     N 9374   4.438   1.716  16.627 -0.1383  0.5556  0.0789
  629MPD2    H5 9375   4.445   1.617  16.649  0.9240  0.5773 -0.1651
  629MPD2    N1 9376   0.187   1.726  16.726  0.1023 -0.1083  0.7122
  629MPD2    H7 9377   0.259   1.796  16.737  0.3310 -0.1833 -0.3427
  630TMC3    C1 9378   0.352   1.569  16.761  0.5883  0.3450 -0.1204
  630TMC3    C2 9379   0.448   1.660  16.726 -0.5976  0.7225  1.0253
  630TMC3    C3 9380   0.577   1.636  16.762 -0.4314 -0.0975 -0.0016
  630TMC3    C4 9381   0.381   1.453  16.833  0.6600  0.1702  0.2046
  630TMC3    C5 9382   0.511   1.439  16.880 -0.0296  0.2094 -0.3807
  630TMC3    C6 9383   0.611   1.528  16.838  0.0283  0.1124 -0.3483
  630TMC3     C 9384   0.213   1.596  16.743 -0.6942 -0.0278 -1.1939
  630TMC3     O 9385   0.135   1.500  16.722  0.3686 -0.5370 -0.1979
  630TMC3     H 9386   0.429   1.740  16.655  0.3579  1.2876  1.4158
  630TMC3    H1 9387   0.306   1.423  16.906  0.1330 -2.5288 -1.4749
  630TMC3    H2 9388   0.718   1.520  16.857  0.1663 -0.1407 -1.2632
  630TMC3    C7 9389   0.545   1.365  17.001 -0.2328  0.4585  0.2398
  630TMC3    C8 9390   0.668   1.742  16.763 -0.2821  0.3942 -0.2107
  630TMC3    O1 9391   0.651   1.393  17.046 -0.4437  0.0623 -0.3825
  630TMC3    O2 9392   0.749   1.754  16.856 -0.2670  0.1104 -0.4117
  631MPD2     C 9393   3.148   1.618  15.687 -0.2643  0.4798  0.5985
  631MPD2    C1 9394   3.248   1.699  15.639 -0.3187  0.2782  0.3216
  631MPD2    C2 9395   3.376   1.652  15.631 -0.5585  0.2098 -0.2730
  631MPD2    C3 9396   3.401   1.528  15.676  0.2023  0.0719  0.0936
  631MPD2    C4 9397   3.304   1.446  15.729 -0.4951  0.0252 -0.5563
  631MPD2    C5 9398   3.179   1.493  15.740 -0.3439  0.3235  1.1850
  631MPD2     H 9399   3.457   1.702  15.580 -0.1729 -1.2833 -1.1467
  631MPD2    H1 9400   3.330   1.348  15.767  0.8669  0.1479 -1.1702
  631MPD2    H2 9401   3.049   1.662  15.695  0.1236  0.9718  2.5665
  631MPD2    H3 9402   3.098   1.434  15.781 -2.8390  2.3515 -0.7449
  631MPD2     N 9403   3.527   1.477  15.648 -0.3404 -0.1101 -0.8948
  631MPD2    H5 9404   3.584   1.546  15.600  2.2441 -1.4937  0.1742
  631MPD2    N1 9405   3.214   1.828  15.591 -0.3455 -0.2010  0.3007
  631MPD2    H7 9406   3.117   1.850  15.572  0.5315  1.1626 -2.6373
  632TMC3    C1 9407   3.256   2.047  15.539  0.7528  0.7181 -0.8450
  632TMC3    C2 9408   3.130   2.084  15.578  0.2549  0.4987 -0.7035
  632TMC3    C3 9409   3.092   2.209  15.531 -0.3697  0.3430 -0.8171
  632TMC3    C4 9410   3.346   2.132  15.481 -0.8766  0.0256 -0.5146
  632TMC3    C5 9411   3.301   2.245  15.426 -0.3094  0.3749 -1.3267
  632TMC3    C6 9412   3.172   2.283  15.449 -0.1354 -0.5883  0.6846
  632TMC3     C 9413   3.304   1.926  15.589 -0.2162 -0.1431 -0.3480
  632TMC3     O 9414   3.414   1.925  15.642 -0.2368 -0.0424 -0.4259
  632TMC3     H 9415   3.055   2.020  15.623  0.1299  0.9267 -0.2939
  632TMC3    H1 9416   3.442   2.087  15.457 -0.9556 -0.1808 -0.4460
  632TMC3    H2 9417   3.128   2.355  15.380 -2.5970 -2.5551  0.2443
  632TMC3    C7 9418   3.368   2.312  15.316  0.3979 -0.7028 -0.2902
  632TMC3    C8 9419   2.953   2.249  15.550  0.7183  0.9455  0.2516
  632TMC3    O1 9420   3.314   2.406  15.257  0.6455 -0.5883  0.4604
  632TMC3    O2 9421   2.867   2.161  15.571 -0.3724  0.0931 -0.1898
  633MPD2     C 9422   2.963   4.364  17.373  0.1331  0.9852 -0.3158
  633MPD2    C1 9423   2.988   4.283  17.266  0.2708  0.6735  0.6046
  633MPD2    C2 9424   2.989   4.148  17.286  0.4651  0.8852 -0.1653
  633MPD2    C3 9425   2.943   4.094  17.405  0.5528 -0.4672  0.2771
  633MPD2    C4 9426   2.915   4.176  17.514  0.5234 -0.2963  0.5710
  633MPD2    C5 9427   2.927   4.312  17.498 -0.4898  0.0416  0.1574
  633MPD2     H 9428   3.013   4.082  17.203 -1.2266  2.8007 -2.1746
  633MPD2    H1 9429   2.893   4.150  17.617  0.1676  2.1683  1.1223
  633MPD2    H2 9430   2.981   4.471  17.373  0.3659  0.9451  0.9444
  633MPD2    H3 9431   2.921   4.382  17.581  0.0897  0.3191 -0.0298
  633MPD2     N 9432   2.937   3.955  17.425 -0.1741  0.8513 -0.1881
  633MPD2    H5 9433   2.918   3.927  17.521  1.2224 -1.5132 -0.5892
  633MPD2    N1 9434   3.030   4.321  17.138 -0.2795 -0.2368  0.6968
  633MPD2    H7 9435   3.040   4.247  17.070 -1.7814  1.0341 -0.9194
  634TMC3    C1 9436   3.081   4.480  16.958  0.0650 -0.3217 -0.0013
  634TMC3    C2 9437   3.161   4.388  16.897  0.0902 -0.3205  0.5631
  634TMC3    C3 9438   3.233   4.426  16.782  0.0254  0.1000 -0.0266
  634TMC3    C4 9439   3.068   4.607  16.909  0.5986 -0.2218 -0.8302
  634TMC3    C5 9440   3.137   4.643  16.801 -0.2341 -0.0564  0.0547
  634TMC3    C6 9441   3.218   4.555  16.734 -0.0158  0.9659 -0.0677
  634TMC3     C 9442   3.014   4.449  17.085 -0.2161  0.1140 -0.0491
  634TMC3     O 9443   2.951   4.535  17.146 -0.3361  0.1644 -0.0088
  634TMC3     H 9444   3.171   4.291  16.944 -2.6627 -0.4140  0.9389
  634TMC3    H1 9445   2.992   4.667  16.958 -0.0907 -1.2743 -0.6228
  634TMC3    H2 9446   3.259   4.594  16.642  0.3714 -0.3889 -0.4652
  634TMC3    C7 9447   3.098   0.022  16.730  0.0331 -0.4774 -0.2174
  634TMC3    C8 9448   3.294   4.333  16.689  0.8705 -0.7736  0.4266
  634TMC3    O1 9449   3.166   0.056  16.635  0.0851 -0.2938  0.4590
  634TMC3    O2 9450   3.284   4.214  16.708  0.8598  0.3045  0.1614
  635TMC3    C1 9451   2.789   0.530   0.351  0.4229 -0.2943 -0.1634
  635TMC3    C2 9452   2.682   0.547   0.439 -0.0810 -0.1682  0.1927
  635TMC3    C3 9453   2.613   0.431   0.470 -0.8716  0.7349  0.2719
  635TMC3    C4 9454   2.830   0.403   0.309  0.0144 -0.5491  0.6831
  635TMC3    C5 9455   2.758   0.288   0.342 -0.0057 -0.5443 -0.2787
  635TMC3    C6 9456   2.648   0.307   0.424 -0.6109  0.0246 -0.0931
  635TMC3     C 9457   2.880   0.638   0.347  0.4156  0.3469 -0.9175
  635TMC3     O 9458   2.996   0.615   0.365 -0.0010 -0.0329 -1.0424
  635TMC3     H 9459   2.654   0.641   0.485 -0.1993  0.3947 -1.0073
  635TMC3    H1 9460   2.917   0.379   0.249 -1.2417 -1.8862 -0.5891
  635TMC3    H2 9461   2.582   0.223   0.438  1.3324 -1.2087  1.7494
  635TMC3    C7 9462   2.781   0.153   0.292 -0.7817  0.7731  0.1835
  635TMC3    C8 9463   2.498   0.445   0.559 -0.8228  0.1379  0.5802
  635TMC3    O1 9464   2.712   0.068   0.345 -0.6169  0.4661  0.1375
  635TMC3    O2 9465   2.431   0.545   0.538 -0.3453 -0.4506  0.2846
  636MPD2     C 9466   4.637   4.697  15.927 -0.0741 -0.3647 -0.1842
  636MPD2    C1 9467   4.635   4.661  16.060 -0.0808 -1.1512  0.0466
  636MPD2    C2 9468   4.670   4.528  16.093  0.2178  0.0162  0.3346
  636MPD2    C3 9469   4.697   4.439  15.991 -0.5704  0.2549 -0.0582
  636MPD2    C4 9470   4.700   4.483  15.859 -0.4144 -0.2566 -0.0071
  636MPD2    C5 9471   4.682   4.616  15.830 -0.5078  0.6848  0.2288
  636MPD2     H 9472   4.662   4.491  16.195  0.2822 -0.2624  0.2369
  636MPD2    H1 9473   4.724   4.419  15.775  0.9921  0.8922 -0.4802
  636MPD2    H2 9474   4.605   0.058  15.901 -0.0567 -0.2246  0.3327
  636MPD2    H3 9475   4.675   4.663  15.733 -1.1049  0.1157 -0.0057
  636MPD2     N 9476   4.711   4.305  16.028 -0.1717 -0.3205 -0.3482
  636MPD2    H5 9477   4.710   4.278  16.126  1.6839 -1.3243 -0.6004
  636MPD2    N1 9478   4.606   0.006  16.168 -0.2664 -0.0947 -0.6789
  636MPD2    H7 9479   4.624   4.708  16.261  0.1391  1.0040 -0.3147
  637TMC3    C1 9480   0.031   4.087  16.030 -0.4898  0.0347  0.1337
  637TMC3    C2 9481   4.724   4.088  16.164 -0.1615 -0.8244  0.4976
  637TMC3    C3 9482   0.070   4.059  16.267 -0.4103 -0.5593  0.2473
  637TMC3    C4 9483   0.163   4.047  16.004 -0.3893  0.4337 -0.1720
  637TMC3    C5 9484   0.240   4.025  16.106  0.4381  0.1766 -0.2548
  637TMC3    C6 9485   0.195   4.024  16.238  0.0333 -0.9883  0.7480
  637TMC3     C 9486   4.729   4.200  15.949  0.7526 -0.4569  0.1265
  637TMC3     O 9487   0.013   4.199  15.830  0.1029 -0.2316  0.3999
  637TMC3     H 9488   4.622   4.118  16.183  0.3666  2.4631 -2.0335
  637TMC3    H1 9489   0.199   4.070  15.905 -1.6010 -2.1795 -1.2257
  637TMC3    H2 9490   0.257   4.021  16.327  2.5489 -3.0701 -1.0709
  637TMC3    C7 9491   0.369   4.077  16.082  0.4750  0.0257 -0.2206
  637TMC3    C8 9492   0.046   4.162  16.363  0.0048  0.7832  0.0929
  637TMC3    O1 9493   0.390   4.145  15.984 -0.9725  0.1741  0.0038
  637TMC3    O2 9494   4.719   4.251  16.320 -0.0615  0.3583  0.1751
  638MPD2     C 9495   4.059   3.494  15.427 -0.0273  0.2284 -0.4877
  638MPD2    C1 9496   4.053   3.377  15.361 -0.3761 -0.1590  0.4880
  638MPD2    C2 9497   4.001   3.273  15.433  0.0000 -0.1883  0.1765
  638MPD2    C3 9498   3.986   3.271  15.569  0.4639  0.0592  0.2828
  638MPD2    C4 9499   4.014   3.388  15.633  0.3262  0.2866 -0.6135
  638MPD2    C5 9500   4.052   3.498  15.566  0.0539  0.2511  0.0450
  638MPD2     H 9501   3.994   3.186  15.368  0.6190  0.6970 -1.0667
  638MPD2    H1 9502   3.994   3.394  15.740 -1.1419  1.3012 -0.9390
  638MPD2    H2 9503   4.109   3.580  15.384  1.6987  0.4225  1.9035
  638MPD2    H3 9504   4.066   3.591  15.618  0.7315  0.2864 -0.1898
  638MPD2     N 9505   3.931   3.163  15.642  0.4484  0.4454 -0.6335
  638MPD2    H5 9506   3.910   3.179  15.740 -0.3894 -0.0261 -0.7391
  638MPD2    N1 9507   4.093   3.378  15.227 -0.0086 -0.3337 -0.6642
  638MPD2    H7 9508   4.128   3.466  15.191 -1.5793  0.2298 -0.8340
  639TMC3    C1 9509   3.956   2.977  15.483  0.2542 -0.1531 -0.2936
  639TMC3    C2 9510   3.881   2.935  15.381  0.1628  0.1506  0.1470
  639TMC3    C3 9511   3.934   2.852  15.287 -0.4697  0.7233  0.3163
  639TMC3    C4 9512   4.082   2.934  15.499 -0.6723  0.0083  0.0255
  639TMC3    C5 9513   4.135   2.852  15.406  0.2540 -0.6743 -0.8804
  639TMC3    C6 9514   4.066   2.810  15.294 -0.3109 -0.3459 -0.2483
  639TMC3     C 9515   3.887   3.038  15.592 -0.3134 -0.2288 -0.3637
  639TMC3     O 9516   3.789   2.983  15.633 -0.0303  0.2071 -0.4822
  639TMC3     H 9517   3.778   2.969  15.382  0.2307  0.2298  3.0284
  639TMC3    H1 9518   4.135   2.964  15.589 -1.2366  0.4207  0.2244
  639TMC3    H2 9519   4.103   2.742  15.218  2.5837 -2.1283  2.7505
  639TMC3    C7 9520   4.262   2.790  15.432 -0.5793 -0.2578 -0.1543
  639TMC3    C8 9521   3.864   2.798  15.168  1.0243 -0.1554 -0.3760
  639TMC3    O1 9522   4.256   2.731  15.540 -1.0606  0.4302  0.3876
  639TMC3    O2 9523   3.929   2.767  15.069  0.0316  0.2405 -0.1715
  640MPD2     C 9524   0.451   2.782   9.844  0.0806 -0.3402 -0.1653
  640MPD2    C1 9525   0.383   2.682   9.908  0.5074 -1.0974  0.4055
  640MPD2    C2 9526   0.271   2.717   9.982  0.3494 -0.0303 -0.7670
  640MPD2    C3 9527   0.231   2.852   9.997 -0.1407 -0.5254  0.0776
  640MPD2    C4 9528   0.296   2.947   9.930  0.1683 -0.3136  0.1971
  640MPD2    C5 9529   0.405   2.911   9.847 -0.0243  0.5516  0.2956
  640MPD2     H 9530   0.220   2.633  10.028 -0.2640  0.1547 -1.1056
  640MPD2    H1 9531   0.269   3.052   9.930  2.0888  0.1798  0.8612
  640MPD2    H2 9532   0.537   2.765   9.779 -0.2280  0.4746 -0.7837
  640MPD2    H3 9533   0.474   2.977   9.796  2.0300 -0.3647  1.8859
  640MPD2     N 9534   0.115   2.898  10.069 -0.7098  0.2242  0.5565
  640MPD2    H5 9535   0.083   2.990  10.041 -3.2295 -0.1724  2.1218
  640MPD2    N1 9536   0.413   2.553   9.880 -0.2508  0.0951  0.3449
  640MPD2    H7 9537   0.470   2.544   9.797 -0.3104  0.2469  0.2873
  641TMC3    C1 9538   0.363   2.325   9.850 -0.2681 -0.5319 -0.0689
  641TMC3    C2 9539   0.382   2.195   9.902  0.1898 -0.2709 -0.2972
  641TMC3    C3 9540   0.349   2.085   9.830 -0.1127  0.1161  0.0596
  641TMC3    C4 9541   0.283   2.346   9.747 -0.1542  0.5739  0.1121
  641TMC3    C5 9542   0.243   2.230   9.683 -0.2109  0.0581  0.3459
  641TMC3    C6 9543   0.273   2.103   9.719  0.0281  0.2799 -0.4347
  641TMC3     C 9544   0.365   2.437   9.940 -0.4904 -0.2082 -0.2272
  641TMC3     O 9545   0.296   2.419  10.041 -0.0133  0.0628  0.5491
  641TMC3     H 9546   0.441   2.183   9.992  0.2255 -1.9697 -0.5494
  641TMC3    H1 9547   0.239   2.440   9.716 -0.1240  0.6469  0.2927
  641TMC3    H2 9548   0.251   2.013   9.663  0.1000  1.0589 -1.7116
  641TMC3    C7 9549   0.167   2.249   9.557  0.2012 -1.2468  0.0094
  641TMC3    C8 9550   0.452   1.984   9.817 -0.9434  0.0979  0.4794
  641TMC3    O1 9551   0.119   2.357   9.543 -0.0339 -0.4057 -0.1738
  641TMC3    O2 9552   0.486   1.971   9.699  0.2806 -0.0649  0.2059
  642TMC3    C1 9553   1.212   3.097  12.630  0.0706 -0.5139  0.6285
  642TMC3    C2 9554   1.332   3.040  12.602  0.3261  0.4284  1.0158
  642TMC3    C3 9555   1.340   2.907  12.637 -1.5327 -0.2599 -0.8225
  642TMC3    C4 9556   1.100   3.018  12.646 -0.1557 -0.1386  0.0631
  642TMC3    C5 9557   1.114   2.885  12.682 -0.1498 -0.0753 -0.6771
  642TMC3    C6 9558   1.242   2.834  12.691 -0.5146  0.2501 -0.0272
  642TMC3     C 9559   1.194   3.235  12.585  0.3830  0.1086  0.9870
  642TMC3     O 9560   1.288   3.302  12.534 -0.0918 -0.1975  0.4048
  642TMC3     H 9561   1.414   3.108  12.584  0.6506 -0.4523 -0.7869
  642TMC3    H1 9562   0.999   3.054  12.663  0.0049 -0.9111  2.6632
  642TMC3    H2 9563   1.263   2.730  12.714 -0.3856  0.2736 -0.0384
  642TMC3    C7 9564   1.000   2.791  12.657 -0.2399 -0.7428  0.0593
  642TMC3    C8 9565   1.442   2.825  12.581  0.4400  0.4330  0.0078
  642TMC3    O1 9566   0.896   2.842  12.621 -0.1192 -0.0368  0.5725
  642TMC3    O2 9567   1.422   2.709  12.576  0.0007 -0.1856 -0.4432
  643TMC3    C1 9568   0.122   2.121   0.099  0.4213  0.6224  0.5482
  643TMC3    C2 9569   0.001   2.163   0.040 -0.2409 -0.1823  0.4319
  643TMC3    C3 9570   4.697   2.104  17.689 -0.3563  0.6404 -0.1584
  643TMC3    C4 9571   0.182   2.016   0.039  0.1975 -0.1251 -0.1110
  643TMC3    C5 9572   0.125   1.952  17.684  0.0204  0.3743 -0.3072
  643TMC3    C6 9573   0.007   1.996  17.646  0.2321 -0.2725  0.7472
  643TMC3     C 9574   0.154   2.165   0.234 -0.2127 -0.3949  0.0273
  643TMC3     O 9575   0.097   2.271   0.259  0.4481 -0.4850  0.6657
  643TMC3     H 9576   4.686   2.249   0.076  0.4993  0.1425  0.7813
  643TMC3    H1 9577   0.285   1.997   0.067  0.5484  5.0207  2.1670
  643TMC3    H2 9578   4.718   1.952  17.551  2.9003  0.7593 -0.5184
  643TMC3    C7 9579   0.206   1.953  17.567  0.2376 -0.4504  0.0856
  643TMC3    C8 9580   4.648   2.189  17.576 -0.3569  0.1509 -0.1243
  643TMC3    O1 9581   0.200   1.854  17.493 -0.3424 -0.0683 -0.6084
  643TMC3    O2 9582   4.586   2.131  17.486  0.4578  0.3170 -0.0983
  644MPD2     C 9583   4.690   2.850   9.014 -0.5344 -0.2667  0.0774
  644MPD2    C1 9584   4.698   2.786   9.135  0.1978  0.1487 -0.2478
  644MPD2    C2 9585   4.598   2.806   9.230 -0.9100  0.2360  0.4748
  644MPD2    C3 9586   4.500   2.895   9.213 -0.0324  0.3689 -0.9820
  644MPD2    C4 9587   4.496   2.956   9.093  0.1759 -0.1576 -0.6545
  644MPD2    C5 9588   4.584   2.933   8.995 -0.0742  0.3369 -0.9505
  644MPD2     H 9589   4.607   2.756   9.326  1.8033 -0.6450 -0.2250
  644MPD2    H1 9590   4.422   3.032   9.070 -1.1057 -0.5012  2.2866
  644MPD2    H2 9591   0.012   2.834   8.926 -1.4349 -0.9074 -0.4354
  644MPD2    H3 9592   4.583   2.996   8.907 -2.0748 -1.6549 -2.3367
  644MPD2     N 9593   4.423   2.925   9.331  0.0410 -0.2792 -0.4320
  644MPD2    H5 9594   4.443   2.871   9.414 -0.9625 -1.8210 -1.1906
  644MPD2    N1 9595   0.076   2.702   9.158  0.2383 -0.0569  0.2441
  644MPD2    H7 9596   0.139   2.692   9.080 -0.1007  0.8153 -0.1375
  645TMC3    C1 9597   4.308   3.068   9.482  0.9432 -0.8097  0.7808
  645TMC3    C2 9598   4.326   3.195   9.526 -0.4104 -0.1644 -0.0033
  645TMC3    C3 9599   4.319   3.214   9.665  0.0793  0.0960 -0.0040
  645TMC3    C4 9600   4.261   2.963   9.559 -0.2025 -0.3265  0.0560
  645TMC3    C5 9601   4.248   2.994   9.696 -0.2764 -0.5746 -0.3944
  645TMC3    C6 9602   4.276   3.118   9.748  0.1543  0.3375 -0.2930
  645TMC3     C 9603   4.350   3.035   9.347  0.1581 -0.7863  0.2453
  645TMC3     O 9604   4.324   3.119   9.263 -0.3434  0.2708  0.4340
  645TMC3     H 9605   4.387   3.258   9.463 -0.0159 -0.7310 -0.1823
  645TMC3    H1 9606   4.253   2.860   9.524  1.5831 -0.4614  0.0218
  645TMC3    H2 9607   4.275   3.148   9.852 -0.1764  1.7952 -0.7181
  645TMC3    C7 9608   4.211   2.893   9.790 -0.0090  0.7601  0.0518
  645TMC3    C8 9609   4.339   3.350   9.714  0.4677  0.2746 -0.8414
  645TMC3    O1 9610   4.198   2.939   9.903 -0.4751  0.0018 -0.0927
  645TMC3    O2 9611   4.368   3.363   9.834 -0.7132  0.6304  0.0138
  646MPD2     C 9612   4.324   2.172  14.487 -0.3444 -0.4479 -0.0036
  646MPD2    C1 9613   4.224   2.130  14.569 -0.1031  0.1460 -0.3238
  646MPD2    C2 9614   4.097   2.188  14.559 -0.8272  0.7127  0.4642
  646MPD2    C3 9615   4.078   2.291  14.471  0.5778  0.1662 -0.1180
  646MPD2    C4 9616   4.184   2.333  14.389  0.5878  0.3945 -0.6767
  646MPD2    C5 9617   4.303   2.269  14.390  0.6081 -0.6796 -0.3837
  646MPD2     H 9618   4.016   2.160  14.626  0.3589  0.6343  1.8646
  646MPD2    H1 9619   4.176   2.420  14.324 -2.0233  0.8755  0.2900
  646MPD2    H2 9620   4.427   2.141  14.492 -0.5183 -0.9758  0.2802
  646MPD2    H3 9621   4.384   2.310  14.330  0.7701 -0.7245 -0.1946
  646MPD2     N 9622   3.950   2.355  14.474  0.5752 -0.0884  0.2800
  646MPD2    H5 9623   3.888   2.319  14.546 -1.5605  1.0637 -0.9572
  646MPD2    N1 9624   4.264   2.047  14.673 -0.2211 -0.7889 -0.7698
  646MPD2    H7 9625   4.356   2.005  14.668  0.4495  0.6028  0.0459
  647TMC3    C1 9626   4.242   1.915  14.869  0.1223  0.6190  0.5113
  647TMC3    C2 9627   4.163   1.891  14.978 -0.1505  0.1873  0.7231
  647TMC3    C3 9628   4.188   1.784  15.055  0.5368  0.1280  1.0517
  647TMC3    C4 9629   4.359   1.847  14.841  0.2156  0.2263 -0.1565
  647TMC3    C5 9630   4.390   1.745  14.929 -0.4895  0.0250  0.3679
  647TMC3    C6 9631   4.311   1.721  15.043  0.5956 -0.0939 -0.4419
  647TMC3     C 9632   4.183   2.005  14.779  0.2598 -0.3099  0.9049
  647TMC3     O 9633   4.063   2.031  14.793  0.4304  0.9639  0.3877
  647TMC3     H 9634   4.083   1.962  14.998 -0.0338 -0.3580  3.0548
  647TMC3    H1 9635   4.415   1.858  14.748 -0.3452 -0.2738 -0.5579
  647TMC3    H2 9636   4.337   1.632  15.101  1.7093 -0.2283 -1.1359
  647TMC3    C7 9637   4.526   1.701  14.943 -0.3234  0.7129  0.6303
  647TMC3    C8 9638   4.121   1.788  15.186  0.0880 -0.6376  0.9852
  647TMC3    O1 9639   4.549   1.626  15.031 -0.0217  0.5294 -0.3259
  647TMC3    O2 9640   4.017   1.856  15.193  0.2297 -0.2550 -0.1364
  648TMC3    C1 9641   3.807   4.583  16.394  0.2297  0.3483 -1.2354
  648TMC3    C2 9642   3.917   4.495  16.391  0.4544  0.2470 -0.1109
  648TMC3    C3 9643   3.987   4.498  16.273 -0.3452  0.3714  1.0380
  648TMC3    C4 9644   3.751   4.653  16.295  0.0849  0.9180  0.2723
  648TMC3    C5 9645   3.812   4.626  16.173  0.3048  0.8903  0.5755
  648TMC3    C6 9646   3.925   4.546  16.154 -0.3473  0.4075 -0.3632
  648TMC3     C 9647   3.739   4.598  16.516 -0.4480 -0.3327 -0.2690
  648TMC3     O 9648   3.674   4.698  16.531 -0.3155 -0.9696  0.1334
  648TMC3     H 9649   3.966   4.487  16.488 -0.1732  0.8296  0.2569
  648TMC3    H1 9650   3.672   4.725  16.314 -1.3962 -0.5093 -0.4707
  648TMC3    H2 9651   3.974   4.539  16.058 -0.1046  0.4869 -0.2457
  648TMC3    C7 9652   3.777   4.707  16.059  1.1319 -0.2052  0.4962
  648TMC3    C8 9653   4.107   4.413  16.262 -0.2742 -0.6133  0.4796
  648TMC3    O1 9654   3.847   4.701  15.959  0.3654  0.0330 -0.2384
  648TMC3    O2 9655   4.140   4.366  16.371 -0.0472 -0.5657  0.1419
  649TMC3    C1 9656   2.604   0.854  12.652  0.7686  0.2676  0.0756
  649TMC3    C2 9657   2.736   0.845  12.636 -0.1490 -0.6791 -0.4209
  649TMC3    C3 9658   2.810   0.774  12.727 -0.1261  1.0665 -1.4530
  649TMC3    C4 9659   2.543   0.806  12.767 -0.1838 -1.0138 -0.5335
  649TMC3    C5 9660   2.624   0.751  12.861  0.2425  0.3557  0.1569
  649TMC3    C6 9661   2.757   0.740  12.851 -0.8856 -0.4510  0.2508
  649TMC3     C 9662   2.534   0.963  12.596  0.0023  0.1218 -0.2251
  649TMC3     O 9663   2.422   0.991  12.639  0.2578  0.2244  0.3510
  649TMC3     H 9664   2.790   0.874  12.547  1.1092 -0.6751  0.3432
  649TMC3    H1 9665   2.435   0.801  12.777 -0.1226  0.6160  1.0527
  649TMC3    H2 9666   2.816   0.698  12.931  0.9721  1.9216  0.1133
  649TMC3    C7 9667   2.559   0.726  12.993 -0.3052 -0.6748 -0.1775
  649TMC3    C8 9668   2.940   0.840  12.747 -0.1993  0.6197  0.1004
  649TMC3    O1 9669   2.440   0.757  13.008 -0.5045 -0.1100 -0.1877
  649TMC3    O2 9670   2.964   0.856  12.864 -0.0950 -0.1495 -0.1564
  650TMC3    C1 9671   0.245   2.612  12.901 -0.1805  0.6846  0.1071
  650TMC3    C2 9672   0.211   2.714  12.983 -0.3046  0.1053  0.3876
  650TMC3    C3 9673   0.108   2.798  12.945  0.8180  0.1778 -0.0496
  650TMC3    C4 9674   0.175   2.582  12.788 -0.0701  0.1220  0.6493
  650TMC3    C5 9675   0.076   2.668  12.754 -0.3429  0.0279  0.3135
  650TMC3    C6 9676   0.045   2.781  12.829  0.1343 -0.1700  0.3166
  650TMC3     C 9677   0.377   2.553  12.922  0.4769  0.3960 -0.2209
  650TMC3     O 9678   0.463   2.624  12.970  0.1773  0.0140 -0.3341
  650TMC3     H 9679   0.274   2.741  13.067 -1.0768  0.6305  0.7863
  650TMC3    H1 9680   0.216   2.507  12.722 -1.5709  2.2842 -2.7117
  650TMC3    H2 9681   4.700   2.842  12.801 -0.1426 -1.1570 -0.9642
  650TMC3    C7 9682   0.033   2.662  12.615  0.1892  0.3477 -0.0708
  650TMC3    C8 9683   0.115   2.930  13.002 -0.1869 -0.3666 -0.4408
  650TMC3    O1 9684   0.018   2.544  12.578 -0.6316 -0.2516  0.6065
  650TMC3    O2 9685   0.234   2.967  13.003  0.4321 -0.1691  0.1597
  651MPD2     C 9686   3.903   0.131  10.544  1.3344 -1.0772 -0.6140
  651MPD2    C1 9687   3.921   0.197  10.665  0.6022  0.4392  0.4405
  651MPD2    C2 9688   4.046   0.241  10.695 -0.2928  0.5013  0.2204
  651MPD2    C3 9689   4.154   0.220  10.611 -0.5640 -0.3161 -0.1065
  651MPD2    C4 9690   4.140   0.148  10.497  0.1199 -0.2275 -0.0551
  651MPD2    C5 9691   4.010   0.106  10.460  0.7916  0.6333 -0.2889
  651MPD2     H 9692   4.061   0.288  10.792 -1.5152  1.7600 -0.1966
  651MPD2    H1 9693   4.218   0.150  10.422 -0.7870 -0.2027 -0.9982
  651MPD2    H2 9694   3.806   0.096  10.513  0.5333  0.2758  0.3520
  651MPD2    H3 9695   3.992   0.054  10.367 -0.9782  2.7405 -1.1104
  651MPD2     N 9696   4.277   0.281  10.635  0.4649 -0.5125  0.0840
  651MPD2    H5 9697   4.268   0.349  10.710  1.8663 -1.3960  1.0433
  651MPD2    N1 9698   3.830   0.204  10.770 -0.4851 -0.1654 -0.2465
  651MPD2    H7 9699   3.860   0.270  10.841  2.1142 -0.5105 -1.0294
  652TMC3    C1 9700   4.713   0.426  10.653 -0.2089  0.7543  0.1630
  652TMC3    C2 9701   4.623   0.333  10.596 -0.0556 -0.3320  0.1054
  652TMC3    C3 9702   4.492   0.366  10.595  0.2875 -0.8623 -0.8047
  652TMC3    C4 9703   4.672   0.552  10.689 -0.0272 -0.0803  0.1717
  652TMC3    C5 9704   4.540   0.576  10.696  0.5849  0.3939 -0.0045
  652TMC3    C6 9705   4.439   0.489  10.649 -0.3234  0.2183 -0.2154
  652TMC3     C 9706   0.107   0.375  10.677  0.2915 -0.6371 -0.0964
  652TMC3     O 9707   0.120   0.264  10.734  0.0611  0.2299 -0.6128
  652TMC3     H 9708   4.661   0.234  10.570  2.2552  0.3693  0.8561
  652TMC3    H1 9709   0.007   0.623  10.723 -0.1930 -0.1988  0.7786
  652TMC3    H2 9710   4.339   0.524  10.628 -0.2794 -1.0673 -2.6071
  652TMC3    C7 9711   4.497   0.708  10.734 -0.5169  0.6035 -0.7957
  652TMC3    C8 9712   4.401   0.254  10.578  0.0103 -0.2116 -0.8888
  652TMC3    O1 9713   4.387   0.726  10.780 -0.1273  0.1330 -0.5641
  652TMC3    O2 9714   4.434   0.155  10.512  0.8033  0.3102 -0.0352
  653MPD2     C 9715   2.640   4.338   0.168 -0.1161  0.7087 -0.1986
  653MPD2    C1 9716   2.558   4.395   0.071 -1.3194 -0.4026 -0.3560
  653MPD2    C2 9717   2.539   4.339  17.708  0.3723 -0.0021  0.1928
  653MPD2    C3 9718   2.592   4.213  17.678 -0.2905 -0.3478 -0.1445
  653MPD2    C4 9719   2.676   4.155   0.018  0.0717 -0.9997  0.3953
  653MPD2    C5 9720   2.700   4.221   0.135 -0.0787 -0.3839  0.4392
  653MPD2     H 9721   2.479   4.380  17.628 -1.5060  3.6503  3.4602
  653MPD2    H1 9722   2.724   4.060  17.753 -0.6242 -1.1296 -0.6095
  653MPD2    H2 9723   2.660   4.400   0.255  2.0130 -2.2502  1.3921
  653MPD2    H3 9724   2.762   4.173   0.210  1.3679  0.9232  0.0866
  653MPD2     N 9725   2.553   4.153  17.557 -0.1584 -0.6089  0.0122
  653MPD2    H5 9726   2.501   4.219  17.500 -0.2576  1.1222  2.1255
  653MPD2    N1 9727   2.496   4.520   0.094  0.4883  0.2206  0.6308
  653MPD2    H7 9728   2.451   4.564   0.014  0.3054  0.8746  1.0855
  654TMC3    C1 9729   2.508   4.005  17.379 -0.0687  0.1237 -0.1126
  654TMC3    C2 9730   2.464   4.106  17.300 -0.1582  0.2974 -0.5348
  654TMC3    C3 9731   2.414   4.072  17.177  0.7827 -0.5690  0.6112
  654TMC3    C4 9732   2.493   3.874  17.345 -0.3666 -0.7249 -0.6985
  654TMC3    C5 9733   2.441   3.845  17.221 -0.1506 -0.2533  0.0439
  654TMC3    C6 9734   2.406   3.946  17.135 -0.0688  0.0476 -0.4070
  654TMC3     C 9735   2.572   4.027  17.511 -0.9113 -0.3138  0.3339
  654TMC3     O 9736   2.614   3.928  17.572  1.0369  0.0810 -1.0494
  654TMC3     H 9737   2.469   4.206  17.341  1.8298  0.0983 -0.2921
  654TMC3    H1 9738   2.520   3.800  17.419 -1.3855 -0.5758 -0.1713
  654TMC3    H2 9739   2.365   3.910  17.041 -1.7485  0.2154  0.2538
  654TMC3    C7 9740   2.452   3.713  17.160 -0.2953 -0.1085 -0.5088
  654TMC3    C8 9741   2.392   4.171  17.073 -0.0907 -0.5069 -0.4878
  654TMC3    O1 9742   2.419   3.693  17.039 -0.3667 -0.5191 -0.4612
  654TMC3    O2 9743   2.355   4.282  17.105 -0.4563 -0.1473 -0.0412
  655MPD2     C 9744   4.295   4.607  15.924 -0.3671 -0.4018  0.2364
  655MPD2    C1 9745   4.198   4.676  15.846  0.3218 -0.1472  0.2427
  655MPD2    C2 9746   4.178   4.642  15.717 -0.1447 -0.7752  0.3727
  655MPD2    C3 9747   4.256   4.546  15.665 -0.2097 -0.4130  0.1781
  655MPD2    C4 9748   4.353   4.479  15.735 -0.1652  0.1952  0.4950
  655MPD2    C5 9749   4.359   4.501  15.867 -0.0370 -0.3037  0.1487
  655MPD2     H 9750   4.125   4.696  15.639  1.6691  1.4027  0.6586
  655MPD2    H1 9751   4.419   4.399  15.702 -2.2649 -1.8159  1.1803
  655MPD2    H2 9752   4.318   4.636  16.026  0.2275  2.7606 -0.7945
  655MPD2    H3 9753   4.440   4.446  15.914  0.2949  1.4818  1.6783
  655MPD2     N 9754   4.242   4.531  15.525 -0.5656  0.1460 -0.1252
  655MPD2    H5 9755   4.166   4.577  15.478  0.9185  1.7424 -0.9516
  655MPD2    N1 9756   4.132   0.054  15.893  0.4990 -0.4188  0.3247
  655MPD2    H7 9757   4.060   0.098  15.837  0.2691  0.8749  1.6226
  656TMC3    C1 9758   4.052   0.230  16.029  0.3462 -0.5182  0.4979
  656TMC3    C2 9759   3.981   0.233  16.142 -0.5703  0.1286  0.2017
  656TMC3    C3 9760   3.881   0.330  16.142  0.1381 -0.1850  0.2915
  656TMC3    C4 9761   4.035   0.316  15.923  0.1408  0.1977 -0.1555
  656TMC3    C5 9762   3.935   0.409  15.927  0.1588 -0.1149  0.4912
  656TMC3    C6 9763   3.859   0.416  16.034  0.4083 -0.2087  0.3260
  656TMC3     C 9764   4.133   0.116  16.012 -0.0782  0.0686 -0.5352
  656TMC3     O 9765   4.187   0.085  16.120  0.7640  0.4172  0.3218
  656TMC3     H 9766   3.997   0.164  16.224  0.9883  0.2574  0.0091
  656TMC3    H1 9767   4.094   0.307  15.833 -1.8299  0.3019 -1.4499
  656TMC3    H2 9768   3.782   0.488  16.057  0.7735 -0.1849  1.4622
  656TMC3    C7 9769   3.906   0.484  15.805 -0.3613  0.4385  0.1482
  656TMC3    C8 9770   3.774   0.303  16.247 -0.7963 -0.7552 -0.7635
  656TMC3    O1 9771   3.986   0.487  15.710  0.4290  0.2179  0.1764
  656TMC3    O2 9772   3.794   0.217  16.330  0.2727  0.7871 -0.6009
  657TMC3    C1 9773   3.179   4.184  15.225 -0.0701  0.3670  0.2345
  657TMC3    C2 9774   3.225   4.235  15.345  0.4886  0.1601  0.3620
  657TMC3    C3 9775   3.173   4.357  15.390 -0.5037  0.0680  0.0717
  657TMC3    C4 9776   3.079   4.245  15.157  0.0623 -0.4331 -0.0363
  657TMC3    C5 9777   3.033   4.362  15.211 -0.4501  0.2216 -0.2411
  657TMC3    C6 9778   3.075   4.429  15.319 -0.3322  0.1361 -0.4377
  657TMC3     C 9779   3.244   4.068  15.162 -0.3651 -0.0210  0.3883
  657TMC3     O 9780   3.237   4.064  15.039  0.2369  0.1270 -0.2600
  657TMC3     H 9781   3.308   4.182  15.391  0.5236 -0.1340 -0.0318
  657TMC3    H1 9782   3.028   4.212  15.067 -3.1082  0.4580  1.3969
  657TMC3    H2 9783   3.055   4.533  15.340 -2.1015 -0.2427 -0.2441
  657TMC3    C7 9784   2.929   4.422  15.126  1.1468 -0.1666 -0.2877
  657TMC3    C8 9785   3.229   4.415  15.512  0.2657  0.7305 -0.0098
  657TMC3    O1 9786   2.939   4.395  15.006 -0.3445  0.0898  0.0900
  657TMC3    O2 9787   3.225   4.538  15.515  0.0564 -0.4227  0.3750
  658MPD2     C 9788   4.479   4.266  14.662 -0.0460 -0.1015  0.4521
  658MPD2    C1 9789   4.466   4.353  14.762 -0.3400 -0.5144  0.2836
  658MPD2    C2 9790   4.494   4.486  14.736  0.0660 -0.3820  0.8441
  658MPD2    C3 9791   4.510   4.530  14.610  0.0365 -0.1131 -1.0426
  658MPD2    C4 9792   4.506   4.441  14.508  0.0829 -0.4401  0.1713
  658MPD2    C5 9793   4.492   4.311  14.534  0.0178 -0.5302  0.8273
  658MPD2     H 9794   4.493   4.568  14.807 -1.2989  0.2439  0.1172
  658MPD2    H1 9795   4.517   4.482  14.409  1.2156  2.1503  1.3711
  658MPD2    H2 9796   4.479   4.159  14.675  0.5163 -0.1267  0.2323
  658MPD2    H3 9797   4.496   4.241  14.451 -2.2193 -0.8644  1.0186
  658MPD2     N 9798   4.519   4.670  14.587 -0.0813  0.6840  0.6068
  658MPD2    H5 9799   4.512   4.729  14.670 -1.2996  0.3389  0.7497
  658MPD2    N1 9800   4.414   4.300  14.883  0.4749 -0.3211 -0.4095
  658MPD2    H7 9801   4.379   4.205  14.883  1.0769 -0.5461  2.3888
  659TMC3    C1 9802   4.341   4.309  15.112  0.0607  0.5215  0.1508
  659TMC3    C2 9803   4.378   4.361  15.228  0.0347  0.6188  0.3981
  659TMC3    C3 9804   4.285   4.410  15.317  0.3105  0.1915  0.2885
  659TMC3    C4 9805   4.211   4.310  15.077 -0.4014 -0.3292  0.1590
  659TMC3    C5 9806   4.114   4.355  15.165  0.4866  0.0877 -0.0146
  659TMC3    C6 9807   4.148   4.402  15.291  0.0941  0.4617 -0.0528
  659TMC3     C 9808   4.413   4.375  15.003 -0.1719  0.2104  1.1990
  659TMC3     O 9809   4.474   4.480  15.022 -0.3382 -0.1770  0.3339
  659TMC3     H 9810   4.480   4.394  15.240  0.7740 -0.9899 -1.5230
  659TMC3    H1 9811   4.183   4.263  14.983 -1.4552  1.2993 -0.3467
  659TMC3    H2 9812   4.070   4.428  15.362 -0.6632  0.0578 -0.7408
  659TMC3    C7 9813   3.970   4.356  15.123  0.4170 -0.2512 -0.3548
  659TMC3    C8 9814   4.335   4.466  15.443 -0.1035  0.0284  0.1795
  659TMC3    O1 9815   3.885   4.429  15.173 -0.2179  0.3571  0.4380
  659TMC3    O2 9816   4.453   4.449  15.481 -0.3048 -0.5484  0.5036
  660MPD2     C 9817   2.245   3.732  12.890 -0.1179 -0.6781  0.3451
  660MPD2    C1 9818   2.101   3.754  12.877  0.5623 -0.6269  0.2138
  660MPD2    C2 9819   2.017   3.686  12.967  0.4892  0.0770 -0.0742
  660MPD2    C3 9820   2.068   3.582  13.047 -0.0801  0.4374  0.1971
  660MPD2    C4 9821   2.205   3.566  13.059 -0.5953 -0.3899 -0.2106
  660MPD2    C5 9822   2.293   3.640  12.987 -0.2276 -0.3736  0.1864
  660MPD2     H 9823   1.909   3.697  12.967  0.2499 -2.2227  1.5195
  660MPD2    H1 9824   2.247   3.485  13.118  0.3858 -1.4531 -2.3402
  660MPD2    H2 9825   2.320   3.766  12.819 -0.5612  1.8915  1.0953
  660MPD2    H3 9826   2.400   3.625  12.980 -0.2684 -1.7476  2.4442
  660MPD2     N 9827   1.997   3.508  13.142 -0.1488 -0.0644  0.7208
  660MPD2    H5 9828   2.054   3.443  13.194  0.5416  0.1248  0.2173
  660MPD2    N1 9829   2.047   3.849  12.780 -0.3973  0.3190 -0.0156
  660MPD2    H7 9830   2.108   3.910  12.725  0.3352 -0.5017 -0.1130
  661TMC3    C1 9831   1.879   3.976  12.668 -0.6171 -0.1101 -0.5448
  661TMC3    C2 9832   1.965   4.022  12.577 -0.4422 -0.4746 -0.1711
  661TMC3    C3 9833   1.922   4.102  12.472 -0.5505  0.4752 -0.0925
  661TMC3    C4 9834   1.747   4.018  12.675  0.7393  0.1906  0.2495
  661TMC3    C5 9835   1.706   4.091  12.567 -0.5438  1.0785  0.4454
  661TMC3    C6 9836   1.791   4.124  12.462  0.2557 -0.5256  0.0323
  661TMC3     C 9837   1.911   3.866  12.754  0.7615  0.4422  0.4883
  661TMC3     O 9838   1.813   3.802  12.797 -0.3119 -0.0295  0.1669
  661TMC3     H 9839   2.066   3.984  12.575  0.0941  0.8829  1.1512
  661TMC3    H1 9840   1.681   3.998  12.759 -0.0875 -2.1927 -0.9584
  661TMC3    H2 9841   1.749   4.172  12.374 -0.7877 -2.7191 -0.6464
  661TMC3    C7 9842   1.563   4.089  12.534 -0.9743  0.1561  0.4951
  661TMC3    C8 9843   2.001   4.112  12.359 -0.6319  0.0066  0.5064
  661TMC3    O1 9844   1.486   4.179  12.563  0.4732 -0.1899  0.3718
  661TMC3    O2 9845   2.121   4.112  12.378 -0.5407  0.0521 -0.5892
  662MPD2     C 9846   2.407   2.684  17.024  0.1643 -0.7504  0.1030
  662MPD2    C1 9847   2.465   2.612  17.122  0.0064  0.4302  0.8521
  662MPD2    C2 9848   2.405   2.612  17.246 -1.0739 -0.5250  1.0212
  662MPD2    C3 9849   2.296   2.694  17.271 -0.1725 -0.6857  0.2808
  662MPD2    C4 9850   2.237   2.767  17.164 -1.1300 -0.8171  0.2325
  662MPD2    C5 9851   2.299   2.758  17.042 -0.1561 -0.7946  0.4157
  662MPD2     H 9852   2.451   2.557  17.327  1.7054  0.2381 -0.0576
  662MPD2    H1 9853   2.138   2.812  17.161 -0.2506  0.8417 -2.8823
  662MPD2    H2 9854   2.435   2.689  16.919  1.7876 -1.5839  0.5084
  662MPD2    H3 9855   2.263   2.815  16.957 -0.5636 -0.9881  0.4637
  662MPD2     N 9856   2.225   2.707  17.396 -0.3518  0.0111 -0.3497
  662MPD2    H5 9857   2.159   2.784  17.394  0.9592  1.1620  0.3446
  662MPD2    N1 9858   2.577   2.531  17.102  0.6770  0.3644  0.0960
  662MPD2    H7 9859   2.610   2.488  17.188  0.1914  0.8542  0.5297
  663TMC3    C1 9860   2.764   2.411  17.024 -0.3258 -0.1687 -0.6088
  663TMC3    C2 9861   2.841   2.423  17.137  0.2197  0.3228 -0.1390
  663TMC3    C3 9862   2.975   2.379  17.130  1.3519  0.2104 -0.8384
  663TMC3    C4 9863   2.806   2.331  16.924 -0.0871  0.2654  0.4694
  663TMC3    C5 9864   2.933   2.270  16.931  0.6399  0.7707 -0.2142
  663TMC3    C6 9865   3.006   2.282  17.042  0.4722 -0.2039 -0.2631
  663TMC3     C 9866   2.653   2.501  16.991  0.3340  0.3160 -0.9423
  663TMC3     O 9867   2.637   2.543  16.877  0.2148 -0.1685  0.4174
  663TMC3     H 9868   2.831   2.515  17.195 -0.1223 -1.6217  2.8797
  663TMC3    H1 9869   2.741   2.321  16.838  0.7164  0.6296 -0.1764
  663TMC3    H2 9870   3.107   2.242  17.043  0.7390  0.4807  0.7652
  663TMC3    C7 9871   2.920   2.139  16.879  0.4786  0.3447 -0.3597
  663TMC3    C8 9872   3.040   2.353  17.259 -0.1358 -0.1931  0.5270
  663TMC3    O1 9873   2.935   2.131  16.758 -0.0957  0.7266  0.1018
  663TMC3    O2 9874   3.154   2.303  17.262 -0.2258  0.2077 -0.5627
  664MPD2     C 9875   0.037   1.455   0.061 -0.0800  0.1636  0.3501
  664MPD2    C1 9876   0.164   1.431   0.108 -0.6969  0.3678  1.2767
  664MPD2    C2 9877   0.187   1.407   0.244  0.2992  0.2928 -0.1296
  664MPD2    C3 9878   0.080   1.398   0.336 -0.1923 -0.1401 -0.2979
  664MPD2    C4 9879   4.690   1.412   0.279 -0.2890  0.1336 -0.0797
  664MPD2    C5 9880   4.676   1.443   0.149 -0.5447  0.1032 -0.7557
  664MPD2     H 9881   0.287   1.404   0.285  0.5451  0.0345 -0.7367
  664MPD2    H1 9882   4.600   1.411   0.340  0.9463  0.0815  1.7458
  664MPD2    H2 9883   0.030   1.493  17.715 -2.0983 -0.8956  0.1013
  664MPD2    H3 9884   4.572   1.453   0.119 -0.8737 -0.5513  0.1793
  664MPD2     N 9885   0.102   1.382   0.474  0.0148  0.0349 -0.1043
  664MPD2    H5 9886   0.198   1.383   0.506  0.0713 -0.9121 -0.2327
  664MPD2    N1 9887   0.272   1.441   0.015 -0.0519  0.6048  0.7615
  664MPD2    H7 9888   0.245   1.462  17.675  2.2013 -0.0450 -0.0004
  665TMC3    C1 9889   0.066   1.360   0.704  0.0671  0.2319  1.0646
  665TMC3    C2 9890   4.737   1.291   0.799 -0.3232 -1.0483 -0.0827
  665TMC3    C3 9891   0.062   1.268   0.912  0.0706  0.4739  0.8932
  665TMC3    C4 9892   0.188   1.417   0.730  0.1342  0.0195 -0.7526
  665TMC3    C5 9893   0.247   1.397   0.852  0.2448  0.0438  0.7328
  665TMC3    C6 9894   0.194   1.316   0.948 -0.0549 -0.0534  0.6892
  665TMC3     C 9895   0.005   1.377   0.571 -0.1100  0.2689 -0.1978
  665TMC3     O 9896   4.622   1.370   0.562  0.2535  0.0105 -0.5368
  665TMC3     H 9897   4.638   1.249   0.784 -1.2543  1.4322 -0.7625
  665TMC3    H1 9898   0.229   1.484   0.656 -0.6363 -0.2566 -1.4317
  665TMC3    H2 9899   0.240   1.300   1.045  0.8475 -0.3483  0.2107
  665TMC3    C7 9900   0.376   1.452   0.861  0.9353  0.1969 -0.0277
  665TMC3    C8 9901   4.725   1.192   1.010  0.1449  0.2220 -0.2149
  665TMC3    O1 9902   0.431   1.459   0.752  0.6717  0.4753 -1.0418
  665TMC3    O2 9903   4.603   1.212   1.014  0.0315  0.5246 -0.3108
  666TMC3    C1 9904   4.554   1.270  10.031 -0.6461  0.4248  0.2205
  666TMC3    C2 9905   4.589   1.257   9.902  0.1281  0.3819 -0.0678
  666TMC3    C3 9906   4.618   1.368   9.828 -0.3551 -0.0778  0.4449
  666TMC3    C4 9907   4.552   1.392  10.100 -0.3907 -0.1589 -0.7632
  666TMC3    C5 9908   4.582   1.497  10.021 -0.6564 -0.6190  0.5279
  666TMC3    C6 9909   4.612   1.497   9.890  0.0676 -0.2678  0.8527
  666TMC3     C 9910   4.488   1.151  10.089 -0.0927 -0.2408  0.6447
  666TMC3     O 9911   4.481   1.054  10.020  0.4642 -0.3676 -0.1764
  666TMC3     H 9912   4.611   1.164   9.852  1.2154  0.7279 -0.2426
  666TMC3    H1 9913   4.545   1.394  10.208  0.3812 -0.1939 -0.7116
  666TMC3    H2 9914   4.620   1.586   9.830  1.3465 -2.1253 -1.7229
  666TMC3    C7 9915   4.601   1.618  10.098  0.3369  0.2282 -0.3471
  666TMC3    C8 9916   4.655   1.354   9.693  0.1602  0.2414  0.9275
  666TMC3    O1 9917   4.622   1.612  10.218 -0.1328 -0.6836 -0.0386
  666TMC3    O2 9918   4.568   1.307   9.616  0.0070  0.2759  0.2862
  667MPD2     C 9919   0.983   1.055  14.954  0.6004 -0.4219  0.3119
  667MPD2    C1 9920   0.913   1.077  15.071 -0.0512  0.0050 -0.6069
  667MPD2    C2 9921   0.807   0.992  15.108  0.2032 -0.0024  0.0444
  667MPD2    C3 9922   0.764   0.894  15.024  1.2249  0.0273 -0.2795
  667MPD2    C4 9923   0.829   0.877  14.905  0.0860 -0.8779  0.1130
  667MPD2    C5 9924   0.940   0.951  14.869 -0.4719 -0.2641 -0.4125
  667MPD2     H 9925   0.759   1.009  15.204 -0.8184  3.1319 -1.0255
  667MPD2    H1 9926   0.795   0.799  14.837 -0.8414 -0.6015  0.2579
  667MPD2    H2 9927   1.056   1.125  14.915  1.0345 -2.5081 -2.5734
  667MPD2    H3 9928   1.003   0.933  14.783  0.0835 -0.4818  0.0379
  667MPD2     N 9929   0.657   0.805  15.053 -0.0679 -0.2458 -0.1089
  667MPD2    H5 9930   0.642   0.727  14.990  0.4675 -0.5298  0.1205
  667MPD2    N1 9931   0.955   1.177  15.162 -0.1443 -0.0305 -0.3386
  667MPD2    H7 9932   0.898   1.188  15.245 -1.0794  1.3205 -1.1543
  668TMC3    C1 9933   1.094   1.355  15.261 -0.0803 -0.5281  0.2997
  668TMC3    C2 9934   1.197   1.442  15.250 -0.8028  0.8955  0.9773
  668TMC3    C3 9935   1.239   1.510  15.361  0.1701  0.8846 -0.0382
  668TMC3    C4 9936   1.019   1.335  15.378 -0.8902  0.1586  0.7184
  668TMC3    C5 9937   1.051   1.418  15.482 -0.2077 -0.7760  0.3212
  668TMC3    C6 9938   1.163   1.501  15.473 -0.5567  0.8992  0.0084
  668TMC3     C 9939   1.067   1.254  15.154  0.2254 -0.7148 -0.2607
  668TMC3     O 9940   1.152   1.246  15.070 -0.1034 -0.4612  0.1439
  668TMC3     H 9941   1.247   1.452  15.155 -1.4772 -1.4005  0.3680
  668TMC3    H1 9942   0.952   1.251  15.392 -1.0859  0.0919 -0.6768
  668TMC3    H2 9943   1.177   1.575  15.551 -1.1437 -0.7039  1.6095
  668TMC3    C7 9944   0.970   1.412  15.609  0.1517  0.0561 -0.6682
  668TMC3    C8 9945   1.324   1.627  15.362 -0.7844  0.3179 -0.3310
  668TMC3    O1 9946   1.036   1.451  15.703 -0.3065 -0.4096  0.0492
  668TMC3    O2 9947   1.362   1.663  15.470  0.1125  0.0099  0.4128
  669TMC3    C1 9948   3.869   1.190  14.838  0.1735  0.2882  0.2849
  669TMC3    C2 9949   3.745   1.220  14.789 -0.1302  0.0770 -0.6366
  669TMC3    C3 9950   3.749   1.266  14.660  0.1308 -0.2857 -0.0590
  669TMC3    C4 9951   3.986   1.232  14.781  0.0014 -0.3879 -0.4781
  669TMC3    C5 9952   3.976   1.300  14.662 -0.1149 -0.3407 -0.5868
  669TMC3    C6 9953   3.858   1.318  14.596  0.2360  0.4702 -0.1356
  669TMC3     C 9954   3.875   1.136  14.976 -0.1037  0.7311 -0.4184
  669TMC3     O 9955   3.768   1.132  15.037 -0.8114  0.4415 -0.3013
  669TMC3     H 9956   3.650   1.204  14.839  0.2168  2.0184  0.6306
  669TMC3    H1 9957   4.084   1.221  14.824 -0.3659 -2.6678 -0.2013
  669TMC3    H2 9958   3.843   1.376  14.505 -0.3534 -1.1720 -1.0945
  669TMC3    C7 9959   4.097   1.320  14.581  0.4499  0.1116 -0.0925
  669TMC3    C8 9960   3.635   1.308  14.585 -0.3126  0.1009 -0.2574
  669TMC3    O1 9961   4.204   1.327  14.643 -0.0995  0.0575  0.6749
  669TMC3    O2 9962   3.629   1.258  14.475  0.2506  0.0523 -0.0211
  670MPD2     C 9963   3.001   3.907  14.224 -1.0198  0.1889  0.8833
  670MPD2    C1 9964   2.888   3.862  14.153  0.3452  0.4979  0.9241
  670MPD2    C2 9965   2.767   3.855  14.223 -0.2588  0.2471  0.7651
  670MPD2    C3 9966   2.750   3.882  14.357 -0.1539 -0.0280 -0.7294
  670MPD2    C4 9967   2.860   3.938  14.415 -0.1317  0.4628 -0.8248
  670MPD2    C5 9968   2.982   3.938  14.354  0.0720 -0.3635 -0.0593
  670MPD2     H 9969   2.684   3.825  14.160 -0.6279 -0.5448  1.6275
  670MPD2    H1 9970   2.848   3.969  14.519 -0.7934  0.6553 -0.9600
  670MPD2    H2 9971   3.095   3.935  14.179 -0.0943 -1.0774  2.0213
  670MPD2    H3 9972   3.070   3.972  14.408 -0.5163 -2.2506  2.0738
  670MPD2     N 9973   2.626   3.871  14.419 -0.3310  0.7319  0.7523
  670MPD2    H5 9974   2.547   3.845  14.361 -1.2285 -0.7897  2.6733
  670MPD2    N1 9975   2.908   3.837  14.013  0.5399 -0.1254  0.5416
  670MPD2    H7 9976   2.827   3.808  13.959  0.9074 -1.2505  0.6067
  671TMC3    C1 9977   2.471   3.830  14.583 -0.4232 -0.7961  0.2436
  671TMC3    C2 9978   2.471   3.763  14.703 -1.2095  0.2108 -0.0032
  671TMC3    C3 9979   2.372   3.675  14.722 -0.0945 -0.0517 -0.0257
  671TMC3    C4 9980   2.382   3.806  14.481  0.0915  0.2728 -0.5128
  671TMC3    C5 9981   2.269   3.736  14.518 -0.7319  0.2673  0.2713
  671TMC3    C6 9982   2.267   3.668  14.638  0.1556 -0.6417 -0.0540
  671TMC3     C 9983   2.609   3.877  14.553 -0.3851  0.0731 -0.7933
  671TMC3     O 9984   2.692   3.883  14.644 -0.4428 -0.1871  0.2709
  671TMC3     H 9985   2.557   3.751  14.767 -0.5909  2.0118 -0.4823
  671TMC3    H1 9986   2.384   3.868  14.392  3.0776  0.1546 -0.5156
  671TMC3    H2 9987   2.173   3.622  14.668 -0.4075  0.1064 -0.6877
  671TMC3    C7 9988   2.187   3.684  14.417  0.0320 -0.5931  0.6647
  671TMC3    C8 9989   2.423   3.539  14.711 -0.1112  0.1505  0.1739
  671TMC3    O1 9990   2.136   3.760  14.338 -0.2741  0.0148  0.5330
  671TMC3    O2 9991   2.368   3.477  14.616 -0.4985 -0.7437  0.1360
  672MPD2     C 9992   3.061   4.167   0.289  0.7888  0.7425  0.0830
  672MPD2    C1 9993   2.954   4.139   0.371 -0.1270  0.5933 -0.1868
  672MPD2    C2 9994   2.903   4.233   0.462  0.0400 -0.0854 -0.5125
  672MPD2    C3 9995   2.953   4.364   0.456  0.3239  0.5731 -0.0065
  672MPD2    C4 9996   3.059   4.388   0.368  0.0016  0.3514  0.1193
  672MPD2    C5 9997   3.104   4.291   0.289 -0.4366  0.0207  0.3922
  672MPD2     H 9998   2.831   4.204   0.538  0.8452 -0.7951 -0.0156
  672MPD2    H1 9999   3.107   4.483   0.350 -0.1622 -0.0062 -2.2082
  672MPD2    H210000   3.103   4.100   0.215 -1.8466 -0.1935 -0.5920
  672MPD2    H310001   3.168   4.332   0.212  1.0588 -2.3966  0.3452
  672MPD2     N10002   2.936   4.467   0.546  0.0922 -0.1879  0.0952
  672MPD2    H510003   2.998   4.547   0.545 -2.3995  1.7654  0.9329
  672MPD2    N110004   2.900   4.012   0.382  0.2407 -0.3899 -0.1059
  672MPD2    H710005   2.834   3.992   0.457  0.3380 -2.3335 -0.5509
  673TMC3    C110006   2.878   3.776   0.342 -0.6498  0.6362 -0.8341
  673TMC3    C210007   2.955   3.665   0.335  0.7291 -0.2548  0.0811
  673TMC3    C310008   2.902   3.550   0.384 -0.3687 -0.1812  0.3575
  673TMC3    C410009   2.751   3.782   0.389  0.8838  0.0742 -0.7802
  673TMC3    C510010   2.699   3.665   0.444 -0.6333  0.0980 -0.5684
  673TMC3    C610011   2.775   3.545   0.437  0.9249  0.4065  0.7867
  673TMC3     C10012   2.942   3.905   0.311 -0.6151 -0.2703  0.4323
  673TMC3     O10013   3.030   3.902   0.225  0.0415  0.1615  0.4284
  673TMC3     H10014   3.053   3.669   0.289  0.8172  0.5700  0.3446
  673TMC3    H110015   2.694   3.873   0.406 -0.5335 -0.8691 -0.4540
  673TMC3    H210016   2.740   3.456   0.488  0.9556 -1.1562 -1.9144
  673TMC3    C710017   2.562   3.655   0.474 -0.3382  0.0879  0.6306
  673TMC3    C810018   3.003   3.465   0.442 -0.0970 -0.5090 -0.1259
  673TMC3    O110019   2.525   3.551   0.524 -0.4244  0.0887  0.2524
  673TMC3    O210020   2.970   3.353   0.470 -0.0812  0.1216 -0.2516
  674MPD2     C10021   2.625   3.053  17.453  0.1547  0.5315 -0.0079
  674MPD2    C110022   2.578   3.035  17.581  0.2448  0.6074  0.4404
  674MPD2    C210023   2.527   3.148  17.639 -0.6929 -0.1979 -0.3008
  674MPD2    C310024   2.523   3.270  17.578 -0.2731 -1.0248  0.0627
  674MPD2    C410025   2.547   3.280  17.443  0.0095 -0.9862  0.2063
  674MPD2    C510026   2.598   3.167  17.379 -0.0923  0.5564  0.4299
  674MPD2     H10027   2.496   3.137  17.743  2.7002 -0.2958  0.6952
  674MPD2    H110028   2.529   3.363  17.374 -2.4118 -1.4020  0.3348
  674MPD2    H210029   2.659   2.963  17.403  0.4752 -0.1421  1.4154
  674MPD2    H310030   2.635   3.180  17.278 -0.2662  1.7675  0.5254
  674MPD2     N10031   2.500   3.376  17.667 -0.6651  0.0398 -0.7780
  674MPD2    H510032   2.502   3.348   0.008  0.6480 -0.4098 -0.9441
  674MPD2    N110033   2.602   2.910  17.648  0.5605  0.2805 -0.0579
  674MPD2    H710034   2.629   2.830  17.592 -1.8823  0.4458 -1.4827
  675TMC3    C110035   2.662   2.998   0.115  0.5071  0.0031  0.4929
  675TMC3    C210036   2.643   2.983   0.254  0.2663 -0.3293  0.2908
  675TMC3    C310037   2.726   3.052   0.336  0.4507  0.6329  0.1107
  675TMC3    C410038   2.766   3.076   0.069 -0.5287 -0.0276  0.3612
  675TMC3    C510039   2.841   3.148   0.157  0.3012  0.0923 -0.4313
  675TMC3    C610040   2.828   3.134   0.289 -0.0029 -0.0656  0.5817
  675TMC3     C10041   2.601   2.893   0.030 -0.1727  0.4944  0.1878
  675TMC3     O10042   2.592   2.789   0.092  0.0396  0.4118  0.1236
  675TMC3     H10043   2.569   2.914   0.294 -0.1262 -1.4156 -2.3093
  675TMC3    H110044   2.791   3.072  17.719 -1.5094 -1.4831  0.1850
  675TMC3    H210045   2.912   3.170   0.347  1.1199  0.2262 -1.2310
  675TMC3    C710046   2.918   3.265   0.110 -0.5621  0.3869  0.0595
  675TMC3    C810047   2.690   3.064   0.475 -0.0235 -0.2112  0.7240
  675TMC3    O110048   2.871   3.316   0.008 -0.3377  0.2453 -0.5375
  675TMC3    O210049   2.619   2.972   0.512 -0.4624  0.0970  0.2216
  676MPD2     C10050   0.104   2.611  11.098  0.0255  0.0828  0.2307
  676MPD2    C110051   0.102   2.541  11.218  0.3392  0.2889  0.1326
  676MPD2    C210052   0.166   2.421  11.221 -0.6356  0.3792  0.0519
  676MPD2    C310053   0.230   2.368  11.115 -0.2642 -0.2533  0.6258
  676MPD2    C410054   0.211   2.427  10.994  0.1592 -0.4143  0.0781
  676MPD2    C510055   0.155   2.551  10.991  0.5424  0.3803  0.1473
  676MPD2     H10056   0.173   2.375  11.319  1.8228 -0.7947 -0.6939
  676MPD2    H110057   0.239   2.380  10.900  0.3586 -0.0040 -0.0645
  676MPD2    H210058   0.057   2.709  11.094  0.0437 -0.0246 -2.5120
  676MPD2    H310059   0.139   2.594  10.893 -0.5052 -0.4709 -0.0493
  676MPD2     N10060   0.311   2.249  11.112 -0.3401 -0.9464  0.5211
  676MPD2    H510061   0.354   2.217  11.026  1.7083  1.8561  0.5051
  676MPD2    N110062   0.035   2.596  11.335  0.0845 -0.0928  0.0530
  676MPD2    H710063   0.020   2.527  11.409 -0.0062 -0.1420 -0.0116
  677TMC3    C110064   4.660   2.745  11.475  0.1940 -0.2985  0.1636
  677TMC3    C210065   4.588   2.641  11.526  0.1842  0.5619  0.1255
  677TMC3    C310066   4.537   2.649  11.648  0.7429  0.7363  0.8406
  677TMC3    C410067   4.691   2.854  11.549  0.4868 -0.4782 -0.1365
  677TMC3    C510068   4.643   2.858  11.673 -0.5657  0.0106 -0.3472
  677TMC3    C610069   4.568   2.754  11.727  0.4889 -0.6275 -0.0981
  677TMC3     C10070   4.727   2.725  11.346 -0.7241 -0.0291 -0.3353
  677TMC3     O10071   0.024   2.826  11.286  0.9460  0.2803  0.5310
  677TMC3     H10072   4.584   2.549  11.468 -1.8797  0.4174  0.5143
  677TMC3    H110073   0.009   2.934  11.505 -1.4935 -0.0811 -1.9600
  677TMC3    H210074   4.566   2.749  11.835  1.4401  0.2579 -0.0335
  677TMC3    C710075   4.711   2.942  11.765 -0.5750  0.0367 -0.2727
  677TMC3    C810076   4.564   2.520  11.710 -0.5208  0.2524 -0.0152
  677TMC3    O110077   4.646   2.983  11.859 -0.2614 -0.0171  0.2000
  677TMC3    O210078   4.667   2.471  11.666 -0.0825  0.6569  0.0206
  678MPD2     C10079   1.816   2.500   1.269 -0.4005  0.7306  0.4495
  678MPD2    C110080   1.815   2.365   1.241 -1.1054 -0.0259 -0.3104
  678MPD2    C210081   1.697   2.314   1.179 -0.6431 -0.3321 -0.4670
  678MPD2    C310082   1.581   2.385   1.159  0.3218 -0.0808  0.2730
  678MPD2    C410083   1.585   2.516   1.207 -0.5836 -0.5286 -0.3873
  678MPD2    C510084   1.703   2.570   1.253 -0.0295 -0.2973  0.6851
  678MPD2     H10085   1.694   2.208   1.156 -2.4489  0.0015 -1.8406
  678MPD2    H110086   1.490   2.565   1.225 -0.4902 -0.7521  0.7118
  678MPD2    H210087   1.906   2.549   1.305  1.5888 -0.6326 -2.5856
  678MPD2    H310088   1.712   2.674   1.282  1.2871 -0.8775  2.3387
  678MPD2     N10089   1.463   2.319   1.116  0.0907 -0.3948 -1.0259
  678MPD2    H510090   1.466   2.218   1.106 -5.8213 -0.9758  2.4706
  678MPD2    N110091   1.931   2.282   1.239  0.0667  0.0743 -0.3211
  678MPD2    H710092   1.923   2.183   1.216 -1.3241  0.4376 -1.4048
  679TMC3    C110093   2.195   1.989   1.193 -0.6688  0.1844  0.1491
  679TMC3    C210094   2.115   2.085   1.249 -0.3032 -0.4631  0.3616
  679TMC3    C310095   2.154   2.215   1.240  0.3017 -0.3176  0.1787
  679TMC3    C410096   2.302   2.024   1.115 -0.1818 -0.3013  0.2990
  679TMC3    C510097   2.338   2.152   1.106 -0.5640 -0.1378  0.4382
  679TMC3    C610098   2.267   2.255   1.176 -0.3188  0.6071 -0.0529
  679TMC3     C10099   2.140   1.854   1.175  0.9108  0.5724  0.1645
  679TMC3     O10100   2.217   1.770   1.134 -0.2387  0.3768 -0.1283
  679TMC3     H10101   2.026   2.065   1.308  0.8791 -3.2067  1.2173
  679TMC3    H110102   2.363   1.945   1.072 -0.0818  0.3361 -0.7419
  679TMC3    H210103   2.268   2.361   1.153 -1.4647  0.6076 -0.1073
  679TMC3    C710104   2.407   2.186   0.989  0.4258  0.2559 -0.7605
  679TMC3    C810105   2.060   2.323   1.276 -0.0206  0.1254  0.0371
  679TMC3    O110106   2.414   2.109   0.896  0.6712 -0.7281  0.4944
  679TMC3    O210107   2.099   2.436   1.296  0.0183 -0.2780 -0.6619
  680MPD2     C10108   2.205   1.398  13.705 -0.3497  0.5855 -0.7219
  680MPD2    C110109   2.243   1.314  13.810 -0.4533  0.3691  0.2199
  680MPD2    C210110   2.308   1.374  13.916 -0.2718  0.8002 -0.0344
  680MPD2    C310111   2.347   1.511  13.906  0.0464 -1.0490  0.1121
  680MPD2    C410112   2.318   1.583  13.799  0.3128  0.1362 -0.6965
  680MPD2    C510113   2.242   1.530  13.698 -0.3798  0.1866  0.1496
  680MPD2     H10114   2.333   1.316  14.003 -2.1971 -0.3319 -0.2378
  680MPD2    H110115   2.346   1.688  13.792 -1.3121  0.5599 -0.9469
  680MPD2    H210116   2.140   1.371  13.622 -2.5581  1.7404  0.6184
  680MPD2    H310117   2.217   1.586  13.608  2.1523  1.5059  0.2515
  680MPD2     N10118   2.421   1.578  14.003 -0.5534  0.1067  0.7064
  680MPD2    H510119   2.462   1.665  13.973  1.7967 -0.9285  0.9547
  680MPD2    N110120   2.203   1.180  13.818  0.4378 -0.2822  0.4997
  680MPD2    H710121   2.232   1.131  13.902  0.8320 -1.0278 -0.0662
  681TMC3    C110122   2.115   0.974  13.740 -0.2084 -0.0204 -0.2200
  681TMC3    C210123   2.075   0.927  13.868 -0.0058 -0.5706 -0.5122
  681TMC3    C310124   2.097   0.793  13.890  0.1825  0.2776  0.4791
  681TMC3    C410125   2.184   0.895  13.652 -0.2053 -0.1179  0.3462
  681TMC3    C510126   2.195   0.758  13.674  0.2403 -0.0495 -0.7595
  681TMC3    C610127   2.153   0.708  13.795  0.2301  0.2340 -0.6485
  681TMC3     C10128   2.131   1.117  13.716  0.0505  1.1454 -0.0564
  681TMC3     O10129   2.100   1.151  13.604 -0.0146  0.4474  0.0555
  681TMC3     H10130   2.032   1.003  13.933  1.1133  0.4094 -0.9112
  681TMC3    H110131   2.221   0.950  13.566 -2.4242  0.4991 -0.2216
  681TMC3    H210132   2.158   0.600  13.804 -0.0949  0.3308  0.7593
  681TMC3    C710133   2.326   0.705  13.628 -0.1245  0.1566  0.7182
  681TMC3    C810134   2.076   0.734  14.024  0.2194  0.0015  0.4318
  681TMC3    O110135   2.400   0.670  13.714 -0.0450 -0.0646  0.2134
  681TMC3    O210136   2.065   0.612  14.026  0.0207  0.0605 -0.2020
  682MPD2     C10137   4.209   2.669  10.912  0.0366  0.4785  0.1802
  682MPD2    C110138   4.164   2.547  10.942 -0.4300  0.5060 -0.3504
  682MPD2    C210139   4.082   2.538  11.049  0.6414 -0.9879 -0.2161
  682MPD2    C310140   4.041   2.647  11.118  0.3513  0.3584 -0.0988
  682MPD2    C410141   4.083   2.769  11.088 -0.5524 -0.4810  0.4635
  682MPD2    C510142   4.187   2.780  10.995  0.5476  0.0628 -0.2932
  682MPD2     H10143   4.049   2.438  11.073 -0.1557 -0.7925 -0.5200
  682MPD2    H110144   4.045   2.858  11.136  1.1644  0.0702  0.7932
  682MPD2    H210145   4.263   2.692  10.821 -0.5602 -0.6531 -0.4634
  682MPD2    H310146   4.216   2.880  10.966  1.6822  0.6472  2.7974
  682MPD2     N10147   3.964   2.637  11.232 -0.5122 -0.2874  0.6594
  682MPD2    H510148   3.918   2.725  11.254  0.0588 -0.3402  2.0587
  682MPD2    N110149   4.197   2.424  10.875  0.2647  0.0172  0.2796
  682MPD2    H710150   4.162   2.336  10.909  0.3316  0.3719  1.2710
  683TMC3    C110151   3.799   2.588  11.628 -0.6833 -0.3029  0.0982
  683TMC3    C210152   3.680   2.526  11.623 -0.6598 -0.2374  0.6494
  683TMC3    C310153   3.644   2.472  11.499  0.2067  0.4136 -0.5736
  683TMC3    C410154   3.867   2.607  11.511  0.4275 -0.0793  0.5339
  683TMC3    C510155   3.815   2.570  11.386 -0.8224 -0.0816  0.2391
  683TMC3    C610156   3.710   2.492  11.383 -0.0020  1.1682 -0.5816
  683TMC3     C10157   3.880   2.582  11.749  0.4980 -0.7621 -0.6286
  683TMC3     O10158   3.976   2.661  11.754 -0.1364 -0.2281  0.2624
  683TMC3     H10159   3.616   2.529  11.710  0.6791 -0.3646  1.6436
  683TMC3    H110160   3.966   2.650  11.518  0.4550 -0.3979  1.9265
  683TMC3    H210161   3.676   2.448  11.290  1.6490 -2.2867  0.4386
  683TMC3    C710162   3.913   2.529  11.297 -0.2560  0.8073 -0.0522
  683TMC3    C810163   3.622   2.326  11.500  0.2211 -0.8324 -0.3475
  683TMC3    O110164   3.932   2.409  11.276  0.5244  0.1292  0.1202
  683TMC3    O210165   3.529   2.286  11.563  0.4832 -0.2514 -0.3273
  684MPD2     C10166   2.343   1.423  16.516 -0.4515 -0.1305  0.0307
  684MPD2    C110167   2.273   1.475  16.405  0.2319 -0.0861 -0.6061
  684MPD2    C210168   2.245   1.607  16.408  0.5629 -0.1131  1.0867
  684MPD2    C310169   2.299   1.696  16.501 -0.0687  0.5893 -0.0325
  684MPD2    C410170   2.364   1.635  16.611 -0.4853  0.9235 -1.2728
  684MPD2    C510171   2.379   1.503  16.616 -0.2280 -0.6440  0.2509
  684MPD2     H10172   2.191   1.653  16.326  0.6754 -3.1031 -0.6617
  684MPD2    H110173   2.417   1.701  16.679 -1.8684 -0.0467  0.7512
  684MPD2    H210174   2.362   1.317  16.529  0.6813  0.0279 -0.3339
  684MPD2    H310175   2.427   1.460  16.703  3.1418  1.7701 -0.4160
  684MPD2     N10176   2.297   1.835  16.492  0.5638 -0.2665  0.0845
  684MPD2    H510177   2.339   1.881  16.572 -0.7757 -2.2211  1.8939
  684MPD2    N110178   2.239   1.402  16.288  0.5153  0.8567  0.2795
  684MPD2    H710179   2.199   1.458  16.213  1.3138 -0.9240 -1.4654
  685TMC3    C110180   2.319   1.278  16.110 -0.2085  0.1579 -0.3954
  685TMC3    C210181   2.232   1.344  16.037 -0.0008  0.8856  0.6677
  685TMC3    C310182   2.276   1.374  15.911  0.4010  0.4095 -0.2012
  685TMC3    C410183   2.453   1.257  16.080  0.2780  1.0017  0.1557
  685TMC3    C510184   2.487   1.306  15.958 -0.8910  0.6718  0.5498
  685TMC3    C610185   2.403   1.361  15.865 -0.1715  0.6932 -0.1868
  685TMC3     C10186   2.298   1.282  16.255 -0.0475 -0.2511 -0.5572
  685TMC3     O10187   2.375   1.216  16.322  0.0277  0.0865 -0.2171
  685TMC3     H10188   2.126   1.338  16.060 -0.3359 -0.3270 -1.2471
  685TMC3    H110189   2.524   1.209  16.146 -0.3692  1.1943  0.9830
  685TMC3    H210190   2.429   1.377  15.761  1.1897 -0.5090 -0.0214
  685TMC3    C710191   2.625   1.297  15.940 -0.4654  0.0088  1.2116
  685TMC3    C810192   2.175   1.393  15.809 -0.1363  0.0031  0.4264
  685TMC3    O110193   2.681   1.193  15.984  0.4566  0.1196  0.6898
  685TMC3    O210194   2.190   1.364  15.691 -0.2082  0.5478 -0.8694
  686MPD2     C10195   3.664   1.902  15.503  0.0754 -0.5130  0.1431
  686MPD2    C110196   3.703   1.802  15.586  0.4967  0.9254 -0.1801
  686MPD2    C210197   3.779   1.695  15.529  0.0050 -0.1953 -1.1238
  686MPD2    C310198   3.778   1.680  15.394  0.5271  0.0114 -0.2145
  686MPD2    C410199   3.717   1.777  15.319 -0.0650  0.5554  0.6699
  686MPD2    C510200   3.670   1.890  15.373 -0.6677 -0.3518 -0.1623
  686MPD2     H10201   3.844   1.634  15.592 -0.8269 -0.1443 -0.2130
  686MPD2    H110202   3.726   1.770  15.211 -1.3259  1.9035  0.4740
  686MPD2    H210203   3.606   1.986  15.539 -0.1672 -1.2225  1.4272
  686MPD2    H310204   3.624   1.970  15.316 -2.0504 -0.8933  0.1910
  686MPD2     N10205   3.847   1.581  15.314  0.0461  0.4456 -0.3457
  686MPD2    H510206   3.845   1.610  15.216  2.5863  1.0078 -0.2206
  686MPD2    N110207   3.659   1.799  15.717  0.0667 -0.4270 -0.3275
  686MPD2    H710208   3.582   1.865  15.724 -1.0739 -1.7078 -0.6728
  687TMC3    C110209   3.877   1.400  15.480 -0.3821  0.4321 -0.2386
  687TMC3    C210210   3.747   1.396  15.518 -0.2565 -0.4280 -0.3709
  687TMC3    C310211   3.720   1.348  15.646 -0.2110 -0.5906  0.7563
  687TMC3    C410212   3.976   1.362  15.566 -0.1953  0.2266 -0.4009
  687TMC3    C510213   3.946   1.306  15.688 -0.6224 -0.0318  0.2615
  687TMC3    C610214   3.818   1.302  15.727  0.3993  0.7788  0.2428
  687TMC3     C10215   3.914   1.468  15.356 -0.6231 -0.1058  0.1839
  687TMC3     O10216   3.995   1.411  15.292  0.0141 -0.1522  0.0788
  687TMC3     H10217   3.665   1.410  15.448 -1.2795  1.5586  1.2260
  687TMC3    H110218   4.078   1.354  15.530 -0.2056 -0.4754 -0.2755
  687TMC3    H210219   3.793   1.253  15.820 -1.5966 -0.1186 -0.7660
  687TMC3    C710220   4.050   1.241  15.765 -0.5152 -0.6332 -0.0325
  687TMC3    C810221   3.585   1.354  15.692  0.1810 -0.1436  0.3019
  687TMC3    O110222   4.118   1.151  15.717  0.2926  0.4664  0.2811
  687TMC3    O210223   3.551   1.264  15.771 -0.2434  0.3324 -0.3130
  688MPD2     C10224   2.818   0.410  17.709  0.4154  0.6988 -0.5068
  688MPD2    C110225   2.791   0.287  17.653 -0.1502 -0.2204 -0.0482
  688MPD2    C210226   2.880   0.231  17.568 -0.4909  0.0412 -0.6524
  688MPD2    C310227   2.992   0.304  17.526  0.1877  0.0451 -0.3112
  688MPD2    C410228   3.010   0.429  17.573 -0.6987  0.4756 -0.5253
  688MPD2    C510229   2.929   0.480  17.663  0.6166  0.0144  0.4155
  688MPD2     H10230   2.842   0.143  17.518 -1.0209  0.4388 -0.9505
  688MPD2    H110231   3.087   0.491  17.532 -0.7247  1.5856  1.0905
  688MPD2    H210232   2.751   0.453   0.027 -2.2980 -0.9058 -2.0801
  688MPD2    H310233   2.936   0.583  17.696  3.3301 -1.1307  3.4014
  688MPD2     N10234   3.082   0.258  17.426  0.0591  0.2751 -1.0043
  688MPD2    H510235   3.148   0.326  17.389 -0.4700  1.1618 -0.3395
  688MPD2    N110236   2.673   0.216  17.692 -0.2719 -0.3913 -0.2567
  688MPD2    H710237   2.659   0.119  17.665 -1.8671 -0.6528  1.5654
  689TMC3    C110238   2.463   0.184   0.066 -0.7439 -0.0865 -0.1529
  689TMC3    C210239   2.376   0.242   0.154 -0.4933 -0.3749 -0.1502
  689TMC3    C310240   2.314   0.168   0.256  0.0112 -0.5242 -1.0906
  689TMC3    C410241   2.480   0.051   0.080 -0.7011  0.9447 -0.0132
  689TMC3    C510242   2.420   4.719   0.185  0.0679  0.1347  0.9611
  689TMC3    C610243   2.335   0.034   0.279 -0.0751 -0.1352  0.3384
  689TMC3     C10244   2.568   0.269   0.014  0.1718 -0.3955  0.3861
  689TMC3     O10245   2.539   0.389   0.031  0.2686  0.1572 -0.1461
  689TMC3     H10246   2.351   0.347   0.151  1.9521  0.3203  4.2958
  689TMC3    H110247   2.549   4.736   0.018 -0.2026  2.7472 -1.0592
  689TMC3    H210248   2.284   4.716   0.355 -0.6271  1.2092  0.9818
  689TMC3    C710249   2.473   4.588   0.217 -0.6191 -0.6838  0.3515
  689TMC3    C810250   2.200   0.221   0.318  0.0087  0.7509  0.2201
  689TMC3    O110251   2.462   4.548   0.334  0.0376 -0.3229 -0.6089
  689TMC3    O210252   2.146   0.315   0.254  0.1134 -0.6400 -0.3534
  690MPD2     C10253   0.960   2.232  15.981 -0.6484 -0.1692  0.5130
  690MPD2    C110254   0.861   2.276  15.889  0.2298 -0.9252 -0.1220
  690MPD2    C210255   0.901   2.325  15.770 -0.1877  0.1383  0.6637
  690MPD2    C310256   1.036   2.328  15.733  0.0615 -0.1114 -0.3423
  690MPD2    C410257   1.130   2.288  15.819 -0.1940  0.3813 -0.4514
  690MPD2    C510258   1.093   2.245  15.940  0.1564  0.6657 -0.6478
  690MPD2     H10259   0.826   2.358  15.700 -0.9622  0.7631  1.7854
  690MPD2    H110260   1.235   2.272  15.797 -0.5133  1.0874 -2.4345
  690MPD2    H210261   0.939   2.201  16.082  0.2932  1.6718  1.2646
  690MPD2    H310262   1.171   2.235  16.014  0.8669 -1.0489 -1.6339
  690MPD2     N10263   1.062   2.386  15.608 -0.4635 -0.6228 -0.5680
  690MPD2    H510264   0.978   2.415  15.558 -0.3009 -0.4782 -0.7617
  690MPD2    N110265   0.722   2.259  15.914  0.2234 -0.0594  0.2446
  690MPD2    H710266   0.657   2.310  15.855  2.0572  0.3077 -1.4920
  691TMC3    C110267   0.520   2.174  16.006 -0.0443 -0.9013 -0.4299
  691TMC3    C210268   0.449   2.198  15.885 -0.6549  0.1370 -0.0687
  691TMC3    C310269   0.307   2.175  15.888 -0.5548 -1.0345 -0.9095
  691TMC3    C410270   0.457   2.111  16.117  1.1253  0.3257 -0.6434
  691TMC3    C510271   0.323   2.084  16.101  0.6470 -0.2260 -0.6158
  691TMC3    C610272   0.242   2.111  15.991 -0.0217 -0.2918  0.3414
  691TMC3     C10273   0.661   2.191  16.018  0.4351  0.8388  0.2933
  691TMC3     O10274   0.709   2.119  16.108  0.1302  0.0094 -0.1086
  691TMC3     H10275   0.500   2.227  15.795 -2.9623 -2.6859 -2.3053
  691TMC3    H110276   0.518   2.090  16.204 -0.0894  0.8154  0.3206
  691TMC3    H210277   0.134   2.115  15.999 -0.0374 -0.5250  0.2468
  691TMC3    C710278   0.255   1.992  16.203  0.8598  0.4840 -0.7915
  691TMC3    C810279   0.230   2.223  15.779 -0.7016 -0.3579  0.1792
  691TMC3    O110280   0.294   1.990  16.321  0.2117  0.4001  0.1151
  691TMC3    O210281   0.289   2.238  15.675  0.2554  0.0991  1.1110
  692TMC3    C110282   2.049   2.966  15.658 -0.7068  0.5974  0.1558
  692TMC3    C210283   2.140   2.988  15.755  0.2262  0.2482  0.2088
  692TMC3    C310284   2.265   2.924  15.757  0.1648  0.4218  0.4349
  692TMC3    C410285   2.063   2.859  15.574  0.3652 -0.1082  0.2144
  692TMC3    C510286   2.173   2.784  15.596 -0.0996  0.4173  0.5244
  692TMC3    C610287   2.280   2.819  15.665  0.5799  0.4161  0.5932
  692TMC3     C10288   1.916   3.025  15.687  0.7223 -0.3083 -0.0762
  692TMC3     O10289   1.891   3.051  15.808 -0.1232  0.3727 -0.0988
  692TMC3     H10290   2.124   3.076  15.816 -2.8437 -0.2504  0.1342
  692TMC3    H110291   1.983   2.817  15.515  0.0965  0.7177 -0.0100
  692TMC3    H210292   2.363   2.750  15.672 -1.0175 -1.5756  0.0404
  692TMC3    C710293   2.156   2.640  15.589  0.0465  0.1380  1.1971
  692TMC3    C810294   2.296   2.869  15.889 -0.1659 -0.7640  1.2276
  692TMC3    O110295   2.085   2.597  15.495  0.5447  0.5917 -0.1884
  692TMC3    O210296   2.333   2.750  15.888  0.6997  0.1633  0.1921
  693MPD2     C10297   1.621   1.526  10.995 -0.6696 -0.0717  0.4176
  693MPD2    C110298   1.591   1.526  11.133 -0.0379  0.1452  0.6305
  693MPD2    C210299   1.680   1.479  11.225  0.2484 -0.0166  0.0349
  693MPD2    C310300   1.812   1.441  11.191  0.2455 -0.3104 -0.2749
  693MPD2    C410301   1.846   1.445  11.059 -0.3558  0.4485  0.3059
  693MPD2    C510302   1.753   1.479  10.961  0.0133  0.3841  0.6368
  693MPD2     H10303   1.655   1.472  11.330  1.6698 -2.4331  0.2181
  693MPD2    H110304   1.942   1.410  11.024 -1.1569 -1.7387  0.2676
  693MPD2    H210305   1.551   1.565  10.922 -1.9970 -2.0226  0.6342
  693MPD2    H310306   1.782   1.487  10.856  0.4577  0.3285  0.7574
  693MPD2     N10307   1.907   1.394  11.284 -0.1476  0.0350 -0.0318
  693MPD2    H510308   1.995   1.355  11.251 -0.1244  0.7340 -0.8134
  693MPD2    N110309   1.457   1.560  11.171 -0.3787  0.6874  0.2420
  693MPD2    H710310   1.391   1.564  11.094  0.8668 -1.2049 -0.9253
  694TMC3    C110311   1.297   1.495  11.320 -0.2162 -0.0611  0.1648
  694TMC3    C210312   1.210   1.486  11.221 -0.1280  0.3175  0.2609
  694TMC3    C310313   1.121   1.386  11.230 -0.2037  0.9677  0.3606
  694TMC3    C410314   1.309   1.408  11.426 -0.1229  0.5619 -0.0560
  694TMC3    C510315   1.216   1.306  11.433 -0.2589 -0.1977  0.6381
  694TMC3    C610316   1.125   1.292  11.327  0.4040 -0.2704  0.1219
  694TMC3     C10317   1.418   1.568  11.302  0.0470 -0.3612  0.1001
  694TMC3     O10318   1.482   1.605  11.398 -0.1061  0.7938  0.0890
  694TMC3     H10319   1.214   1.564  11.145  0.8470  0.5621  0.5659
  694TMC3    H110320   1.391   1.404  11.496 -2.1984 -1.0229  2.2557
  694TMC3    H210321   1.043   1.221  11.331 -0.6875  0.9943  0.3349
  694TMC3    C710322   1.206   1.237  11.556 -0.0436 -0.6513  0.0906
  694TMC3    C810323   1.034   1.357  11.113  0.3931 -0.7540  0.0220
  694TMC3    O110324   1.248   1.301  11.653  0.5699  0.5089 -0.0609
  694TMC3    O210325   0.960   1.262  11.120 -0.6004  0.7846  0.5109
  695MPD2     C10326   2.501   3.329  13.619  0.5076  0.0975  0.6635
  695MPD2    C110327   2.455   3.348  13.750  0.3451  0.9727 -0.1350
  695MPD2    C210328   2.335   3.409  13.778  0.1093  0.2394  0.3450
  695MPD2    C310329   2.256   3.452  13.673  0.0618 -0.2294 -0.8182
  695MPD2    C410330   2.288   3.419  13.542  0.1059  0.0887  0.6165
  695MPD2    C510331   2.414   3.366  13.513  0.0962  0.0285  0.1150
  695MPD2     H10332   2.308   3.438  13.879  1.1771 -1.1820  1.0530
  695MPD2    H110333   2.226   3.445  13.457 -0.5915  0.0063  1.1102
  695MPD2    H210334   2.599   3.293  13.592  0.0434 -0.8801  0.2800
  695MPD2    H310335   2.448   3.352  13.411 -0.0247  0.4033  0.0201
  695MPD2     N10336   2.138   3.527  13.708  0.1084 -0.4217  0.0275
  695MPD2    H510337   2.126   3.548  13.806 -1.3937  1.7553 -0.6325
  695MPD2    N110338   2.529   3.300  13.857 -0.7938  0.8215  0.1017
  695MPD2    H710339   2.499   3.321  13.951 -1.0077  0.8068  0.0360
  696TMC3    C110340   1.909   3.562  13.706 -0.5754  0.4161 -0.4288
  696TMC3    C210341   1.903   3.499  13.827  0.3970  0.2445  0.0716
  696TMC3    C310342   1.790   3.511  13.899 -0.4072  0.3997 -0.2575
  696TMC3    C410343   1.802   3.624  13.653  0.5924 -0.1819 -0.7295
  696TMC3    C510344   1.691   3.649  13.738  0.1833  0.9549  0.9632
  696TMC3    C610345   1.688   3.589  13.857 -0.3328 -0.2822 -0.7205
  696TMC3     C10346   2.030   3.553  13.623 -0.6713 -0.1692 -0.1885
  696TMC3     O10347   2.018   3.540  13.500 -0.0236  0.3865 -0.3273
  696TMC3     H10348   1.987   3.443  13.867  0.0550  0.4008  1.0218
  696TMC3    H110349   1.814   3.682  13.562 -0.4876 -0.3482 -0.9686
  696TMC3    H210350   1.586   3.578  13.892  0.8734 -3.3790  1.8653
  696TMC3    C710351   1.661   3.787  13.756 -0.2133 -0.5705 -0.0414
  696TMC3    C810352   1.827   3.523  14.035  0.3647  0.2095 -0.3564
  696TMC3    O110353   1.642   3.851  13.655  0.3880  0.2109 -0.2512
  696TMC3    O210354   1.847   3.641  14.071  0.0787  0.3262  1.1316
  697MPD2     C10355   1.941   0.348  15.533 -0.0407  0.3157 -0.3107
  697MPD2    C110356   1.871   0.293  15.425  0.0058  0.2829 -0.1246
  697MPD2    C210357   1.838   0.378  15.319  0.3502  0.3536  0.6677
  697MPD2    C310358   1.861   0.512  15.321  0.1877 -0.0092 -0.8925
  697MPD2    C410359   1.924   0.564  15.434  0.4331  0.1932  0.0422
  697MPD2    C510360   1.966   0.484  15.538  1.4830  0.0934 -0.0359
  697MPD2     H10361   1.796   0.331  15.230  1.5592  0.0037  0.2826
  697MPD2    H110362   1.937   0.672  15.439 -0.6003  0.3125  0.1221
  697MPD2    H210363   1.970   0.288  15.618 -3.6081 -0.9615  0.0096
  697MPD2    H310364   2.020   0.534  15.618 -0.5272 -1.1009  2.0680
  697MPD2     N10365   1.816   0.595  15.209 -0.3879 -0.4257  0.2870
  697MPD2    H510366   1.774   0.548  15.129  0.2587 -1.6074  0.6385
  697MPD2    N110367   1.848   0.157  15.422  0.2978  0.2254 -0.3150
  697MPD2    H710368   1.786   0.127  15.347 -1.6580 -0.0534  1.3938
  698TMC3    C110369   1.805   0.788  15.072 -0.4142 -0.0939 -0.1576
  698TMC3    C210370   1.841   0.917  15.054 -0.3739 -0.0160  0.1755
  698TMC3    C310371   1.808   0.969  14.930  0.1625 -0.0584  0.4743
  698TMC3    C410372   1.749   0.709  14.972 -0.1082 -0.1118 -0.2025
  698TMC3    C510373   1.723   0.770  14.851  0.0719 -0.3385 -0.0190
  698TMC3    C610374   1.752   0.899  14.828  0.6447 -0.3520  0.2160
  698TMC3     C10375   1.842   0.732  15.200  0.2239 -0.1860  0.1470
  698TMC3     O10376   1.896   0.811  15.277 -0.5260  0.2675  0.3350
  698TMC3     H10377   1.898   0.971  15.129  0.0807  0.8150 -0.7780
  698TMC3    H110378   1.725   0.606  14.996  1.1313 -0.4005 -0.2219
  698TMC3    H210379   1.726   0.942  14.732 -0.1069  0.4246  0.7772
  698TMC3    C710380   1.655   0.701  14.745  0.2757  0.6361  0.0153
  698TMC3    C810381   1.847   1.105  14.898 -0.1185  0.1219 -0.5269
  698TMC3    O110382   1.653   0.744  14.630  0.1488 -0.1928  0.4262
  698TMC3    O210383   1.807   1.159  14.799  0.1027 -0.3864 -0.0768
  699TMC3    C110384   1.806   3.430  13.252 -0.0206 -0.7150 -0.5532
  699TMC3    C210385   1.880   3.332  13.320 -0.0318  0.2965 -0.2239
  699TMC3    C310386   1.818   3.249  13.407 -0.2506 -0.6214 -0.2227
  699TMC3    C410387   1.671   3.438  13.270  0.0727 -0.1771 -0.7616
  699TMC3    C510388   1.614   3.345  13.345  0.0381 -0.2801 -0.2925
  699TMC3    C610389   1.685   3.252  13.415  0.1109  0.9179  0.1066
  699TMC3     C10390   1.864   3.531  13.164 -0.3695  0.8616 -0.1239
  699TMC3     O10391   1.786   3.617  13.133 -0.4418  0.2297 -0.2173
  699TMC3     H10392   1.986   3.322  13.297  0.3764  0.5280  1.5494
  699TMC3    H110393   1.611   3.505  13.209 -0.7646  0.1740  0.4347
  699TMC3    H210394   1.625   3.192  13.483  1.3120 -0.1301  0.2477
  699TMC3    C710395   1.479   3.376  13.396  0.4890  0.1699 -0.7446
  699TMC3    C810396   1.887   3.147  13.502 -0.8778  0.1840  0.3746
  699TMC3    O110397   1.424   3.283  13.453  0.0912  0.1460 -1.2915
  699TMC3    O210398   1.812   3.087  13.570 -0.2232  0.1625  0.2493
  700TMC3    C110399   1.086   0.598  16.856  0.0570 -0.3376  0.4331
  700TMC3    C210400   1.156   0.489  16.821 -0.2525 -0.7994 -0.3666
  700TMC3    C310401   1.181   0.390  16.915 -0.8787  0.0735 -0.2544
  700TMC3    C410402   1.024   0.609  16.981  0.2150  0.0775  0.0221
  700TMC3    C510403   1.042   0.508  17.068  0.3816  0.0349 -0.6902
  700TMC3    C610404   1.132   0.404  17.038  0.7019 -0.9053  0.0996
  700TMC3     C10405   1.115   0.721  16.777 -0.0881  0.1013 -0.1444
  700TMC3     O10406   1.145   0.702  16.659  0.3292  0.6948  0.1369
  700TMC3     H10407   1.208   0.485  16.726 -0.3314 -0.5243 -0.4199
  700TMC3    H110408   0.965   0.692  17.019 -1.2691 -0.6640 -0.6408
  700TMC3    H210409   1.146   0.326  17.112 -0.9546  1.4779  2.9173
  700TMC3    C710410   1.032   0.533  17.211 -0.3374  0.4489  0.5152
  700TMC3    C810411   1.297   0.302  16.901  0.0198  0.1720  0.5053
  700TMC3    O110412   1.114   0.479  17.280  0.2656 -0.0058  0.0560
  700TMC3    O210413   1.345   0.282  16.791  0.0010 -0.0613 -0.2707
  701TMC3    C110414   1.092   4.431  15.874 -0.5368  0.0532 -0.3426
  701TMC3    C210415   1.012   4.393  15.768  0.2624  0.3868  0.2737
  701TMC3    C310416   1.054   4.436  15.647  0.1396  0.0635  0.7786
  701TMC3    C410417   1.202   4.508  15.857 -0.8563  0.3209 -0.4599
  701TMC3    C510418   1.248   4.534  15.733 -0.5483  0.4268  0.3692
  701TMC3    C610419   1.164   4.512  15.629  0.3014  0.7393 -0.3424
  701TMC3     C10420   1.069   4.382  16.010  0.2522  0.3300  0.1423
  701TMC3     O10421   1.133   4.446  16.096  0.1366 -0.2530  0.3034
  701TMC3     H10422   0.920   4.339  15.789  0.5263 -0.5481 -0.9983
  701TMC3    H110423   1.266   4.527  15.943  0.3162 -1.1410 -0.9915
  701TMC3    H210424   1.196   4.545  15.531  1.5882 -0.8322 -0.4409
  701TMC3    C710425   1.345   4.639  15.699  0.0308  0.3734  0.0868
  701TMC3    C810426   0.956   4.454  15.542 -0.2854  0.4782 -0.1736
  701TMC3    O110427   1.342   4.696  15.593  0.4159  0.0417 -0.2450
  701TMC3    O210428   0.986   4.548  15.469  0.0150  0.6532 -0.0579
  702MPD2     C10429   0.664   1.828  10.660  0.8195 -0.0773 -0.1104
  702MPD2    C110430   0.566   1.904  10.715 -1.0337 -0.6594  0.1937
  702MPD2    C210431   0.463   1.942  10.635 -0.5764 -0.4078 -0.1876
  702MPD2    C310432   0.473   1.940  10.498  0.2226  0.2764  0.8324
  702MPD2    C410433   0.585   1.885  10.439 -0.2147  0.7677 -0.0688
  702MPD2    C510434   0.680   1.828  10.522 -0.1504  0.8835 -0.2393
  702MPD2     H10435   0.373   1.990  10.672 -0.4114  0.9331 -1.5411
  702MPD2    H110436   0.605   1.887  10.333  0.4707 -0.2139  0.0373
  702MPD2    H210437   0.736   1.777  10.724  0.2992 -1.7870 -0.8918
  702MPD2    H310438   0.768   1.786  10.474  0.1566  1.3362 -0.0765
  702MPD2     N10439   0.366   2.010  10.431  0.2110 -0.1353 -0.3287
  702MPD2    H510440   0.294   2.048  10.492  0.8057 -2.0425  1.5819
  702MPD2    N110441   0.535   1.925  10.848 -0.9706 -0.1730 -0.3165
  702MPD2    H710442   0.441   1.955  10.872 -0.7095 -0.5970  1.2874
  703TMC3    C110443   0.241   2.140  10.290  0.0434 -0.7062  0.3144
  703TMC3    C210444   0.151   2.105  10.383 -0.2105 -0.3346  0.0927
  703TMC3    C310445   0.106   2.195  10.476 -1.1979  0.1152  0.0977
  703TMC3    C410446   0.283   2.266  10.281 -0.1682 -0.5060 -0.1998
  703TMC3    C510447   0.232   2.357  10.372 -0.0940  0.6283  0.0966
  703TMC3    C610448   0.144   2.322  10.471  0.4699  0.1669  0.4381
  703TMC3     C10449   0.357   2.049  10.297  0.4748 -0.2597 -0.3574
  703TMC3     O10450   0.432   2.020  10.201  0.0085 -0.7664  0.5503
  703TMC3     H10451   0.103   2.009  10.369 -1.4126  0.1752  0.7863
  703TMC3    H110452   0.362   2.291  10.212 -0.6529  1.8257  0.0730
  703TMC3    H210453   0.122   2.394  10.549  0.3916 -0.4448  0.9796
  703TMC3    C710454   0.342   2.436  10.420 -0.6823  0.2610  0.5804
  703TMC3    C810455   0.074   2.128  10.595 -0.4570 -0.2574  0.3942
  703TMC3    O110456   0.449   2.377  10.436  0.2948  0.4931 -0.2529
  703TMC3    O210457   0.128   2.019  10.610  0.4247 -0.1719 -0.3422
  704TMC3    C110458   2.999   0.031  12.804  0.1729  0.3145 -0.3679
  704TMC3    C210459   3.127   0.080  12.786  0.4359 -0.3764  0.3316
  704TMC3    C310460   3.218   0.082  12.884 -0.1150 -0.0239  0.2353
  704TMC3    C410461   2.961   4.725  12.924 -0.0955  0.1508 -0.3502
  704TMC3    C510462   3.059   4.719  13.025 -0.3530 -0.1386 -0.8179
  704TMC3    C610463   3.187   0.028  13.003 -0.4162 -0.7628 -0.2343
  704TMC3     C10464   2.892   0.050  12.707 -0.2001  0.5101  0.4935
  704TMC3     O10465   2.785   4.733  12.741  0.4712  0.0439  0.4799
  704TMC3     H10466   3.160   0.121  12.691 -0.3406  0.4339  0.4106
  704TMC3    H110467   2.860   4.689  12.939 -0.6127  0.2429 -3.6664
  704TMC3    H210468   3.256   0.027  13.086  2.1135 -1.6288 -2.3588
  704TMC3    C710469   3.066   4.601  13.104 -0.1843 -0.4420 -0.1272
  704TMC3    C810470   3.354   0.120  12.845 -0.3319  0.5596  0.0722
  704TMC3    O110471   3.168   4.535  13.089 -0.1467  0.3016  0.3594
  704TMC3    O210472   3.371   0.159  12.728  0.5694  0.1311 -0.5412
  705MPD2     C10473   2.341   2.639  16.653  0.3662  0.7213  0.2180
  705MPD2    C110474   2.340   2.773  16.612 -0.5137 -0.8334 -0.2492
  705MPD2    C210475   2.246   2.859  16.663  0.3343 -0.1957  0.4094
  705MPD2    C310476   2.148   2.805  16.740 -0.4530 -0.7998  0.6643
  705MPD2    C410477   2.148   2.671  16.772 -0.7285  0.2421 -0.3516
  705MPD2    C510478   2.242   2.587  16.728  0.2611  0.4309  0.2296
  705MPD2     H10479   2.251   2.964  16.634 -1.0945 -0.3372 -0.3209
  705MPD2    H110480   2.073   2.627  16.837 -1.2860  0.9658 -0.5080
  705MPD2    H210481   2.406   2.566  16.607 -2.0002 -0.6661 -0.9164
  705MPD2    H310482   2.242   2.483  16.760  3.7956  0.5263  0.5425
  705MPD2     N10483   2.043   2.879  16.798  0.1259 -0.0816  0.0049
  705MPD2    H510484   1.988   2.833  16.869  0.0104 -0.3979 -0.2926
  705MPD2    N110485   2.430   2.832  16.519 -0.5382  0.0392 -0.3181
  705MPD2    H710486   2.407   2.927  16.491 -2.0215  0.1770  1.4067
  706TMC3    C110487   2.649   2.811  16.103 -0.4118  0.2163  0.0006
  706TMC3    C210488   2.616   2.938  16.073 -1.0964  0.1659  0.0939
  706TMC3    C310489   2.549   3.013  16.169 -0.6723 -0.1986  0.8403
  706TMC3    C410490   2.616   2.753  16.223  1.2042 -0.0365  0.1224
  706TMC3    C510491   2.551   2.830  16.316  0.2190  0.4164 -0.4589
  706TMC3    C610492   2.515   2.964  16.293 -0.6444  0.1302 -0.0593
  706TMC3     C10493   2.780   2.769  16.055  0.0252  0.7398  0.1446
  706TMC3     O10494   2.847   2.707  16.136  0.2968 -0.6935  0.0706
  706TMC3     H10495   2.660   2.990  15.989  0.3303  1.3121  1.5524
  706TMC3    H110496   2.640   2.649  16.237 -2.5950 -0.9449 -0.1500
  706TMC3    H210497   2.441   3.020  16.348 -0.6684  1.2412 -1.2160
  706TMC3    C710498   2.512   2.757  16.439  0.3953  0.5117  0.1102
  706TMC3    C810499   2.578   3.149  16.155  0.3103  0.3369 -0.7687
  706TMC3    O110500   2.548   2.645  16.449  0.5150  0.4688  0.0261
  706TMC3    O210501   2.615   3.197  16.050 -0.3948  0.0208  0.1897
  707TMC3    C110502   3.587   1.897   1.142  0.0160  0.1745  0.0178
  707TMC3    C210503   3.570   1.764   1.174 -0.3100  0.2328 -0.7446
  707TMC3    C310504   3.466   1.698   1.120  0.7400 -0.8147 -0.5658
  707TMC3    C410505   3.504   1.968   1.066 -0.3199 -0.5647  0.2685
  707TMC3    C510506   3.390   1.900   1.026  0.1417  0.3971 -0.9381
  707TMC3    C610507   3.379   1.767   1.041  0.7422  0.2460 -0.4603
  707TMC3     C10508   3.674   1.975   1.220 -0.8460  0.6843  0.0384
  707TMC3     O10509   3.718   2.070   1.161  0.3890 -0.1590 -0.5353
  707TMC3     H10510   3.640   1.708   1.234  2.0809  2.7111 -1.2129
  707TMC3    H110511   3.506   2.074   1.039 -0.5700 -0.8551 -0.8952
  707TMC3    H210512   3.291   1.712   1.009  1.1821 -0.8539  0.2020
  707TMC3    C710513   3.289   1.979   0.956  0.0332 -0.2828  0.0646
  707TMC3    C810514   3.465   1.551   1.111  0.6378 -0.1528  0.0047
  707TMC3    O110515   3.285   2.097   0.976  0.1948  0.2975 -0.2154
  707TMC3    O210516   3.383   1.496   1.040 -0.0527  0.7143  0.9551
  708MPD2     C10517   1.002   1.620  13.939  0.1216 -0.6553 -0.3261
  708MPD2    C110518   0.894   1.545  13.983 -0.4773  0.1846  0.6578
  708MPD2    C210519   0.914   1.417  14.033  0.4590  0.0892 -0.1874
  708MPD2    C310520   1.043   1.363  14.051  0.2839 -0.3945 -0.5596
  708MPD2    C410521   1.149   1.437  14.011  0.0166 -0.1674  0.0850
  708MPD2    C510522   1.126   1.561  13.948  0.3938 -0.1498  0.1177
  708MPD2     H10523   0.827   1.354  14.049 -0.6720  2.2033  1.9729
  708MPD2    H110524   1.248   1.393  14.020 -0.5521 -1.7593 -1.6462
  708MPD2    H210525   0.983   1.713  13.887  1.5028 -1.2133 -1.8593
  708MPD2    H310526   1.213   1.623  13.928  0.1226  0.4035  0.6603
  708MPD2     N10527   1.066   1.247  14.118  0.5985  0.9149  0.3333
  708MPD2    H510528   1.162   1.216  14.116  1.0291  2.2079  0.8435
  708MPD2    N110529   0.769   1.608  13.966  0.5880  0.0677 -0.0107
  708MPD2    H710530   0.749   1.699  13.926 -2.2211 -0.5128  0.0725
  709TMC3    C110531   0.526   1.617  13.979 -0.2823 -0.9731  0.2728
  709TMC3    C210532   0.494   1.607  13.845  0.3114  0.2055  0.1686
  709TMC3    C310533   0.374   1.561  13.811  0.5472  0.4010  0.3150
  709TMC3    C410534   0.437   1.599  14.076 -0.6485  0.6712 -0.3571
  709TMC3    C510535   0.315   1.545  14.034 -0.7807  0.3672  0.4519
  709TMC3    C610536   0.283   1.530  13.901 -0.7311 -0.5571  0.5626
  709TMC3     C10537   0.653   1.556  14.016 -0.2136  0.4802 -0.4888
  709TMC3     O10538   0.630   1.485  14.116 -0.1708  0.4372  0.4754
  709TMC3     H10539   0.566   1.618  13.765 -3.4495  0.8401 -3.1807
  709TMC3    H110540   0.460   1.600  14.182  0.1702  0.8579 -0.5367
  709TMC3    H210541   0.198   1.470  13.871 -0.3819 -2.2178  2.8534
  709TMC3    C710542   0.276   1.418  14.095 -0.1704  0.1450  0.5432
  709TMC3    C810543   0.374   1.461  13.704  0.7749  0.1396  0.2710
  709TMC3    O110544   0.157   1.391  14.109 -0.3601  0.4360 -0.2811
  709TMC3    O210545   0.326   1.351  13.725 -0.3319  0.1814 -0.8074
  710TMC3    C110546   2.340   2.398   0.163 -0.1902  0.1917  0.8922
  710TMC3    C210547   2.446   2.407   0.083  0.4056  0.0131  0.1825
  710TMC3    C310548   2.575   2.398   0.131 -0.2552 -0.0431 -0.3539
  710TMC3    C410549   2.364   2.361   0.293 -0.2349 -0.1904  0.7605
  710TMC3    C510550   2.492   2.331   0.340  0.4813 -0.2110 -0.0779
  710TMC3    C610551   2.600   2.351   0.261 -0.8469 -0.0401 -0.9421
  710TMC3     C10552   2.203   2.421   0.116 -0.7351 -0.2125  0.3690
  710TMC3     O10553   2.184   2.380   0.004 -0.1648 -0.3528  0.1701
  710TMC3     H10554   2.435   2.451  17.740 -0.1129  0.6648  0.5307
  710TMC3    H110555   2.279   2.331   0.353  0.2530  1.6815  2.3769
  710TMC3    H210556   2.703   2.341   0.293 -1.0928 -0.4688 -0.2944
  710TMC3    C710557   2.509   2.297   0.479  0.3464  0.0348 -0.8021
  710TMC3    C810558   2.678   2.406   0.031  0.2301 -0.7724  0.4980
  710TMC3    O110559   2.407   2.258   0.531 -0.3448  0.5051 -0.3180
  710TMC3    O210560   2.670   2.502  17.708  0.6725  0.0584 -0.5823
  711TMC3    C110561   1.518   3.978  15.026  0.0725  0.3276  0.9689
  711TMC3    C210562   1.562   4.059  15.124  0.6524  0.1262  0.9613
  711TMC3    C310563   1.692   4.032  15.175 -0.2536 -0.4433  0.4078
  711TMC3    C410564   1.607   3.884  14.964 -0.1065 -0.3325 -0.0659
  711TMC3    C510565   1.730   3.861  15.020 -0.0310 -0.0192 -0.6017
  711TMC3    C610566   1.782   3.946  15.110  0.4876 -0.5348 -0.0223
  711TMC3     C10567   1.381   3.952  15.002 -0.4923 -0.0004 -0.4607
  711TMC3     O10568   1.363   3.877  14.906 -0.2576  0.5063  0.0131
  711TMC3     H10569   1.496   4.131  15.171  1.6776  1.0541  0.9756
  711TMC3    H110570   1.568   3.814  14.891  0.7459 -2.6201  1.6859
  711TMC3    H210571   1.886   3.933  15.137  1.0063 -0.6501 -2.1126
  711TMC3    C710572   1.754   3.729  15.066 -0.7424 -0.1806  0.7961
  711TMC3    C810573   1.705   4.073  15.318  0.4554 -0.2647 -0.4717
  711TMC3    O110574   1.787   3.726  15.182  0.3736 -0.2589  0.3785
  711TMC3    O210575   1.609   4.145  15.355 -0.4595  0.0427  0.4616
  712MPD2     C10576   3.022   4.671  14.218  0.0116  0.1246 -0.2915
  712MPD2    C110577   2.904   0.005  14.199 -0.0276  0.5184  0.0035
  712MPD2    C210578   2.915   0.138  14.168  0.6952 -0.8580 -0.2153
  712MPD2    C310579   3.036   0.201  14.151 -0.3650  0.5667 -0.2828
  712MPD2    C410580   3.150   0.132  14.170 -0.3095 -0.2327 -0.0762
  712MPD2    C510581   3.141   4.736  14.206  0.2557 -0.0745 -0.1419
  712MPD2     H10582   2.822   0.191  14.152 -0.9308 -3.0365  2.0908
  712MPD2    H110583   3.245   0.183  14.159 -0.4856  0.3261  0.9632
  712MPD2    H210584   3.028   4.568  14.251 -2.1353 -0.4062 -1.5529
  712MPD2    H310585   3.232   4.677  14.211  0.3855  0.0382 -1.1046
  712MPD2     N10586   3.052   0.340  14.112 -0.9627  0.9457  0.1827
  712MPD2    H510587   3.148   0.372  14.109 -0.6473  0.0061  0.0854
  712MPD2    N110588   2.772   4.696  14.219 -1.0122  0.3973 -0.5812
  712MPD2    H710589   2.701   0.029  14.219 -1.6216 -0.1984 -0.1243
  713TMC3    C110590   3.007   0.561  14.050  1.0082  0.3357  0.2291
  713TMC3    C210591   3.124   0.566  13.972 -0.2224  0.0194  0.5199
  713TMC3    C310592   3.144   0.690  13.912 -0.1670  0.2810 -0.2352
  713TMC3    C410593   2.924   0.662  14.077 -0.3093  0.8627  0.2785
  713TMC3    C510594   2.955   0.774  14.009  0.2204 -0.0327  0.2742
  713TMC3    C610595   3.061   0.791  13.929 -0.0446  0.1439 -0.3792
  713TMC3     C10596   2.955   0.437  14.094  0.2411  0.0201 -0.6002
  713TMC3     O10597   2.842   0.429  14.136 -0.2142 -0.1417 -0.4742
  713TMC3     H10598   3.170   0.474  13.938  0.9856  1.3787 -1.5572
  713TMC3    H110599   2.832   0.648  14.133 -1.9035 -1.7696 -3.0202
  713TMC3    H210600   3.085   0.885  13.881  0.2846  0.3894  0.2657
  713TMC3    C710601   2.849   0.877  14.018  0.4425  0.3393  0.7032
  713TMC3    C810602   3.272   0.730  13.870  0.3774  1.6044  0.3621
  713TMC3    O110603   2.782   0.891  14.115 -0.6700  0.0627  0.5183
  713TMC3    O210604   3.283   0.813  13.777  0.3964  0.4561 -0.0015
  714MPD2     C10605   0.221   3.271   0.876 -0.4544 -0.5686  0.0247
  714MPD2    C110606   0.219   3.129   0.868  0.1844  0.1856 -0.3919
  714MPD2    C210607   0.106   3.069   0.806  0.4728 -0.0304  0.3324
  714MPD2    C310608   0.001   3.155   0.768 -0.4973  0.5203 -0.1089
  714MPD2    C410609   0.008   3.293   0.772 -0.2974  0.4928 -0.6625
  714MPD2    C510610   0.112   3.348   0.835 -0.9644  0.6316  0.0647
  714MPD2     H10611   0.093   2.961   0.796 -0.9985  0.0379  1.6116
  714MPD2    H110612   4.663   3.356   0.750  0.3100  1.4072 -0.3869
  714MPD2    H210613   0.307   3.321   0.920  0.2498 -1.1716 -0.6784
  714MPD2    H310614   0.117   3.454   0.858 -0.1539  0.5861  0.1107
  714MPD2     N10615   4.634   3.094   0.705 -0.2359  0.4868 -0.5785
  714MPD2    H510616   4.611   2.999   0.734  3.7601  0.1135  1.2900
  714MPD2    N110617   0.316   3.052   0.938 -0.0111 -0.7090  0.4491
  714MPD2    H710618   0.382   3.107   0.992 -1.4577  0.6652  0.7944
  715TMC3    C110619   0.459   2.881   0.995  0.1868 -0.2507 -0.4303
  715TMC3    C210620   0.509   2.757   0.956 -0.3128  0.4583 -0.2881
  715TMC3    C310621   0.635   2.727   1.006 -0.1402 -0.7625  0.2514
  715TMC3    C410622   0.507   2.948   1.107  1.3493  0.1290  0.0093
  715TMC3    C510623   0.630   2.907   1.150 -0.0278 -0.7233  0.9594
  715TMC3    C610624   0.702   2.797   1.101  1.2310  0.2429 -0.4005
  715TMC3     C10625   0.345   2.922   0.915 -0.2052  0.3128  1.0069
  715TMC3     O10626   0.288   2.835   0.850 -0.1122 -0.1538  0.2213
  715TMC3     H10627   0.472   2.701   0.871  0.7501  1.1633 -1.1974
  715TMC3    H110628   0.464   3.043   1.138  1.3883  0.4844 -1.0271
  715TMC3    H210629   0.795   2.765   1.146  0.0631 -0.6014  1.4449
  715TMC3    C710630   0.711   2.990   1.245 -0.0904 -0.1843 -0.7507
  715TMC3    C810631   0.696   2.624   0.934 -0.4865 -0.2190 -0.4982
  715TMC3    O110632   0.832   2.964   1.244  0.8446  0.4888  0.6040
  715TMC3    O210633   0.627   2.546   0.873 -0.0520  0.0960 -1.3019
  716MPD2     C10634   0.660   1.812  10.068  0.5396 -0.0660  0.7781
  716MPD2    C110635   0.598   1.832   9.948  0.7923  0.2921 -0.0220
  716MPD2    C210636   0.619   1.746   9.838  0.4210  0.2189  0.5647
  716MPD2    C310637   0.707   1.641   9.861 -0.5408 -0.2676  0.0543
  716MPD2    C410638   0.759   1.612   9.988  0.6222 -0.0952  0.0103
  716MPD2    C510639   0.746   1.707  10.083 -1.0139 -0.5189  0.4968
  716MPD2     H10640   0.564   1.761   9.746  0.0051 -0.3099  0.7305
  716MPD2    H110641   0.821   1.528  10.017  0.5336 -1.1671 -2.8692
  716MPD2    H210642   0.662   1.891  10.142 -1.5898 -0.1580  0.9317
  716MPD2    H310643   0.802   1.693  10.175  0.4806 -2.4852 -0.7062
  716MPD2     N10644   0.719   1.554   9.752 -0.4849  0.1361  0.0290
  716MPD2    H510645   0.666   1.580   9.670 -0.3637  2.0538  0.5474
  716MPD2    N110646   0.510   1.943   9.933 -0.2477  0.0197  0.6114
  716MPD2    H710647   0.474   2.000  10.009  0.6936 -0.9773  1.8114
  717TMC3    C110648   0.777   1.375   9.626  0.2542  0.1501  0.0214
  717TMC3    C210649   0.652   1.400   9.562 -0.4459  0.8152  0.5578
  717TMC3    C310650   0.657   1.412   9.428  0.0022  1.1327  0.5447
  717TMC3    C410651   0.885   1.332   9.555 -0.1528 -0.1150  0.2530
  717TMC3    C510652   0.875   1.329   9.419  0.2812  0.0345 -0.0432
  717TMC3    C610653   0.766   1.374   9.357 -0.5152  0.0957  0.4570
  717TMC3     C10654   0.807   1.452   9.739 -0.7517  0.9958 -0.1346
  717TMC3     O10655   0.892   1.409   9.822  0.4413 -0.0714 -0.3575
  717TMC3     H10656   0.564   1.421   9.621  0.2413 -0.6175  2.0967
  717TMC3    H110657   0.973   1.305   9.613  0.4836 -0.2315 -0.7486
  717TMC3    H210658   0.757   1.367   9.249  0.6603 -0.2055  0.3854
  717TMC3    C710659   0.985   1.277   9.340  0.2387 -0.2638 -0.6131
  717TMC3    C810660   0.545   1.486   9.374 -0.2825  0.0792  0.4269
  717TMC3    O110661   0.984   1.289   9.219  0.2208 -0.2079  0.0776
  717TMC3    O210662   0.449   1.511   9.453  0.1647 -0.4054 -0.2885
  718MPD2     C10663   0.016   0.147  13.463  0.2154  0.1065 -0.2929
  718MPD2    C110664   4.681   0.196  13.357 -0.6532  0.1992  0.2866
  718MPD2    C210665   4.548   0.201  13.354 -0.4934 -0.1664  0.3436
  718MPD2    C310666   4.478   0.141  13.463 -0.2458 -0.2309  0.1024
  718MPD2    C410667   4.547   0.090  13.570 -0.1965  0.4379 -0.1491
  718MPD2    C510668   4.682   0.095  13.573 -0.4417 -0.3718 -0.2824
  718MPD2     H10669   4.498   0.250  13.271  2.6175 -1.3528 -2.2235
  718MPD2    H110670   4.493   0.049  13.655  0.6178 -0.8588 -0.2538
  718MPD2    H210671   0.125   0.147  13.471 -0.0481  0.2054  3.4571
  718MPD2    H310672   4.727   0.072  13.669 -1.5401 -0.3405  0.2357
  718MPD2     N10673   4.342   0.144  13.450  0.0767  0.5391  0.1074
  718MPD2    H510674   4.298   0.166  13.361  0.1519  1.3975  0.2844
  718MPD2    N110675   4.735   0.259  13.245  0.0885 -0.4481  0.3626
  718MPD2    H710676   4.664   0.276  13.174  2.4893  0.6065 -1.7864
  719TMC3    C110677   0.145   0.353  13.080  0.2698 -0.1911  0.1407
  719TMC3    C210678   0.043   0.327  13.002 -0.0596 -0.4805 -0.4418
  719TMC3    C310679   4.727   0.436  12.939  0.4215 -0.7925 -0.3835
  719TMC3    C410680   0.216   0.460  13.069  0.4923  0.0242 -0.3153
  719TMC3    C510681   0.172   0.561  12.984  0.7268  0.2358 -0.6826
  719TMC3    C610682   0.057   0.555  12.913  0.1426  0.9911 -0.8735
  719TMC3     C10683   0.129   0.284  13.215 -0.2565 -0.2230 -0.4525
  719TMC3     O10684   0.218   0.289  13.294  0.2674 -0.2076  0.3671
  719TMC3     H10685   4.736   0.228  13.007  1.3870 -1.2736 -2.6000
  719TMC3    H110686   0.305   0.470  13.130  1.6616 -0.4173 -1.9589
  719TMC3    H210687   0.027   0.616  12.828  0.2740  2.6273  0.2460
  719TMC3    C710688   0.268   0.654  12.919 -0.7688  0.1422  0.9804
  719TMC3    C810689   4.591   0.441  12.985  0.6926 -0.1104  0.1962
  719TMC3    O110690   0.382   0.636  12.961 -0.7189  0.0805  0.3347
  719TMC3    O210691   4.560   0.341  13.045  0.4030  0.0184  0.4465
  720MPD2     C10692   2.898   2.185  14.248 -0.9396 -0.5206  0.0089
  720MPD2    C110693   3.000   2.156  14.164  0.4503  0.0507 -0.4950
  720MPD2    C210694   3.109   2.077  14.209 -0.5264  0.0542 -0.0542
  720MPD2    C310695   3.117   2.042  14.341 -0.5675 -0.1772  0.0015
  720MPD2    C410696   3.009   2.070  14.424  0.1174  0.3903  0.2289
  720MPD2    C510697   2.902   2.131  14.373 -0.8880  0.1342 -0.1444
  720MPD2     H10698   3.190   2.061  14.138 -0.4203 -1.8954  0.4936
  720MPD2    H110699   3.007   2.045  14.529 -0.5537  3.0786  0.8430
  720MPD2    H210700   2.819   2.254  14.221 -0.6362  0.4886  1.7053
  720MPD2    H310701   2.823   2.163  14.441  1.0808  1.0520  1.7085
  720MPD2     N10702   3.248   1.998  14.383 -0.0756  0.3387  0.4960
  720MPD2    H510703   3.313   1.989  14.307 -1.7853  1.9576 -1.1480
  720MPD2    N110704   3.011   2.220  14.040  0.2838 -0.1615  0.1112
  720MPD2    H710705   3.079   2.191  13.971  0.5111  0.8976 -0.1109
  721TMC3    C110706   3.422   2.010  14.534 -0.2247 -0.6296  0.2354
  721TMC3    C210707   3.462   2.106  14.615  0.3950 -0.3618 -0.2721
  721TMC3    C310708   3.585   2.154  14.600 -0.6546  0.2738  0.0465
  721TMC3    C410709   3.492   1.976  14.422  0.7704  0.4101 -0.0834
  721TMC3    C510710   3.622   2.028  14.407 -0.1619 -0.1926 -0.4495
  721TMC3    C610711   3.668   2.125  14.495 -0.0814 -0.3094  0.0984
  721TMC3     C10712   3.281   1.994  14.516  0.2761 -0.8281 -0.7078
  721TMC3     O10713   3.212   1.988  14.613  0.1449 -0.0135  0.0510
  721TMC3     H10714   3.398   2.128  14.700  1.4916  3.0231 -0.3541
  721TMC3    H110715   3.470   1.882  14.373  1.5942  0.6193 -0.8447
  721TMC3    H210716   3.775   2.135  14.508 -0.4452  2.5264  0.9490
  721TMC3    C710717   3.719   1.934  14.356  0.0296  0.1853 -0.0281
  721TMC3    C810718   3.652   2.195  14.725  0.1438  0.2782  0.6918
  721TMC3    O110719   3.706   1.822  14.407 -0.4691  0.1777 -0.4302
  721TMC3    O210720   3.773   2.215  14.707  0.2672 -0.8334 -0.0254
  722MPD2     C10721   1.974   0.857  13.306  0.7748  0.1074 -0.3817
  722MPD2    C110722   1.956   0.992  13.266 -0.5875  0.6687  0.1198
  722MPD2    C210723   1.833   1.032  13.223 -0.0775 -0.8851 -0.2608
  722MPD2    C310724   1.729   0.943  13.219  0.1628 -0.1569  0.4143
  722MPD2    C410725   1.747   0.808  13.254  0.6770  0.2369 -0.0953
  722MPD2    C510726   1.867   0.774  13.307  0.7042 -0.6342  0.6769
  722MPD2     H10727   1.811   1.128  13.177 -0.3716 -0.0767  1.5846
  722MPD2    H110728   1.668   0.735  13.247  1.1006 -0.0617 -1.7009
  722MPD2    H210729   2.067   0.819  13.345 -1.0813 -2.3850  1.6666
  722MPD2    H310730   1.878   0.674  13.347  0.7829 -0.5124  0.9642
  722MPD2     N10731   1.609   0.999  13.170  0.1904  0.7975 -0.2936
  722MPD2    H510732   1.617   1.091  13.128  1.2838  0.0963 -1.6286
  722MPD2    N110733   2.061   1.088  13.267 -0.8213  0.3936  0.0542
  722MPD2    H710734   2.033   1.182  13.241  0.3267  0.4793 -0.8887
  723TMC3    C110735   1.395   0.984  13.060  0.0811 -0.3698  0.0447
  723TMC3    C210736   1.383   0.906  12.951 -0.0718  0.3116  0.5131
  723TMC3    C310737   1.343   0.968  12.836  0.1054 -0.3867  0.2190
  723TMC3    C410738   1.371   1.117  13.060  0.0375  0.6470 -0.5498
  723TMC3    C510739   1.324   1.168  12.942  0.2138  0.8953  0.1619
  723TMC3    C610740   1.302   1.096  12.826 -0.8498 -0.5604 -0.1897
  723TMC3     C10741   1.489   0.926  13.153  0.1915 -0.2887  0.2606
  723TMC3     O10742   1.453   0.810  13.179  0.3447  0.5665  0.4372
  723TMC3     H10743   1.411   0.801  12.951 -2.7571 -0.3907  1.3449
  723TMC3    H110744   1.381   1.178  13.149  3.7913 -0.9006  0.1198
  723TMC3    H210745   1.260   1.129  12.732 -0.1572  1.9112  0.3864
  723TMC3    C710746   1.276   1.303  12.954  0.4135  0.3263 -0.3710
  723TMC3    C810747   1.311   0.887  12.718  0.1897 -0.7183 -0.1117
  723TMC3    O110748   1.326   1.380  13.036 -0.6856 -0.4204 -0.2029
  723TMC3    O210749   1.232   0.925  12.634  0.0297 -0.4285 -0.2815
  724TMC3    C110750   2.595   3.550  11.068  0.1011  0.5434 -0.4426
  724TMC3    C210751   2.569   3.547  10.931 -0.2516 -0.2103  0.3452
  724TMC3    C310752   2.597   3.666  10.863  0.2643  0.1384 -0.3018
  724TMC3    C410753   2.671   3.643  11.136  0.5992  0.7799 -0.4260
  724TMC3    C510754   2.697   3.759  11.060 -0.3796 -0.6726  0.6089
  724TMC3    C610755   2.669   3.769  10.925  0.1708 -0.6610 -0.1919
  724TMC3     C10756   2.558   3.436  11.145  0.1275  0.5506  0.5938
  724TMC3     O10757   2.554   3.330  11.088  0.2344 -0.6206  0.1125
  724TMC3     H10758   2.482   3.489  10.901  0.7589  0.1757 -3.2930
  724TMC3    H110759   2.696   3.641  11.242 -0.1419 -1.0859 -0.2764
  724TMC3    H210760   2.714   3.849  10.867  2.0165 -3.6356 -2.8150
  724TMC3    C710761   2.747   3.877  11.122  0.1311 -0.0688  0.3575
  724TMC3    C810762   2.504   3.713  10.769  0.9913 -0.1304  0.2285
  724TMC3    O110763   2.837   3.933  11.061  0.2583  0.1790  0.0446
  724TMC3    O210764   2.407   3.645  10.739 -0.1642  0.0361  0.5400
  725TMC3    C110765   3.875   2.570  13.276  0.0557  0.4136  0.3620
  725TMC3    C210766   3.746   2.596  13.231 -0.1572 -0.1358 -0.4413
  725TMC3    C310767   3.673   2.497  13.172  0.2212 -0.1032 -0.5194
  725TMC3    C410768   3.923   2.438  13.266  0.6951 -0.0380 -0.7660
  725TMC3    C510769   3.842   2.338  13.217  1.1222  1.0700  0.5963
  725TMC3    C610770   3.724   2.371  13.156  0.3801  0.0356  0.4084
  725TMC3     C10771   3.960   2.679  13.327 -0.0570  0.4763  0.3323
  725TMC3     O10772   3.915   2.794  13.313 -0.0682  0.2859  0.2608
  725TMC3     H10773   3.706   2.696  13.244  0.5846  0.3765 -2.1605
  725TMC3    H110774   4.020   2.402  13.298  0.0503 -0.5918  0.5815
  725TMC3    H210775   3.661   2.296  13.111 -1.0113  1.1192  0.5631
  725TMC3    C710776   3.913   2.223  13.161 -0.0724 -0.2485  0.8362
  725TMC3    C810777   3.586   2.538  13.069  0.6303  0.0068 -0.0801
  725TMC3    O110778   3.860   2.185  13.057  0.1731 -0.2049  0.0254
  725TMC3    O210779   3.504   2.460  13.029 -0.3948  0.4503 -0.1876
  726MPD2     C10780   1.512   4.312  10.794  0.2308  0.4358  0.6594
  726MPD2    C110781   1.384   4.330  10.732  0.0085 -0.1134 -0.5496
  726MPD2    C210782   1.282   4.237  10.741 -0.1843  0.2870  0.2527
  726MPD2    C310783   1.307   4.116  10.800 -0.0601 -0.1851  0.4326
  726MPD2    C410784   1.426   4.098  10.857 -0.0135 -0.1805 -0.9596
  726MPD2    C510785   1.523   4.199  10.866 -0.0302 -0.5766 -0.5759
  726MPD2     H10786   1.187   4.262  10.694  0.0429  0.6558 -0.0089
  726MPD2    H110787   1.439   4.014  10.925  1.1922  1.4572  0.8505
  726MPD2    H210788   1.596   4.380  10.790  0.0720  0.4809 -1.7309
  726MPD2    H310789   1.617   4.198  10.919 -0.0137 -0.4221 -0.6042
  726MPD2     N10790   1.202   4.015  10.811 -0.0563 -0.3293 -0.3946
  726MPD2    H510791   1.243   3.924  10.830  0.7642 -0.1115 -1.1397
  726MPD2    N110792   1.358   4.449  10.667 -0.1576 -0.4843 -0.4778
  726MPD2    H710793   1.270   4.459  10.618 -0.1505 -0.2963 -0.4524
  727TMC3    C110794   1.400   4.659  10.565 -0.7035  0.6480 -0.1538
  727TMC3    C210795   1.500   0.010  10.545  0.1600  0.2891  0.0714
  727TMC3    C310796   1.471   0.145  10.524  0.1558 -0.4002  0.5327
  727TMC3    C410797   1.273   4.697  10.566 -0.3764  0.2758 -0.2019
  727TMC3    C510798   1.246   0.089  10.543 -0.5372 -0.4529 -0.4388
  727TMC3    C610799   1.341   0.186  10.537  0.1110  0.5404  0.7779
  727TMC3     C10800   1.446   4.553  10.651  0.0299  0.3341  0.6393
  727TMC3     O10801   1.565   4.567  10.688 -0.6591 -0.2001  0.1774
  727TMC3     H10802   1.602   4.714  10.538  0.1056  0.2831 -0.6545
  727TMC3    H110803   1.198   4.620  10.580  0.0270 -0.3038 -1.2082
  727TMC3    H210804   1.318   0.291  10.520  1.4751  0.7593  0.2680
  727TMC3    C710805   1.106   0.134  10.555  0.1855  0.3682  0.0624
  727TMC3    C810806   1.586   0.237  10.529 -0.3926 -0.7863 -0.7213
  727TMC3    O110807   1.083   0.243  10.505 -0.0127 -0.1852 -0.1423
  727TMC3    O210808   1.696   0.193  10.518  0.1858  0.1955  0.6944
  728TMC3    C110809   1.178   2.462  15.415 -0.0488  0.0457 -0.8206
  728TMC3    C210810   1.298   2.501  15.369  0.1576 -0.1422  0.2370
  728TMC3    C310811   1.307   2.594  15.268 -0.5163 -0.2762 -0.0653
  728TMC3    C410812   1.061   2.507  15.358 -0.6358 -0.3666  0.3671
  728TMC3    C510813   1.074   2.582  15.242 -0.5570 -0.3672  0.7656
  728TMC3    C610814   1.196   2.632  15.198 -0.9167 -0.3003  0.5133
  728TMC3     C10815   1.184   2.408  15.554 -0.7090  1.2006  0.3061
  728TMC3     O10816   1.292   2.361  15.588 -0.1201 -0.4402  0.1012
  728TMC3     H10817   1.393   2.461  15.405 -0.3561 -0.7080  0.9705
  728TMC3    H110818   0.962   2.470  15.384 -0.0595 -2.5567 -0.5724
  728TMC3    H210819   1.207   2.705  15.119  3.7662 -0.9748  0.5242
  728TMC3    C710820   0.965   2.598  15.148 -0.0505  0.1240 -0.2020
  728TMC3    C810821   1.444   2.628  15.221  1.0609  0.1909  0.6997
  728TMC3    O110822   0.882   2.507  15.142  0.4374  0.1338 -0.2647
  728TMC3    O210823   1.544   2.592  15.285  0.7219  0.0528  0.2787
  729MPD2     C10824   3.076   3.666  16.596 -0.6922 -0.0961  0.2873
  729MPD2    C110825   3.199   3.645  16.652 -0.0838  0.2307 -0.0875
  729MPD2    C210826   3.204   3.656  16.792  0.0988 -0.8994 -0.1165
  729MPD2    C310827   3.096   3.682  16.873  0.4064 -0.8574 -0.1001
  729MPD2    C410828   2.978   3.711  16.808  0.6536 -0.0469  0.9893
  729MPD2    C510829   2.971   3.699  16.671 -0.2371 -0.2546  0.1705
  729MPD2     H10830   3.301   3.646  16.839  0.2453  1.5767  0.1081
  729MPD2    H110831   2.882   3.725  16.856  0.4849  0.9565  0.3603
  729MPD2    H210832   3.066   3.664  16.488  0.4972 -1.2246  0.2036
  729MPD2    H310833   2.875   3.729  16.631 -0.2901 -0.8647 -0.1580
  729MPD2     N10834   3.103   3.678  17.017  0.4766  0.1697 -0.3391
  729MPD2    H510835   3.033   3.726  17.073  0.0400 -1.9429  0.9039
  729MPD2    N110836   3.313   3.625  16.567 -0.1848  0.2464 -0.0495
  729MPD2    H710837   3.310   3.633  16.466 -0.6479  0.3559 -0.0258
  730TMC3    C110838   3.173   3.656  17.236  0.6201 -0.1320  0.2702
  730TMC3    C210839   3.269   3.700  17.319 -0.4168  0.6975 -0.4698
  730TMC3    C310840   3.231   3.747  17.435  0.5484  0.1634  0.1234
  730TMC3    C410841   3.043   3.665  17.271 -0.3875  0.7705 -0.4037
  730TMC3    C510842   2.999   3.736  17.381 -0.2531  0.3242 -1.0564
  730TMC3    C610843   3.097   3.764  17.470 -0.6875  0.0531 -0.1124
  730TMC3     C10844   3.210   3.640  17.094  0.0564  0.2386  0.3263
  730TMC3     O10845   3.326   3.601  17.067 -0.3945 -0.2676  0.0958
  730TMC3     H10846   3.371   3.674  17.295 -1.5021 -4.8372  0.7356
  730TMC3    H110847   2.965   3.620  17.210 -1.0534 -1.3884  2.0577
  730TMC3    H210848   3.073   3.804  17.567 -0.3623 -0.1557  0.0535
  730TMC3    C710849   2.944   3.860  17.328 -0.0416 -0.8134  0.1077
  730TMC3    C810850   3.322   3.833  17.496  0.4841  0.0003  0.8667
  730TMC3    O110851   2.943   3.866  17.206 -0.9107  0.1001  0.0011
  730TMC3    O210852   3.304   3.847  17.615 -0.7587  0.6264 -0.9198
  731MPD2     C10853   2.857   2.160  12.420  0.4832  0.0367  0.2570
  731MPD2    C110854   2.971   2.081  12.386 -0.0861  0.3008  0.0334
  731MPD2    C210855   3.012   1.984  12.477  0.3938 -0.0846  0.7082
  731MPD2    C310856   2.952   1.980  12.598 -0.1381 -0.4731 -0.3014
  731MPD2    C410857   2.858   2.065  12.636 -0.0740  0.4992 -0.4966
  731MPD2    C510858   2.806   2.150  12.542  0.2041 -0.4654 -0.2519
  731MPD2     H10859   3.101   1.928  12.453  0.5260  0.9131 -1.1445
  731MPD2    H110860   2.814   2.071  12.735  0.7758 -1.2337 -0.0163
  731MPD2    H210861   2.802   2.233  12.361 -1.7003 -0.9621  1.0622
  731MPD2    H310862   2.738   2.230  12.571 -0.0856 -0.7949 -0.0107
  731MPD2     N10863   3.008   1.893  12.695 -0.3497  0.7476  0.3603
  731MPD2    H510864   3.104   1.865  12.680  0.1743  2.1934  1.0644
  731MPD2    N110865   3.027   2.119  12.261 -0.0625  0.0455 -0.4951
  731MPD2    H710866   2.983   2.191  12.204  0.4910  2.0182  1.5706
  732TMC3    C110867   3.182   2.088  12.078  0.3686 -0.2151  0.4922
  732TMC3    C210868   3.085   2.082  11.988 -0.4340  0.6870  0.2455
  732TMC3    C310869   3.121   2.072  11.852 -1.0526 -0.1738  0.1649
  732TMC3    C410870   3.310   2.058  12.047 -0.2974  0.2060  0.8042
  732TMC3    C510871   3.340   2.048  11.912  0.8806  0.7384  0.1811
  732TMC3    C610872   3.248   2.072  11.815  0.6516  0.2876  0.2043
  732TMC3     C10873   3.148   2.068  12.220  0.1436  0.1894  0.2327
  732TMC3     O10874   3.237   2.013  12.285 -0.3088  0.1081  0.1143
  732TMC3     H10875   2.981   2.069  12.018 -1.0916  1.1397 -1.8661
  732TMC3    H110876   3.382   2.032  12.124  0.0772  3.4057  1.5168
  732TMC3    H210877   3.270   2.085  11.710 -1.1640  3.0382  0.1539
  732TMC3    C710878   3.475   1.996  11.880 -0.2522 -0.3939  0.1549
  732TMC3    C810879   3.047   1.979  11.767 -0.3081 -0.5430  0.0888
  732TMC3    O110880   3.486   1.965  11.763 -0.6473 -0.1459 -0.0512
  732TMC3    O210881   3.109   1.908  11.684  0.4746 -0.1954  0.2755
  733TMC3    C110882   3.896   0.106  13.445  0.3996  0.1135 -0.4794
  733TMC3    C210883   4.017   0.055  13.494  0.4551  0.3979 -0.4961
  733TMC3    C310884   4.123   0.135  13.476 -0.1472 -0.4988 -0.3446
  733TMC3    C410885   3.891   0.228  13.390  0.1975  0.3871  0.0530
  733TMC3    C510886   4.007   0.303  13.374 -0.1894 -1.0662 -0.0692
  733TMC3    C610887   4.123   0.252  13.416 -0.1413 -0.2680 -0.2381
  733TMC3     C10888   3.772   0.035  13.461 -0.3611 -0.6359  0.3386
  733TMC3     O10889   3.682   0.082  13.397  0.1018 -0.1240 -0.4144
  733TMC3     H10890   4.032   4.708  13.557 -1.7416 -1.0667 -1.9938
  733TMC3    H110891   3.800   0.271  13.349 -0.3555  0.0338  0.9117
  733TMC3    H210892   4.206   0.320  13.431  1.8325 -2.8254  0.4270
  733TMC3    C710893   4.007   0.395  13.264 -0.1873 -0.2941  0.3437
  733TMC3    C810894   4.249   0.106  13.540  0.4189 -0.2844  0.3530
  733TMC3    O110895   3.898   0.428  13.214 -0.3805  0.1729 -0.5009
  733TMC3    O210896   4.258   0.069  13.660 -0.0785 -0.1107  0.3758
  734MPD2     C10897   1.198   2.768  12.292  0.2701  0.3624 -0.2526
  734MPD2    C110898   1.145   2.684  12.197 -0.0287 -0.4614  0.1611
  734MPD2    C210899   1.153   2.721  12.067 -0.4050  0.3868  0.8901
  734MPD2    C310900   1.227   2.837  12.035  0.0413  0.0246 -0.7548
  734MPD2    C410901   1.287   2.914  12.134 -1.0868 -0.3139 -0.6113
  734MPD2    C510902   1.272   2.874  12.261 -0.1440  0.0496 -0.8511
  734MPD2     H10903   1.108   2.660  11.989 -0.2985  1.1218  0.2512
  734MPD2    H110904   1.348   3.002  12.117 -0.9654 -0.4067 -0.6622
  734MPD2    H210905   1.179   2.727  12.391 -3.1897  1.3866 -0.4826
  734MPD2    H310906   1.327   2.926  12.339 -0.4888  0.9425 -1.2054
  734MPD2     N10907   1.254   2.860  11.889 -0.2972 -0.6240  0.6986
  734MPD2    H510908   1.192   2.806  11.830 -1.1547  0.6231  0.4429
  734MPD2    N110909   1.077   2.565  12.234  0.3522  0.5004 -0.0601
  734MPD2    H710910   1.084   2.524  12.326  0.8403 -0.1364 -0.3845
  735TMC3    C110911   0.961   2.362  12.197  0.6232  0.4634 -0.0274
  735TMC3    C210912   0.875   2.294  12.118  0.4717  0.4941  0.2157
  735TMC3    C310913   0.904   2.161  12.077  0.8344  0.2019  0.5167
  735TMC3    C410914   1.055   2.294  12.272  0.6412 -0.2086  0.6064
  735TMC3    C510915   1.067   2.159  12.243 -0.1737 -0.6574 -0.0344
  735TMC3    C610916   0.995   2.095  12.151  0.6343 -0.4696 -0.4161
  735TMC3     C10917   0.997   2.490  12.148  0.4268  0.9775 -0.1232
  735TMC3     O10918   0.964   2.502  12.029 -0.4483  0.2583 -0.3480
  735TMC3     H10919   0.810   2.355  12.056  0.3258 -0.3083 -0.4269
  735TMC3    H110920   1.131   2.341  12.333  1.4223 -1.9051  0.9217
  735TMC3    H210921   1.031   1.998  12.121  0.9654  0.3600 -2.6793
  735TMC3    C710922   1.203   2.115  12.277 -0.0122 -0.2569 -0.0904
  735TMC3    C810923   0.908   2.135  11.931  0.6480  0.0492  0.9784
  735TMC3    O110924   1.289   2.196  12.253  0.3107 -1.2047 -0.1067
  735TMC3    O210925   0.906   2.027  11.870 -0.2554  1.1212  0.4573
  736MPD2     C10926   1.287   1.770  12.372 -0.3263  0.2656  0.0525
  736MPD2    C110927   1.314   1.901  12.349 -0.4849 -0.1398 -0.7550
  736MPD2    C210928   1.436   1.958  12.366  0.4169  0.0413 -1.0430
  736MPD2    C310929   1.542   1.880  12.400  0.4206 -0.8298 -0.4287
  736MPD2    C410930   1.512   1.744  12.432  0.1078  0.1501 -0.6481
  736MPD2    C510931   1.389   1.689  12.411 -0.1059 -0.2841 -1.0033
  736MPD2     H10932   1.453   2.064  12.349  0.5520  0.3205  0.8044
  736MPD2    H110933   1.586   1.674  12.471 -1.2017 -0.7049  0.3152
  736MPD2    H210934   1.187   1.731  12.359  0.6178 -2.2639  0.3573
  736MPD2    H310935   1.372   1.587  12.444 -0.6738  0.1184 -0.0211
  736MPD2     N10936   1.683   1.913  12.402  0.1619  0.2017 -0.4074
  736MPD2    H510937   1.760   1.846  12.408  2.9297  3.3853 -0.3970
  736MPD2    N110938   1.203   1.978  12.302  0.7851 -0.1175 -0.7655
  736MPD2    H710939   1.111   1.934  12.296  0.9037 -0.4797  0.1261
  737TMC3    C110940   1.871   2.033  12.324  0.6352 -0.0462 -1.0285
  737TMC3    C210941   1.935   2.159  12.307 -0.3566 -0.2921  0.4271
  737TMC3    C310942   2.019   2.186  12.199  0.3085 -0.5654  0.3342
  737TMC3    C410943   1.907   1.935  12.240 -0.7943  0.1987 -0.7797
  737TMC3    C510944   2.000   1.958  12.142  0.0053  0.2472  0.1665
  737TMC3    C610945   2.055   2.080  12.118 -0.0777  0.3420  0.9442
  737TMC3     C10946   1.728   2.034  12.360  0.1952 -0.8771 -0.0446
  737TMC3     O10947   1.669   2.140  12.356 -0.2609  0.3167  0.3157
  737TMC3     H10948   1.891   2.239  12.366 -0.8160 -0.3269  0.1323
  737TMC3    H110949   1.846   1.845  12.226 -0.3554 -0.3934  1.1368
  737TMC3    H210950   2.137   2.086  12.047  0.6288 -0.7749  1.6642
  737TMC3    C710951   2.046   1.838  12.071  0.1937 -0.3096  0.0112
  737TMC3    C810952   2.048   2.323  12.174  0.0670  0.0998  0.4373
  737TMC3    O110953   2.014   1.733  12.130  0.0085 -0.1081  0.2285
  737TMC3    O210954   2.013   2.403  12.260 -0.0078  0.4260  0.0421
  738MPD2     C10955   2.048   1.291  14.814 -0.3413 -0.3145  0.2553
  738MPD2    C110956   2.032   1.253  14.946  0.2342 -0.3249  0.5248
  738MPD2    C210957   2.108   1.293  15.051  0.3369 -0.5790 -0.1244
  738MPD2    C310958   2.202   1.386  15.024  0.8119 -0.0306 -0.5434
  738MPD2    C410959   2.213   1.428  14.898 -0.2438 -0.1244  0.4780
  738MPD2    C510960   2.136   1.390  14.795  0.3088 -0.7183 -0.0640
  738MPD2     H10961   2.099   1.243  15.147 -0.1466 -1.8106 -0.8146
  738MPD2    H110962   2.292   1.501  14.880  0.0024  0.1811  2.7428
  738MPD2    H210963   1.995   1.252  14.728  0.1977 -0.0541 -0.1950
  738MPD2    H310964   2.158   1.430  14.697 -1.7274 -1.7533 -0.9544
  738MPD2     N10965   2.290   1.445  15.119  0.7097 -0.7073 -0.0129
  738MPD2    H510966   2.355   1.516  15.086  0.8742 -0.1879  1.4656
  738MPD2    N110967   1.947   1.148  14.976  0.3877 -1.0040 -0.1040
  738MPD2    H710968   1.962   1.101  15.064 -2.5136 -0.6546  0.5949
  739TMC3    C110969   2.413   1.483  15.309  0.1108 -0.2379  0.0317
  739TMC3    C210970   2.458   1.591  15.237 -0.5400 -0.1194 -0.5256
  739TMC3    C310971   2.593   1.611  15.231 -0.7116 -0.3186 -0.1845
  739TMC3    C410972   2.498   1.404  15.389  0.1303 -0.3377 -0.3462
  739TMC3    C510973   2.629   1.420  15.377  0.0718  0.0455  0.0043
  739TMC3    C610974   2.684   1.528  15.312 -0.2886  0.0205 -0.3734
  739TMC3     C10975   2.298   1.409  15.253 -0.2437 -0.6729 -0.2322
  739TMC3     O10976   2.239   1.327  15.314 -0.1686 -0.0414 -0.1307
  739TMC3     H10977   2.394   1.657  15.179 -1.8567  1.0405  2.2805
  739TMC3    H110978   2.458   1.318  15.441  0.4816 -0.0479  0.4034
  739TMC3    H210979   2.792   1.535  15.300 -0.2157  4.8158  3.2076
  739TMC3    C710980   2.705   1.372  15.494  0.0645 -0.9510 -0.5928
  739TMC3    C810981   2.641   1.636  15.094  0.2071  0.0211 -0.9037
  739TMC3    O110982   2.631   1.363  15.597 -0.1988  0.0283  0.0112
  739TMC3    O210983   2.564   1.605  15.001 -0.5841  0.2940  0.2900
  740TMC3    C110984   2.949   2.417  14.577  0.3886 -0.6796  0.0469
  740TMC3    C210985   2.983   2.391  14.708  0.5217  0.6228 -0.2822
  740TMC3    C310986   3.114   2.367  14.735 -0.5096 -0.1802 -0.1586
  740TMC3    C410987   3.044   2.425  14.473  0.6686  0.0612 -0.0847
  740TMC3    C510988   3.176   2.401  14.508  0.2364 -0.0050  0.1090
  740TMC3    C610989   3.207   2.373  14.640  0.3036  0.0618 -0.2059
  740TMC3     C10990   2.820   2.464  14.543 -0.1229  0.6184  0.0754
  740TMC3     O10991   2.809   2.534  14.443 -0.0119  0.5927  0.0871
  740TMC3     H10992   2.919   2.419  14.791  0.8902  2.2947 -0.5722
  740TMC3    H110993   3.014   2.431  14.369 -1.2818 -0.5093  0.4493
  740TMC3    H210994   3.308   2.349  14.672  0.7724 -2.0251 -3.2217
  740TMC3    C710995   3.277   2.376  14.413  0.7328  0.4595  0.3038
  740TMC3    C810996   3.160   2.305  14.853 -0.3164 -0.0571 -0.2433
  740TMC3    O110997   3.382   2.334  14.462 -0.3504  0.4553 -0.7416
  740TMC3    O210998   3.279   2.285  14.866 -0.1529  1.0262  0.0566
  741TMC3    C110999   2.007   2.351  13.495 -0.4431 -0.1164 -0.3271
  741TMC3    C211000   2.028   2.230  13.534  0.2837 -0.5855  0.3843
  741TMC3    C311001   2.137   2.206  13.613  0.0332  0.4173 -0.2103
  741TMC3    C411002   2.098   2.453  13.516 -0.0683  0.5108  0.9711
  741TMC3    C511003   2.223   2.418  13.570  0.6329  0.6211  0.0369
  741TMC3    C611004   2.244   2.300  13.623  0.1130  1.0366 -0.3383
  741TMC3     C11005   1.878   2.395  13.459  0.4821 -0.1463  0.3510
  741TMC3     O11006   1.848   2.501  13.503  0.0553 -0.1819  0.2625
  741TMC3     H11007   1.954   2.150  13.537 -2.9473  2.4296  1.7809
  741TMC3    H111008   2.081   2.552  13.477  2.8353  0.5739 -0.1557
  741TMC3    H211009   2.340   2.280  13.671 -0.4115  0.4396  0.4754
  741TMC3    C711010   2.325   2.530  13.583  0.2200  0.6364 -0.5035
  741TMC3    C811011   2.136   2.077  13.682 -0.3922  0.2377 -0.5197
  741TMC3    O111012   2.424   2.501  13.650 -0.2060 -0.1981 -0.4300
  741TMC3    O211013   2.071   1.987  13.633  0.8868  0.1772 -0.1917
  742TMC3    C111014   2.747   0.405  15.736 -0.1172  0.4345 -0.8625
  742TMC3    C211015   2.632   0.360  15.680 -0.4075 -0.2249  0.3960
  742TMC3    C311016   2.646   0.269  15.576  0.2679  0.5746 -0.7694
  742TMC3    C411017   2.870   0.355  15.704 -0.1984  0.3732 -0.0418
  742TMC3    C511018   2.876   0.260  15.609 -0.1353  0.3747  0.4991
  742TMC3    C611019   2.765   0.216  15.543 -0.2562 -0.2496  0.5224
  742TMC3     C11020   2.737   0.465  15.869 -0.6988 -0.8328  0.3262
  742TMC3     O11021   2.836   0.515  15.917  0.4861  0.5517  0.0027
  742TMC3     H11022   2.543   0.421  15.694 -0.0959  0.2776  0.2013
  742TMC3    H111023   2.959   0.395  15.751  2.1238 -3.8893 -0.8067
  742TMC3    H211024   2.779   0.139  15.467 -3.4111 -0.1161 -0.1702
  742TMC3    C711025   3.006   0.194  15.583  0.0138 -0.2328  0.2011
  742TMC3    C811026   2.531   0.204  15.515 -0.0058 -0.5566 -0.1052
  742TMC3    O111027   2.997   0.078  15.543  0.2175  0.5045 -0.8915
  742TMC3    O211028   2.550   0.091  15.471  0.3737 -0.2259 -0.2911
  743MPD2     C11029   4.292   1.618   1.880  0.3554 -0.4489  0.2542
  743MPD2    C111030   4.369   1.536   1.799  0.5897 -1.2499  0.2338
  743MPD2    C211031   4.504   1.564   1.777  0.0759 -0.1781 -0.3130
  743MPD2    C311032   4.553   1.684   1.828  0.5113  0.3737  0.6017
  743MPD2    C411033   4.476   1.774   1.894  0.6034  0.4199  0.2551
  743MPD2    C511034   4.352   1.728   1.931 -0.3006  0.2113 -0.4912
  743MPD2     H11035   4.567   1.493   1.724  0.6285 -0.3786  0.6230
  743MPD2    H111036   4.512   1.870   1.931  0.4099  0.5506  0.1025
  743MPD2    H211037   4.195   1.594   1.921 -0.0963 -0.3761 -0.7681
  743MPD2    H311038   4.301   1.794   2.000 -1.7194 -0.3252 -1.0269
  743MPD2     N11039   4.691   1.703   1.801 -1.1892 -0.1225  0.6141
  743MPD2    H511040   4.725   1.630   1.739  0.2729  3.9780 -3.3609
  743MPD2    N111041   4.298   1.422   1.749 -0.2616  0.3537 -0.6486
  743MPD2    H711042   4.197   1.431   1.755 -0.4013  1.7493 -5.5056
  744TMC3    C111043   4.254   1.225   1.626 -0.5876 -0.7509 -0.1297
  744TMC3    C211044   4.148   1.296   1.566  0.2941  0.5869 -0.4249
  744TMC3    C311045   4.110   1.239   1.449  0.1212 -0.7166  0.5285
  744TMC3    C411046   4.307   1.114   1.570 -0.6456  0.0620  0.4133
  744TMC3    C511047   4.263   1.065   1.448 -0.1911 -0.3318  0.3200
  744TMC3    C611048   4.157   1.123   1.388 -0.2817  0.1072  0.5328
  744TMC3     C11049   4.354   1.309   1.698 -0.0233  0.5856  0.5719
  744TMC3     O11050   4.469   1.269   1.705 -0.2880 -0.3168 -0.2339
  744TMC3     H11051   4.106   1.393   1.590 -0.3038  0.2607 -0.1552
  744TMC3    H111052   4.392   1.066   1.616  0.2765  0.8348 -0.4891
  744TMC3    H211053   4.114   1.086   1.296  1.8773  0.2304 -0.5078
  744TMC3    C711054   4.365   1.026   1.350 -0.3079 -0.5346 -0.8786
  744TMC3    C811055   3.984   1.283   1.399  0.3187  0.5809 -0.5503
  744TMC3    O111056   4.341   1.059   1.235 -0.0237  0.1885 -0.4796
  744TMC3    O211057   3.971   1.405   1.412 -0.1125  0.3565  0.3580
  745TMC3    C111058   2.580   4.553  14.258  0.0086 -0.3013 -0.4954
  745TMC3    C211059   2.541   4.577  14.382  0.5267 -0.3871  0.8194
  745TMC3    C311060   2.415   4.617  14.402 -0.6477  0.2278 -0.6312
  745TMC3    C411061   2.507   4.578  14.150  0.1197 -0.7861  1.2395
  745TMC3    C511062   2.374   4.626  14.165  0.4163 -0.0349 -0.6893
  745TMC3    C611063   2.330   4.639  14.293  0.2654  0.2322  0.0273
  745TMC3     C11064   2.726   4.570  14.243 -0.2551 -0.4322  0.0875
  745TMC3     O11065   2.794   4.467  14.254 -0.2347 -0.0907  0.1296
  745TMC3     H11066   2.612   4.578  14.464 -0.4875 -0.7279  1.7121
  745TMC3    H111067   2.538   4.545  14.051  0.1949 -2.1757  1.7334
  745TMC3    H211068   2.231   4.681  14.305  0.7871  2.1621 -2.4187
  745TMC3    C711069   2.334   4.735  14.072  1.4154 -0.4327 -0.7913
  745TMC3    C811070   2.388   4.713  14.516 -0.2751  0.1907  0.8072
  745TMC3    O111071   2.245   0.073  14.109  0.0681 -0.0047  0.4645
  745TMC3    O211072   2.276   4.739  14.560  0.5692  0.1753  0.5339
  746TMC3    C111073   0.432   2.062  11.215 -0.0499 -0.2697  0.0276
  746TMC3    C211074   0.474   2.023  11.088 -0.3202  0.1766 -0.1556
  746TMC3    C311075   0.560   1.921  11.079  0.4893 -0.8079  0.8471
  746TMC3    C411076   0.446   1.980  11.323 -0.0969  0.4466 -0.1947
  746TMC3    C511077   0.520   1.876  11.307 -0.1146  0.2531 -0.3921
  746TMC3    C611078   0.591   1.845  11.191 -0.1537 -0.0953 -0.0737
  746TMC3     C11079   0.343   2.178  11.228  0.2606  0.2937 -0.7015
  746TMC3     O11080   0.287   2.191  11.339  0.1545 -0.3408  0.0317
  746TMC3     H11081   0.458   2.087  11.002  0.2688 -1.3861 -1.4267
  746TMC3    H111082   0.393   2.000  11.416  0.8290  0.5091  0.3106
  746TMC3    H211083   0.668   1.769  11.180  0.2327 -0.2015  3.2815
  746TMC3    C711084   0.503   1.765  11.398  0.5418  0.4285 -0.5412
  746TMC3    C811085   0.622   1.896  10.949 -0.2197  1.0208  0.2232
  746TMC3    O111086   0.606   1.706  11.430  0.4633 -0.7406  0.7185
  746TMC3    O211087   0.730   1.838  10.955 -1.0137  0.0182  0.2218
  747TMC3    C111088   2.744   1.760  11.257 -0.0774 -0.6694 -0.4316
  747TMC3    C211089   2.631   1.705  11.317 -0.1294 -0.4082  0.0896
  747TMC3    C311090   2.576   1.764  11.429 -0.6003  0.2688 -0.8619
  747TMC3    C411091   2.804   1.868  11.304 -0.4450 -0.8428 -0.3981
  747TMC3    C511092   2.751   1.915  11.422  0.1275 -0.4927  0.2499
  747TMC3    C611093   2.637   1.871  11.484 -0.2835  0.8724  0.8615
  747TMC3     C11094   2.772   1.732  11.111 -0.0082  0.2084 -0.3035
  747TMC3     O11095   2.855   1.796  11.051  0.7173  0.0610 -0.4351
  747TMC3     H11096   2.573   1.620  11.282  1.7952 -1.7353  0.1064
  747TMC3    H111097   2.887   1.911  11.248 -0.1021  0.7986  1.3775
  747TMC3    H211098   2.598   1.918  11.574  1.3680 -0.3997  2.2206
  747TMC3    C711099   2.793   2.050  11.458  0.2367  0.0158  0.6512
  747TMC3    C811100   2.485   1.679  11.508  0.5568 -0.3449  0.3626
  747TMC3    O111101   2.715   2.117  11.525 -0.0863  0.0061  0.3612
  747TMC3    O211102   2.464   1.555  11.482 -0.3169  0.5900 -0.6860
  748MPD2     C11103   3.846   2.364   1.638  0.2104 -0.6155  0.7304
  748MPD2    C111104   3.829   2.414   1.510  0.2507  0.0358  0.1794
  748MPD2    C211105   3.941   2.483   1.454 -0.1018 -1.1344 -0.1184
  748MPD2    C311106   4.064   2.506   1.523  0.6938 -0.5002 -0.5974
  748MPD2    C411107   4.067   2.463   1.656 -0.3212 -0.6603 -0.3417
  748MPD2    C511108   3.962   2.388   1.706  0.5411 -0.3751  0.1805
  748MPD2     H11109   3.942   2.504   1.348  0.9091 -0.3775  0.0384
  748MPD2    H111110   4.156   2.466   1.718 -1.2454 -0.2925  0.9706
  748MPD2    H211111   3.767   2.309   1.687 -1.5726  0.3672 -1.0403
  748MPD2    H311112   3.965   2.346   1.806  2.0268 -3.0410 -0.9619
  748MPD2     N11113   4.180   2.556   1.462 -0.5650  0.0892 -0.1906
  748MPD2    H511114   4.187   2.551   1.360  0.0369  0.9815 -0.1903
  748MPD2    N111115   3.704   2.392   1.451 -0.0135 -0.1105 -0.0812
  748MPD2    H711116   3.627   2.357   1.508 -0.8819  1.5294 -0.2386
  749TMC3    C111117   4.395   2.655   1.439  0.4329  0.7711  0.1278
  749TMC3    C211118   4.491   2.726   1.501  0.9029 -0.2686  0.4326
  749TMC3    C311119   4.612   2.732   1.441 -0.7891  0.0497  0.2458
  749TMC3    C411120   4.419   2.578   1.325 -0.1014  0.7919 -0.3535
  749TMC3    C511121   4.547   2.591   1.271 -0.4140 -0.7048 -0.7875
  749TMC3    C611122   4.643   2.677   1.326  0.1205 -0.1843  0.3100
  749TMC3     C11123   4.283   2.620   1.527  0.5266  0.0592  0.3874
  749TMC3     O11124   4.293   2.654   1.645 -0.5212  0.2892 -0.2288
  749TMC3     H11125   4.486   2.779   1.596 -0.9908 -0.6866  0.5601
  749TMC3    H111126   4.344   2.514   1.279  1.3282 -1.6651  0.7656
  749TMC3    H211127   0.003   2.686   1.282  0.7668  1.3328  2.0672
  749TMC3    C711128   4.557   2.533   1.137  0.0769 -0.5181  0.4807
  749TMC3    C811129   4.731   2.771   1.516 -0.6225  0.0451  0.0955
  749TMC3    O111130   4.490   2.435   1.110  0.1126 -0.6011  0.3764
  749TMC3    O211131   0.000   2.884   1.565 -0.3764 -0.0410  0.2397
  750MPD2     C11132   0.233   4.158  11.236  0.2484 -0.1723  0.0009
  750MPD2    C111133   0.196   4.092  11.351  0.1842  0.1777 -0.1212
  750MPD2    C211134   0.138   3.963  11.340  0.3871  0.5868 -0.0805
  750MPD2    C311135   0.106   3.911  11.215  0.1585 -0.0608 -0.5428
  750MPD2    C411136   0.153   3.976  11.100  0.3319  0.1565 -0.9589
  750MPD2    C511137   0.211   4.101  11.114 -0.6754 -0.3397 -0.5572
  750MPD2     H11138   0.108   3.919  11.434  0.5003 -2.0623 -1.2852
  750MPD2    H111139   0.151   3.924  11.005 -1.7741  0.7361 -1.2227
  750MPD2    H211140   0.284   4.253  11.231 -1.6595  0.8429 -0.0558
  750MPD2    H311141   0.247   4.152  11.026  0.7419 -1.6788 -0.7631
  750MPD2     N11142   0.053   3.785  11.213 -0.5336  0.3549  0.1369
  750MPD2    H511143   0.045   3.748  11.118  0.1201  3.7189 -1.2302
  750MPD2    N111144   0.209   4.174  11.465 -0.9569 -0.1887 -0.4611
  750MPD2    H711145   0.247   4.267  11.449  0.6259 -0.3507  2.3778
  751TMC3    C111146   0.029   3.568  11.297  0.1274 -0.1429 -0.1272
  751TMC3    C211147   4.727   3.487  11.399 -1.1041 -0.2001 -0.0044
  751TMC3    C311148   0.049   3.369  11.418 -0.2375  0.0526 -0.3888
  751TMC3    C411149   0.122   3.529  11.207  0.5834  0.1875  0.5406
  751TMC3    C511150   0.179   3.406  11.224  0.0524  0.0409  0.0748
  751TMC3    C611151   0.144   3.326  11.335 -0.4940 -0.2391  0.1570
  751TMC3     C11152   0.024   3.712  11.321  0.0341  0.2383  0.0233
  751TMC3     O11153   4.709   3.744  11.429 -0.3638  0.0041  0.0751
  751TMC3     H11154   4.654   3.506  11.477  1.4428  2.0586  1.8259
  751TMC3    H111155   0.151   3.582  11.118 -1.3030 -0.6005 -0.5531
  751TMC3    H211156   0.196   3.231  11.345  0.6173  0.3953  0.4197
  751TMC3    C711157   0.186   3.338  11.099  0.3476 -0.1236  0.7970
  751TMC3    C811158   4.703   3.251  11.443  0.3846 -0.5320 -0.2931
  751TMC3    O111159   0.247   3.385  11.005  0.5036 -0.1412 -0.9870
  751TMC3    O211160   4.729   3.164  11.364 -0.0608 -0.5499  0.1300
  752TMC3    C111161   4.052   3.063  17.180  0.2945 -0.4001  0.3072
  752TMC3    C211162   4.091   2.948  17.244 -0.5058 -0.4006  0.2388
  752TMC3    C311163   4.032   2.925  17.371 -0.0329  0.2560 -0.3761
  752TMC3    C411164   3.972   3.161  17.245  0.1708  0.2516  0.1668
  752TMC3    C511165   3.923   3.125  17.369 -0.0785  0.5826  0.6513
  752TMC3    C611166   3.951   3.012  17.443 -0.5983 -0.2952 -0.2917
  752TMC3     C11167   4.101   3.079  17.047 -0.4585 -0.5100 -0.8061
  752TMC3     O11168   4.163   2.981  17.003 -1.0685 -0.3028 -0.1908
  752TMC3     H11169   4.158   2.877  17.198 -0.4585 -0.8281  0.9654
  752TMC3    H111170   3.934   3.250  17.195  0.8685 -0.3262 -1.3797
  752TMC3    H211171   3.902   2.986  17.537  0.2777 -1.4449 -0.1533
  752TMC3    C711172   3.846   3.223  17.451 -0.1985 -0.1783  0.3631
  752TMC3    C811173   4.020   2.782  17.404  0.5071 -0.2001  0.3671
  752TMC3    O111174   3.790   3.178  17.552 -0.4556  0.0655  0.6528
  752TMC3    O211175   4.052   2.713  17.305  0.2302  0.1957  0.0171
  753TMC3    C111176   0.945   4.575  13.298 -0.2995  0.6142 -0.1663
  753TMC3    C211177   1.016   4.522  13.402  0.4549  0.1292 -0.3594
  753TMC3    C311178   0.962   4.417  13.468  0.8548  0.2829  0.9317
  753TMC3    C411179   0.832   4.520  13.248 -0.1232  0.1525 -0.2972
  753TMC3    C511180   0.774   4.414  13.321 -0.2873 -1.0488 -0.2480
  753TMC3    C611181   0.845   4.358  13.427  0.8305  0.0481 -1.1312
  753TMC3     C11182   1.004   4.690  13.223  0.2258  0.0451  0.0868
  753TMC3     O11183   0.927   0.039  13.189 -0.0024  0.2619 -0.0350
  753TMC3     H11184   1.115   4.556  13.428 -0.0362  0.0627  1.6328
  753TMC3    H111185   0.786   4.562  13.159  0.7198 -0.5491 -1.0615
  753TMC3    H211186   0.804   4.271  13.476  0.7542 -0.6420 -2.4275
  753TMC3    C711187   0.635   4.376  13.299 -0.3081  0.2255  0.3745
  753TMC3    C811188   1.004   4.375  13.600  0.1169  0.3519 -0.0968
  753TMC3    O111189   0.575   4.451  13.223  0.4850 -0.1922 -0.0219
  753TMC3    O211190   0.972   4.269  13.650  0.4565  0.3735 -0.0631
  754MPD2     C11191   0.330   3.603  13.207 -0.2460 -0.7139 -0.1915
  754MPD2    C111192   0.288   3.474  13.229 -0.9345 -0.0050  0.4986
  754MPD2    C211193   0.158   3.446  13.260 -0.4322  0.2625  0.3942
  754MPD2    C311194   0.071   3.552  13.279  0.1403  0.4421  0.2577
  754MPD2    C411195   0.119   3.683  13.273 -0.3218 -0.5181 -0.6528
  754MPD2    C511196   0.242   3.703  13.221 -0.2213 -0.3780 -0.3229
  754MPD2     H11197   0.123   3.343  13.257 -1.4111  0.6314 -1.0845
  754MPD2    H111198   0.067   3.774  13.303  1.4719  0.2917  0.0539
  754MPD2    H211199   0.433   3.614  13.177 -0.6143  0.3270 -1.0584
  754MPD2    H311200   0.279   3.802  13.195  1.1860 -0.4722  1.2490
  754MPD2     N11201   4.678   3.549  13.325  0.5746  0.5555 -0.1914
  754MPD2    H511202   4.636   3.641  13.321 -0.8611 -0.2712 -3.6694
  754MPD2    N111203   0.387   3.370  13.210 -0.2798 -0.3213 -0.3260
  754MPD2    H711204   0.477   3.393  13.168 -0.1747 -0.7834 -0.3476
  755MPD2     C11205   4.062   4.115  13.268  0.0081 -0.4918  0.0618
  755MPD2    C111206   3.981   4.027  13.326 -0.4642  0.3326 -0.5023
  755MPD2    C211207   4.019   3.902  13.370 -0.0301 -0.3843 -0.7507
  755MPD2    C311208   4.154   3.871  13.356  0.0177 -0.3166  0.5624
  755MPD2    C411209   4.238   3.971  13.306 -0.5026  0.2454  0.3377
  755MPD2    C511210   4.195   4.090  13.260 -0.2894 -0.9630 -0.6301
  755MPD2     H11211   3.957   3.822  13.408 -1.2185  0.2700 -1.3165
  755MPD2    H111212   4.343   3.953  13.288 -0.9613  0.0458 -2.1265
  755MPD2    H211213   4.021   4.208  13.233 -2.4558 -0.5451  2.7879
  755MPD2    H311214   4.276   4.155  13.230 -1.3055 -0.0688 -1.4392
  755MPD2     N11215   4.215   3.746  13.370 -0.1236  0.2493 -0.1115
  755MPD2    H511216   4.316   3.743  13.356 -0.0105 -1.6496  1.0648
  755MPD2    N111217   3.845   4.051  13.317  0.1621  0.5650 -0.6372
  755MPD2    H711218   3.793   3.991  13.380  1.0690  0.1552 -0.2768
  756MPD2     C11219   0.143   4.483  10.079 -0.3022  0.5250 -0.6895
  756MPD2    C111220   0.040   4.414  10.129  0.5429  0.5570 -0.9087
  756MPD2    C211221   4.658   4.428  10.074  0.6691 -0.5579  0.5530
  756MPD2    C311222   4.640   4.529   9.982  0.2333 -1.0572  0.0585
  756MPD2    C411223   0.008   4.614   9.946 -0.1671 -0.2170  0.7487
  756MPD2    C511224   0.126   4.587   9.993 -0.7557  0.0216 -0.0587
  756MPD2     H11225   4.580   4.361  10.109  0.3638 -0.1797  0.5965
  756MPD2    H111226   4.734   4.696   9.876  1.3375 -1.3073 -0.7975
  756MPD2    H211227   0.248   4.466  10.100 -0.8130 -0.8083  0.7416
  756MPD2    H311228   0.213   4.633   9.947 -0.8987 -0.7636 -1.0970
  756MPD2     N11229   4.514   4.537   9.927  0.0852  0.2212 -0.0658
  756MPD2    H511230   4.453   4.460   9.952  1.9212 -0.2813  2.8644
  756MPD2    N111231   0.057   4.315  10.228 -0.3114 -0.2045 -0.1189
  756MPD2    H711232   4.709   4.276  10.262  1.4753 -3.3419  0.8379
  757MPD2     C11233   4.009   3.902   9.715 -0.5686  0.0447  0.4434
  757MPD2    C111234   4.082   3.925   9.831  0.4141 -0.7348  0.0219
  757MPD2    C211235   4.132   4.056   9.840  0.0860 -0.5767  0.6718
  757MPD2    C311236   4.087   4.157   9.758  0.0939 -0.1038 -0.3445
  757MPD2    C411237   4.014   4.130   9.648 -0.1070 -0.3266 -0.0841
  757MPD2    C511238   3.971   4.003   9.628 -0.5498  0.1549  0.2496
  757MPD2     H11239   4.192   4.084   9.926  0.4153  2.4000 -0.5410
  757MPD2    H111240   3.992   4.205   9.573  0.4375  0.0032  0.0824
  757MPD2    H211241   3.980   3.800   9.695 -1.1130  0.7057 -2.0967
  757MPD2    H311242   3.923   3.968   9.538  0.2364  0.2626 -0.2035
  757MPD2     N11243   4.121   4.293   9.797  0.1960  0.2562 -0.0891
  757MPD2    H511244   4.195   4.313   9.863  3.1495 -1.5756 -2.8536
  757MPD2    N111245   4.112   3.818   9.915  1.9698 -0.0003  0.7268
  757MPD2    H711246   4.067   3.730   9.891  0.4104  0.5730  1.5155
  758MPD2     C11247   4.652   3.192  15.843 -0.0751 -0.0002  0.5997
  758MPD2    C111248   4.643   3.080  15.926  0.6445 -0.0421  0.2691
  758MPD2    C211249   4.577   3.095  16.047 -0.2612  0.0554  0.2639
  758MPD2    C311250   4.543   3.218  16.087 -0.1408  0.2065  0.5342
  758MPD2    C411251   4.556   3.329  16.007 -0.2832 -0.0494 -0.2009
  758MPD2    C511252   4.600   3.312  15.878  0.5471  0.2008  0.0424
  758MPD2     H11253   4.574   3.012  16.116  0.4320 -0.2079 -0.0224
  758MPD2    H111254   4.525   3.429  16.033  0.9469  0.6517 -1.4898
  758MPD2    H211255   4.691   3.190  15.742  1.7568  0.9542  1.2944
  758MPD2    H311256   4.623   3.402  15.822 -1.6208  2.2332  2.4209
  758MPD2     N11257   4.506   3.229  16.220  0.2289 -0.0022  0.1051
  758MPD2    H511258   4.505   3.147  16.280  1.2604 -1.7827 -2.3635
  758MPD2    N111259   4.706   2.962  15.886  0.6804  0.4094  0.0028
  758MPD2    H711260   0.015   2.963  15.796 -2.0857  1.6661 -1.4605
  759MPD2     C11261   3.714   1.570  11.029 -0.0525 -0.7221  0.6280
  759MPD2    C111262   3.733   1.468  10.942  0.3616 -0.2134  0.6131
  759MPD2    C211263   3.815   1.494  10.828 -0.1864  0.4820 -0.2388
  759MPD2    C311264   3.874   1.619  10.809 -1.5309 -0.2423 -0.2291
  759MPD2    C411265   3.847   1.723  10.895  1.1786  0.1337 -0.2855
  759MPD2    C511266   3.758   1.699  10.998 -1.3467 -0.2835 -0.1608
  759MPD2     H11267   3.826   1.421  10.749  0.1967  0.6217 -0.3131
  759MPD2    H111268   3.890   1.822  10.887  1.9957 -0.1249  0.8465
  759MPD2    H211269   3.655   1.562  11.119  0.4907  0.9332  1.1460
  759MPD2    H311270   3.734   1.774  11.072  0.9114  0.7925 -0.4939
  759MPD2     N11271   3.955   1.628  10.692 -0.5505  0.6818 -0.2288
  759MPD2    H511272   3.963   1.547  10.631 -1.7172  0.2495  0.1863
  759MPD2    N111273   3.674   1.340  10.955 -0.8657  0.1995 -0.3417
  759MPD2    H711274   3.708   1.270  10.889 -0.9231 -0.6192  0.4882
  760MPD2     C11275   3.390   3.725  12.016  0.6431  0.2576  0.2188
  760MPD2    C111276   3.520   3.755  12.058 -0.0543  0.5862  0.3544
  760MPD2    C211277   3.571   3.678  12.164  0.1050  0.1333 -0.2897
  760MPD2    C311278   3.513   3.565  12.219 -1.1491  0.1805  0.2534
  760MPD2    C411279   3.386   3.539  12.172 -0.5777 -0.4627  0.1875
  760MPD2    C511280   3.325   3.622  12.075 -0.0550 -0.9414 -0.5222
  760MPD2     H11281   3.666   3.706  12.208 -0.5327  1.5824  0.1431
  760MPD2    H111282   3.333   3.449  12.202 -2.5505  0.5852 -0.1395
  760MPD2    H211283   3.340   3.778  11.935  2.2552 -0.2104 -1.0968
  760MPD2    H311284   3.220   3.609  12.049 -0.2438 -0.0352 -0.2461
  760MPD2     N11285   3.563   3.482  12.322  0.0963  0.4751 -0.5585
  760MPD2    H511286   3.508   3.403  12.354 -0.3023  1.0764  0.2563
  760MPD2    N111287   3.600   3.861  12.018  0.5168  0.1106 -0.4514
  760MPD2    H711288   3.691   3.876  12.061  0.2890 -0.9760  0.4332
  761MPD2     C11289   4.274   3.023  11.608  0.3098  0.1480  0.4557
  761MPD2    C111290   4.352   2.996  11.493  0.6268  0.8454 -0.3780
  761MPD2    C211291   4.459   3.079  11.463  0.6167  0.4502 -0.8497
  761MPD2    C311292   4.496   3.174  11.556  0.2003 -0.2442  0.3400
  761MPD2    C411293   4.426   3.190  11.672  0.3858  0.3639  0.4290
  761MPD2    C511294   4.313   3.118  11.694  0.1735  0.3006  0.6753
  761MPD2     H11295   4.525   3.062  11.379  0.3142  0.3756 -1.0720
  761MPD2    H111296   4.450   3.270  11.741  1.4830  0.2701  0.1518
  761MPD2    H211297   4.186   2.964  11.628  0.5295 -1.3249 -2.9387
  761MPD2    H311298   4.252   3.141  11.781  0.4161  2.2835  0.3342
  761MPD2     N11299   4.607   3.265  11.537 -0.0006 -0.2182 -0.4388
  761MPD2    H511300   4.615   3.344  11.601  0.1215  0.6955 -1.5722
  761MPD2    N111301   4.311   2.889  11.407  0.4571  0.2826 -0.3726
  761MPD2    H711302   4.244   2.831  11.456 -0.3221 -0.9286 -2.8795
  762MPD2     C11303   4.575   2.074  11.052  0.0814  0.0892  0.4687
  762MPD2    C111304   4.571   2.212  11.011  0.0560  0.6686 -0.1060
  762MPD2    C211305   4.631   2.250  10.896 -0.8344  0.2732 -0.3504
  762MPD2    C311306   4.694   2.154  10.813  0.6545  0.7012 -0.8020
  762MPD2    C411307   4.705   2.023  10.857  0.2566  0.7361 -0.0853
  762MPD2    C511308   4.646   1.988  10.973  0.2957 -0.1090 -0.1430
  762MPD2     H11309   4.615   2.353  10.866  0.3657  0.7638  0.7145
  762MPD2    H111310   4.737   1.939  10.796 -1.7184 -1.2824  1.6575
  762MPD2    H211311   4.517   2.039  11.137 -0.1092 -2.8722 -0.8800
  762MPD2    H311312   4.643   1.885  11.006  1.4753  0.8180  2.9046
  762MPD2     N11313   0.003   2.205  10.679 -0.5373 -0.2258  0.2160
  762MPD2    H511314   4.734   2.304  10.659  1.8378  0.2557  1.6043
  762MPD2    N111315   4.510   2.300  11.106  0.2362 -0.0154 -0.4063
  762MPD2    H711316   4.475   2.251  11.188  2.5024 -0.1273  0.4661
  763MPD2     C11317   1.276   2.783  16.339 -0.1608  0.3304 -0.2183
  763MPD2    C111318   1.373   2.820  16.254 -0.0721  0.0228 -0.4088
  763MPD2    C211319   1.466   2.916  16.292  0.0738 -0.2393 -0.6028
  763MPD2    C311320   1.453   2.980  16.412 -0.2026 -0.4704  0.8595
  763MPD2    C411321   1.363   2.928  16.499 -0.6128  0.1194  0.3424
  763MPD2    C511322   1.269   2.836  16.465 -0.4259 -0.3049 -0.5020
  763MPD2     H11323   1.533   2.936  16.209  1.8570 -2.6025  0.2772
  763MPD2    H111324   1.354   2.968  16.600  2.7548  0.5934  0.4632
  763MPD2    H211325   1.199   2.715  16.305  0.8164  0.1177 -2.0529
  763MPD2    H311326   1.205   2.791  16.539 -0.0747  0.6629  0.3904
  763MPD2     N11327   1.544   3.086  16.436  0.1741  0.0573  0.0560
  763MPD2    H511328   1.609   3.101  16.360 -0.4638 -0.2230 -0.5536
  763MPD2    N111329   1.398   2.758  16.126 -0.1941  0.8438  0.1621
  763MPD2    H711330   1.477   2.796  16.076 -0.7154  1.5378 -0.1410
  764MPD2     C11331   4.277   0.007  17.719 -0.1714 -0.2823  0.1268
  764MPD2    C111332   4.295   4.658  17.621  0.2977 -0.2374  0.2373
  764MPD2    C211333   4.300   4.523  17.645  0.0550  0.2355  0.2979
  764MPD2    C311334   4.288   4.477   0.017 -0.1437  0.9823  0.4773
  764MPD2    C411335   4.274   4.571   0.119 -0.3910 -0.2219  0.1800
  764MPD2    C511336   4.267   4.707   0.090 -0.0136 -0.0075  0.5444
  764MPD2     H11337   4.318   4.456  17.562 -2.3644 -0.9713  0.7681
  764MPD2    H111338   4.282   4.550   0.225  0.9216  1.0193  0.3175
  764MPD2    H211339   4.266   0.114  17.707 -0.9629 -0.2537  1.1841
  764MPD2    H311340   4.266   0.036   0.174 -1.9971 -0.0662  0.5644
  764MPD2     N11341   4.324   4.341   0.032  0.8412 -0.8118 -0.5196
  764MPD2    H511342   4.351   4.297  17.701 -0.2779  0.7233 -1.6566
  764MPD2    N111343   4.305   4.695  17.486  0.6125 -0.2643  0.3097
  764MPD2    H711344   4.308   4.621  17.417 -0.5354 -0.1485  0.1230
  765MPD2     C11345   4.633   2.494  15.533 -0.9341  0.2602 -0.2933
  765MPD2    C111346   4.604   2.500  15.669  0.6048  0.5231 -0.0911
  765MPD2    C211347   4.671   2.417  15.756 -0.0818 -0.0300 -0.3502
  765MPD2    C311348   0.023   2.325  15.706 -1.3821  0.1398 -0.0172
  765MPD2    C411349   0.039   2.310  15.573 -0.5059 -0.3552  0.7649
  765MPD2    C511350   4.709   2.389  15.486  0.8716  0.3090 -0.1543
  765MPD2     H11351   4.673   2.441  15.862  2.4590  0.8720 -0.5954
  765MPD2    H111352   0.109   2.237  15.534  1.4202  2.3490 -0.8493
  765MPD2    H211353   4.575   2.559  15.469 -1.5805  0.4636  0.5075
  765MPD2    H311354   4.722   2.370  15.380  0.2776 -0.2971 -0.1187
  765MPD2     N11355   0.102   2.258  15.804  0.4484 -0.6483  0.1605
  765MPD2    H511356   0.073   2.262  15.901  1.5631 -2.0098  0.5411
  765MPD2    N111357   4.519   2.596  15.724  0.3463 -0.2679 -0.0303
  765MPD2    H711358   4.490   2.674  15.664  0.4759  0.5055  0.9106
  766MPD2     C11359   3.818   2.619  15.611 -0.3314  0.2163  0.1583
  766MPD2    C111360   3.951   2.603  15.601 -0.1351  0.0229  0.3226
  766MPD2    C211361   3.998   2.535  15.491  0.5189  0.2920 -0.5318
  766MPD2    C311362   3.915   2.495  15.385  0.1023  0.5843 -0.0431
  766MPD2    C411363   3.783   2.517  15.397 -0.4505 -0.1458  0.4491
  766MPD2    C511364   3.733   2.576  15.511 -0.5483  0.1305 -0.2737
  766MPD2     H11365   4.106   2.537  15.484  0.5393 -1.1371 -0.6185
  766MPD2    H111366   3.715   2.488  15.318  0.8571 -1.9613 -0.0174
  766MPD2    H211367   3.769   2.671  15.693 -3.2437 -0.8721 -0.9068
  766MPD2    H311368   3.627   2.591  15.530 -0.3969 -0.9317  1.4701
  766MPD2     N11369   3.965   2.442  15.261  0.0503  0.2500  0.1323
  766MPD2    H511370   3.892   2.423  15.194 -2.4141  1.5680  2.4087
  766MPD2    N111371   4.050   2.648  15.695  0.1783 -0.3433 -0.0125
  766MPD2    H711372   4.145   2.653  15.660  0.3115 -2.9202 -0.0197
  767MPD2     C11373   3.499   2.710  15.144 -0.0222 -0.5082  0.2900
  767MPD2    C111374   3.634   2.713  15.109 -0.0754 -0.4569  0.3435
  767MPD2    C211375   3.668   2.655  14.992 -0.1624  0.3053 -0.4647
  767MPD2    C311376   3.575   2.604  14.899 -0.4940  0.4290  0.0774
  767MPD2    C411377   3.447   2.587  14.943  0.6380  0.2963  0.4858
  767MPD2    C511378   3.409   2.634  15.065 -0.1045  0.0926  0.1976
  767MPD2     H11379   3.766   2.667  14.947  1.0040 -1.4898  1.5900
  767MPD2    H111380   3.382   2.532  14.876  0.3018  3.3503 -1.6554
  767MPD2    H211381   3.463   2.760  15.233 -1.5523 -0.5155 -0.3218
  767MPD2    H311382   3.307   2.620  15.100  0.0723  0.3344  0.8172
  767MPD2     N11383   3.615   2.576  14.763 -0.0416 -0.2907 -0.3561
  767MPD2    H511384   3.715   2.567  14.748 -0.0465  1.0776 -1.1238
  767MPD2    N111385   3.725   2.785  15.187  0.8615 -0.1528  0.0324
  767MPD2    H711386   3.684   2.812  15.275  0.3556 -1.4003  0.1806
  768MPD2     C11387   0.444   1.407  11.018 -0.1157 -0.0255 -0.4448
  768MPD2    C111388   0.387   1.309  11.099 -0.7596 -1.1519 -0.4355
  768MPD2    C211389   0.454   1.267  11.208  0.9505 -0.3593 -0.4852
  768MPD2    C311390   0.570   1.324  11.248 -0.0363  0.7123 -0.3253
  768MPD2    C411391   0.633   1.409  11.161  0.3548 -0.0587 -0.4677
  768MPD2    C511392   0.572   1.452  11.047 -0.2085 -0.1038 -0.0654
  768MPD2     H11393   0.406   1.195  11.273  2.5566 -1.7504 -0.8412
  768MPD2    H111394   0.728   1.453  11.189  0.7882 -1.9916  1.1461
  768MPD2    H211395   0.390   1.449  10.934 -0.6969  0.5200  0.1998
  768MPD2    H311396   0.619   1.528  10.986 -1.5746 -0.7564 -1.9249
  768MPD2     N11397   0.641   1.301  11.371  0.5904  0.7731 -0.0968
  768MPD2    H511398   0.722   1.357  11.395 -0.8024  1.6675  2.4415
  768MPD2    N111399   0.258   1.251  11.067  0.7458  0.5076 -0.0221
  768MPD2    H711400   0.213   1.189  11.134 -0.8542  0.1808 -1.3916
  769MPD2     C11401   0.625   4.292  15.198  0.3824  0.3324  0.1794
  769MPD2    C111402   0.644   4.187  15.283 -0.5317  1.1145 -0.1317
  769MPD2    C211403   0.721   4.210  15.398 -0.7833 -0.0318 -0.0171
  769MPD2    C311404   0.776   4.337  15.423  0.0969 -0.4101 -0.4461
  769MPD2    C411405   0.756   4.434  15.329 -0.2237 -0.2725  0.5016
  769MPD2    C511406   0.679   4.414  15.216  0.0698  0.2210  0.0105
  769MPD2     H11407   0.728   4.130  15.471  1.9595 -1.5406 -1.9351
  769MPD2    H111408   0.797   4.534  15.344 -0.3864 -0.0706 -0.3853
  769MPD2    H211409   0.573   4.276  15.104 -0.5704 -1.0154  0.9393
  769MPD2    H311410   0.679   4.483  15.133 -0.8684 -0.9601 -0.9674
  769MPD2     N11411   0.869   4.345  15.528 -0.5044  0.0499 -0.4261
  769MPD2    H511412   0.881   4.262  15.585 -1.2996  1.0036  1.1169
  769MPD2    N111413   0.591   4.071  15.242 -0.0069 -0.8323  0.6128
  769MPD2    H711414   0.552   4.079  15.149 -1.0832 -0.0120  1.1371
  770MPD2     C11415   0.590   2.998  15.130  0.1669  0.6927 -0.4949
  770MPD2    C111416   0.506   3.054  15.042 -0.0365 -0.3319  0.1944
  770MPD2    C211417   0.490   3.194  15.042 -0.4232 -0.1104  0.4505
  770MPD2    C311418   0.553   3.272  15.129 -0.3047 -0.0276  0.2098
  770MPD2    C411419   0.650   3.216  15.212  0.6941 -0.2304  0.3992
  770MPD2    C511420   0.663   3.080  15.219  0.7392  0.5035  0.5518
  770MPD2     H11421   0.408   3.239  14.986 -1.4235  0.6292  2.5111
  770MPD2    H111422   0.714   3.276  15.276  2.0600 -2.6218  1.2500
  770MPD2    H211423   0.606   2.891  15.126 -1.7624  0.2735  3.7020
  770MPD2    H311424   0.732   3.043  15.294 -0.7116 -1.1005  1.1059
  770MPD2     N11425   0.508   3.401  15.134  0.0063  0.4506 -0.5075
  770MPD2    H511426   0.437   3.431  15.068 -0.0157  1.2242 -0.1390
  770MPD2    N111427   0.433   2.960  14.962  0.1900  0.1240 -0.3339
  770MPD2    H711428   0.453   2.863  14.983  1.9606  0.3073 -1.2205
  771MPD2     C11429   1.751   2.067  13.715 -0.3489  0.8391  0.1385
  771MPD2    C111430   1.669   2.178  13.718  0.0539  0.0815 -0.5028
  771MPD2    C211431   1.561   2.185  13.640  0.2298  0.0070  0.7486
  771MPD2    C311432   1.520   2.078  13.566 -0.7170  0.4546 -0.2031
  771MPD2    C411433   1.600   1.965  13.562 -0.5916  0.3200  0.5096
  771MPD2    C511434   1.721   1.973  13.630 -0.4775  0.8759 -1.5050
  771MPD2     H11435   1.504   2.277  13.635 -0.8900 -0.7515 -0.1024
  771MPD2    H111436   1.567   1.872  13.517 -0.3204  1.1216 -1.3573
  771MPD2    H211437   1.839   2.049  13.775  0.7549 -1.1871 -2.0988
  771MPD2    H311438   1.778   1.881  13.639 -1.0723  0.3480 -3.1019
  771MPD2     N11439   1.393   2.086  13.509  0.0911 -0.1083  0.1341
  771MPD2    H511440   1.351   2.175  13.531 -3.5201 -2.0538  1.2294
  771MPD2    N111441   1.704   2.284  13.805  0.0641 -0.2927 -0.4464
  771MPD2    H711442   1.649   2.369  13.796 -0.7579 -1.0855 -2.9079
  772MPD2     C11443   1.316   2.800  13.958  0.2340  0.1680 -0.6040
  772MPD2    C111444   1.363   2.690  14.036  0.3862 -0.1135  0.0484
  772MPD2    C211445   1.280   2.611  14.115 -0.1093  0.5704 -0.3166
  772MPD2    C311446   1.146   2.646  14.125  0.8568 -1.0060  0.1187
  772MPD2    C411447   1.104   2.758  14.058 -0.1281 -0.0849 -0.6732
  772MPD2    C511448   1.183   2.828  13.974  0.0335  0.1543 -0.2054
  772MPD2     H11449   1.321   2.529  14.174  0.4429  2.3190  1.7479
  772MPD2    H111450   1.005   2.801  14.069 -0.2006 -0.5029  0.3099
  772MPD2    H211451   1.376   2.855  13.886  1.6255 -0.2919  0.1954
  772MPD2    H311452   1.142   2.911  13.918  1.1119 -0.2843 -1.6560
  772MPD2     N11453   1.052   2.584  14.210 -0.0040  0.0498 -0.4354
  772MPD2    H511454   0.956   2.616  14.197  0.7653  1.5081 -2.3328
  772MPD2    N111455   1.499   2.647  14.025 -0.0481  0.1210 -0.0047
  772MPD2    H711456   1.522   2.565  14.080  0.3884  0.6433  0.5943
  773MPD2     C11457   0.487   3.003   0.180 -0.2313 -0.1555  0.0394
  773MPD2    C111458   0.389   2.923   0.132  0.2264 -0.1931 -0.4776
  773MPD2    C211459   0.372   2.797   0.180 -0.5011  0.5577  0.4480
  773MPD2    C311460   0.449   2.761   0.292 -0.1648 -0.1530  0.0052
  773MPD2    C411461   0.550   2.845   0.335  0.1133 -0.8955 -0.5647
  773MPD2    C511462   0.562   2.965   0.288 -0.5050  0.5779 -0.1832
  773MPD2     H11463   0.291   2.736   0.141  1.1339 -1.5439  0.3010
  773MPD2    H111464   0.612   2.820   0.421 -0.5309 -1.2109 -0.2004
  773MPD2    H211465   0.513   3.098   0.137  0.3353 -0.7112 -0.8506
  773MPD2    H311466   0.653   3.022   0.306 -0.2725  0.4715 -1.0068
  773MPD2     N11467   0.422   2.640   0.364  0.4006  0.1248 -0.2829
  773MPD2    H511468   0.356   2.582   0.312 -0.2044  0.4264  0.1538
  773MPD2    N111469   0.305   2.962   0.022  0.0432  0.0109  0.2016
  773MPD2    H711470   0.236   2.889   0.003  0.1230  0.7323 -2.8093
  774MPD2     C11471   4.620   2.451  13.554  0.2798  0.8961 -0.3399
  774MPD2    C111472   4.664   2.518  13.667 -0.8906  0.1892  0.3226
  774MPD2    C211473   0.021   2.624  13.648 -0.4646  0.1729  0.3492
  774MPD2    C311474   0.059   2.667  13.526 -0.5063  0.5580  0.5294
  774MPD2    C411475   0.028   2.589  13.413 -0.8716 -0.7144  0.1335
  774MPD2    C511476   4.681   2.481  13.434  0.2673 -0.1678 -0.0754
  774MPD2     H11477   0.064   2.675  13.734 -3.2433 -0.2192  1.9681
  774MPD2    H111478   0.042   2.620  13.310  2.8655  1.8034  1.3456
  774MPD2    H211479   4.552   2.367  13.561  0.3947  1.0282  2.3142
  774MPD2    H311480   4.657   2.428  13.343 -0.2205 -1.0887  0.5992
  774MPD2     N11481   0.124   2.786  13.521 -1.0893 -0.0748  0.3530
  774MPD2    H511482   0.133   2.841  13.606 -1.1172 -0.2852  0.4918
  774MPD2    N111483   4.619   2.495  13.799 -1.1573  0.0236  0.5096
  774MPD2    H711484   4.675   2.539  13.870 -0.9180  1.7095 -0.7239
  775MPD2     C11485   1.247   4.092  15.773  1.0950  0.4623 -0.0029
  775MPD2    C111486   1.339   4.153  15.849  0.0968  0.2701 -0.4600
  775MPD2    C211487   1.438   4.235  15.785  0.2262  0.2195  0.2680
  775MPD2    C311488   1.404   4.271  15.652 -0.8621  0.0045 -0.0268
  775MPD2    C411489   1.305   4.205  15.581  0.3451 -0.4184 -0.1203
  775MPD2    C511490   1.227   4.113  15.640  0.2266  0.8721  0.0330
  775MPD2     H11491   1.525   4.264  15.843  0.3730 -2.3209  1.3205
  775MPD2    H111492   1.284   4.235  15.479 -1.5126  1.9487  0.9648
  775MPD2    H211493   1.167   4.039  15.825  0.6368  0.7349 -0.4271
  775MPD2    H311494   1.150   4.072  15.576  2.2019  0.8579 -2.3294
  775MPD2     N11495   1.483   4.362  15.579  0.2038 -0.2833 -0.3331
  775MPD2    H511496   1.455   4.380  15.484  0.3856  0.3706 -0.2612
  775MPD2    N111497   1.344   4.108  15.985 -0.7863 -0.0432  0.0782
  775MPD2    H711498   1.286   4.027  16.005  1.7253 -1.9321 -0.2444
  776MPD2     C11499   0.794   4.216  11.537  0.0205 -0.4234 -0.4038
  776MPD2    C111500   0.753   4.315  11.625  0.6349 -0.5132 -0.1658
  776MPD2    C211501   0.836   4.424  11.652  0.5797 -0.3576 -0.6286
  776MPD2    C311502   0.966   4.428  11.599 -0.0038  0.4330 -0.6304
  776MPD2    C411503   1.005   4.321  11.521  0.3095 -0.2892 -0.7026
  776MPD2    C511504   0.925   4.214  11.487 -0.0976 -0.1685  0.1943
  776MPD2     H11505   0.796   4.496  11.722  0.7765 -0.9581  0.1019
  776MPD2    H111506   1.103   4.328  11.476  0.4997  0.1828 -0.2114
  776MPD2    H211507   0.731   4.131  11.516 -0.8363  0.0950  0.0632
  776MPD2    H311508   0.953   4.119  11.442 -0.2253 -0.0770 -0.0808
  776MPD2     N11509   1.053   4.538  11.610  0.2373  0.6825 -0.3724
  776MPD2    H511510   1.138   4.527  11.557  1.1300  2.3112  0.7332
  776MPD2    N111511   0.611   4.312  11.653 -0.1401  0.5623  0.3248
  776MPD2    H711512   0.562   4.230  11.618  0.9215 -0.2484  0.7060
  777MPD2     C11513   0.738   1.714   1.091 -0.4072  0.0765  0.2049
  777MPD2    C111514   0.633   1.723   1.171  0.1166 -0.3845 -0.4394
  777MPD2    C211515   0.523   1.646   1.141  0.2469 -0.3413  0.0175
  777MPD2    C311516   0.515   1.581   1.017  0.2339  0.3469  0.2140
  777MPD2    C411517   0.628   1.577   0.936 -0.8738  0.7056 -0.3090
  777MPD2    C511518   0.745   1.637   0.978  0.2566  0.0411 -0.8588
  777MPD2     H11519   0.446   1.645   1.217  3.0847  1.8776  2.9083
  777MPD2    H111520   0.646   1.522   0.844  0.2489 -0.7153  0.7764
  777MPD2    H211521   0.822   1.776   1.121  0.3623  0.1054 -1.9836
  777MPD2    H311522   0.832   1.642   0.913 -0.2325  0.2483 -1.4892
  777MPD2     N11523   0.403   1.512   0.986 -0.0642  0.6835  0.2005
  777MPD2    H511524   0.322   1.524   1.045 -0.8383 -0.0450 -0.7143
  777MPD2    N111525   0.638   1.815   1.279 -0.1604 -0.2919  0.5018
  777MPD2    H711526   0.726   1.865   1.284 -0.3141  0.0570 -0.2841
  778MPD2     C11527   1.512   1.851  15.299  0.4254  0.5396  0.2457
  778MPD2    C111528   1.436   1.784  15.207 -0.1644 -0.2978  0.3440
  778MPD2    C211529   1.434   1.834  15.082  0.7613  0.3220  0.2157
  778MPD2    C311530   1.522   1.927  15.035  0.1859  0.0878  0.6380
  778MPD2    C411531   1.605   1.990  15.130  0.0128  0.2829 -0.0945
  778MPD2    C511532   1.594   1.953  15.262  0.1690 -0.3219 -0.4937
  778MPD2     H11533   1.362   1.798  15.009 -2.1221  0.4390  2.9768
  778MPD2    H111534   1.673   2.071  15.105  0.2079 -0.4702 -1.9514
  778MPD2    H211535   1.512   1.820  15.402  1.0802  1.5199  0.5413
  778MPD2    H311536   1.667   1.995  15.330  0.2615 -3.6755  1.4555
  778MPD2     N11537   1.524   1.961  14.893 -0.2936 -0.1030 -0.0217
  778MPD2    H511538   1.470   1.898  14.834  2.8068 -1.4918 -1.3925
  778MPD2    N111539   1.353   1.670  15.233 -0.2578  0.0601  0.6425
  778MPD2    H711540   1.303   1.632  15.153 -0.9181  1.3816  0.4285
  779MPD2     C11541   1.765   0.667  13.732  0.5060 -0.3832  0.2738
  779MPD2    C111542   1.730   0.674  13.863  0.0821  0.1734 -0.3477
  779MPD2    C211543   1.721   0.806  13.907 -0.4008 -0.1780 -0.6295
  779MPD2    C311544   1.742   0.914  13.830  0.9588  0.3773 -0.3212
  779MPD2    C411545   1.753   0.902  13.694 -0.3097  0.1409 -0.5525
  779MPD2    C511546   1.774   0.777  13.651 -0.0427 -0.2459  0.5591
  779MPD2     H11547   1.695   0.816  14.012 -0.4276  1.0438 -0.7518
  779MPD2    H111548   1.768   0.982  13.622  1.1579 -0.4419 -0.9013
  779MPD2    H211549   1.795   0.582  13.672  2.0388  0.0353  0.4600
  779MPD2    H311550   1.799   0.757  13.548  0.2541 -2.1318  0.9914
  779MPD2     N11551   1.749   1.040  13.890  0.6708 -0.2795  0.5938
  779MPD2    H511552   1.760   1.039  13.991  0.7797 -2.3067  0.5637
  779MPD2    N111553   1.696   0.565  13.945 -0.0893  0.0242  0.1669
  779MPD2    H711554   1.658   0.575  14.039  0.7376  1.3066  0.3696
  780MPD2     C11555   0.506   0.590   1.072 -0.0845 -0.3861 -0.1371
  780MPD2    C111556   0.596   0.486   1.043  0.1694 -0.7141  0.0258
  780MPD2    C211557   0.722   0.531   1.002 -0.1911 -0.1167  0.1190
  780MPD2    C311558   0.759   0.660   1.005  0.4170 -0.0995 -0.0152
  780MPD2    C411559   0.662   0.761   1.029 -0.6378  0.1770  0.5023
  780MPD2    C511560   0.537   0.721   1.068 -0.1671 -0.5378 -0.3435
  780MPD2     H11561   0.806   0.466   0.981 -2.0030 -3.0017  1.7733
  780MPD2    H111562   0.691   0.865   1.035 -0.6013  0.2002 -0.0371
  780MPD2    H211563   0.401   0.578   1.097  0.0256 -0.1670  0.4235
  780MPD2    H311564   0.465   0.801   1.083  2.9409  1.9275  1.4777
  780MPD2     N11565   0.889   0.694   0.963  0.9098 -0.3979  0.2284
  780MPD2    H511566   0.941   0.621   0.916  0.3300  1.0789 -2.6957
  780MPD2    N111567   0.548   0.346   1.035 -0.1119  0.4621 -0.3125
  780MPD2    H711568   0.451   0.332   1.062  0.6258 -4.8165 -0.3889
  781MPD2     C11569   2.607   3.132  12.357  0.2008 -0.8698  0.0229
  781MPD2    C111570   2.660   3.009  12.322  0.4660  0.1180  0.0122
  781MPD2    C211571   2.716   2.980  12.196 -0.4836  0.1126  0.2066
  781MPD2    C311572   2.726   3.080  12.103  0.0605 -0.7807  0.0714
  781MPD2    C411573   2.671   3.204  12.137  0.7158 -0.4067 -0.1364
  781MPD2    C511574   2.620   3.229  12.259  0.1871  0.1644  0.0968
  781MPD2     H11575   2.738   2.879  12.163 -3.3565 -0.9288  1.4531
  781MPD2    H111576   2.676   3.291  12.072  1.3422 -0.0229  0.4306
  781MPD2    H211577   2.571   3.157  12.456  0.2511  1.3217 -0.5248
  781MPD2    H311578   2.586   3.328  12.286 -0.4876  0.4605 -1.8292
  781MPD2     N11579   2.769   3.058  11.974  0.3286  0.3676  0.0383
  781MPD2    H511580   2.748   3.120  11.896 -1.0906 -1.6604 -1.1649
  781MPD2    N111581   2.651   2.903  12.409  0.2834  0.0098 -0.2304
  781MPD2    H711582   2.673   2.812  12.370  2.1680  0.1392  0.5519
  782MPD2     C11583   0.328   3.645  10.298 -0.2296 -0.5986 -0.3657
  782MPD2    C111584   0.404   3.537  10.332  0.0314  0.3479  0.0850
  782MPD2    C211585   0.516   3.550  10.412  0.4805 -0.2099 -0.1690
  782MPD2    C311586   0.561   3.675  10.443 -0.5664  0.5185  0.1116
  782MPD2    C411587   0.499   3.785  10.383 -0.5156  0.8171  0.4310
  782MPD2    C511588   0.384   3.768  10.311 -0.5554 -0.2745  0.2683
  782MPD2     H11589   0.578   3.470  10.451  1.9670  0.8852 -0.2831
  782MPD2    H111590   0.525   3.889  10.393 -0.2644  0.9180 -1.2759
  782MPD2    H211591   0.234   3.633  10.246  0.0863 -0.9985 -0.8436
  782MPD2    H311592   0.343   3.860  10.272 -0.9268 -0.9426 -0.9286
  782MPD2     N11593   0.670   3.695  10.534  0.2182 -0.9786  0.1848
  782MPD2    H511594   0.708   3.612  10.578  0.7271  0.6852  2.8578
  782MPD2    N111595   0.347   3.407  10.313  0.7619  0.0709  0.2224
  782MPD2    H711596   0.248   3.401  10.291  0.9539  0.0991 -0.6836
  783MPD2     C11597   0.001   3.018  11.050 -0.4004  0.0180 -0.8307
  783MPD2    C111598   0.079   3.130  11.022  0.1170  0.6318 -0.0800
  783MPD2    C211599   0.134   3.140  10.890 -0.3560 -0.3960 -0.1526
  783MPD2    C311600   0.109   3.047  10.792  0.2044 -0.2871 -0.1654
  783MPD2    C411601   0.022   2.948  10.825 -0.2135 -0.4637  0.0260
  783MPD2    C511602   4.706   2.936  10.950  0.2113 -0.3840  0.3504
  783MPD2     H11603   0.179   3.232  10.855  0.8954 -1.0104 -0.1708
  783MPD2    H111604   4.732   2.875  10.750 -1.2998  1.8664 -1.7772
  783MPD2    H211605   4.699   3.004  11.149 -0.5345  0.4465 -0.8264
  783MPD2    H311606   4.636   2.856  10.969 -2.6542  2.0483  0.0096
  783MPD2     N11607   0.158   3.072  10.661 -0.1702  0.8023  0.2882
  783MPD2    H511608   0.226   3.147  10.653  1.3007 -0.6349 -0.6797
  783MPD2    N111609   0.114   3.228  11.118 -0.4518 -0.6752  0.0843
  783MPD2    H711610   0.071   3.210  11.209  0.1597  0.0654  0.5230
  784MPD2     C11611   3.450   3.391   0.680 -0.5204  0.1817 -0.3620
  784MPD2    C111612   3.417   3.525   0.681 -0.2512  0.2177 -0.4642
  784MPD2    C211613   3.305   3.567   0.620  0.0574  0.1877  0.0592
  784MPD2    C311614   3.218   3.483   0.557 -0.7815  0.5310  0.1440
  784MPD2    C411615   3.246   3.351   0.563 -0.2784 -0.4830 -0.1387
  784MPD2    C511616   3.361   3.306   0.627  0.1893  0.1323 -0.1068
  784MPD2     H11617   3.267   3.669   0.623  0.6210  0.4165 -0.5740
  784MPD2    H111618   3.176   3.277   0.524  0.4969 -1.0284 -0.5093
  784MPD2    H211619   3.539   3.350   0.725  0.4687  0.0413 -2.4559
  784MPD2    H311620   3.376   3.200   0.644 -1.2555 -0.3429 -1.7777
  784MPD2     N11621   3.110   3.534   0.484 -0.2523  0.6698  0.0572
  784MPD2    H511622   3.107   3.634   0.467 -1.6817  0.5532 -0.3996
  784MPD2    N111623   3.490   3.616   0.752  0.2857  0.5018 -0.4372
  784MPD2    H711624   3.452   3.709   0.746 -0.2042  0.5008  2.5668
  785MPD2     C11625   3.375   2.111  11.216  0.2549 -0.2759  0.4220
  785MPD2    C111626   3.283   2.178  11.132 -0.2064  0.0300  0.3710
  785MPD2    C211627   3.203   2.103  11.051 -0.3304  0.0725  0.5354
  785MPD2    C311628   3.229   1.970  11.033  0.4106 -0.6904  0.1691
  785MPD2    C411629   3.314   1.904  11.123  0.4573  0.6084  0.5485
  785MPD2    C511630   3.387   1.974  11.205  0.1212  0.2455  0.6557
  785MPD2     H11631   3.127   2.144  10.986  0.1490  0.3241  0.1377
  785MPD2    H111632   3.335   1.799  11.114 -1.7137  0.1161  1.2616
  785MPD2    H211633   3.433   2.165  11.291  1.6815 -2.4589  0.8961
  785MPD2    H311634   3.462   1.933  11.271 -0.9996 -1.3175  0.9487
  785MPD2     N11635   3.156   1.902  10.928 -0.0840 -0.1564  0.4516
  785MPD2    H511636   3.094   1.960  10.872 -0.7625 -0.7474  0.5862
  785MPD2    N111637   3.266   2.318  11.129 -0.2431 -0.6542  0.2734
  785MPD2    H711638   3.189   2.359  11.076  1.7675 -0.9462 -2.9073
  786MPD2     C11639   2.157   0.241  15.182  0.4603 -0.3768 -0.6395
  786MPD2    C111640   2.220   0.129  15.227 -0.5567 -0.0603  1.4163
  786MPD2    C211641   2.307   0.143  15.334 -0.5531 -0.6118 -0.2108
  786MPD2    C311642   2.320   0.262  15.402  0.3684  0.4559 -0.1789
  786MPD2    C411643   2.240   0.368  15.359 -0.4383 -0.0104  0.1895
  786MPD2    C511644   2.168   0.360  15.246  0.0359  0.9436 -0.4142
  786MPD2     H11645   2.355   0.057  15.378  0.3537 -0.3157 -0.6233
  786MPD2    H111646   2.224   0.459  15.415  0.1296  1.1890 -1.6369
  786MPD2    H211647   2.092   0.249  15.095  1.3583 -0.2740 -1.3048
  786MPD2    H311648   2.113   0.446  15.209 -0.5281  0.3017 -1.0732
  786MPD2     N11649   2.425   0.292  15.496 -0.2579 -0.0744 -0.1577
  786MPD2    H511650   2.429   0.388  15.527 -0.5059 -1.0832  3.0104
  786MPD2    N111651   2.219   0.005  15.157  0.3610  0.0967 -0.6230
  786MPD2    H711652   2.253   4.658  15.199 -1.5279  0.1652  0.9996
  787MPD2     C11653   2.595   4.308  15.323  0.1915 -0.7530 -0.6363
  787MPD2    C111654   2.567   4.283  15.189  0.3969  0.4876 -0.1612
  787MPD2    C211655   2.647   4.194  15.123 -0.2778 -0.1509 -0.1819
  787MPD2    C311656   2.747   4.128  15.187  0.6544 -0.1168  0.3278
  787MPD2    C411657   2.764   4.151  15.320 -0.4519  0.8458  0.2482
  787MPD2    C511658   2.687   4.239  15.383 -0.0350  0.3784 -0.1775
  787MPD2     H11659   2.639   4.181  15.016  1.7497 -1.3578 -0.1779
  787MPD2    H111660   2.839   4.099  15.380 -0.7292 -0.4295 -0.5072
  787MPD2    H211661   2.533   4.371  15.386  1.1556 -0.0037 -0.4547
  787MPD2    H311662   2.707   4.261  15.488 -1.0292 -0.5235  0.2046
  787MPD2     N11663   2.824   4.035  15.107  0.6528  0.4019  0.7193
  787MPD2    H511664   2.792   4.033  15.011 -0.8384 -0.5367  1.2292
  787MPD2    N111665   2.450   4.336  15.131 -0.8408  0.9458 -0.0435
  787MPD2    H711666   2.398   4.407  15.183 -0.5554  1.0448  0.1081
  788MPD2     C11667   4.027   2.773   1.131  0.2183  0.6289 -0.7367
  788MPD2    C111668   3.960   2.688   1.042 -0.7278  0.0739 -0.1287
  788MPD2    C211669   3.881   2.745   0.947 -0.3648 -0.0565  0.4138
  788MPD2    C311670   3.865   2.883   0.942  0.9243  0.3633  0.5009
  788MPD2    C411671   3.933   2.962   1.032  0.2273 -0.5176 -0.1631
  788MPD2    C511672   4.013   2.905   1.122  0.3896 -0.3652  0.1586
  788MPD2     H11673   3.820   2.685   0.880 -0.9336  2.8141 -1.6153
  788MPD2    H111674   3.918   3.069   1.039  1.9571 -0.2172 -1.0362
  788MPD2    H211675   4.091   2.737   1.211  0.6930 -1.1544 -1.9309
  788MPD2    H311676   4.070   2.967   1.189  0.8381 -0.9228  0.2933
  788MPD2     N11677   3.780   2.947   0.840  0.1028  0.0366  0.6069
  788MPD2    H511678   3.776   3.048   0.847  0.4281 -0.1055  3.0034
  788MPD2    N111679   3.983   2.552   1.027 -0.3346  1.1624 -0.4747
  788MPD2    H711680   3.935   2.504   0.951 -0.8052 -1.5720  1.5400
  789MPD2     C11681   4.174   2.410  16.204  0.3062  0.4457 -0.6289
  789MPD2    C111682   4.071   2.471  16.142  0.2324  0.6441 -0.5719
  789MPD2    C211683   4.004   2.575  16.208  0.1600 -0.1126  0.3669
  789MPD2    C311684   4.056   2.616  16.326  0.0976  0.5180 -0.0796
  789MPD2    C411685   4.154   2.547  16.392  0.2514 -0.2872  0.3868
  789MPD2    C511686   4.217   2.442  16.335 -0.3768 -0.0640 -0.4763
  789MPD2     H11687   3.916   2.620  16.165  2.1077  2.3020 -1.1543
  789MPD2    H111688   4.197   2.581  16.486  0.2617 -3.4880  1.5300
  789MPD2    H211689   4.228   2.325  16.164 -1.5082 -1.2812  0.5957
  789MPD2    H311690   4.291   2.375  16.378 -0.0854  0.5399 -0.0533
  789MPD2     N11691   4.002   2.716  16.397 -0.7076 -0.6917 -0.2036
  789MPD2    H511692   4.053   2.737  16.482  0.0039 -0.4392 -0.6879
  789MPD2    N111693   4.012   2.422  16.022 -0.0807  0.0296  0.2220
  789MPD2    H711694   3.919   2.457  16.001  0.3187  1.6241  1.1189
  790MPD2     C11695   0.581   0.300  13.349  0.2259  0.0393  0.1255
  790MPD2    C111696   0.615   0.177  13.395 -0.3392  0.7047 -0.4286
  790MPD2    C211697   0.590   0.068  13.309 -0.0663  0.0312  0.8269
  790MPD2    C311698   0.522   0.084  13.182  0.5965 -0.2385  0.7287
  790MPD2    C411699   0.493   0.213  13.145  0.1727  0.0598  0.3806
  790MPD2    C511700   0.527   0.326  13.223 -1.0286 -0.2445  0.1961
  790MPD2     H11701   0.623   4.705  13.322 -0.7264 -0.4636 -1.3152
  790MPD2    H111702   0.438   0.222  13.052  0.7852  1.4498  0.1417
  790MPD2    H211703   0.616   0.386  13.405  1.4617 -0.6438  0.4009
  790MPD2    H311704   0.513   0.427  13.187 -1.6641 -0.6870 -0.7933
  790MPD2     N11705   0.501   4.700  13.104 -0.1198  0.0754 -0.2047
  790MPD2    H511706   0.533   4.613  13.146 -0.0328  0.1675 -0.0809
  790MPD2    N111707   0.689   0.169  13.511  0.5534  0.1326 -0.5863
  790MPD2    H711708   0.716   0.256  13.555  0.5927 -0.1589 -0.0324
  791MPD2     C11709   4.627   4.502  12.737  0.2215  0.0821  0.3153
  791MPD2    C111710   4.679   4.404  12.821  0.0053  0.3846  0.3753
  791MPD2    C211711   4.600   4.306  12.877  0.3322  0.4904  0.0084
  791MPD2    C311712   4.469   4.293  12.846 -0.5216 -0.2338  0.1988
  791MPD2    C411713   4.415   4.385  12.756  0.1209  0.2631  0.5212
  791MPD2    C511714   4.491   4.485  12.705  0.7712 -0.9473 -0.3205
  791MPD2     H11715   4.646   4.243  12.953 -1.9652 -0.5637  0.5002
  791MPD2    H111716   4.321   4.362  12.707 -0.8240 -0.0573  2.4959
  791MPD2    H211717   4.677   4.587  12.692  2.7946 -1.2325  0.6842
  791MPD2    H311718   4.445   4.555  12.637 -1.1206 -2.1548 -0.2724
  791MPD2     N11719   4.405   4.180  12.900  0.1482  0.0225  0.6167
  791MPD2    H511720   4.458   4.134  12.973  1.6505  0.8039  0.0302
  791MPD2    N111721   0.076   4.417  12.856  0.0916  0.1134  0.1065
  791MPD2    H711722   0.125   4.500  12.822  0.5293  0.1837  0.9080
  792MPD2     C11723   0.387   0.008  11.800  0.0034  0.6723 -0.0762
  792MPD2    C111724   0.365   4.735  11.664 -0.1463  0.1894 -0.0276
  792MPD2    C211725   0.248   4.669  11.623 -0.0271  0.1683  0.4946
  792MPD2    C311726   0.165   4.602  11.713 -0.2573  0.0184 -0.3306
  792MPD2    C411727   0.192   4.615  11.848  0.7732  0.2202 -0.1540
  792MPD2    C511728   0.297   4.692  11.889 -0.0338  1.3715 -0.2158
  792MPD2     H11729   0.234   4.654  11.516  0.4656 -1.1002  0.6074
  792MPD2    H111730   0.135   4.562  11.924  1.5481 -0.6932 -0.2209
  792MPD2    H211731   0.470   0.065  11.840 -2.2359  2.0050  2.6458
  792MPD2    H311732   0.306   4.706  11.996 -0.8701 -1.6231  0.2685
  792MPD2     N11733   0.067   4.509  11.677  0.5858 -0.0016 -0.2945
  792MPD2    H511734   0.026   4.447  11.747 -1.5598 -2.5834 -3.8384
  792MPD2    N111735   0.457   0.067  11.579 -0.2780 -0.3760 -0.5752
  792MPD2    H711736   0.531   0.111  11.631  0.0448 -0.1385 -1.2360
  793MPD2     C11737   4.484   4.451  10.734 -0.0906 -0.8447 -0.2540
  793MPD2    C111738   4.559   4.346  10.771  0.6834  0.1914 -0.1663
  793MPD2    C211739   4.585   4.330  10.912  0.1480 -0.6650 -0.0529
  793MPD2    C311740   4.533   4.425  11.003 -0.4354  0.1695 -0.0460
  793MPD2    C411741   4.465   4.533  10.957 -0.0422 -0.2709 -0.4731
  793MPD2    C511742   4.441   4.549  10.826  0.7282  0.3125  0.6172
  793MPD2     H11743   4.643   4.248  10.952  0.6177 -0.4349 -0.2685
  793MPD2    H111744   4.425   4.607  11.025  0.4235  0.1540 -0.6590
  793MPD2    H211745   4.453   4.471  10.632  1.0959 -1.3741 -0.7076
  793MPD2    H311746   4.394   4.637  10.785  2.1971  0.1153 -1.5250
  793MPD2     N11747   4.529   4.415  11.138  0.2206 -0.1432  0.4532
  793MPD2    H511748   4.511   4.500  11.191  2.5664 -1.3046  3.1394
  793MPD2    N111749   4.606   4.252  10.669 -0.4059 -0.2526 -0.3684
  793MPD2    H711750   4.576   4.248  10.573 -0.0846 -2.0456 -0.3949
  794MPD2     C11751   4.581   3.555  17.387 -0.0774  0.1922 -0.3088
  794MPD2    C111752   4.666   3.504  17.287 -0.2822  0.2898 -0.0129
  794MPD2    C211753   4.670   3.565  17.165 -0.6942 -0.0448 -0.1640
  794MPD2    C311754   4.594   3.674  17.134  0.2345 -0.3454  0.2664
  794MPD2    C411755   4.515   3.725  17.235  0.0857  1.0669  0.5727
  794MPD2    C511756   4.502   3.668  17.356 -0.4014  0.3301  0.8905
  794MPD2     H11757   4.732   3.523  17.087  0.4321 -0.4846  0.9462
  794MPD2    H111758   4.456   3.810  17.204 -0.6885  0.5193  0.5305
  794MPD2    H211759   4.568   3.500  17.480 -1.4519  2.0320  0.5948
  794MPD2    H311760   4.427   3.698  17.428  0.5520  2.0468  1.1716
  794MPD2     N11761   4.593   3.749  17.020  0.2166  0.0355 -0.3945
  794MPD2    H511762   4.528   3.827  17.017  1.6248  1.2636  0.8139
  794MPD2    N111763   4.733   3.380  17.302 -0.3134 -0.1954  0.1187
  794MPD2    H711764   0.029   3.334  17.219  0.1734 -1.0489  0.7865
  795MPD2     C11765   2.621   1.272  13.807  0.4470  0.1288 -0.1704
  795MPD2    C111766   2.633   1.169  13.715  0.4044 -1.0261 -0.6624
  795MPD2    C211767   2.689   1.049  13.750 -0.3978 -0.9635  0.4352
  795MPD2    C311768   2.738   1.035  13.875  0.0819 -0.0249 -0.4831
  795MPD2    C411769   2.725   1.137  13.968 -0.1970 -0.4564  0.6713
  795MPD2    C511770   2.675   1.256  13.930  0.6300 -0.4899 -0.3551
  795MPD2     H11771   2.695   0.969  13.677 -2.2619 -0.1463 -0.6113
  795MPD2    H111772   2.751   1.123  14.073  0.0458  0.6838  0.7670
  795MPD2    H211773   2.574   1.367  13.786 -1.2295 -0.1783  2.1826
  795MPD2    H311774   2.678   1.332  14.008 -1.7078 -1.1199  0.3507
  795MPD2     N11775   2.824   0.924  13.897 -0.2585 -0.0387 -0.0202
  795MPD2    H511776   2.841   0.866  13.816  2.4127 -0.3025  0.7453
  795MPD2    N111777   2.579   1.181  13.581  0.2190  0.4662  0.5127
  795MPD2    H711778   2.588   1.104  13.515  0.9913  1.6014 -0.7169
  796MPD2     C11779   2.112   2.190  15.827 -0.0330 -0.1950 -0.3205
  796MPD2    C111780   2.163   2.283  15.923 -0.6155 -0.0025  0.7583
  796MPD2    C211781   2.184   2.413  15.876  1.0231  0.1659  0.3414
  796MPD2    C311782   2.152   2.453  15.746  0.0348 -0.1755 -0.0930
  796MPD2    C411783   2.095   2.364  15.659  0.3363  0.0691 -0.6973
  796MPD2    C511784   2.091   2.230  15.696  0.2638 -0.4427 -0.3569
  796MPD2     H11785   2.220   2.492  15.941 -1.2160  2.0023 -0.6478
  796MPD2    H111786   2.056   2.386  15.560 -0.2094  1.6288 -0.1409
  796MPD2    H211787   2.083   2.091  15.859 -0.4717  0.6183  1.8322
  796MPD2    H311788   2.048   2.152  15.634  0.1352 -0.1527 -0.6310
  796MPD2     N11789   2.187   2.585  15.708  0.6053  0.3379 -0.4070
  796MPD2    H511790   2.227   2.644  15.780  0.4090 -0.2148  0.1450
  796MPD2    N111791   2.183   2.246  16.060  0.0631 -0.2080  0.5393
  796MPD2    H711792   2.153   2.151  16.082  0.2692 -0.3843  0.0553
  797MPD2     C11793   3.223   1.562  16.947 -0.1685  0.3197 -0.5392
  797MPD2    C111794   3.337   1.636  16.980  0.2002  0.8620 -1.2601
  797MPD2    C211795   3.340   1.775  16.963  0.6512  0.2893  0.1797
  797MPD2    C311796   3.224   1.844  16.920  0.2918 -0.4713  0.0957
  797MPD2    C411797   3.113   1.778  16.878  0.8241  0.0234 -0.5135
  797MPD2    C511798   3.116   1.641  16.899  1.3831 -0.3977  0.1616
  797MPD2     H11799   3.438   1.813  16.990  0.9874  0.6293 -1.5335
  797MPD2    H111800   3.022   1.829  16.847  1.6148  0.3831 -2.2565
  797MPD2    H211801   3.222   1.454  16.942 -2.5937  0.2450  1.6066
  797MPD2    H311802   3.030   1.585  16.863  0.1619  1.4335  0.2553
  797MPD2     N11803   3.235   1.984  16.896  0.1357 -0.6565  0.3760
  797MPD2    H511804   3.152   2.016  16.848  0.1500 -0.1704  0.6745
  797MPD2    N111805   3.460   1.584  17.016 -0.2138 -0.1835  0.1737
  797MPD2    H711806   3.526   1.651  17.054 -2.8358  0.7476  3.0747
  798MPD2     C11807   3.921   2.115  16.807  0.7074  0.1207 -0.1336
  798MPD2    C111808   3.795   2.074  16.861 -0.2278  0.2622 -0.4468
  798MPD2    C211809   3.787   1.959  16.932 -0.0047 -0.5109 -0.0776
  798MPD2    C311810   3.887   1.865  16.931  0.1000  0.0145 -0.1904
  798MPD2    C411811   4.010   1.895  16.871  0.8007  0.4487 -0.3249
  798MPD2    C511812   4.020   2.018  16.807  0.6093  0.5420 -0.1281
  798MPD2     H11813   3.689   1.947  16.976 -0.0037  0.9642  0.3266
  798MPD2    H111814   4.100   1.835  16.873 -1.4679 -2.9979 -0.8490
  798MPD2    H211815   3.943   2.211  16.763  4.5820  0.8619  3.4592
  798MPD2    H311816   4.117   2.043  16.766  0.2492 -0.9328 -1.8951
  798MPD2     N11817   3.857   1.744  16.997 -0.4726 -0.5071  0.5385
  798MPD2    H511818   3.767   1.731  17.042 -0.0068  0.0415  1.6186
  798MPD2    N111819   3.679   2.155  16.848  0.1783 -0.3907 -0.0247
  798MPD2    H711820   3.593   2.119  16.886  0.6369 -1.0371  0.4120
  799MPD2     C11821   2.208   3.572  15.041  0.9233  0.4351 -0.1406
  799MPD2    C111822   2.122   3.528  14.942 -0.1436  0.2171  0.1987
  799MPD2    C211823   2.036   3.621  14.885 -0.2247 -1.0018  0.1239
  799MPD2    C311824   2.051   3.757  14.907  0.3423  0.0369  0.1762
  799MPD2    C411825   2.138   3.799  15.005  0.6126  0.4459  0.0550
  799MPD2    C511826   2.216   3.706  15.073  0.7611  0.2933  0.1776
  799MPD2     H11827   1.981   3.591  14.796 -1.3911  1.1317  0.1311
  799MPD2    H111828   2.156   3.903  15.028 -0.4749  0.3189  1.4816
  799MPD2    H211829   2.276   3.502  15.088  1.5072 -0.2303 -1.9885
  799MPD2    H311830   2.295   3.738  15.140  1.2610 -1.9797  0.6947
  799MPD2     N11831   1.984   3.853  14.828 -0.5709  0.2030  0.2826
  799MPD2    H511832   2.021   3.948  14.833 -0.3153  0.1655 -0.8227
  799MPD2    N111833   2.120   3.393  14.890 -0.1005  1.0682  0.3147
  799MPD2    H711834   2.069   3.387  14.802  1.7480 -0.3749 -0.6376
  800MPD2     C11835   2.581   0.342  14.822  0.3877 -0.9314  0.4287
  800MPD2    C111836   2.678   0.301  14.733 -0.5708  0.0490  1.0481
  800MPD2    C211837   2.653   0.184  14.658  0.2951 -0.0062 -0.0206
  800MPD2    C311838   2.527   0.134  14.650  0.6966 -0.2108  0.4579
  800MPD2    C411839   2.423   0.196  14.719  0.0294  0.2426  0.1254
  800MPD2    C511840   2.456   0.286  14.818  0.4293 -1.4177 -0.2832
  800MPD2     H11841   2.731   0.142  14.596 -0.4238 -0.3393 -0.7049
  800MPD2    H111842   2.321   0.162  14.710  0.4124 -0.5449 -1.2167
  800MPD2    H211843   2.598   0.428  14.886 -2.8496 -0.6389  0.8886
  800MPD2    H311844   2.378   0.332  14.876 -0.0304 -1.4137 -0.9078
  800MPD2     N11845   2.507   0.028  14.563  0.0354  0.2244  0.7356
  800MPD2    H511846   2.594   4.739  14.519  0.3305  2.3785 -0.1010
  800MPD2    N111847   2.809   0.363  14.738  0.5708 -0.3962 -0.7962
  800MPD2    H711848   2.811   0.437  14.807 -0.9209 -1.2720  0.2002
  801MPD2     C11849   3.044   1.072  14.775 -0.4816  0.6392 -0.1163
  801MPD2    C111850   2.960   0.965  14.745 -0.5063 -0.4840 -0.4622
  801MPD2    C211851   2.823   0.994  14.729 -0.3452 -0.6237  0.1091
  801MPD2    C311852   2.770   1.127  14.748  0.1133 -0.5395  0.3678
  801MPD2    C411853   2.860   1.228  14.772  0.1048 -0.4544  0.2037
  801MPD2    C511854   2.996   1.200  14.778 -0.0699 -0.6175  0.7642
  801MPD2     H11855   2.762   0.908  14.704 -1.6805  0.6114 -0.8643
  801MPD2    H111856   2.829   1.331  14.783 -0.8753 -0.7559  0.3435
  801MPD2    H211857   3.152   1.059  14.783 -0.6877 -0.2663  1.1514
  801MPD2    H311858   3.075   1.272  14.794 -0.7128  0.2501  0.0305
  801MPD2     N11859   2.636   1.163  14.753 -0.3236 -0.3162 -0.1551
  801MPD2    H511860   2.613   1.250  14.799  1.5667  0.1959 -0.1737
  801MPD2    N111861   2.990   0.831  14.758 -0.3870  0.3480  0.3628
  801MPD2    H711862   2.913   0.765  14.749  0.9724 -1.1490 -0.2755
  802MPD2     C11863   1.739   1.113  17.422 -0.4939  0.2424 -0.6701
  802MPD2    C111864   1.808   1.040  17.520  0.1982  0.2543  0.3048
  802MPD2    C211865   1.824   0.907  17.509  0.2985 -0.3137 -0.3065
  802MPD2    C311866   1.772   0.841  17.402 -0.1015 -0.2401  0.0301
  802MPD2    C411867   1.717   0.909  17.294  0.8513 -0.7129  0.6000
  802MPD2    C511868   1.707   1.045  17.302  0.5004 -0.1629  0.0543
  802MPD2     H11869   1.881   0.850  17.581  0.6886 -0.3606 -0.6519
  802MPD2    H111870   1.693   0.866  17.197 -1.6107 -0.9175  1.3035
  802MPD2    H211871   1.725   1.220  17.414  0.3245  0.3825 -0.2145
  802MPD2    H311872   1.658   1.110  17.231  0.0016  0.0776  0.6123
  802MPD2     N11873   1.788   0.702  17.403  0.0860 -0.2669 -0.3365
  802MPD2    H511874   1.854   0.655  17.465  2.0751  2.6083 -0.2714
  802MPD2    N111875   1.857   1.100  17.640  0.5389 -0.0219  0.0708
  802MPD2    H711876   1.897   1.044  17.715 -0.4733 -0.9529 -0.0837
  803MPD2     C11877   3.418   4.384  12.283 -0.2758  0.0559  0.7295
  803MPD2    C111878   3.496   4.347  12.386 -1.4395 -0.2712  0.4772
  803MPD2    C211879   3.440   4.257  12.484  0.8460  0.2936 -0.0356
  803MPD2    C311880   3.307   4.226  12.477  0.3652  0.2562  0.0754
  803MPD2    C411881   3.235   4.278  12.377  0.4506 -0.1867 -1.0024
  803MPD2    C511882   3.293   4.350  12.280 -0.2564  0.2950 -0.4030
  803MPD2     H11883   3.496   4.214  12.567  3.3081  0.0141 -1.8465
  803MPD2    H111884   3.130   4.256  12.362 -0.5975  2.9626  1.7951
  803MPD2    H211885   3.452   4.435  12.193 -0.6785 -1.4817 -0.3014
  803MPD2    H311886   3.228   4.381  12.200  0.2911  2.5427  0.0334
  803MPD2     N11887   3.243   4.142  12.568 -0.8305 -0.2956 -1.0512
  803MPD2    H511888   3.144   4.125  12.557 -0.5288 -1.2402 -2.2888
  803MPD2    N111889   3.626   4.396  12.399 -0.4529  0.2390  0.1837
  803MPD2    H711890   3.679   4.373  12.483 -3.3204 -1.3453  1.5509
  804MPD2     C11891   2.913   0.402  16.997 -0.2893 -0.3858 -0.7673
  804MPD2    C111892   2.811   0.410  17.093 -0.4225  0.5996 -0.1072
  804MPD2    C211893   2.787   0.530  17.166  0.4647  0.0944  0.2295
  804MPD2    C311894   2.859   0.644  17.139  0.2380 -0.3193 -0.5434
  804MPD2    C411895   2.962   0.636  17.045  0.4090  0.5044  0.3322
  804MPD2    C511896   2.981   0.521  16.970  0.0311  0.0212  0.1355
  804MPD2     H11897   2.709   0.530  17.242  0.3097 -1.8144  0.0544
  804MPD2    H111898   3.018   0.724  17.016 -0.2293 -0.0304 -2.5456
  804MPD2    H211899   2.939   0.316  16.937  1.7329  0.0849 -0.5519
  804MPD2    H311900   3.046   0.531  16.883 -1.0013 -0.4851 -0.6952
  804MPD2     N11901   2.823   0.768  17.211 -0.4239  0.0715 -0.5532
  804MPD2    H511902   2.749   0.761  17.279 -0.3749  1.3406 -0.3752
  804MPD2    N111903   2.738   0.289  17.134 -0.6725  0.2301  0.0809
  804MPD2    H711904   2.653   0.313  17.185 -0.3803 -0.0683  0.7160
  805MPD2     C11905   1.748   4.062  15.609  0.2575 -0.5830 -0.0614
  805MPD2    C111906   1.838   4.024  15.518 -0.0790  0.5644 -0.2312
  805MPD2    C211907   1.959   3.979  15.564  0.1468 -0.4668 -0.1588
  805MPD2    C311908   1.971   3.936  15.695  0.0035  0.4483 -0.5812
  805MPD2    C411909   1.876   3.954  15.787  0.2724  0.1771 -0.0870
  805MPD2    C511910   1.763   4.021  15.740 -0.3588 -0.5582  0.1874
  805MPD2     H11911   2.032   3.963  15.485  0.5951 -2.9600  0.7878
  805MPD2    H111912   1.874   3.921  15.890  0.7846 -0.0833 -0.1598
  805MPD2    H211913   1.654   4.110  15.584  0.0836 -1.9215 -2.0147
  805MPD2    H311914   1.682   4.036  15.810 -0.4548 -0.0966 -0.0223
  805MPD2     N11915   2.093   3.867  15.716 -0.5888  0.1341 -0.0754
  805MPD2    H511916   2.148   3.857  15.632  0.0945  0.6046  0.3186
  805MPD2    N111917   1.815   4.028  15.380  0.4074  0.2621  0.1547
  805MPD2    H711918   1.885   3.992  15.316 -0.3999 -2.2184  0.6568
  806MPD2     C11919   2.672   3.287   0.943 -0.2231  0.0824 -0.4817
  806MPD2    C111920   2.755   3.360   0.862 -1.1327 -0.0422  0.4874
  806MPD2    C211921   2.777   3.320   0.728 -0.4795 -0.4021 -1.0146
  806MPD2    C311922   2.721   3.205   0.673  0.4689  0.0772 -0.1708
  806MPD2    C411923   2.641   3.134   0.758 -0.6356 -0.2946  0.0039
  806MPD2    C511924   2.619   3.174   0.888  0.2103 -0.1855  0.4423
  806MPD2     H11925   2.843   3.376   0.662 -0.2707 -1.3442 -1.5951
  806MPD2    H111926   2.587   3.047   0.720  1.4028 -1.4719 -0.1703
  806MPD2    H211927   2.642   3.315   1.044  1.4814 -1.3895  0.4358
  806MPD2    H311928   2.544   3.120   0.944 -0.3044 -2.4208 -2.4077
  806MPD2     N11929   2.746   3.172   0.541 -0.0917  0.3747  0.1097
  806MPD2    H511930   2.807   3.228   0.482 -0.1958  0.5963  0.2152
  806MPD2    N111931   2.806   3.480   0.916  0.0540 -0.3131 -0.1384
  806MPD2    H711932   2.783   3.495   1.013 -0.3083  0.1656 -0.2974
  807MPD2     C11933   2.644   4.008   1.389 -0.3491  0.8088  0.4815
  807MPD2    C111934   2.615   3.883   1.336 -0.2930  0.4228  0.1815
  807MPD2    C211935   2.492   3.821   1.356 -0.1416  0.3384  0.1580
  807MPD2    C311936   2.391   3.879   1.421  0.5982 -1.0866  0.4328
  807MPD2    C411937   2.420   3.998   1.483 -0.1392  0.4509 -0.2278
  807MPD2    C511938   2.541   4.064   1.466 -0.2467 -0.1453  0.1522
  807MPD2     H11939   2.470   3.730   1.302  0.0404 -0.1588  0.9208
  807MPD2    H111940   2.351   4.051   1.548 -0.5657 -0.2286 -0.1359
  807MPD2    H211941   2.729   4.069   1.362 -0.5809  0.7503 -0.3884
  807MPD2    H311942   2.548   4.164   1.508  2.7624 -0.3561  0.1604
  807MPD2     N11943   2.260   3.813   1.435 -0.1524 -0.1722 -0.0780
  807MPD2    H511944   2.249   3.720   1.397  1.1652 -0.7223  0.9154
  807MPD2    N111945   2.704   3.808   1.259 -0.7123  0.0869  0.5737
  807MPD2    H711946   2.675   3.717   1.225 -1.0347  0.2586  0.3867
  808MPD2     C11947   2.822   0.132  10.368  0.5888 -0.1804  0.2247
  808MPD2    C111948   2.719   0.197  10.430  0.8032 -0.6200  0.1701
  808MPD2    C211949   2.681   0.322  10.384  0.0799 -0.5857  0.4264
  808MPD2    C311950   2.756   0.383  10.284 -0.8651 -0.8409 -0.3080
  808MPD2    C411951   2.847   0.306  10.213  0.2420  0.0989 -0.9100
  808MPD2    C511952   2.880   0.185  10.258  0.1690  0.1941 -0.0233
  808MPD2     H11953   2.593   0.369  10.426 -1.2703 -2.2732 -0.4949
  808MPD2    H111954   2.922   0.342  10.143 -0.3737  2.2267 -0.4531
  808MPD2    H211955   2.853   0.038  10.412 -0.5573 -1.5823 -1.9413
  808MPD2    H311956   2.958   0.132  10.206  1.2521 -0.9430  2.7681
  808MPD2     N11957   2.751   0.518  10.253  0.0583  0.2682 -0.5422
  808MPD2    H511958   2.820   0.547  10.184 -0.7862  1.5352 -0.8686
  808MPD2    N111959   2.646   0.131  10.532 -0.5385  0.4289 -0.2018
  808MPD2    H711960   2.563   0.180  10.563 -0.0370  1.1407  0.0282
  809MPD2     C11961   2.953   0.861   9.532  0.3876 -0.2810 -0.8853
  809MPD2    C111962   3.037   0.918   9.622  0.3908  0.0277 -0.6413
  809MPD2    C211963   2.999   0.909   9.750 -0.2756 -0.4559 -0.0656
  809MPD2    C311964   2.877   0.855   9.794  0.2348 -0.3803 -0.0927
  809MPD2    C411965   2.792   0.799   9.701  0.7165 -0.8184 -0.8599
  809MPD2    C511966   2.834   0.794   9.573 -1.0369  0.8139  0.4834
  809MPD2     H11967   3.069   0.945   9.825 -1.2082  0.4382  0.3731
  809MPD2    H111968   2.692   0.766   9.729  0.7262 -1.2072 -1.2825
  809MPD2    H211969   2.967   0.855   9.424 -0.9846 -3.0646 -0.9073
  809MPD2    H311970   2.774   0.746   9.497 -2.1442  1.3041  1.0565
  809MPD2     N11971   2.823   0.859   9.924 -0.6068  0.0819  0.0102
  809MPD2    H511972   2.731   0.820   9.943 -0.1036 -0.4033  1.5373
  809MPD2    N111973   3.167   0.971   9.599 -0.2076  0.1876 -0.0227
  809MPD2    H711974   3.221   1.000   9.680 -2.1916 -0.7265  1.6101
  810MPD2     C11975   1.984   4.189  10.976 -0.6712  0.3331  0.2710
  810MPD2    C111976   1.974   4.292  10.887 -0.2537  0.8812  0.0722
  810MPD2    C211977   2.000   4.416  10.936 -0.4049 -0.3032  0.7394
  810MPD2    C311978   2.062   4.440  11.052  0.4802  0.0947 -0.2795
  810MPD2    C411979   2.081   4.336  11.131  0.2025  0.1035  0.2885
  810MPD2    C511980   2.033   4.212  11.100 -0.1663 -0.4767  0.9707
  810MPD2     H11981   1.986   4.504  10.874  0.1379 -0.6178  0.1739
  810MPD2    H111982   2.110   4.346  11.235 -1.9218 -0.8051  0.9920
  810MPD2    H211983   1.961   4.086  10.951 -1.4173  0.5483  0.0760
  810MPD2    H311984   2.044   4.143  11.183 -0.1873 -1.5359  0.0918
  810MPD2     N11985   2.079   4.576  11.101 -0.2021  0.0879  0.3592
  810MPD2    H511986   2.123   4.596  11.190 -0.9224  0.5042  0.6282
  810MPD2    N111987   1.928   4.266  10.755 -0.2888 -0.4881 -0.0301
  810MPD2    H711988   1.893   4.176  10.721  1.4280 -1.7580  1.5377
  811MPD2     C11989   1.416   4.696  10.186 -0.7078  0.8939  0.3809
  811MPD2    C111990   1.551   4.695  10.232 -0.4306 -0.3515  0.6810
  811MPD2    C211991   1.623   0.078  10.226  0.6886  0.2575 -0.5870
  811MPD2    C311992   1.551   0.192  10.185  0.4353 -0.4947  0.1389
  811MPD2    C411993   1.414   0.192  10.160  0.1557  0.7254  0.5107
  811MPD2    C511994   1.352   0.070  10.150  0.2078  0.6384 -0.2807
  811MPD2     H11995   1.731   0.081  10.241  0.5134  0.1788  0.6804
  811MPD2    H111996   1.360   0.278  10.122  1.0922  0.1928 -2.0419
  811MPD2    H211997   1.364   4.601  10.187  0.9288 -0.0264 -1.8199
  811MPD2    H311998   1.246   0.071  10.128  0.3989  2.5342 -1.1800
  811MPD2     N11999   1.626   0.309  10.195 -0.0482 -0.3948 -0.0411
  811MPD2    H512000   1.724   0.298  10.220 -0.1720 -0.8347  0.2443
  811MPD2    N112001   1.602   4.575  10.275 -0.1517 -0.4077 -0.0404
  811MPD2    H712002   1.535   4.500  10.296 -0.3847  0.2365  1.5420
  812MPD2     C12003   0.939   4.165  12.447 -0.2085  0.0592  0.0266
  812MPD2    C112004   1.021   4.248  12.516  0.1813  0.0411  0.2341
  812MPD2    C212005   1.070   4.217  12.643  0.1037 -0.1655  0.1362
  812MPD2    C312006   1.045   4.091  12.703  0.3347 -0.6160  0.9214
  812MPD2    C412007   0.970   4.002  12.629 -0.7198  0.2084 -0.1553
  812MPD2    C512008   0.914   4.041  12.506 -0.2480  0.2817 -0.2466
  812MPD2     H12009   1.125   4.292  12.698 -0.0389  0.4693 -0.5857
  812MPD2    H112010   0.944   3.901  12.658 -1.5467  0.3542 -0.3716
  812MPD2    H212011   0.879   4.189  12.360 -0.2596  1.4924  0.4581
  812MPD2    H312012   0.855   3.971  12.448  2.6468 -1.9013 -0.5534
  812MPD2     N12013   1.110   4.064  12.822 -0.1272  0.2464  0.5315
  812MPD2    H512014   1.176   4.128  12.866  1.9467 -0.4376 -1.6026
  812MPD2    N112015   1.028   4.380  12.465 -0.5655  0.0462 -0.1205
  812MPD2    H712016   0.992   4.399  12.372 -0.4029 -0.9857 -0.3872
  813MPD2     C12017   0.172   1.254  13.053  0.4315  0.2150  0.7482
  813MPD2    C112018   0.237   1.344  13.124 -0.3577  0.1101  0.1880
  813MPD2    C212019   0.229   1.355  13.259  0.5815  0.7434 -0.5474
  813MPD2    C312020   0.155   1.264  13.334  0.2883 -0.8267 -0.5072
  813MPD2    C412021   0.089   1.172  13.258 -0.0476  0.1649  0.5098
  813MPD2    C512022   0.095   1.168  13.120 -0.3317  0.0620 -0.5055
  813MPD2     H12023   0.285   1.427  13.317  2.1258 -0.9589  0.0777
  813MPD2    H112024   0.027   1.093  13.300 -1.3022  0.2666 -1.1409
  813MPD2    H212025   0.159   1.250  12.945  3.0895 -2.1923  0.5396
  813MPD2    H312026   0.044   1.092  13.063 -0.6340  1.2549 -1.8334
  813MPD2     N12027   0.142   1.276  13.471 -0.0518  0.0348 -0.4445
  813MPD2    H512028   0.201   1.337  13.528  2.6287 -1.4731 -1.5797
  813MPD2    N112029   0.313   1.443  13.058 -0.4786 -0.1234  0.0858
  813MPD2    H712030   0.355   1.513  13.118  1.3468 -2.6605  1.7600
  814MPD2     C12031   0.822   2.342  12.507  0.3537 -0.3110 -0.0078
  814MPD2    C112032   0.792   2.472  12.471  0.2757 -0.9415 -0.7098
  814MPD2    C212033   0.867   2.578  12.522 -0.8946  0.2003  0.0790
  814MPD2    C312034   0.968   2.551  12.609 -0.1493  0.2643  0.2057
  814MPD2    C412035   0.999   2.423  12.640  1.1172 -0.2732 -0.6773
  814MPD2    C512036   0.930   2.317  12.588  0.2034  0.1188 -0.4662
  814MPD2     H12037   0.855   2.679  12.485  0.3394 -0.3262 -1.7198
  814MPD2    H112038   1.076   2.401  12.713  1.1109  0.4169 -0.4601
  814MPD2    H212039   0.762   2.264  12.462  0.9257 -2.3058  2.6843
  814MPD2    H312040   0.947   2.216  12.622  2.7247  0.9635  0.7685
  814MPD2     N12041   1.042   2.659  12.660  0.8263  0.0890 -0.4158
  814MPD2    H512042   1.115   2.634  12.727  1.4117 -0.2594 -1.1909
  814MPD2    N112043   0.698   2.506  12.370 -0.5354 -0.1982  0.1839
  814MPD2    H712044   0.682   2.603  12.347 -1.0600 -0.3652 -0.1492
  815MPD2     C12045   1.359   1.383  12.034  0.1585 -0.7002 -0.0711
  815MPD2    C112046   1.364   1.246  12.020 -0.4004  0.0869 -0.2209
  815MPD2    C212047   1.311   1.169  12.122 -0.0599 -0.4951 -0.3581
  815MPD2    C312048   1.233   1.221  12.226  0.2902 -0.5055 -0.1370
  815MPD2    C412049   1.218   1.359  12.229  1.0639 -0.1774  0.4537
  815MPD2    C512050   1.282   1.436  12.137 -0.1042 -0.0662  0.0844
  815MPD2     H12051   1.330   1.062  12.113 -1.8134 -1.0142  2.1925
  815MPD2    H112052   1.156   1.414  12.300  0.3176  0.1189 -0.4229
  815MPD2    H212053   1.408   1.441  11.956  0.2566  0.9844  1.2393
  815MPD2    H312054   1.269   1.543  12.129  1.4025  0.0908 -0.2623
  815MPD2     N12055   1.174   1.133  12.321  0.2087 -0.2732  0.1240
  815MPD2    H512056   1.175   1.034  12.300  0.0303 -0.9066  3.1804
  815MPD2    N112057   1.462   1.193  11.931 -0.1460  0.2827 -0.2954
  815MPD2    H712058   1.507   1.261  11.872 -0.0354 -0.0862 -0.6347
  816MPD2     C12059   1.490   0.186  17.188  0.4197 -0.8017  0.5322
  816MPD2    C112060   1.459   0.203  17.057 -0.1324 -0.1414  0.0105
  816MPD2    C212061   1.533   0.126  16.970 -0.0145 -0.1187 -0.6035
  816MPD2    C312062   1.651   0.063  17.001 -0.9098  0.3518  0.5042
  816MPD2    C412063   1.685   0.053  17.136 -0.3974 -0.1811 -0.8019
  816MPD2    C512064   1.603   0.119  17.224  0.3273 -1.0409  0.5157
  816MPD2     H12065   1.512   0.128  16.863  1.9056 -1.8959 -1.0199
  816MPD2    H112066   1.779   0.018  17.178  0.9004  2.4830 -1.4708
  816MPD2    H212067   1.436   0.238  17.267 -1.6138 -1.2931 -0.5371
  816MPD2    H312068   1.643   0.119  17.324  1.0258 -2.5827  0.2389
  816MPD2     N12069   1.735   0.029  16.888 -0.1253  0.1887 -0.2197
  816MPD2    H512070   1.703   0.050  16.794 -0.1734  0.3807 -0.1601
  816MPD2    N112071   1.350   0.283  17.026 -0.0160 -0.0741  0.3889
  816MPD2    H712072   1.305   0.332  17.102 -1.5294  0.0041 -0.5592
  817MPD2     C12073   0.920   2.359   9.789 -0.0281 -0.1462 -0.6404
  817MPD2    C112074   0.849   2.245   9.746 -0.3366  0.5453 -0.2701
  817MPD2    C212075   0.734   2.259   9.674 -0.5876  1.1268 -0.0997
  817MPD2    C312076   0.677   2.379   9.646 -0.3520  0.0471 -0.3321
  817MPD2    C412077   0.737   2.492   9.701 -0.0529 -0.2108 -0.0791
  817MPD2    C512078   0.858   2.476   9.766 -0.6051  0.2420  0.3202
  817MPD2     H12079   0.678   2.170   9.646  0.6702  1.0180 -2.2677
  817MPD2    H112080   0.695   2.590   9.681  1.0726  0.0132 -1.3822
  817MPD2    H212081   1.020   2.351   9.830  0.1469  2.1704 -0.6469
  817MPD2    H312082   0.912   2.568   9.788  1.8975 -0.7354 -1.7572
  817MPD2     N12083   0.560   2.378   9.563  0.0609  0.4591 -0.3520
  817MPD2    H512084   0.547   2.291   9.513 -2.1076  0.4901  0.1116
  817MPD2    N112085   0.885   2.113   9.769  0.9216 -0.3175  0.2707
  817MPD2    H712086   0.837   2.048   9.708  1.5355 -2.8643  2.5153
  818MPD2     C12087   4.616   2.127  10.151  0.1079  0.3042 -0.0394
  818MPD2    C112088   4.579   2.033  10.246 -0.5496  0.5292  0.6948
  818MPD2    C212089   4.596   1.898  10.210 -0.0056  0.0073  0.3389
  818MPD2    C312090   4.628   1.866  10.074  0.6267 -0.7794  0.2327
  818MPD2    C412091   4.663   1.962   9.987 -0.0724 -0.2697 -0.2109
  818MPD2    C512092   4.656   2.093  10.024 -0.7133 -0.5064 -0.6105
  818MPD2     H12093   4.563   1.825  10.282 -0.1331  0.4561  0.7345
  818MPD2    H112094   4.697   1.943   9.886  0.7546  0.9322 -0.1578
  818MPD2    H212095   4.610   2.232  10.178  0.9893  0.1332  0.8273
  818MPD2    H312096   4.673   2.169   9.948  0.8115  0.7057  0.9454
  818MPD2     N12097   4.614   1.733  10.018 -0.5156 -0.6145  0.2894
  818MPD2    H512098   4.613   1.717   9.917 -2.0116 -4.9829  0.9901
  818MPD2    N112099   4.515   2.062  10.372 -0.0216 -0.5399 -0.0121
  818MPD2    H712100   4.499   1.984  10.435 -1.9797 -0.9028 -0.9662
  819MPD2     C12101   2.482   3.577  15.651 -0.0454 -0.0085  0.5134
  819MPD2    C112102   2.468   3.440  15.679 -0.2288  0.6146  0.6441
  819MPD2    C212103   2.554   3.395  15.768 -0.1298  0.5960 -0.6524
  819MPD2    C312104   2.647   3.478  15.827 -0.9255 -0.0958  0.1714
  819MPD2    C412105   2.658   3.613  15.790  0.2240 -0.4217 -0.0763
  819MPD2    C512106   2.577   3.660  15.701 -0.2080  0.5265  0.1088
  819MPD2     H12107   2.541   3.293  15.804 -0.3027  0.8504  0.0124
  819MPD2    H112108   2.735   3.683  15.820  1.0276 -1.2886 -0.0829
  819MPD2    H212109   2.410   3.618  15.582 -0.6237 -2.4694 -0.3030
  819MPD2    H312110   2.590   3.764  15.672  0.0940  0.2214 -0.8444
  819MPD2     N12111   2.742   3.420  15.919 -0.9199  0.4692  0.3811
  819MPD2    H512112   2.725   3.324  15.946 -0.8359 -0.4138 -2.6997
  819MPD2    N112113   2.373   3.364  15.607 -0.0693 -0.0811 -0.1770
  819MPD2    H712114   2.329   3.417  15.533  0.4940 -1.4414 -1.4921
  820MPD2     C12115   1.671   3.401  14.933 -0.2651  0.5007 -0.3112
  820MPD2    C112116   1.740   3.489  15.009 -0.0632 -0.1738 -0.9938
  820MPD2    C212117   1.831   3.433  15.098  0.2819  0.8571  0.6996
  820MPD2    C312118   1.832   3.296  15.118 -0.3525  0.4650 -0.3457
  820MPD2    C412119   1.747   3.211  15.050  0.3758 -0.1870 -0.5804
  820MPD2    C512120   1.675   3.265  14.953 -0.3790 -0.0632 -0.1492
  820MPD2     H12121   1.881   3.507  15.159 -1.4600  1.9050  0.8521
  820MPD2    H112122   1.737   3.104  15.065  0.5094 -0.3222 -1.4805
  820MPD2    H212123   1.595   3.437  14.864  0.1758  0.5284 -0.7754
  820MPD2    H312124   1.610   3.202  14.893 -1.3627 -0.5999  1.4568
  820MPD2     N12125   1.928   3.234  15.204 -0.8625 -0.1217 -0.5852
  820MPD2    H512126   1.923   3.133  15.210  1.9549 -0.3564 -1.9759
  820MPD2    N112127   1.721   3.631  14.983 -0.5842  0.2352 -0.0083
  820MPD2    H712128   1.675   3.653  14.895 -1.4934  2.1184  0.9217
  821MPD2     C12129   2.371   0.239  13.910  0.8060 -0.4152  0.3715
  821MPD2    C112130   2.463   0.137  13.923 -0.6554 -0.2996  0.0849
  821MPD2    C212131   2.581   0.154  13.866  0.1416 -0.1972 -0.7179
  821MPD2    C312132   2.632   0.274  13.811  0.0732 -0.4395 -0.2090
  821MPD2    C412133   2.531   0.371  13.797 -0.2324  0.1153 -0.1033
  821MPD2    C512134   2.405   0.359  13.850 -0.3125  0.2837 -0.4493
  821MPD2     H12135   2.651   0.072  13.875 -0.1226 -0.0811  2.3973
  821MPD2    H112136   2.561   0.465  13.752 -2.2852  0.5636 -0.5201
  821MPD2    H212137   2.274   0.231  13.956  1.1631 -0.3894  1.1384
  821MPD2    H312138   2.331   0.438  13.840  0.3928  0.9203 -0.6939
  821MPD2     N12139   2.763   0.300  13.770  0.2251  0.4142 -0.1512
  821MPD2    H512140   2.776   0.393  13.730  3.1622  0.2435  0.3867
  821MPD2    N112141   2.439   0.015  13.985 -0.5711  0.4852  0.2690
  821MPD2    H712142   2.503   4.678  13.964 -0.6535 -0.0334  1.9253
  822MPD2     C12143   3.659   0.176  15.868  0.2312 -0.3718  0.3440
  822MPD2    C112144   3.595   0.123  15.979 -0.7701 -0.0284  0.1635
  822MPD2    C212145   3.463   0.166  16.003 -0.6285  0.5710  0.6274
  822MPD2    C312146   3.414   0.277  15.935 -0.7219 -0.4201 -0.3758
  822MPD2    C412147   3.485   0.329  15.832 -1.2428 -1.5653 -0.4628
  822MPD2    C512148   3.603   0.276  15.798 -0.5663  0.2228  0.6542
  822MPD2     H12149   3.402   0.131  16.085 -1.1986 -1.3151 -0.6037
  822MPD2    H112150   3.449   0.411  15.773 -1.3495 -1.5436 -0.3682
  822MPD2    H212151   3.763   0.149  15.851  0.0701 -0.3751 -0.6130
  822MPD2    H312152   3.661   0.312  15.714 -0.9641  2.8165  1.4647
  822MPD2     N12153   3.297   0.339  15.988 -0.5487  0.2952  0.3171
  822MPD2    H512154   3.239   0.281  16.048  1.3952 -0.4936  1.4133
  822MPD2    N112155   3.655   0.026  16.068 -0.8175 -0.1747 -0.5213
  822MPD2    H712156   3.594   4.738  16.145  1.3030 -2.6715  0.2449
  823MPD2     C12157   2.752   0.381  16.599  0.4708  0.2627 -0.1586
  823MPD2    C112158   2.863   0.333  16.529  0.0090 -0.1009  0.1111
  823MPD2    C212159   2.930   0.221  16.573 -0.2437 -0.5659  0.4225
  823MPD2    C312160   2.891   0.168  16.692 -0.3143  0.0961 -0.4836
  823MPD2    C412161   2.776   0.207  16.751  0.0908  0.1965  0.0512
  823MPD2    C512162   2.707   0.315  16.708  0.4608  0.1932 -0.3322
  823MPD2     H12163   3.008   0.180  16.511 -0.3057  0.7254 -0.4961
  823MPD2    H112164   2.747   0.171  16.849 -0.1585 -0.1787 -0.1618
  823MPD2    H212165   2.701   0.471  16.568 -0.8791 -0.4928 -0.1083
  823MPD2    H312166   2.621   0.353  16.761 -0.2346 -0.2959 -1.0940
  823MPD2     N12167   2.971   0.071  16.762  0.1581  0.0081 -0.7167
  823MPD2    H512168   2.914   0.033  16.837  2.9263 -1.8857  0.4463
  823MPD2    N112169   2.891   0.403  16.409 -0.6415  0.0242  0.3343
  823MPD2    H712170   2.827   0.480  16.392  0.6391  0.4970 -2.1856
  824MPD2     C12171   4.311   4.208  16.202  0.5139  0.6289  0.3736
  824MPD2    C112172   4.239   4.274  16.104 -0.1521  0.6476  0.7790
  824MPD2    C212173   4.244   4.218  15.970 -0.0206  0.6241  0.0452
  824MPD2    C312174   4.310   4.106  15.936 -0.1670 -0.0474  0.3874
  824MPD2    C412175   4.379   4.043  16.043 -0.0303  0.2024  0.4208
  824MPD2    C512176   4.380   4.096  16.167  0.0609  0.2589  0.0961
  824MPD2     H12177   4.195   4.268  15.887 -0.5591 -0.7793 -0.4762
  824MPD2    H112178   4.439   3.953  16.041 -1.6899 -0.8551 -1.6091
  824MPD2    H212179   4.308   4.233  16.307  0.3741  0.5659  0.3844
  824MPD2    H312180   4.442   4.049  16.243 -1.2831 -0.6607  0.6182
  824MPD2     N12181   4.313   4.063  15.806 -0.6118 -0.0472  1.1187
  824MPD2    H512182   4.270   4.124  15.737 -0.4462 -1.2347 -0.0217
  824MPD2    N112183   4.143   4.375  16.132 -0.7325  0.3552 -0.2358
  824MPD2    H712184   4.101   4.426  16.054  0.8990  2.0797  0.0015
  825MPD2     C12185   4.638   4.039  14.995 -0.2661 -0.2088 -0.7102
  825MPD2    C112186   4.641   4.093  15.126  0.1527 -0.7733  0.5101
  825MPD2    C212187   4.696   4.219  15.144  0.1333  0.8138 -1.1607
  825MPD2    C312188   4.739   4.292  15.031  0.2016 -0.3383  0.3714
  825MPD2    C412189   0.007   4.236  14.905  0.6443  0.1386 -0.6682
  825MPD2    C512190   4.703   4.107  14.889 -0.0261 -0.5098  0.1077
  825MPD2     H12191   4.703   4.257  15.245 -1.9747  0.6426 -0.9493
  825MPD2    H112192   0.044   4.286  14.816  0.2640  2.1505  0.2885
  825MPD2    H212193   4.581   3.948  14.976  1.0516 -1.4253  1.1817
  825MPD2    H312194   4.722   4.063  14.792  0.2370  0.0997 -0.1195
  825MPD2     N12195   0.047   4.422  15.030  0.0235 -0.0058 -0.0738
  825MPD2    H512196   0.060   4.463  14.938 -0.1037  2.0262  0.8134
  825MPD2    N112197   4.581   4.012  15.228 -0.0327  1.3246 -0.4156
  825MPD2    H712198   4.518   3.937  15.200 -1.5438  1.1977  3.4018
  826MPD2     C12199   4.390   4.283  14.049 -0.4392  0.4568  0.5000
  826MPD2    C112200   4.305   4.247  13.947 -0.7338  0.0290 -0.1595
  826MPD2    C212201   4.174   4.263  13.959 -0.2566  0.1008 -0.2424
  826MPD2    C312202   4.123   4.318  14.076 -0.4852  0.3868 -0.1958
  826MPD2    C412203   4.209   4.357  14.182  0.3780  0.6276  0.0914
  826MPD2    C512204   4.347   4.328  14.169 -0.0443  0.7426 -0.8562
  826MPD2     H12205   4.107   4.236  13.878 -0.1421  0.5558 -0.4883
  826MPD2    H112206   4.169   4.400  14.274 -0.7867 -0.1835 -0.0286
  826MPD2    H212207   4.497   4.280  14.034 -0.7070 -0.3653 -1.3048
  826MPD2    H312208   4.409   4.359  14.252 -1.7446  1.1937  0.2597
  826MPD2     N12209   3.991   4.354  14.088 -0.4085  0.3059 -0.2335
  826MPD2    H512210   3.961   4.395  14.176  1.1511 -0.4659  0.6597
  826MPD2    N112211   4.363   4.191  13.833  0.0811  0.2128 -0.0095
  826MPD2    H712212   4.459   4.156  13.830  0.0310  0.3056 -2.5268
  827MPD2     C12213   0.584   1.197  10.092  0.4101  0.0014  0.7755
  827MPD2    C112214   0.480   1.134  10.156 -0.6100  0.2362 -0.7252
  827MPD2    C212215   0.380   1.071  10.082 -0.5667 -0.2096 -0.4612
  827MPD2    C312216   0.375   1.086   9.945  0.5180 -0.0121  0.6061
  827MPD2    C412217   0.471   1.160   9.886 -0.4746  0.0704  0.2646
  827MPD2    C512218   0.580   1.200   9.951  0.0088  0.4501 -0.5896
  827MPD2     H12219   0.313   0.997  10.126  0.6106  0.0299  1.7229
  827MPD2    H112220   0.462   1.182   9.780 -0.4973  0.8277  0.4217
  827MPD2    H212221   0.670   1.248  10.134  0.7685  0.1318 -0.1089
  827MPD2    H312222   0.663   1.252   9.905 -0.6631  2.2043  0.1694
  827MPD2     N12223   0.274   1.015   9.873  0.1799  0.4670 -0.4850
  827MPD2    H512224   0.189   0.994   9.924  0.2210 -0.2679 -0.7318
  827MPD2    N112225   0.477   1.139  10.297  0.2466 -0.1929 -0.5223
  827MPD2    H712226   0.556   1.175  10.349 -0.9360  1.5485  0.0559
  828MPD2     C12227   3.665   0.786  12.830  0.1342  0.4980  0.3423
  828MPD2    C112228   3.573   0.805  12.727 -0.2659  0.0392 -0.4856
  828MPD2    C212229   3.610   0.841  12.601  0.1178 -0.9243 -0.1650
  828MPD2    C312230   3.743   0.861  12.573  0.3092 -0.5988 -0.2397
  828MPD2    C412231   3.839   0.856  12.677 -0.6822 -0.0309 -0.5008
  828MPD2    C512232   3.797   0.812  12.802  0.0470 -0.0942  0.1234
  828MPD2     H12233   3.542   0.831  12.517  1.1189  0.7917 -1.1899
  828MPD2    H112234   3.940   0.881  12.649 -0.5693  2.5500  2.3328
  828MPD2    H212235   3.644   0.748  12.929  0.9909 -2.2871 -0.5222
  828MPD2    H312236   3.862   0.803  12.889  0.2453  1.3982  0.1479
  828MPD2     N12237   3.781   0.886  12.439 -0.9272  0.5148 -0.4572
  828MPD2    H512238   3.879   0.913  12.428 -1.0790  1.9128  1.5756
  828MPD2    N112239   3.434   0.776  12.745  0.0357 -0.4066 -0.5379
  828MPD2    H712240   3.377   0.805  12.666 -0.9519  0.9391  0.6671
  829MPD2     C12241   2.776   0.696  12.229  0.0586 -0.0493  0.7076
  829MPD2    C112242   2.741   0.631  12.342 -0.5569  1.1277 -0.3290
  829MPD2    C212243   2.845   0.577  12.423 -0.6595  0.7119 -0.5539
  829MPD2    C312244   2.978   0.597  12.391  0.0956  0.1609 -0.4173
  829MPD2    C412245   3.012   0.667  12.269 -0.1952  0.7020  0.2528
  829MPD2    C512246   2.911   0.710  12.194  0.3593 -0.6116  0.4959
  829MPD2     H12247   2.820   0.513  12.507  1.6459 -0.5866 -0.8620
  829MPD2    H112248   3.116   0.691  12.251 -0.0708  0.3715  0.5235
  829MPD2    H212249   2.700   0.739  12.166 -0.0308 -1.8268 -0.4054
  829MPD2    H312250   2.938   0.789  12.125 -0.1587 -0.3978  0.5393
  829MPD2     N12251   3.082   0.558  12.476  0.9674 -0.4628  0.9168
  829MPD2    H512252   3.176   0.584  12.449  1.0369  0.1099  1.6856
  829MPD2    N112253   2.605   0.611  12.368  0.8407 -0.4643  0.7035
  829MPD2    H712254   2.541   0.644  12.297 -1.9536 -0.0904  3.3922
  830MPD2     C12255   3.394   2.961  16.186  0.2751 -0.3004  0.2379
  830MPD2    C112256   3.315   3.019  16.096  0.0189  0.2256  0.0774
  830MPD2    C212257   3.377   3.081  15.987  0.5177 -0.0788  0.6120
  830MPD2    C312258   3.518   3.092  15.983 -0.1059  0.0681  0.3589
  830MPD2    C412259   3.595   3.036  16.082 -0.1921  0.2107  0.5081
  830MPD2    C512260   3.527   2.962  16.180  0.3486 -0.0096  0.3170
  830MPD2     H12261   3.321   3.134  15.911 -0.7556 -1.3029  0.7005
  830MPD2    H112262   3.703   3.043  16.094 -0.0431 -2.7402  0.9472
  830MPD2    H212263   3.345   2.925  16.276  1.3814 -1.4702  0.3830
  830MPD2    H312264   3.584   2.907  16.254 -0.0357  0.2755  0.8278
  830MPD2     N12265   3.586   3.153  15.879 -0.2939  0.2840 -0.7388
  830MPD2    H512266   3.686   3.165  15.889 -0.3406 -0.1214  0.2244
  830MPD2    N112267   3.179   3.038  16.121 -0.6288  0.3047 -0.4046
  830MPD2    H712268   3.149   3.005  16.212  1.1039 -1.1233 -0.3631
  831MPD2     C12269   3.471   0.471  16.354  0.5158  1.1286  0.4122
  831MPD2    C112270   3.547   0.359  16.318 -0.4152  0.7825  0.3256
  831MPD2    C212271   3.504   0.228  16.342 -0.1932 -0.1163 -0.2381
  831MPD2    C312272   3.380   0.207  16.395 -0.0831 -0.4574  0.0839
  831MPD2    C412273   3.314   0.318  16.452  0.3095  0.2879 -0.0312
  831MPD2    C512274   3.357   0.448  16.433  0.2007  0.1393 -0.5075
  831MPD2     H12275   3.559   0.141  16.307 -0.3544 -0.9422  1.5315
  831MPD2    H112276   3.222   0.312  16.508  0.6224 -1.8779  0.2443
  831MPD2    H212277   3.512   0.571  16.346  0.7843  1.0617  0.9389
  831MPD2    H312278   3.292   0.529  16.462 -2.3581 -1.7192 -1.0793
  831MPD2     N12279   3.309   0.085  16.378  0.1076 -0.0994  0.0327
  831MPD2    H512280   3.209   0.083  16.394 -0.1644 -1.1730 -1.8659
  831MPD2    N112281   3.668   0.388  16.248  0.1555 -0.0807  0.3535
  831MPD2    H712282   3.677   0.469  16.188  0.9168 -0.8992 -0.6630
  832MPD2     C12283   1.961   1.255  17.094 -0.7212 -0.3612  0.5212
  832MPD2    C112284   1.942   1.364  17.171 -1.3137  0.1755  0.0109
  832MPD2    C212285   1.806   1.408  17.185  0.3513  0.2377  0.2526
  832MPD2    C312286   1.699   1.341  17.125  1.3516 -0.1009  0.1001
  832MPD2    C412287   1.721   1.241  17.034 -0.1502  0.0780 -0.0255
  832MPD2    C512288   1.854   1.195  17.027  0.1946 -0.1564  0.0989
  832MPD2     H12289   1.788   1.479  17.265 -1.5311  0.8384 -0.7097
  832MPD2    H112290   1.652   1.200  16.962  0.0161  2.3941 -1.5230
  832MPD2    H212291   2.054   1.201  17.090  0.1525  1.0607  1.9265
  832MPD2    H312292   1.879   1.113  16.961 -1.0241  1.7428 -2.7025
  832MPD2     N12293   1.559   1.366  17.145 -0.8367 -0.6495 -0.0791
  832MPD2    H512294   1.489   1.331  17.080  1.0927 -4.3838 -0.1132
  832MPD2    N112295   2.048   1.422  17.240  0.0834  0.1794 -0.7122
  832MPD2    H712296   2.033   1.498  17.305 -1.4335 -0.3685 -0.4311
  833MPD2     C12297   4.125   3.126  13.002 -0.0015 -0.5018  0.2561
  833MPD2    C112298   4.151   3.204  12.892 -0.6172 -0.1185  0.2877
  833MPD2    C212299   4.198   3.144  12.777 -0.1088 -0.3067  0.2154
  833MPD2    C312300   4.242   3.013  12.781  0.1131  0.1207  0.0003
  833MPD2    C412301   4.242   2.941  12.899 -0.3302  0.1807 -0.5188
  833MPD2    C512302   4.176   3.001  13.012 -0.2101 -0.1176 -0.2190
  833MPD2     H12303   4.217   3.190  12.680 -0.4921 -0.5525  0.0218
  833MPD2    H112304   4.286   2.844  12.919 -2.7089 -0.5876  1.0499
  833MPD2    H212305   4.077   3.157  13.094  0.2895 -0.0134  0.2436
  833MPD2    H312306   4.181   2.940  13.101 -0.4962  3.8650  2.4763
  833MPD2     N12307   4.297   2.970  12.654  0.0105  0.1803 -1.6251
  833MPD2    H512308   4.309   3.039  12.580  0.0387  0.9304 -0.9155
  833MPD2    N112309   4.117   3.339  12.884  0.2202 -0.2051 -0.4165
  833MPD2    H712310   4.069   3.370  12.968  0.3541 -0.2484 -0.3239
  834MPD2     C12311   3.841   2.372  12.048  0.6479  0.2143  0.1580
  834MPD2    C112312   3.883   2.473  11.970 -0.1616  0.2472  0.2559
  834MPD2    C212313   3.959   2.561  12.033  0.6070  0.3470 -0.1976
  834MPD2    C312314   3.982   2.558  12.169  0.4525  0.3912 -0.8303
  834MPD2    C412315   3.931   2.455  12.244 -0.3871 -0.2693  0.7211
  834MPD2    C512316   3.867   2.361  12.181  1.1412 -0.0534 -0.1655
  834MPD2     H12317   4.005   2.639  11.972 -1.6694  0.6182 -1.5774
  834MPD2    H112318   3.941   2.447  12.352  1.4668  0.8052  0.6292
  834MPD2    H212319   3.784   2.289  12.007 -0.8778  1.3085  0.0393
  834MPD2    H312320   3.839   2.282  12.250 -1.4257  0.8045 -0.1998
  834MPD2     N12321   4.066   2.649  12.238 -1.0068 -0.6744  0.4873
  834MPD2    H512322   4.060   2.645  12.339 -0.3271 -0.1786  0.5450
  834MPD2    N112323   3.838   2.479  11.834  0.3999  0.0010  0.3980
  834MPD2    H712324   3.769   2.410  11.804  0.9212 -0.0124 -0.7638
  835MPD2     C12325   3.868   1.156  11.802 -0.2650 -0.3214  0.5285
  835MPD2    C112326   3.735   1.171  11.828 -0.1558  0.1371 -0.2836
  835MPD2    C212327   3.693   1.197  11.957  0.2995  0.2896  0.3766
  835MPD2    C312328   3.788   1.197  12.064 -0.0112 -0.1724  0.2155
  835MPD2    C412329   3.919   1.184  12.036  0.4278  0.1441 -0.4913
  835MPD2    C512330   3.956   1.164  11.906  0.0951  0.5009 -0.7227
  835MPD2     H12331   3.590   1.227  11.966  0.2663  0.3583 -0.2569
  835MPD2    H112332   4.002   1.210  12.101  0.2725 -1.5674  0.4143
  835MPD2    H212333   3.902   1.126  11.703  0.5588 -1.3404  1.1160
  835MPD2    H312334   4.063   1.146  11.894  0.2546  0.9067  0.1119
  835MPD2     N12335   3.761   1.224  12.204  0.1507  0.9597 -0.0205
  835MPD2    H512336   3.844   1.212  12.260 -0.2023 -0.6190  0.1659
  835MPD2    N112337   3.636   1.171  11.727 -0.1284 -0.2217 -0.1813
  835MPD2    H712338   3.544   1.193  11.763 -0.3709 -1.2431 -0.2018
  836MPD2     C12339   3.094   1.605  12.480  0.3301 -0.4793  0.9103
  836MPD2    C112340   3.183   1.540  12.565  0.0749 -1.1938  1.4422
  836MPD2    C212341   3.127   1.458  12.663 -0.5660 -0.0720 -0.0335
  836MPD2    C312342   2.992   1.441  12.687  0.0129 -0.5271  0.6693
  836MPD2    C412343   2.913   1.517  12.606  0.0934  0.2254 -0.2721
  836MPD2    C512344   2.962   1.597  12.507  0.4352  0.1358 -0.4821
  836MPD2     H12345   3.190   1.407  12.735  0.1526  1.2473  0.2929
  836MPD2    H112346   2.805   1.524  12.614 -0.1281 -0.8534 -2.4837
  836MPD2    H212347   3.128   1.658  12.391  0.3275 -2.1862 -0.1132
  836MPD2    H312348   2.903   1.675  12.459 -1.7481 -1.1552  0.1461
  836MPD2     N12349   2.934   1.350  12.784 -0.4677  0.1460  0.3058
  836MPD2    H512350   2.835   1.338  12.766 -0.4242 -0.6796  0.6528
  836MPD2    N112351   3.320   1.541  12.536 -0.1021  0.1448  0.2175
  836MPD2    H712352   3.346   1.578  12.445 -2.2945  1.7187  0.2472
  837MPD2     C12353   2.038   0.745  10.666 -0.2028 -0.4206  0.2216
  837MPD2    C112354   2.037   0.818  10.554  0.3584 -0.9577 -0.3139
  837MPD2    C212355   2.081   0.952  10.562 -0.1595 -0.0577 -0.1594
  837MPD2    C312356   2.118   1.006  10.683  0.2390 -0.7017 -0.5360
  837MPD2    C412357   2.126   0.926  10.796 -0.0262  0.0083  0.2758
  837MPD2    C512358   2.083   0.799  10.786 -0.8743  0.0745 -0.4774
  837MPD2     H12359   2.089   1.019  10.478  0.8113  0.2794  0.2023
  837MPD2    H112360   2.148   0.962  10.896  1.6048  1.5250 -0.6224
  837MPD2    H212361   2.000   0.644  10.675  0.4744 -0.4840  2.4383
  837MPD2    H312362   2.096   0.737  10.874 -0.9919 -0.6902 -0.9986
  837MPD2     N12363   2.152   1.143  10.665 -0.2610 -0.0639 -0.1022
  837MPD2    H512364   2.157   1.179  10.570  1.6670 -1.4252 -0.5296
  837MPD2    N112365   1.994   0.776  10.425 -0.2369  0.2357 -0.4498
  837MPD2    H712366   1.986   0.849  10.355  0.2638  0.7058 -0.0156
  838MPD2     C12367   0.373   3.646  11.662  0.0083  0.4137 -0.0983
  838MPD2    C112368   0.401   3.529  11.734 -0.4154  0.1056  0.7471
  838MPD2    C212369   0.298   3.460  11.798 -0.1667  0.1648 -0.7253
  838MPD2    C312370   0.161   3.486  11.778  0.0323  0.1917  0.6132
  838MPD2    C412371   0.134   3.596  11.703  0.4459  0.1727 -0.4414
  838MPD2    C512372   0.236   3.676  11.647 -0.7131 -0.0189 -0.2278
  838MPD2     H12373   0.334   3.378  11.859  1.0508  0.3193 -1.2285
  838MPD2    H112374   0.037   3.645  11.693  0.9737  1.4937  1.0383
  838MPD2    H212375   0.449   3.708  11.616 -1.2726 -0.1014 -2.9608
  838MPD2    H312376   0.213   3.768  11.595 -1.9474  0.2215  0.7287
  838MPD2     N12377   0.065   3.417  11.848 -0.7229 -0.2647  0.0025
  838MPD2    H512378   0.103   3.369  11.928 -1.9861 -0.7722  0.2914
  838MPD2    N112379   0.528   3.479  11.766  0.3714 -0.5663  0.5337
  838MPD2    H712380   0.523   3.387  11.810  0.0726 -0.7979  0.0073
  839MPD2     C12381   0.194   2.950  11.975  0.3212  0.6092 -0.2736
  839MPD2    C112382   0.206   2.963  11.841 -0.0152 -0.2718 -0.1615
  839MPD2    C212383   0.331   2.981  11.791 -0.2887  0.0213 -0.4825
  839MPD2    C312384   0.438   3.009  11.873 -0.5261  0.1721 -0.3603
  839MPD2    C412385   0.427   2.995  12.010  0.3101 -0.6189  0.1565
  839MPD2    C512386   0.304   2.957  12.062 -0.3964 -0.1182  0.8574
  839MPD2     H12387   0.346   3.006  11.686  1.5167  1.8393  0.2146
  839MPD2    H112388   0.513   3.000  12.075  0.3403  0.6598  0.0092
  839MPD2    H212389   0.100   2.927  12.023  0.2228  0.7954 -0.3763
  839MPD2    H312390   0.294   2.940  12.169  1.7888 -0.7136  0.9614
  839MPD2     N12391   0.565   3.053  11.828 -0.0919  0.3038  0.3308
  839MPD2    H512392   0.628   3.087  11.900  0.2534  2.4543 -0.9819
  839MPD2    N112393   0.105   2.943  11.745  0.6482 -0.4127 -0.5977
  839MPD2    H712394   0.132   2.906  11.655 -1.4505  0.2115 -1.4933
  840MPD2     C12395   0.818   1.521  10.674  0.3811 -0.2467  0.0906
  840MPD2    C112396   0.776   1.422  10.753 -0.0643  0.3895  0.1924
  840MPD2    C212397   0.848   1.397  10.875 -0.3178  0.0529  0.5007
  840MPD2    C312398   0.968   1.466  10.899 -0.3298  0.3401  0.0388
  840MPD2    C412399   1.014   1.559  10.804  0.5171 -0.3998 -0.4097
  840MPD2    C512400   0.937   1.582  10.691  0.2277  0.5007  0.1955
  840MPD2     H12401   0.803   1.335  10.952  1.2000 -3.2436 -1.2773
  840MPD2    H112402   1.104   1.619  10.809  2.0973 -2.4731 -3.7408
  840MPD2    H212403   0.754   1.536  10.588  1.7984  1.8284 -0.5997
  840MPD2    H312404   0.975   1.648  10.613  0.5829  1.7875  1.4650
  840MPD2     N12405   1.049   1.449  11.015  0.2290 -0.3530  0.0761
  840MPD2    H512406   1.121   1.519  11.027 -0.6243  0.4809  0.3650
  840MPD2    N112407   0.662   1.349  10.715  0.0268  0.2842  0.0875
  840MPD2    H712408   0.608   1.376  10.633 -0.7282 -0.9729  0.1606
  841MPD2     C12409   0.357   4.607  14.956  0.6170 -0.4286 -0.3391
  841MPD2    C112410   0.317   4.720  14.890  0.1893 -0.5345 -0.1396
  841MPD2    C212411   0.351   0.108  14.943  0.8359  0.1033  1.0681
  841MPD2    C312412   0.421   0.115  15.062 -0.3737  0.4497  0.2920
  841MPD2    C412413   0.452   0.002  15.135  0.2156  0.4881  0.4875
  841MPD2    C512414   0.424   4.617  15.070  0.3927  0.6634  0.6698
  841MPD2     H12415   0.313   0.193  14.888 -1.0214 -0.1207  1.9921
  841MPD2    H112416   0.502   4.735  15.231  1.1879  2.3548  0.0888
  841MPD2    H212417   0.345   4.506  14.920 -0.3024 -0.2749 -0.4591
  841MPD2    H312418   0.455   4.522  15.114 -2.1338 -0.5320 -0.1903
  841MPD2     N12419   0.448   0.231  15.128  0.0111  0.0142 -0.7172
  841MPD2    H512420   0.485   0.230  15.223 -2.1258  2.4358  0.1449
  841MPD2    N112421   0.249   4.715  14.767  0.0761 -0.1314 -0.4786
  841MPD2    H712422   0.232   0.060  14.714  1.7789  0.9205  0.6535
  842MPD2     C12423   0.377   1.077  17.155 -0.4129 -0.7099  0.3217
  842MPD2    C112424   0.475   1.169  17.142  0.5484  0.0137  0.3004
  842MPD2    C212425   0.557   1.189  17.250  1.4005  0.1994 -0.2192
  842MPD2    C312426   0.543   1.127  17.370 -0.0458 -0.0566 -1.2803
  842MPD2    C412427   0.443   1.027  17.382 -0.4202  0.4237 -0.1028
  842MPD2    C512428   0.365   1.009  17.276 -0.0046 -0.9824  0.7077
  842MPD2     H12429   0.621   1.276  17.254 -0.4578  1.5767 -0.9586
  842MPD2    H112430   0.421   0.972  17.473 -0.3778  0.2929 -0.1710
  842MPD2    H212431   0.304   1.069  17.075  1.5462  2.3766 -1.8246
  842MPD2    H312432   0.294   0.927  17.286  2.0809 -2.8535  0.2403
  842MPD2     N12433   0.616   1.174  17.479 -0.6232 -0.4602 -0.3422
  842MPD2    H512434   0.592   1.138  17.571 -1.3283  0.6323 -0.1011
  842MPD2    N112435   0.463   1.260  17.031  0.7353 -0.5866 -0.1440
  842MPD2    H712436   0.395   1.225  16.964 -1.3414  1.1301  1.0298
  843MPD2     C12437   3.089   1.307   0.450  0.2981 -0.1200 -0.0451
  843MPD2    C112438   3.044   1.417   0.378  0.0074  0.5045  0.3777
  843MPD2    C212439   3.118   1.533   0.371  0.3631  0.0287 -0.4194
  843MPD2    C312440   3.246   1.543   0.428  0.3100  0.0004  0.3303
  843MPD2    C412441   3.291   1.433   0.494 -0.0142  0.1441 -0.6625
  843MPD2    C512442   3.215   1.321   0.511  0.3555 -0.1916  0.0607
  843MPD2     H12443   3.075   1.621   0.325 -0.4397 -0.4219 -0.5228
  843MPD2    H112444   3.393   1.423   0.528 -0.1810 -1.3258 -0.5952
  843MPD2    H212445   3.042   1.211   0.469 -1.8638  1.0861  0.6231
  843MPD2    H312446   3.261   1.236   0.560 -0.1285  0.7887  2.2380
  843MPD2     N12447   3.328   1.657   0.426 -0.1178  0.2925  0.3620
  843MPD2    H512448   3.412   1.656   0.482  1.4555  1.2906 -1.9715
  843MPD2    N112449   2.915   1.402   0.310 -0.0683  0.8956  0.1657
  843MPD2    H712450   2.857   1.324   0.338  1.5434 -1.7489 -3.8338
  844MPD2     C12451   1.439   1.227  16.427 -0.5157  0.1766 -0.2227
  844MPD2    C112452   1.538   1.134  16.420 -0.0833  0.7040 -0.2885
  844MPD2    C212453   1.657   1.168  16.480 -0.7020 -0.2889 -0.2709
  844MPD2    C312454   1.682   1.290  16.540  0.1752  0.0211  0.2202
  844MPD2    C412455   1.571   1.380  16.552 -0.2222  0.9298 -0.3933
  844MPD2    C512456   1.453   1.350  16.497  0.5789  0.3329 -0.7191
  844MPD2     H12457   1.736   1.096  16.460 -0.4936  0.0933 -0.8386
  844MPD2    H112458   1.577   1.475  16.603  3.1744  0.2669  0.4462
  844MPD2    H212459   1.346   1.220  16.372 -0.1506 -2.3633 -0.4800
  844MPD2    H312460   1.371   1.420  16.489  0.3914  0.1085 -0.7519
  844MPD2     N12461   1.809   1.316  16.583  0.4143  1.0259  0.3817
  844MPD2    H512462   1.870   1.243  16.548 -1.9601 -0.4714 -0.6607
  844MPD2    N112463   1.520   1.003  16.358 -0.0094  0.0284 -0.9477
  844MPD2    H712464   1.600   0.941  16.362  0.6152  0.9375  0.5983
  845MPD2     C12465   2.151   1.945  17.296  0.4476 -0.5359 -0.2786
  845MPD2    C112466   2.051   1.854  17.303 -0.2471 -0.1976 -0.6269
  845MPD2    C212467   2.034   1.757  17.201  0.4130 -0.1147 -0.5258
  845MPD2    C312468   2.134   1.741  17.101 -0.4969 -0.6172  0.4292
  845MPD2    C412469   2.231   1.839  17.094 -0.0960 -1.0816  0.2430
  845MPD2    C512470   2.234   1.943  17.187  0.1603  0.6324  0.2244
  845MPD2     H12471   1.946   1.694  17.202 -1.8675  3.0466 -4.4773
  845MPD2    H112472   2.311   1.830  17.021 -0.0648 -0.7295  0.2331
  845MPD2    H212473   2.170   2.024  17.368 -0.7509 -1.7808  1.3958
  845MPD2    H312474   2.310   2.018  17.171  2.5175 -1.6877  0.5857
  845MPD2     N12475   2.116   1.639  17.010  0.0985  0.2666  0.0258
  845MPD2    H512476   2.029   1.587  17.012  0.1093  0.1839 -1.6483
  845MPD2    N112477   1.953   1.861  17.406 -0.2030  0.2659  0.0354
  845MPD2    H712478   1.929   1.947  17.453 -3.2027  0.0508 -1.0804
  846MPD2     C12479   3.449   2.259  13.959 -0.3141  0.0452 -0.2767
  846MPD2    C112480   3.364   2.373  13.935  0.2764 -0.0201 -0.4212
  846MPD2    C212481   3.299   2.419  14.047  0.1959 -0.0122 -1.0982
  846MPD2    C312482   3.319   2.365  14.173  0.0379 -0.1336 -0.7497
  846MPD2    C412483   3.410   2.268  14.193 -0.4291 -0.4674  0.8660
  846MPD2    C512484   3.464   2.209  14.081 -0.0125  0.0987 -0.6166
  846MPD2     H12485   3.232   2.504  14.034  2.4416  2.1622  1.4868
  846MPD2    H112486   3.437   2.219  14.286  0.3195 -0.3492  0.7098
  846MPD2    H212487   3.501   2.213  13.876  2.0066  0.0239  1.1930
  846MPD2    H312488   3.531   2.125  14.092  0.4726  0.5761  0.0803
  846MPD2     N12489   3.238   2.402  14.285 -0.4999  0.3494  0.0471
  846MPD2    H512490   3.159   2.463  14.268  0.0855  1.1598  0.2093
  846MPD2    N112491   3.338   2.430  13.801  0.2205  0.6291 -0.1965
  846MPD2    H712492   3.284   2.515  13.797  0.5187  0.8427  0.2831
  847MPD2     C12493   3.478   3.305  14.343  0.6103 -0.5922 -0.1661
  847MPD2    C112494   3.578   3.353  14.429 -0.3259  0.2179  0.3102
  847MPD2    C212495   3.617   3.267  14.531  0.6166  0.2330 -0.3002
  847MPD2    C312496   3.564   3.146  14.561 -0.2870 -0.0309  0.4093
  847MPD2    C412497   3.469   3.102  14.478 -0.0060 -0.4276  0.6583
  847MPD2    C512498   3.427   3.178  14.368  0.1189  0.1734 -0.1634
  847MPD2     H12499   3.690   3.306  14.602  1.5429  1.6147 -2.0224
  847MPD2    H112500   3.436   2.999  14.484 -0.6736 -0.1151  2.1512
  847MPD2    H212501   3.431   3.352  14.258 -1.5204 -3.8619 -0.8175
  847MPD2    H312502   3.348   3.144  14.303 -0.3134 -2.7220  1.8750
  847MPD2     N12503   3.597   3.089  14.682 -0.0032  0.1413  0.2538
  847MPD2    H512504   3.677   3.129  14.731  1.7400 -0.5925 -1.9474
  847MPD2    N112505   3.637   3.478  14.421 -0.9998 -0.2827 -0.3510
  847MPD2    H712506   3.695   3.514  14.495 -0.7951 -0.4481 -0.4320
  848MPD2     C12507   0.988   1.728  17.647 -0.0268 -0.0753 -1.0211
  848MPD2    C112508   1.002   1.739  17.516 -0.4252 -0.6589 -0.0084
  848MPD2    C212509   0.987   1.859  17.453 -0.0925  0.6165 -0.0166
  848MPD2    C312510   0.956   1.978  17.515  0.7771 -0.3536 -0.4498
  848MPD2    C412511   0.944   1.970  17.659  0.1662  0.1311 -0.6616
  848MPD2    C512512   0.973   1.847  17.720  0.0761  0.4978  0.0349
  848MPD2     H12513   1.003   1.855  17.346 -0.4415  1.6775 -0.1095
  848MPD2    H112514   0.930   2.048  17.733  1.3580  0.5134 -0.8362
  848MPD2    H212515   0.989   1.632  17.697 -1.2207  0.5947  0.3070
  848MPD2    H312516   0.974   1.844   0.073  1.4327  1.1636  0.0363
  848MPD2     N12517   0.946   2.102  17.442  0.0306 -0.2170 -0.0125
  848MPD2    H512518   0.929   2.187  17.495 -0.3518 -0.9999  1.1126
  848MPD2    N112519   1.031   1.630  17.431 -0.2375 -0.7048  0.3521
  848MPD2    H712520   1.021   1.640  17.331 -1.0172  0.6482  0.5593
  849MPD2     C12521   0.276   1.143  14.253  0.8027 -0.2024  0.6255
  849MPD2    C112522   0.383   1.222  14.214 -0.4287  0.2218 -0.0352
  849MPD2    C212523   0.503   1.169  14.233 -0.1841  0.9152 -0.0139
  849MPD2    C312524   0.527   1.047  14.296  0.5700  0.6004 -0.0561
  849MPD2    C412525   0.423   0.976  14.341  0.2370 -0.4154 -0.8756
  849MPD2    C512526   0.299   1.024  14.317  0.3510  0.0750  0.4715
  849MPD2     H12527   0.586   1.217  14.183 -2.0559  0.7081 -3.3054
  849MPD2    H112528   0.443   0.884  14.395  0.1256 -0.9430 -1.7238
  849MPD2    H212529   0.173   1.174  14.236 -0.4711 -4.0145  1.4040
  849MPD2    H312530   0.208   0.968  14.335 -0.6383  0.7899 -2.2363
  849MPD2     N12531   0.661   0.999  14.302 -0.1768  0.4149  0.4138
  849MPD2    H512532   0.724   1.050  14.241  0.4383 -0.0137  0.6937
  849MPD2    N112533   0.382   1.341  14.134  0.3260  0.0052  0.6561
  849MPD2    H712534   0.479   1.367  14.117  0.4021  0.0175  1.0921
  850MPD2     C12535   3.581   4.168  14.830 -1.2616 -0.1295  0.0430
  850MPD2    C112536   3.579   4.269  14.924  0.0109  0.1719 -1.1571
  850MPD2    C212537   3.703   4.314  14.983  0.3856  0.6374  0.1403
  850MPD2    C312538   3.816   4.241  14.965  0.2448 -0.4011  0.1356
  850MPD2    C412539   3.810   4.124  14.889  0.2443  0.2580 -0.4252
  850MPD2    C512540   3.694   4.092  14.827  0.2279 -0.3256 -0.1068
  850MPD2     H12541   3.695   4.404  15.044  2.2821  1.1474 -0.3596
  850MPD2    H112542   3.891   4.052  14.887 -1.2597 -1.5877  3.6919
  850MPD2    H212543   3.493   4.139  14.774 -1.4879  0.4071  0.1145
  850MPD2    H312544   3.690   4.001  14.767  1.4512 -0.5636  0.1884
  850MPD2     N12545   3.937   4.268  15.024 -0.0935 -0.0579  0.5982
  850MPD2    H512546   4.009   4.200  15.001  0.5876  0.6517  0.6509
  850MPD2    N112547   3.457   4.327  14.951  0.1796 -0.0399 -0.5273
  850MPD2    H712548   3.391   4.304  14.877 -1.4579  0.2050  0.8631
  851MPD2     C12549   3.888   4.111  15.679 -0.3147  0.1879 -0.9659
  851MPD2    C112550   3.793   4.076  15.583 -0.2081 -0.1308  0.3151
  851MPD2    C212551   3.745   3.945  15.581 -0.2812 -0.3589  0.2164
  851MPD2    C312552   3.783   3.852  15.675  0.6749 -0.2167  0.1367
  851MPD2    C412553   3.881   3.887  15.766  0.3295 -0.0880 -0.1797
  851MPD2    C512554   3.927   4.015  15.774 -0.1197  0.0402  0.0308
  851MPD2     H12555   3.659   3.918  15.521 -0.9656  1.5333  0.3483
  851MPD2    H112556   3.934   3.808  15.818  0.9950  0.5570  0.1344
  851MPD2    H212557   3.927   4.210  15.695  0.3985 -0.3667  0.7513
  851MPD2    H312558   4.011   4.043  15.837 -1.0019 -0.4986  1.4259
  851MPD2     N12559   3.729   3.723  15.659 -0.2408  0.1277  0.9458
  851MPD2    H512560   3.675   3.702  15.575  0.3059  0.2393  0.5675
  851MPD2    N112561   3.742   4.176  15.501 -0.3204  0.1714  0.0468
  851MPD2    H712562   3.771   4.271  15.521 -0.1047  0.1779 -0.2857
  852MPD2     C12563   3.468   1.880  10.212  0.1714 -0.1926 -0.3853
  852MPD2    C112564   3.414   1.975  10.301 -0.0296 -0.5474  0.5162
  852MPD2    C212565   3.459   2.106  10.290  0.4706 -0.6165  0.4472
  852MPD2    C312566   3.560   2.143  10.206 -0.2699 -0.4930  0.1131
  852MPD2    C412567   3.616   2.048  10.134 -0.0159 -0.4301  0.1978
  852MPD2    C512568   3.566   1.922  10.125 -0.1112 -0.2891  0.0476
  852MPD2     H12569   3.419   2.182  10.356  1.1696 -1.6547  2.0909
  852MPD2    H112570   3.704   2.066  10.073 -0.2969  0.5019  0.0767
  852MPD2    H212571   3.426   1.781  10.199 -0.0346  0.1224 -2.1759
  852MPD2    H312572   3.608   1.854  10.052  0.2813  0.6718 -0.6220
  852MPD2     N12573   3.606   2.276  10.208 -0.5059 -0.3747  0.0541
  852MPD2    H512574   3.563   2.335  10.279  0.3967 -1.3518  1.4165
  852MPD2    N112575   3.324   1.948  10.408  0.2358  0.1246  0.5626
  852MPD2    H712576   3.298   2.027  10.466 -2.3874 -0.4918  0.2388
  853MPD2     C12577   4.705   1.677  12.814 -0.1152 -0.5723 -0.7885
  853MPD2    C112578   4.661   1.801  12.784 -0.3825 -1.2735  0.1862
  853MPD2    C212579   4.681   1.845  12.653 -0.8035 -0.1410  0.2679
  853MPD2    C312580   4.729   1.752  12.557  0.1887 -0.7013 -0.4901
  853MPD2    C412581   0.037   1.630  12.598  1.2884  0.1383 -0.5778
  853MPD2    C512582   0.025   1.598  12.725  0.4305 -0.0334 -0.9686
  853MPD2     H12583   4.665   1.948  12.623  0.2955 -0.1577 -0.3939
  853MPD2    H112584   0.089   1.562  12.531  1.3938 -0.8800  0.5438
  853MPD2    H212585   4.690   1.631  12.912 -0.3355 -0.6929 -0.8783
  853MPD2    H312586   0.046   1.495  12.753 -0.2931 -0.4443 -1.9219
  853MPD2     N12587   0.011   1.792  12.418  0.2271 -0.1563 -0.5499
  853MPD2    H512588   0.064   1.726  12.363  0.8833 -0.1256  0.0419
  853MPD2    N112589   4.598   1.884  12.882 -0.6171  0.9584  0.0133
  853MPD2    H712590   4.586   1.842  12.973  0.3557  1.0428  0.1814
  854MPD2     C12591   1.883   2.162  13.074 -0.1138 -0.4176  0.0922
  854MPD2    C112592   1.964   2.269  13.067 -0.0612  0.9559 -0.2664
  854MPD2    C212593   2.091   2.253  13.112  0.3932  0.6335  0.3393
  854MPD2    C312594   2.145   2.130  13.157 -0.3370 -0.4112 -0.2565
  854MPD2    C412595   2.059   2.022  13.162 -0.1097  0.1993 -0.1277
  854MPD2    C512596   1.931   2.037  13.117  0.5860  0.3290  0.0344
  854MPD2     H12597   2.154   2.341  13.109  0.6728  0.4565  1.2571
  854MPD2    H112598   2.082   1.930  13.215  0.8467  1.9470  2.4841
  854MPD2    H212599   1.786   2.165  13.026 -0.8590  1.0206  1.6608
  854MPD2    H312600   1.863   1.952  13.118  1.1124 -0.1483 -3.0410
  854MPD2     N12601   2.274   2.108  13.210  0.3924  0.3623 -0.1342
  854MPD2    H512602   2.305   2.013  13.226  0.9799  0.6016  0.1473
  854MPD2    N112603   1.907   2.386  13.014 -0.1874  0.1906  0.2535
  854MPD2    H712604   1.810   2.381  12.985  0.0063 -0.3249 -0.2858
  855MPD2     C12605   2.615   2.238  14.067 -0.8647  0.3110 -0.0815
  855MPD2    C112606   2.625   2.115  14.014  0.1533 -0.5231  0.3792
  855MPD2    C212607   2.640   2.100  13.877  0.1261 -0.1879 -0.0750
  855MPD2    C312608   2.643   2.205  13.790  0.4306 -0.1220  0.6296
  855MPD2    C412609   2.636   2.333  13.847 -0.1540  0.3415 -0.3614
  855MPD2    C512610   2.619   2.346  13.983 -0.1438 -0.1121  0.3653
  855MPD2     H12611   2.657   1.997  13.850 -2.1408 -1.0248  1.7034
  855MPD2    H112612   2.637   2.426  13.791 -0.8826  0.8854  0.5248
  855MPD2    H212613   2.610   2.253  14.175  0.6355 -0.7576  0.1347
  855MPD2    H312614   2.604   2.447  14.020  0.1145  0.5818 -1.4327
  855MPD2     N12615   2.644   2.197  13.646  0.3773  0.3173  0.0575
  855MPD2    H512616   2.643   2.284  13.593  0.7211 -0.0746 -0.6009
  855MPD2    N112617   2.624   2.002  14.097  0.0751 -0.5796 -0.7221
  855MPD2    H712618   2.649   1.915  14.050 -0.9112 -1.2741  0.0241
  856MPD2     C12619   4.312   2.857  13.965  0.4997 -0.0919 -0.2701
  856MPD2    C112620   4.284   2.982  14.010 -0.2388  1.0245  0.6831
  856MPD2    C212621   4.223   3.074  13.924 -0.1104  0.5926 -0.4142
  856MPD2    C312622   4.166   3.039  13.804  0.0242  0.6028  0.1948
  856MPD2    C412623   4.178   2.904  13.771 -0.0302 -0.5518  0.1105
  856MPD2    C512624   4.259   2.819  13.848 -0.3337  0.2723  0.0707
  856MPD2     H12625   4.219   3.175  13.965 -0.0190  0.7577 -0.8127
  856MPD2    H112626   4.148   2.862  13.676 -1.2062 -1.9308  1.0957
  856MPD2    H212627   4.371   2.787  14.023 -0.3300 -0.7829 -0.2663
  856MPD2    H312628   4.285   2.725  13.801 -0.6948 -0.1176  0.6487
  856MPD2     N12629   4.088   3.122  13.721  0.5992  0.2169 -0.4471
  856MPD2    H512630   4.013   3.079  13.669  0.8898 -0.7675 -0.0500
  856MPD2    N112631   4.340   3.029  14.135 -0.4179  0.4768 -0.3417
  856MPD2    H712632   4.382   2.956  14.193 -1.4135 -0.8676 -1.3126
  857MPD2     C12633   1.226   0.409  12.542  0.0537 -0.1522 -0.5725
  857MPD2    C112634   1.323   0.404  12.633  0.6853  0.0460 -0.1658
  857MPD2    C212635   1.377   0.521  12.689 -0.0424  0.1685  0.1058
  857MPD2    C312636   1.332   0.646  12.645 -0.4022 -0.4060 -0.0930
  857MPD2    C412637   1.235   0.648  12.545  0.1338 -0.4250 -0.2979
  857MPD2    C512638   1.192   0.530  12.496 -0.8102 -0.9755 -0.5697
  857MPD2     H12639   1.447   0.523  12.771 -1.6056 -0.0315  1.4620
  857MPD2    H112640   1.193   0.741  12.507  1.9024  1.4927  2.4010
  857MPD2    H212641   1.176   0.320  12.506  0.3936  0.1653 -1.8215
  857MPD2    H312642   1.115   0.524  12.420 -0.0621  0.4506 -1.4390
  857MPD2     N12643   1.369   0.765  12.722  0.0297 -0.3647  0.4326
  857MPD2    H512644   1.435   0.746  12.796 -1.2153  0.2244  1.7008
  857MPD2    N112645   1.348   0.279  12.695 -0.5751 -0.3761  0.3693
  857MPD2    H712646   1.286   0.203  12.672 -0.9874  0.2208 -0.4919
  858MPD2     C12647   2.043   3.832  16.612  0.4325  0.5492  0.5589
  858MPD2    C112648   1.987   3.738  16.689 -0.0561 -0.1293 -0.3613
  858MPD2    C212649   1.977   3.746  16.825  0.9126 -0.9496 -0.3556
  858MPD2    C312650   2.031   3.854  16.889 -0.0830  0.2719 -0.0523
  858MPD2    C412651   2.105   3.948  16.813  0.0188  0.0421 -0.9039
  858MPD2    C512652   2.115   3.935  16.675  0.3030  1.2377  0.5000
  858MPD2     H12653   1.913   3.677  16.879  0.8951 -0.5069  0.1896
  858MPD2    H112654   2.157   4.021  16.874 -0.2848  0.5871 -1.2953
  858MPD2    H212655   2.030   3.825  16.505  1.5857 -3.1436  0.6418
  858MPD2    H312656   2.177   4.001  16.615  0.2838 -0.4061 -1.3168
  858MPD2     N12657   2.029   3.870  17.024 -0.3933 -0.6862 -0.7253
  858MPD2    H512658   2.017   3.783  17.076  1.9150  0.9554  2.5573
  858MPD2    N112659   1.934   3.622  16.623  0.3715 -0.1059  0.5305
  858MPD2    H712660   1.932   3.624  16.522  1.6672 -0.4038  0.4892
  859MPD2     C12661   0.366   1.609  15.984 -0.1865 -0.5125  0.2380
  859MPD2    C112662   0.326   1.525  15.877 -0.3166  0.1578  0.0085
  859MPD2    C212663   0.278   1.401  15.906  0.3002 -0.9880  0.0207
  859MPD2    C312664   0.256   1.357  16.038  0.6936  0.6047 -0.1498
  859MPD2    C412665   0.293   1.440  16.136 -0.5177  0.3402 -0.0062
  859MPD2    C512666   0.343   1.565  16.110 -0.1186  0.4645 -0.4563
  859MPD2     H12667   0.250   1.334  15.825  2.5002  0.0629 -1.5940
  859MPD2    H112668   0.280   1.411  16.240  2.3171  0.2188  0.3145
  859MPD2    H212669   0.410   1.706  15.969 -1.3415  0.0003  0.1636
  859MPD2    H312670   0.378   1.631  16.189 -0.0120  1.4065 -1.3002
  859MPD2     N12671   0.209   1.229  16.081  0.5211 -0.8142 -0.2063
  859MPD2    H512672   0.189   1.217  16.180 -0.6014 -1.4866 -0.5083
  859MPD2    N112673   0.365   1.564  15.744 -0.0738 -0.6544 -0.8316
  859MPD2    H712674   0.427   1.645  15.744  0.5363 -1.1331  1.9175
  860MPD2     C12675   2.844   1.743  11.715 -0.1129  0.6580 -0.4138
  860MPD2    C112676   2.832   1.846  11.811 -0.5605 -0.5365 -0.3082
  860MPD2    C212677   2.723   1.853  11.893  0.8022 -0.3426  0.1895
  860MPD2    C312678   2.653   1.744  11.903 -0.3592 -0.2461 -0.3928
  860MPD2    C412679   2.652   1.644  11.807 -0.0734  0.1060  0.0343
  860MPD2    C512680   2.751   1.638  11.715 -0.2711 -0.1372  0.1277
  860MPD2     H12681   2.719   1.927  11.972  1.9805  0.0058 -0.0781
  860MPD2    H112682   2.576   1.567  11.813  0.1933 -0.1943 -0.4258
  860MPD2    H212683   2.919   1.734  11.636 -0.3537  2.4307 -0.8324
  860MPD2    H312684   2.773   1.547  11.661 -0.3326  0.4365 -0.8580
  860MPD2     N12685   2.565   1.741  12.015 -0.2971 -0.1975  0.3410
  860MPD2    H512686   2.543   1.828  12.062  3.2515 -0.1765  1.9213
  860MPD2    N112687   2.921   1.958  11.820 -0.4793  0.0433  0.0643
  860MPD2    H712688   2.886   2.029  11.882 -1.9829 -0.0402 -0.6717
  861MPD2     C12689   1.753   4.530  11.195 -0.4485 -0.3254  0.7551
  861MPD2    C112690   1.769   4.660  11.238  0.3517  0.3124 -0.8928
  861MPD2    C212691   1.694   0.016  11.179  0.4879  0.5329  0.3446
  861MPD2    C312692   1.608   4.729  11.072 -0.8318 -0.1125 -0.0453
  861MPD2    C412693   1.593   4.600  11.035  0.0463  0.0619  0.1583
  861MPD2    C512694   1.657   4.497  11.101  0.4183 -0.4093 -0.8545
  861MPD2     H12695   1.712   0.120  11.204 -1.1312  0.0965  3.4273
  861MPD2    H112696   1.522   4.583  10.955 -1.0378  1.9354  0.7478
  861MPD2    H212697   1.820   4.454  11.234  0.5586 -0.1981 -0.7094
  861MPD2    H312698   1.646   4.393  11.074 -1.1229 -1.4033  3.6145
  861MPD2     N12699   1.523   0.087  11.005  0.1346 -0.0660  0.5330
  861MPD2    H512700   1.458   0.044  10.940  0.3277 -3.9205  2.8823
  861MPD2    N112701   1.851   4.696  11.355 -0.2645 -0.0749  0.3571
  861MPD2    H712702   1.843   0.055  11.379 -0.9517  0.7987 -3.4851
  862MPD2     C12703   0.813   0.121  10.926 -0.0696  0.1062 -0.0829
  862MPD2    C112704   0.938   0.080  10.959 -0.0112  0.1098  0.7229
  862MPD2    C212705   0.967   4.699  11.016 -0.2845  0.5719 -0.2999
  862MPD2    C312706   0.866   4.608  11.018  0.2017  0.0787  0.0658
  862MPD2    C412707   0.743   4.642  10.977 -0.5617 -1.2701 -0.0077
  862MPD2    C512708   0.710   0.030  10.938 -0.1099 -0.3538 -0.5003
  862MPD2     H12709   1.067   4.673  11.049 -1.1232 -0.8094  1.1856
  862MPD2    H112710   0.667   4.566  10.970 -1.5843 -0.3608  1.0611
  862MPD2    H212711   0.795   0.218  10.881  1.8423  0.5772  0.1600
  862MPD2    H312712   0.615   0.065  10.897  0.0409  0.7913  0.0986
  862MPD2     N12713   0.892   4.473  11.069  0.3361  0.2084 -0.2469
  862MPD2    H512714   0.809   4.415  11.072  0.5468 -0.0440  0.5906
  862MPD2    N112715   1.047   0.166  10.944 -0.1399  0.6901  0.1595
  862MPD2    H712716   1.136   0.126  10.974 -0.5047 -0.7651 -0.6933
  863MPD2     C12717   0.051   2.849  16.566  0.0192 -0.7085 -0.0049
  863MPD2    C112718   0.047   2.951  16.659 -0.8734  0.3947 -0.0207
  863MPD2    C212719   0.116   2.942  16.775 -0.2285 -0.8204 -0.0246
  863MPD2    C312720   0.190   2.833  16.813 -0.2393 -0.3193 -0.0253
  863MPD2    C412721   0.194   2.735  16.721  0.9154 -0.4799 -0.2936
  863MPD2    C512722   0.126   2.744  16.595 -0.2679 -0.0842  0.2314
  863MPD2     H12723   0.106   3.031  16.836  0.3498 -0.7305 -0.0689
  863MPD2    H112724   0.251   2.646  16.744 -2.0459 -2.1818  0.3742
  863MPD2    H212725   0.005   2.850  16.467 -2.9180 -1.1547  1.3438
  863MPD2    H312726   0.131   2.656  16.532  0.0936 -0.4690  0.7956
  863MPD2     N12727   0.252   2.817  16.939 -0.5963 -0.2387  0.7588
  863MPD2    H512728   0.290   2.724  16.952 -0.1644 -0.0768  0.6596
  863MPD2    N112729   4.698   3.057  16.627 -0.2145 -0.4363 -0.4370
  863MPD2    H712730   4.667   3.053  16.531 -0.3337  0.9390 -0.4566
  864MPD2     C12731   0.947   3.663  17.235  0.0940 -0.3209  0.2287
  864MPD2    C112732   1.029   3.580  17.162 -0.1720 -0.6523  0.2158
  864MPD2    C212733   1.159   3.621  17.123  0.4889 -0.5693 -0.1310
  864MPD2    C312734   1.210   3.743  17.157 -0.4325  0.0962 -0.0583
  864MPD2    C412735   1.122   3.825  17.227  1.3115  0.2210  0.3531
  864MPD2    C512736   0.999   3.782  17.281 -0.2539  0.1360  0.6582
  864MPD2     H12737   1.211   3.548  17.062  0.8332 -1.3717  1.1208
  864MPD2    H112738   1.159   3.924  17.253 -0.8083  0.1901  3.4098
  864MPD2    H212739   0.849   3.625  17.264 -0.7573  1.0226 -0.8982
  864MPD2    H312740   0.939   3.852  17.339  1.0815 -0.5562  2.8706
  864MPD2     N12741   1.334   3.802  17.122  0.5477  0.4803  0.1164
  864MPD2    H512742   1.358   3.894  17.158 -1.0004  1.3800 -1.1642
  864MPD2    N112743   0.967   3.454  17.135  0.3151  0.0626 -0.4548
  864MPD2    H712744   0.867   3.448  17.151  0.5255  2.1115  1.5464
  865MPD2     C12745   1.499   4.439  16.650  0.6826  0.5415  0.2889
  865MPD2    C112746   1.482   4.302  16.671 -0.4885  0.2037  0.7377
  865MPD2    C212747   1.523   4.247  16.793  0.4765  0.2606 -0.4345
  865MPD2    C312748   1.607   4.328  16.878 -0.7055  0.0654 -0.3129
  865MPD2    C412749   1.627   4.461  16.845  0.6110 -0.3294  0.4697
  865MPD2    C512750   1.574   4.515  16.733  0.3297  1.1969  0.1620
  865MPD2     H12751   1.503   4.143  16.817  2.0255 -0.3783 -1.9714
  865MPD2    H112752   1.692   4.518  16.910  0.9168 -0.4328  0.2584
  865MPD2    H212753   1.461   4.489  16.562 -1.0943 -1.4313 -0.0650
  865MPD2    H312754   1.601   4.619  16.718  1.0175  0.8594 -0.9187
  865MPD2     N12755   1.666   4.291  17.004  0.1054  0.1503 -0.2022
  865MPD2    H512756   1.721   4.363  17.049  0.4675  0.1068 -0.5748
  865MPD2    N112757   1.431   4.229  16.563 -0.0677  0.1780 -0.8150
  865MPD2    H712758   1.415   4.281  16.477  1.5372 -0.7065 -1.6564
  866MPD2     C12759   2.520   0.211  11.448 -0.2727  0.4660  0.5023
  866MPD2    C112760   2.416   0.130  11.412 -0.0636 -0.0175 -0.9696
  866MPD2    C212761   2.288   0.183  11.401  0.1017  0.0479  0.5932
  866MPD2    C312762   2.266   0.320  11.449  0.4458 -0.3421 -0.2266
  866MPD2    C412763   2.369   0.385  11.513 -0.3121 -0.0357 -0.7249
  866MPD2    C512764   2.492   0.334  11.507  0.1448  0.2620 -0.0877
  866MPD2     H12765   2.208   0.132  11.349  0.6936  0.5783 -0.8269
  866MPD2    H112766   2.347   0.479  11.561 -0.8800 -0.8446  0.5965
  866MPD2    H212767   2.620   0.171  11.457 -0.9215 -1.2343  0.1264
  866MPD2    H312768   2.575   0.391  11.547 -0.0601 -0.8229  1.9281
  866MPD2     N12769   2.138   0.378  11.457 -0.2623  0.3499 -0.6857
  866MPD2    H512770   2.130   0.465  11.508  0.6672 -0.2494  0.4816
  866MPD2    N112771   2.455   4.738  11.376  0.6725  0.5429  0.1927
  866MPD2    H712772   2.555   4.721  11.378  0.6920  0.4836 -1.3973
  867MPD2     C12773   4.590   4.449  16.559 -0.4907 -0.4412  0.4013
  867MPD2    C112774   4.547   4.382  16.669 -0.1073 -0.5096  0.8162
  867MPD2    C212775   4.489   4.450  16.778  0.3435 -0.1394  0.3081
  867MPD2    C312776   4.488   4.589  16.776 -0.6896  0.2975  0.2403
  867MPD2    C412777   4.532   4.660  16.667  0.7611  0.2197 -0.5150
  867MPD2    C512778   4.583   4.591  16.561 -0.5267 -0.2799 -0.2733
  867MPD2     H12779   4.439   4.387  16.851  1.4579  0.6264  1.7502
  867MPD2    H112780   4.514   0.026  16.649 -1.8806 -0.3978 -1.4648
  867MPD2    H212781   4.641   4.408  16.473 -2.6025 -0.4735 -0.8264
  867MPD2    H312782   4.629   4.652  16.485  2.2121 -1.6645  0.2571
  867MPD2     N12783   4.431   4.662  16.886  0.1823  1.0637 -0.6408
  867MPD2    H512784   4.408   0.020  16.870  0.6553  1.8067  3.2379
  867MPD2    N112785   4.558   4.240  16.659 -0.6329  0.6280 -0.4579
  867MPD2    H712786   4.616   4.206  16.582  0.4755  2.0728 -0.2491
  868MPD2     C12787   1.363   3.697  13.526  0.4004  0.0602  1.1063
  868MPD2    C112788   1.345   3.570  13.475  0.1098 -0.6713 -0.2478
  868MPD2    C212789   1.226   3.506  13.488  0.0069 -0.0902  0.1418
  868MPD2    C312790   1.124   3.565  13.566  0.7263 -0.2509  0.3654
  868MPD2    C412791   1.144   3.686  13.630 -0.2543 -0.0289  0.1473
  868MPD2    C512792   1.261   3.754  13.605 -0.4298 -0.6105  0.0582
  868MPD2     H12793   1.217   3.406  13.447  1.1607  0.4841 -1.4828
  868MPD2    H112794   1.074   3.736  13.696  0.5577 -0.4282  1.3206
  868MPD2    H212795   1.459   3.745  13.510 -0.0442  0.4248 -0.5296
  868MPD2    H312796   1.286   3.836  13.671 -0.7561 -0.7026  0.2931
  868MPD2     N12797   0.999   3.491  13.585 -0.4865  0.0638 -0.0460
  868MPD2    H512798   0.994   3.403  13.533 -0.2554  0.2991 -0.4687
  868MPD2    N112799   1.456   3.515  13.407  0.3036 -0.6783  0.2881
  868MPD2    H712800   1.528   3.583  13.385 -0.1839  0.1789  1.3896
  869MPD2     C12801   1.321   0.801   1.093 -0.0021  0.0543  0.2635
  869MPD2    C112802   1.331   0.937   1.095 -0.1339 -0.4502  0.2165
  869MPD2    C212803   1.458   0.986   1.059  0.8135  0.4056 -0.4294
  869MPD2    C312804   1.557   0.909   1.000 -0.4226 -0.0303  0.3647
  869MPD2    C412805   1.531   0.779   0.976 -0.3722 -0.4629 -0.0314
  869MPD2    C512806   1.415   0.724   1.028  0.0924 -0.4978 -0.0030
  869MPD2     H12807   1.474   1.094   1.055 -1.6274  0.7774 -0.0319
  869MPD2    H112808   1.606   0.714   0.933 -0.3315 -0.0232 -0.6363
  869MPD2    H212809   1.235   0.760   1.146  1.2348 -1.7776  0.8305
  869MPD2    H312810   1.400   0.618   1.012  1.8072 -0.6107 -0.8474
  869MPD2     N12811   1.679   0.977   0.969 -0.2266  0.1177  0.5308
  869MPD2    H512812   1.693   1.073   0.997  0.0467 -0.4880  2.4706
  869MPD2    N112813   1.234   1.011   1.166  0.0031 -0.2715 -0.1771
  869MPD2    H712814   1.149   0.967   1.198  0.1783 -0.6513 -0.2326
  870MPD2     C12815   1.996   4.422   1.386 -0.4078  0.5660 -0.3849
  870MPD2    C112816   2.018   4.404   1.253 -0.5399  0.4009 -0.6727
  870MPD2    C212817   1.919   4.425   1.163  0.5028  1.5720  0.8649
  870MPD2    C312818   1.794   4.474   1.205  0.5731 -0.2000  0.3903
  870MPD2    C412819   1.770   4.483   1.339 -0.4431 -0.7164 -0.2972
  870MPD2    C512820   1.869   4.462   1.427 -0.3507  0.0968 -0.0370
  870MPD2     H12821   1.949   4.422   1.059  0.3242 -0.8340  0.8823
  870MPD2    H112822   1.674   4.503   1.386 -0.4317 -1.6048  0.1051
  870MPD2    H212823   2.081   4.422   1.454 -0.1137 -2.0637 -0.7651
  870MPD2    H312824   1.849   4.483   1.531  0.8115  0.3423  0.1427
  870MPD2     N12825   1.701   4.508   1.102 -0.3634  0.6857 -0.5473
  870MPD2    H512826   1.740   4.507   1.009  0.2124  0.7194 -0.3067
  870MPD2    N112827   2.148   4.365   1.216  0.1199 -0.0896  0.1630
  870MPD2    H712828   2.224   4.381   1.281  1.1712 -1.2970 -0.7778
  871MPD2     C12829   3.491   4.388  16.392 -0.2476  0.6160 -0.2339
  871MPD2    C112830   3.446   4.316  16.495 -0.0730  0.5358  0.1062
  871MPD2    C212831   3.471   4.177  16.497  0.1326 -0.2568  0.2292
  871MPD2    C312832   3.545   4.120  16.395 -0.0204 -0.8109 -0.1424
  871MPD2    C412833   3.580   4.196  16.284 -0.0147  0.1296  0.2622
  871MPD2    C512834   3.554   4.329  16.288 -0.4418 -0.0693 -0.2037
  871MPD2     H12835   3.431   4.112  16.574  1.0149 -1.4006 -0.2899
  871MPD2    H112836   3.636   4.155  16.201 -3.6832 -1.5586 -1.3485
  871MPD2    H212837   3.473   4.495  16.392 -2.3578  0.2558 -1.7338
  871MPD2    H312838   3.589   4.386  16.203 -2.1008  0.1202 -0.7621
  871MPD2     N12839   3.586   3.983  16.420 -0.3255  0.4642 -0.2743
  871MPD2    H512840   3.555   3.949  16.511  2.1951  2.2898  1.2506
  871MPD2    N112841   3.369   4.389  16.588 -0.4915 -0.4774  0.2778
  871MPD2    H712842   3.367   4.490  16.575 -0.5998 -0.4224  0.7253
  872MPD2     C12843   4.215   1.851  14.222  0.5084  0.0624  0.8008
  872MPD2    C112844   4.185   1.983  14.183 -0.0437 -0.0331  0.5526
  872MPD2    C212845   4.050   2.027  14.211 -0.4598  0.7878 -0.0743
  872MPD2    C312846   3.948   1.941  14.262  0.6286 -0.5444  0.4159
  872MPD2    C412847   3.986   1.811  14.285  0.0720 -0.0644  0.1725
  872MPD2    C512848   4.117   1.772  14.268 -1.3680  0.1287 -0.2955
  872MPD2     H12849   4.022   2.130  14.196  0.1777  1.3998  2.8598
  872MPD2    H112850   3.915   1.734  14.314  0.5314 -1.0955 -1.4143
  872MPD2    H212851   4.314   1.807  14.218  1.2360  1.8255 -0.2801
  872MPD2    H312852   4.146   1.669  14.289  3.7074  1.2985 -1.4478
  872MPD2     N12853   3.823   1.994  14.296 -0.4251  0.0588  0.4113
  872MPD2    H512854   3.806   2.089  14.264 -1.2936 -0.3343 -0.2999
  872MPD2    N112855   4.277   2.075  14.136  0.4020 -0.6841 -0.8814
  872MPD2    H712856   4.239   2.167  14.116 -1.6987 -1.3639  0.0102
  873MPD2     C12857   1.365   1.753   0.839 -0.5844  0.2177  0.1447
  873MPD2    C112858   1.266   1.772   0.928  0.0527 -0.3464  0.2793
  873MPD2    C212859   1.188   1.658   0.951  0.2373  0.2324  0.0520
  873MPD2    C312860   1.222   1.536   0.895 -0.1181 -0.4165 -0.2952
  873MPD2    C412861   1.331   1.524   0.811 -0.1699 -0.3919 -0.3034
  873MPD2    C512862   1.407   1.631   0.780 -0.2329  0.3579 -0.6209
  873MPD2     H12863   1.098   1.656   1.012  0.5127  2.0785  0.5311
  873MPD2    H112864   1.359   1.433   0.759  2.1299  0.6693 -0.9175
  873MPD2    H212865   1.411   1.844   0.801 -0.3744  0.5712  1.2396
  873MPD2    H312866   1.489   1.629   0.709 -0.7857 -0.6848 -1.2249
  873MPD2     N12867   1.128   1.426   0.894 -0.2341 -0.8554  0.2010
  873MPD2    H512868   1.151   1.340   0.845 -1.9931  0.7563 -3.4057
  873MPD2    N112869   1.251   1.901   0.980 -0.0821  0.0460  0.1644
  873MPD2    H712870   1.298   1.977   0.930  3.6665 -1.4623  1.3859
  874MPD2     C12871   0.749   2.006  16.512  1.0127  0.0440  0.4732
  874MPD2    C112872   0.730   1.943  16.636 -0.0546  0.2087  0.0945
  874MPD2    C212873   0.777   2.012  16.751  0.1467 -0.7787  0.1307
  874MPD2    C312874   0.839   2.132  16.747  0.3409 -0.3273  0.0456
  874MPD2    C412875   0.853   2.194  16.623  0.0823 -0.3311  0.2142
  874MPD2    C512876   0.810   2.129  16.511 -0.3523 -0.4010 -0.0057
  874MPD2     H12877   0.759   1.963  16.846 -2.5627  0.1065  0.0667
  874MPD2    H112878   0.900   2.292  16.611  0.2547 -0.4843 -0.4088
  874MPD2    H212879   0.715   1.966  16.418  0.1176 -3.9359  2.5058
  874MPD2    H312880   0.821   2.180  16.416  1.6003 -0.9186 -0.0550
  874MPD2     N12881   0.885   2.192  16.868  0.5218 -0.5192 -0.7901
  874MPD2    H512882   0.871   2.142  16.955 -1.5212  0.3145 -0.6401
  874MPD2    N112883   0.675   1.816  16.644  0.2522  0.1905  0.0248
  874MPD2    H712884   0.632   1.782  16.558  0.3101  0.3600 -0.0711
  875MPD2     C12885   1.520   0.221  14.590  0.1049 -0.3704 -0.2412
  875MPD2    C112886   1.549   0.336  14.516  0.0786 -0.3096 -0.0242
  875MPD2    C212887   1.575   0.457  14.579  0.6661 -0.4042  0.4188
  875MPD2    C312888   1.569   0.462  14.720  0.1261  0.9531 -0.2293
  875MPD2    C412889   1.523   0.355  14.795 -0.0340  0.8248  0.3311
  875MPD2    C512890   1.497   0.240  14.723  0.1116  0.0387 -0.2028
  875MPD2     H12891   1.605   0.542  14.520 -0.7492 -0.1530  0.0490
  875MPD2    H112892   1.539   0.344  14.902 -0.4920 -1.6514  0.1496
  875MPD2    H212893   1.503   0.122  14.549  0.5569  0.1765 -1.7689
  875MPD2    H312894   1.480   0.145  14.773 -0.6579  0.6068  0.6184
  875MPD2     N12895   1.610   0.572  14.794  0.4320 -0.7831 -0.6951
  875MPD2    H512896   1.591   0.556  14.892 -3.4286  0.9871 -1.1459
  875MPD2    N112897   1.561   0.330  14.381 -0.0682  0.1475 -0.3184
  875MPD2    H712898   1.566   0.424  14.344 -0.5191 -0.4252 -1.8323
  876MPD2     C12899   0.612   1.513  16.331  0.3739 -0.1461  0.0506
  876MPD2    C112900   0.725   1.504  16.248 -0.1571 -0.3156 -0.5812
  876MPD2    C212901   0.805   1.393  16.279  0.0532 -0.0783 -0.1427
  876MPD2    C312902   0.774   1.302  16.373 -0.3195  0.5414  0.4601
  876MPD2    C412903   0.672   1.323  16.466 -1.0442 -1.2714  0.1696
  876MPD2    C512904   0.591   1.429  16.435 -0.0591 -0.0233 -0.4335
  876MPD2     H12905   0.897   1.388  16.222  1.2580 -2.5443  2.0571
  876MPD2    H112906   0.650   1.266  16.556 -3.7796  0.8217  0.8152
  876MPD2    H212907   0.543   1.596  16.319  0.9831  0.3433 -0.0447
  876MPD2    H312908   0.499   1.438  16.491 -1.0543  1.9615 -2.4016
  876MPD2     N12909   0.849   1.177  16.375 -0.1540 -0.1953  0.1517
  876MPD2    H512910   0.917   1.166  16.300 -2.1418  1.6659 -1.9147
  876MPD2    N112911   0.751   1.603  16.150  0.5173  0.4168  0.0745
  876MPD2    H712912   0.698   1.689  16.151  0.5888  0.5136 -2.7477
  877MPD2     C12913   0.458   1.953  15.550 -0.1134 -0.0392 -0.0366
  877MPD2    C112914   0.596   1.963  15.526 -0.6658 -0.1852  0.0872
  877MPD2    C212915   0.642   1.974  15.398  0.4336 -0.3205  0.2360
  877MPD2    C312916   0.551   1.984  15.288  0.3862  0.1761 -0.4132
  877MPD2    C412917   0.417   1.987  15.313  0.0195 -0.9436 -0.2967
  877MPD2    C512918   0.373   1.973  15.448 -0.0474  0.5092 -0.9184
  877MPD2     H12919   0.748   1.968  15.376  0.5735 -0.3258  0.9196
  877MPD2    H112920   0.358   1.991  15.223 -0.7462  0.7837  0.2919
  877MPD2    H212921   0.421   1.936  15.650 -0.3620 -0.8229 -0.2629
  877MPD2    H312922   0.267   1.977  15.467  0.6197 -0.7392  3.0112
  877MPD2     N12923   0.589   1.983  15.151 -0.0486  0.4194 -0.3383
  877MPD2    H512924   0.519   1.970  15.079  0.5633  2.6160 -1.3081
  877MPD2    N112925   0.692   1.940  15.636  0.2227 -0.2454  0.3631
  877MPD2    H712926   0.791   1.932  15.612  0.4644  1.6490  0.7602
  878MPD2     C12927   0.664   1.268  13.318  0.6425 -0.4505 -0.1816
  878MPD2    C112928   0.651   1.404  13.306  0.2166 -0.5285 -0.5363
  878MPD2    C212929   0.589   1.483  13.403  0.5209 -0.3648  0.2707
  878MPD2    C312930   0.515   1.421  13.505 -0.4717 -0.6996  0.6253
  878MPD2    C412931   0.517   1.285  13.506  1.0169 -0.1894 -0.1019
  878MPD2    C512932   0.589   1.212  13.415 -0.0405  0.2489  0.2542
  878MPD2     H12933   0.594   1.591  13.409  1.6359 -0.3487 -0.9733
  878MPD2    H112934   0.460   1.233  13.582  1.6417 -1.1468 -0.2906
  878MPD2    H212935   0.733   1.211  13.257  0.7181  0.3847 -0.8711
  878MPD2    H312936   0.598   1.107  13.440 -0.6324 -0.4519 -2.4675
  878MPD2     N12937   0.456   1.502  13.601 -0.5183  0.0966 -1.1969
  878MPD2    H512938   0.469   1.602  13.592  0.8638  0.0947  0.8652
  878MPD2    N112939   0.705   1.454  13.186  0.2036  0.1208 -0.4835
  878MPD2    H712940   0.735   1.390  13.113  1.1052 -0.5652  0.4850
  879MPD2     C12941   0.759   2.903  17.108  0.4543 -0.0721  0.5786
  879MPD2    C112942   0.775   2.790  17.176  0.2136  0.3269  0.2974
  879MPD2    C212943   0.723   2.678  17.118  0.6467  0.1556  0.5807
  879MPD2    C312944   0.647   2.679  17.004 -0.3501 -0.2871  0.5415
  879MPD2    C412945   0.623   2.800  16.942  0.0013  0.1683 -0.4242
  879MPD2    C512946   0.677   2.911  17.001  0.1849 -0.0641  0.1854
  879MPD2     H12947   0.746   2.585  17.168  0.1565 -0.4856 -0.3744
  879MPD2    H112948   0.571   2.810  16.847 -3.1049 -3.9701  0.8374
  879MPD2    H212949   0.800   2.997  17.143  1.3001  0.5772 -2.1470
  879MPD2    H312950   0.655   3.009  16.959 -0.8656  0.1070  1.1175
  879MPD2     N12951   0.588   2.568  16.938 -0.0501 -0.0149  0.0153
  879MPD2    H512952   0.556   2.581  16.843  1.0777  1.4224 -0.1688
  879MPD2    N112953   0.865   2.789  17.284 -0.2382 -0.3227  0.2131
  879MPD2    H712954   0.909   2.878  17.308 -1.7348  0.5953 -0.4349
  880MPD2     C12955   2.088   3.870   0.501  0.4908  0.4894 -0.8330
  880MPD2    C112956   2.167   3.939   0.410  0.6116 -0.3144  0.1356
  880MPD2    C212957   2.293   3.894   0.391 -0.2282  0.4500 -0.0062
  880MPD2    C312958   2.350   3.785   0.452  0.6783  0.4647  0.5224
  880MPD2    C412959   2.274   3.715   0.535 -0.1154  0.0652 -0.5741
  880MPD2    C512960   2.140   3.762   0.567 -0.6069  0.4515  0.0734
  880MPD2     H12961   2.366   3.946   0.330  0.3860  1.9592  1.9989
  880MPD2    H112962   2.302   3.624   0.587 -0.3523 -0.9334 -2.1600
  880MPD2    H212963   1.988   3.905   0.524  0.0584 -1.5046  0.3451
  880MPD2    H312964   2.065   3.706   0.622 -0.8135  1.1282  0.4842
  880MPD2     N12965   2.488   3.754   0.423 -0.2865  0.1644  0.6913
  880MPD2    H512966   2.528   3.828   0.366  0.8525 -0.8710  0.1636
  880MPD2    N112967   2.113   4.050   0.344 -0.7294 -0.6575 -0.0604
  880MPD2    H712968   2.020   4.078   0.374 -1.3008 -0.8384 -1.6262
  881MPD2     C12969   2.250   0.234  17.527 -0.3862  0.6381  0.3541
  881MPD2    C112970   2.267   0.107  17.480 -0.9855  0.0374  0.0220
  881MPD2    C212971   2.221   0.008  17.561  0.5088  0.4685 -0.3825
  881MPD2    C312972   2.145   0.026  17.679  0.9252 -0.5396 -0.0696
  881MPD2    C412973   2.113   0.157  17.715 -0.7879  0.3684  0.7408
  881MPD2    C512974   2.157   0.256  17.629 -0.2558  0.5031 -0.4863
  881MPD2     H12975   2.244   4.642  17.548  0.8689  0.2578  1.8703
  881MPD2    H112976   2.047   0.170   0.044 -0.5214 -2.3304  1.3645
  881MPD2    H212977   2.277   0.313  17.458  1.1119  0.6695  0.9952
  881MPD2    H312978   2.140   0.360  17.654  0.0175  1.2304 -3.2487
  881MPD2     N12979   2.108   4.665   0.013  0.4937 -0.6520 -0.7597
  881MPD2    H512980   2.032   4.691   0.075  0.4439 -0.1677 -1.0236
  881MPD2    N112981   2.357   0.088  17.379  0.1090  0.6415  0.3763
  881MPD2    H712982   2.403   0.171  17.343 -0.5154  0.1018 -1.6640
  882MPD2     C12983   0.728   1.907  14.320 -0.0824 -0.5321  0.2649
  882MPD2    C112984   0.638   1.887  14.420 -0.2183  0.4641 -0.1441
  882MPD2    C212985   0.504   1.872  14.388  0.4565  1.1979 -0.1960
  882MPD2    C312986   0.470   1.895  14.256  0.5882  0.4248 -0.2907
  882MPD2    C412987   0.555   1.943  14.163 -0.2495  0.0498  0.5736
  882MPD2    C512988   0.686   1.937  14.195 -0.0463 -0.2267 -0.6629
  882MPD2     H12989   0.429   1.870  14.466  0.6108  2.8629  0.0040
  882MPD2    H112990   0.512   1.977  14.070  1.2565 -1.7906 -0.7880
  882MPD2    H212991   0.831   1.908  14.351 -0.7247  0.6082  2.3480
  882MPD2    H312992   0.761   1.952  14.117  1.3803  1.0735  0.9440
  882MPD2     N12993   0.340   1.884  14.215 -0.0467 -0.1512 -0.2301
  882MPD2    H512994   0.303   1.919  14.128 -2.1044 -0.4561  0.5085
  882MPD2    N112995   0.687   1.874  14.558  0.5347  0.0605  0.1300
  882MPD2    H712996   0.787   1.879  14.576  0.4471 -2.0045  1.1618
  883MPD2     C12997   2.290   1.785  15.885 -0.0936 -0.3178  0.1232
  883MPD2    C112998   2.380   1.874  15.828  0.4841  0.1180 -0.0488
  883MPD2    C212999   2.487   1.924  15.904  0.2245 -0.4894  0.4999
  883MPD2    C313000   2.504   1.886  16.030 -0.3458  0.3674 -0.2842
  883MPD2    C413001   2.417   1.796  16.091 -0.9707 -1.0066 -0.4688
  883MPD2    C513002   2.316   1.747  16.017  0.5170 -0.0084  0.4632
  883MPD2     H13003   2.551   1.996  15.855  0.5118 -0.5471  0.7899
  883MPD2    H113004   2.435   1.751  16.188 -1.7002  0.8205  0.5081
  883MPD2    H213005   2.204   1.751  15.828 -0.7326 -1.7911  1.9931
  883MPD2    H313006   2.259   1.670  16.067  1.0955 -1.2796 -0.8417
  883MPD2     N13007   2.625   1.941  16.091 -0.4989 -0.1921  0.4250
  883MPD2    H513008   2.684   1.994  16.028 -0.8527  0.4140  0.6077
  883MPD2    N113009   2.365   1.929  15.694  0.0100 -0.6934 -0.6236
  883MPD2    H713010   2.442   1.988  15.663 -0.5091  0.9053  1.0753
  884MPD2     C13011   4.470   2.968  15.004 -0.3775 -0.5317 -0.1789
  884MPD2    C113012   4.537   2.853  15.037 -0.0606 -0.0616 -0.2037
  884MPD2    C213013   4.486   2.780  15.138 -0.6921 -0.2266 -0.0569
  884MPD2    C313014   4.383   2.829  15.220 -0.1991  0.5677  0.4620
  884MPD2    C413015   4.329   2.955  15.188 -0.1730 -0.1346  0.3416
  884MPD2    C513016   4.371   3.017  15.079 -0.6117  0.4651  0.4313
  884MPD2     H13017   4.526   2.680  15.152  1.4615  1.0520  2.6822
  884MPD2    H113018   4.244   3.000  15.239 -1.3305  0.3025 -2.0106
  884MPD2    H213019   4.496   3.020  14.912 -2.9800  0.9884 -0.0536
  884MPD2    H313020   4.323   3.109  15.049 -1.8636 -0.2662  0.2314
  884MPD2     N13021   4.340   2.750  15.326 -0.6019 -0.5792 -0.5209
  884MPD2    H513022   4.406   2.679  15.354  0.1883 -0.4182 -1.9764
  884MPD2    N113023   4.643   2.809  14.965  0.1001 -0.6315 -0.4860
  884MPD2    H713024   4.694   2.730  15.004  0.4933  0.0663  0.4402
  885MPD2     C13025   2.975   2.771   0.112  0.2705 -0.0544 -0.8154
  885MPD2    C113026   3.040   2.877   0.178  0.0000  0.5399  0.0216
  885MPD2    C213027   3.094   2.970   0.088  0.1249  0.3799  0.2365
  885MPD2    C313028   3.085   2.964  17.705  0.7296 -0.4370  0.3185
  885MPD2    C413029   3.019   2.859  17.649 -0.3151 -0.5122 -0.0575
  885MPD2    C513030   2.966   2.763  17.730  0.3489  1.2960 -0.3232
  885MPD2     H13031   3.156   3.047   0.132  0.9030 -1.6058  2.6125
  885MPD2    H113032   3.000   2.852  17.543  0.1059 -0.0742 -0.1637
  885MPD2    H213033   2.930   2.687   0.165 -0.3860  1.4697  1.0542
  885MPD2    H313034   2.919   2.676  17.686  0.7811  0.8783  0.0561
  885MPD2     N13035   3.135   3.057  17.609  0.6965 -0.5979  0.1311
  885MPD2    H513036   3.099   3.060  17.514  1.6940  0.7026 -0.2095
  885MPD2    N113037   3.050   2.869   0.317  0.2713 -0.2433 -0.0232
  885MPD2    H713038   3.015   2.781   0.352 -1.4606  1.1965  1.8870
  886MPD2     C13039   4.165   1.715  15.694  0.0630  0.6901  0.3628
  886MPD2    C113040   4.250   1.625  15.626 -0.7984  0.1928  0.6738
  886MPD2    C213041   4.243   1.613  15.491 -0.7856 -0.1149 -0.5859
  886MPD2    C313042   4.165   1.705  15.419  0.2052  0.5697 -0.4635
  886MPD2    C413043   4.089   1.802  15.488  0.3863  0.4764  0.1436
  886MPD2    C513044   4.091   1.805  15.621 -0.3937  0.1453 -0.1393
  886MPD2     H13045   4.306   1.551  15.429  0.5390  1.3747 -0.7127
  886MPD2    H113046   4.037   1.880  15.433 -1.0257 -0.3951  0.2595
  886MPD2    H213047   4.165   1.731  15.801 -0.2003 -0.2214  0.4942
  886MPD2    H313048   4.025   1.872  15.675 -0.4406  0.6992 -0.8796
  886MPD2     N13049   4.176   1.702  15.281  0.4707 -0.3397 -0.2087
  886MPD2    H513050   4.241   1.631  15.248  0.6739 -0.1227 -0.2732
  886MPD2    N113051   4.328   1.536  15.708  0.4461 -0.1910  0.2424
  886MPD2    H713052   4.328   1.556  15.807  0.3832 -1.1097  0.4281
  887MPD2     C13053   4.716   1.565  16.294 -0.6448  0.3179 -0.4581
  887MPD2    C113054   4.707   1.597  16.159  0.3748 -0.0139 -0.2924
  887MPD2    C213055   0.043   1.703  16.103  0.4725  0.1471 -0.1410
  887MPD2    C313056   0.111   1.790  16.190 -0.2466 -0.2617  0.4011
  887MPD2    C413057   0.118   1.764  16.324 -0.4482  0.4362 -0.2961
  887MPD2    C513058   0.060   1.646  16.373 -0.5992 -0.4156  0.9323
  887MPD2     H13059   0.063   1.707  15.997  1.7526  1.5839  0.1633
  887MPD2    H113060   0.175   1.821  16.397 -2.5930  1.5387  0.5044
  887MPD2    H213061   4.650   1.497  16.347 -1.5686  1.4952 -0.0818
  887MPD2    H313062   0.083   1.624  16.477 -1.6858 -0.1384  1.2295
  887MPD2     N13063   0.165   1.909  16.138 -0.3523  0.1184 -0.9404
  887MPD2    H513064   0.168   1.917  16.037 -2.0284 -1.7828 -1.1474
  887MPD2    N113065   4.643   1.508  16.068 -0.2166 -0.1258 -0.2085
  887MPD2    H713066   4.637   1.539  15.972 -2.8428 -4.6995 -1.5195
  888MPD2     C13067   1.764   1.477  14.849  0.5857 -0.3717 -0.2018
  888MPD2    C113068   1.749   1.530  14.969 -0.3639 -0.3459 -0.4362
  888MPD2    C213069   1.798   1.654  14.996 -0.6765 -0.0571  0.7540
  888MPD2    C313070   1.873   1.723  14.899 -1.2786  0.9913 -0.0302
  888MPD2    C413071   1.882   1.667  14.777  0.6729 -0.5838  1.2666
  888MPD2    C513072   1.825   1.548  14.747  0.2736  0.7062  0.3577
  888MPD2     H13073   1.782   1.699  15.093  2.8008  1.0186  0.8157
  888MPD2    H113074   1.935   1.718  14.698 -0.3406 -0.7934  0.4504
  888MPD2    H213075   1.705   1.395  14.810 -0.9266  0.9665 -0.7222
  888MPD2    H313076   1.836   1.503  14.650  0.4685 -0.4785  0.9309
  888MPD2     N13077   1.927   1.849  14.937  0.6226 -0.3428  0.6418
  888MPD2    H513078   1.915   1.873  15.034  1.2124 -4.1211  1.6325
  888MPD2    N113079   1.681   1.467  15.077 -0.1640  0.4777 -0.2804
  888MPD2    H713080   1.690   1.505  15.171 -0.6070 -0.5008  0.1582
  889MPD2     C13081   1.022   1.489  12.762 -0.1325  0.1238 -0.6850
  889MPD2    C113082   1.113   1.474  12.862  0.1488  0.1027  0.1434
  889MPD2    C213083   1.105   1.553  12.976  0.8025  0.6750 -0.3083
  889MPD2    C313084   1.041   1.674  12.969  0.1146 -1.0957  0.8106
  889MPD2    C413085   0.987   1.710  12.851 -0.4388 -0.5698  0.1284
  889MPD2    C513086   0.966   1.611  12.748 -0.8875  0.0388 -0.9521
  889MPD2     H13087   1.179   1.533  13.053 -1.2295  1.8969  1.9655
  889MPD2    H113088   0.943   1.808  12.838  0.0439 -0.3451  0.1733
  889MPD2    H213089   1.038   1.427  12.675 -0.8695 -0.3790 -0.4670
  889MPD2    H313090   0.895   1.623  12.668 -1.1127 -0.8883 -0.8894
  889MPD2     N13091   1.059   1.770  13.076 -0.5765  0.1408  0.2435
  889MPD2    H513092   1.101   1.732  13.160  0.6187 -2.1489 -1.4060
  889MPD2    N113093   1.179   1.346  12.867  0.8781 -0.3452 -0.5189
  889MPD2    H713094   1.156   1.274  12.799 -0.8241  1.1696 -1.5444
  890MPD2     C13095   0.744   2.857  14.752  0.2772  0.2508 -0.1702
  890MPD2    C113096   0.816   2.950  14.832 -0.0755  0.4406 -0.1140
  890MPD2    C213097   0.884   2.895  14.942  0.2549 -0.0544 -0.3543
  890MPD2    C313098   0.891   2.760  14.969  0.7286 -0.0405  0.1802
  890MPD2    C413099   0.828   2.667  14.890  0.0753  0.0520  0.2612
  890MPD2    C513100   0.750   2.720  14.787 -0.7356  1.2006 -0.7329
  890MPD2     H13101   0.927   2.960  15.017 -1.4723  0.6171  0.0611
  890MPD2    H113102   0.829   2.559  14.898 -1.2203 -0.0638 -1.1910
  890MPD2    H213103   0.677   2.888  14.673 -0.5439 -0.1143  0.3823
  890MPD2    H313104   0.691   2.646  14.734  0.0170  0.0535  0.0226
  890MPD2     N13105   0.967   2.722  15.079  0.1218  0.7569 -0.1884
  890MPD2    H513106   1.034   2.788  15.119  0.0366 -0.0283  1.2583
  890MPD2    N113107   0.795   3.086  14.803 -0.2913 -0.0786 -0.3587
  890MPD2    H713108   0.725   3.115  14.735  0.5977 -0.7269 -1.5550
  891MPD2     C13109   3.665   1.233  16.718 -0.1311 -0.3133  0.4318
  891MPD2    C113110   3.555   1.204  16.786  0.5774  0.7017 -0.4710
  891MPD2    C213111   3.558   1.106  16.888 -0.6433  0.1540  0.0996
  891MPD2    C313112   3.677   1.049  16.926 -0.5411  0.2982  0.7951
  891MPD2    C413113   3.786   1.084  16.852  0.2048 -0.1494  0.2882
  891MPD2    C513114   3.778   1.168  16.748 -0.4997 -0.4042  0.0126
  891MPD2     H13115   3.471   1.089  16.952  1.0592  0.5600  2.5174
  891MPD2    H113116   3.884   1.043  16.870  0.6900  0.5888 -0.6467
  891MPD2    H213117   3.669   1.313  16.644  0.9570 -0.5770  0.1979
  891MPD2    H313118   3.868   1.204  16.699 -0.4151  1.5021  1.5586
  891MPD2     N13119   3.692   0.962  17.047 -0.2132 -0.2806  0.4817
  891MPD2    H513120   3.606   0.932  17.093 -0.9643  1.3661  0.1333
  891MPD2    N113121   3.427   1.254  16.726 -0.2115  0.3053 -0.3787
  891MPD2    H713122   3.441   1.315  16.646 -0.9551  0.6110 -0.2746
  892MPD2     C13123   4.633   2.496  14.687 -0.2987  1.1113  0.3271
  892MPD2    C113124   4.571   2.384  14.735 -0.0538  0.0431  0.1865
  892MPD2    C213125   4.599   2.261  14.683  0.2605 -0.1540  0.8047
  892MPD2    C313126   4.703   2.247  14.593 -0.4778 -0.5587  0.2979
  892MPD2    C413127   0.043   2.360  14.574 -0.7041  0.4920  0.1478
  892MPD2    C513128   0.008   2.480  14.625 -0.0429  0.6208 -0.7347
  892MPD2     H13129   4.550   2.169  14.715  1.4021 -1.3891 -0.9872
  892MPD2    H113130   0.140   2.352  14.527  0.3566  2.6142  2.0186
  892MPD2    H213131   4.607   2.598  14.712 -1.8313  0.3924  1.6538
  892MPD2    H313132   0.081   2.559  14.612  2.0531 -1.6658 -2.8569
  892MPD2     N13133   4.737   2.125  14.526 -0.1332  0.0790 -0.9549
  892MPD2    H513134   0.076   2.125  14.462 -1.4516 -0.3244 -2.5665
  892MPD2    N113135   4.457   2.399  14.818  0.5896 -0.1667  0.2376
  892MPD2    H713136   4.411   2.490  14.812  0.8624 -0.0834 -0.5856
  893MPD2     C13137   0.514   4.387   1.409  0.4101 -0.1450 -0.1578
  893MPD2    C113138   0.490   4.512   1.354  0.8400 -0.4319  0.4162
  893MPD2    C213139   0.374   4.522   1.279  0.2055  0.2663  0.1769
  893MPD2    C313140   0.285   4.420   1.267 -0.4204 -0.4418 -0.0800
  893MPD2    C413141   0.310   4.302   1.329 -0.3638 -0.2562  0.8562
  893MPD2    C513142   0.416   4.282   1.400  0.3803 -0.5201 -0.1334
  893MPD2     H13143   0.362   4.622   1.240  1.4685  0.7520  1.0349
  893MPD2    H113144   0.242   4.218   1.317  1.1976 -1.0538 -2.5715
  893MPD2    H213145   0.602   4.372   1.471  1.6709  0.1741 -1.8709
  893MPD2    H313146   0.429   4.185   1.447  2.2667  0.2873  0.9966
  893MPD2     N13147   0.162   4.434   1.202 -0.3452 -0.0644 -0.1741
  893MPD2    H513148   0.100   4.355   1.190  0.4115 -0.4025 -1.8086
  893MPD2    N113149   0.582   4.611   1.373 -0.3356 -0.0754  0.1257
  893MPD2    H713150   0.676   4.586   1.401 -0.2259 -1.9411 -1.8806
  894MPD2     C13151   4.480   3.174   1.397 -0.1433  0.0028  0.1486
  894MPD2    C113152   4.499   3.268   1.304  0.5645  0.0238  0.2863
  894MPD2    C213153   4.467   3.243   1.173  1.0236  0.4640 -0.3770
  894MPD2    C313154   4.418   3.117   1.129 -0.1672  0.3533 -0.0929
  894MPD2    C413155   4.411   3.015   1.224 -0.5420  0.5532  0.5901
  894MPD2    C513156   4.444   3.043   1.356 -0.3165  0.1879 -0.9133
  894MPD2     H13157   4.479   3.328   1.107  0.4910  1.7703  1.2054
  894MPD2    H113158   4.373   2.917   1.197  0.5443 -0.7317  3.6595
  894MPD2    H213159   4.501   3.185   1.503 -2.2970 -1.9761  0.8026
  894MPD2    H313160   4.440   2.957   1.422 -1.6629  1.4161  0.5819
  894MPD2     N13161   4.373   3.100   0.997  0.1925 -0.2817 -0.6607
  894MPD2    H513162   4.348   3.178   0.938 -1.3117 -0.8969 -0.8239
  894MPD2    N113163   4.547   3.401   1.334  0.7929  0.6875 -0.3471
  894MPD2    H713164   4.537   3.474   1.265 -1.6481  1.9640  1.3460
  895MPD2     C13165   3.613   1.601  14.186  0.0071 -0.1580  0.0081
  895MPD2    C113166   3.658   1.646  14.060  0.4867 -0.0680  0.0370
  895MPD2    C213167   3.764   1.576  13.993  0.1775  0.3793 -0.4759
  895MPD2    C313168   3.812   1.461  14.049  0.2148 -0.2812 -0.3767
  895MPD2    C413169   3.771   1.416  14.174 -0.0589  0.4453  0.1778
  895MPD2    C513170   3.680   1.491  14.244  0.9002 -0.4604  0.1095
  895MPD2     H13171   3.772   1.612  13.891  4.6296 -1.0079 -0.6064
  895MPD2    H113172   3.803   1.324  14.221  1.3215  0.1674 -1.3028
  895MPD2    H213173   3.539   1.646  14.250 -0.9243  0.0631 -1.2398
  895MPD2    H313174   3.630   1.463  14.335 -1.9803  1.2387 -0.9362
  895MPD2     N13175   3.895   1.375  13.975  0.0088  0.2346 -0.3477
  895MPD2    H513176   3.896   1.276  13.995  0.4600  0.2152 -0.4771
  895MPD2    N113177   3.594   1.759  13.999  0.1388  0.0605  0.6444
  895MPD2    H713178   3.603   1.756  13.897  1.4129 -1.5036  0.7995
  896MPD2     C13179   1.443   3.823   1.276 -0.2150 -0.2863  0.2357
  896MPD2    C113180   1.425   3.708   1.198 -0.0589  0.2592  0.5292
  896MPD2    C213181   1.296   3.649   1.197 -0.1338  0.4430 -0.7090
  896MPD2    C313182   1.188   3.709   1.254  0.0270 -0.8435 -0.6357
  896MPD2    C413183   1.209   3.826   1.329 -0.9093  0.8571  0.2410
  896MPD2    C513184   1.331   3.878   1.335 -0.5307  0.1489 -0.5182
  896MPD2     H13185   1.280   3.558   1.140 -0.1318 -0.3932  0.6323
  896MPD2    H113186   1.128   3.877   1.380 -3.3565 -0.2428 -2.5952
  896MPD2    H213187   1.538   3.871   1.293  0.6174 -1.6095 -0.7301
  896MPD2    H313188   1.347   3.965   1.397  3.2285 -1.3149  0.5250
  896MPD2     N13189   1.060   3.644   1.242  0.2687  0.4062 -0.7394
  896MPD2    H513190   1.043   3.551   1.206 -2.6254  0.2597  0.9669
  896MPD2    N113191   1.530   3.656   1.119 -1.0108 -0.4193 -0.3104
  896MPD2    H713192   1.621   3.700   1.127 -1.7971  1.3151 -0.9373
  897MPD2     C13193   2.350   0.700  11.072  0.8932  0.0453  0.5563
  897MPD2    C113194   2.376   0.836  11.057  0.6647  0.5346 -0.7170
  897MPD2    C213195   2.321   0.930  11.147 -0.0646 -0.4751 -0.2409
  897MPD2    C313196   2.251   0.887  11.257  0.2042 -0.1998 -0.5534
  897MPD2    C413197   2.218   0.757  11.272  0.1158  0.4239  0.4721
  897MPD2    C513198   2.270   0.669  11.183 -0.3489  0.1255  0.4888
  897MPD2     H13199   2.338   1.037  11.140  2.3425 -0.7527  1.5614
  897MPD2    H113200   2.158   0.717  11.353 -0.0699  0.9067  0.5736
  897MPD2    H213201   2.388   0.616  11.015 -0.6765  0.1426 -0.6460
  897MPD2    H313202   2.238   0.566  11.193  0.3310  0.1002  2.4079
  897MPD2     N13203   2.189   0.986  11.336  0.6199 -0.4078 -0.5720
  897MPD2    H513204   2.202   1.083  11.311  0.2047 -0.2297 -0.1059
  897MPD2    N113205   2.439   0.886  10.941  0.3221  0.0429  0.0699
  897MPD2    H713206   2.448   0.987  10.937  1.9872 -0.1163  0.0323
  898MPD2     C13207   4.241   1.795   0.307 -0.5035 -0.3662  0.2940
  898MPD2    C113208   4.357   1.821   0.240  0.6607  0.3414  0.1952
  898MPD2    C213209   4.353   1.905   0.128  0.0378 -0.9361 -0.0418
  898MPD2    C313210   4.236   1.977   0.101 -0.5006  0.1074  0.4522
  898MPD2    C413211   4.120   1.951   0.177 -0.3885 -0.4466  0.4155
  898MPD2    C513212   4.125   1.850   0.269  0.3999 -0.5070 -0.1955
  898MPD2     H13213   4.448   1.934   0.084  0.2772  0.6126  1.4906
  898MPD2    H113214   4.022   1.990   0.153  0.8397  1.3234 -1.6733
  898MPD2    H213215   4.243   1.722   0.387  1.2245  1.0870  1.5972
  898MPD2    H313216   4.036   1.802   0.308  0.6441 -0.5313  0.3302
  898MPD2     N13217   4.245   2.076   0.004 -0.3420  0.2227  0.2724
  898MPD2    H513218   4.310   2.074  17.682 -0.5353  3.2668  0.0408
  898MPD2    N113219   4.476   1.774   0.300  0.9586  0.6692 -0.0159
  898MPD2    H713220   4.473   1.717   0.384  0.0609  1.3415  0.4098
  899MPD2     C13221   0.228   2.248  17.143 -0.1035 -0.5073 -0.2413
  899MPD2    C113222   0.275   2.323  17.252 -1.2461 -0.1316  0.1129
  899MPD2    C213223   0.284   2.260  17.377  0.3237 -0.2890 -0.1396
  899MPD2    C313224   0.255   2.126  17.396 -0.4281 -0.2331  0.2702
  899MPD2    C413225   0.227   2.048  17.286  0.0383 -0.3141 -0.1530
  899MPD2    C513226   0.206   2.111  17.164  0.3118  0.1915 -0.7937
  899MPD2     H13227   0.279   2.317  17.469 -0.4684  0.4169 -0.6097
  899MPD2    H113228   0.198   1.944  17.288  1.5555 -0.6972  1.8919
  899MPD2    H213229   0.216   2.271  17.038 -2.0792  0.1910  0.1393
  899MPD2    H313230   0.182   2.058  17.073  0.0024 -1.5406  0.2927
  899MPD2     N13231   0.234   2.080  17.534 -0.3857 -0.1124  0.9231
  899MPD2    H513232   0.229   2.152  17.605  0.9470 -0.9208  1.8458
  899MPD2    N113233   0.299   2.460  17.231 -0.1030  1.0785  0.1671
  899MPD2    H713234   0.281   2.498  17.138  0.7009 -0.1380 -0.4938
  900MPD2     C13235   0.591   4.204  12.599 -0.0143  0.3907  0.4383
  900MPD2    C113236   0.467   4.140  12.609  0.3995 -0.2824 -0.2072
  900MPD2    C213237   0.354   4.205  12.569  0.1757  0.2635  1.0747
  900MPD2    C313238   0.370   4.318  12.486 -0.1833 -0.7399  0.3164
  900MPD2    C413239   0.496   4.369  12.455 -0.6691 -0.0512  0.0871
  900MPD2    C513240   0.603   4.317  12.529 -0.1611 -0.3331  0.3436
  900MPD2     H13241   0.262   4.147  12.567  0.3976 -0.0508  0.1776
  900MPD2    H113242   0.514   4.452  12.388  1.4717 -0.9505 -0.4488
  900MPD2    H213243   0.679   4.157  12.641  0.8807  2.2424  0.6200
  900MPD2    H313244   0.697   4.370  12.520 -0.4760  0.7342  3.3924
  900MPD2     N13245   0.243   4.364  12.420  0.3850 -0.2494  0.5153
  900MPD2    H513246   0.155   4.323  12.450 -0.5920 -0.2827 -2.3944
  900MPD2    N113247   0.467   4.012  12.669 -0.3451  0.9321 -0.1177
  900MPD2    H713248   0.560   3.980  12.695 -0.5469 -0.5228 -1.2164
  901MPD2     C13249   4.585   3.175  12.978  0.1638 -0.5477 -0.3604
  901MPD2    C113250   4.713   3.128  12.978  0.3362 -0.2640  0.6296
  901MPD2    C213251   0.082   3.210  12.947  0.0916 -0.0709  0.0955
  901MPD2    C313252   0.054   3.342  12.926  0.2409 -0.0779  0.1664
  901MPD2    C413253   4.663   3.393  12.948  0.5267 -0.9551 -1.1176
  901MPD2    C513254   4.562   3.306  12.978 -0.1377  0.0877 -0.0544
  901MPD2     H13255   0.187   3.185  12.940 -0.0853 -1.1838  1.4257
  901MPD2    H113256   4.640   3.499  12.948 -0.4740 -1.1714 -2.1160
  901MPD2    H213257   4.496   3.118  13.004  0.8641 -1.0424  0.9411
  901MPD2    H313258   4.462   3.348  12.988  0.3157  1.1559  0.0152
  901MPD2     N13259   0.166   3.424  12.898  0.1209 -0.0082 -0.0124
  901MPD2    H513260   0.259   3.382  12.897  0.7001  1.2886 -0.4637
  901MPD2    N113261   4.730   2.994  13.000 -0.0622 -0.9627 -0.4649
  901MPD2    H713262   4.649   2.934  12.983 -0.7999 -0.4981  1.4088
  902MPD2     C13263   4.146   1.976  13.287 -0.0500 -0.2373  0.3279
  902MPD2    C113264   4.082   2.053  13.192 -0.0024  0.0007  0.2293
  902MPD2    C213265   4.092   2.022  13.052 -1.2816 -1.1263  0.4001
  902MPD2    C313266   4.174   1.918  13.011  0.1125 -0.4230 -0.3511
  902MPD2    C413267   4.235   1.839  13.112  0.5346  0.2766 -0.4303
  902MPD2    C513268   4.229   1.876  13.241  0.3739 -1.0119 -0.3504
  902MPD2     H13269   4.044   2.082  12.976 -2.4978  0.1832  2.2042
  902MPD2    H113270   4.307   1.761  13.087 -0.1677  0.5271 -3.2632
  902MPD2    H213271   4.153   2.009  13.390 -1.0081 -0.1016  0.3505
  902MPD2    H313272   4.287   1.830  13.320  1.6164  1.3587  0.1269
  902MPD2     N13273   4.198   1.892  12.873  0.2186 -0.1589 -0.4857
  902MPD2    H513274   4.206   1.796  12.843  1.7297 -0.6658  1.5637
  902MPD2    N113275   4.018   2.168  13.233  0.0783  0.3039 -0.3095
  902MPD2    H713276   4.031   2.197  13.329  0.2599 -2.9342  0.6600
  903MPD2     C13277   3.967   1.907  11.972 -0.3128  0.5569  0.0348
  903MPD2    C113278   3.915   1.966  12.087 -0.5781  0.6745  0.3293
  903MPD2    C213279   3.784   2.001  12.081  0.0930 -0.5798 -0.5809
  903MPD2    C313280   3.700   1.970  11.973 -0.3988  0.4788 -0.1849
  903MPD2    C413281   3.758   1.910  11.862 -0.7452 -0.6615  0.4819
  903MPD2    C513282   3.886   1.874  11.865  0.2601  0.0283 -0.3212
  903MPD2     H13283   3.747   2.046  12.172  0.7137  1.2744 -1.2301
  903MPD2    H113284   3.706   1.905  11.767 -0.3994  1.9394  0.1295
  903MPD2    H213285   4.070   1.875  11.966 -0.2248  0.8475 -0.0061
  903MPD2    H313286   3.945   1.844  11.779 -0.7944 -0.9291 -0.7214
  903MPD2     N13287   3.564   2.018  11.980  0.0708 -0.5026 -0.2198
  903MPD2    H513288   3.550   2.079  12.060 -2.6309 -0.5273 -0.6640
  903MPD2    N113289   3.998   1.969  12.199 -0.7165  0.4506 -0.6130
  903MPD2    H713290   4.089   1.924  12.193 -0.3498  0.9539  1.2219
  904MPD2     C13291   3.420   1.154  13.917  0.2449  0.2566 -0.3324
  904MPD2    C113292   3.369   1.138  14.042  0.3131 -0.1950  0.0477
  904MPD2    C213293   3.452   1.113  14.151  0.3252  0.0913 -0.2818
  904MPD2    C313294   3.583   1.096  14.130  0.8819  0.4677 -0.0927
  904MPD2    C413295   3.633   1.114  14.000 -0.0372  0.2923  0.3714
  904MPD2    C513296   3.552   1.148  13.893 -0.7272 -0.2602  0.4226
  904MPD2     H13297   3.407   1.092  14.248  0.1719 -2.4246 -0.9154
  904MPD2    H113298   3.737   1.094  13.978  0.2107 -1.4540  3.1465
  904MPD2    H213299   3.364   1.184  13.829 -0.8638  0.0821  0.3147
  904MPD2    H313300   3.593   1.179  13.797  0.1234 -3.4056 -0.2399
  904MPD2     N13301   3.668   1.048  14.233  0.0625 -0.2880  0.2142
  904MPD2    H513302   3.629   1.038  14.326 -0.0684  2.3215  0.4302
  904MPD2    N113303   3.235   1.158  14.073  0.5294 -0.0407 -0.0834
  904MPD2    H713304   3.215   1.169  14.172  2.1382 -1.4916  0.4070
  905MPD2     C13305   3.190   1.337  13.404 -0.4924 -0.0657 -0.5408
  905MPD2    C113306   3.250   1.374  13.524  0.0289  0.8739 -0.0684
  905MPD2    C213307   3.381   1.347  13.554  0.0571  0.4793 -0.0711
  905MPD2    C313308   3.466   1.300  13.456 -0.1031  0.5209 -0.3017
  905MPD2    C413309   3.409   1.270  13.332  0.7876  0.6794 -0.5295
  905MPD2    C513310   3.276   1.293  13.308 -0.4702 -0.2447 -0.1063
  905MPD2     H13311   3.421   1.360  13.654  0.9037 -1.4069 -0.1571
  905MPD2    H113312   3.472   1.245  13.247 -0.7983  2.8941 -2.3562
  905MPD2    H213313   3.087   1.349  13.375 -0.5319 -1.3443 -0.9428
  905MPD2    H313314   3.230   1.282  13.211  0.1116  1.9871 -0.6285
  905MPD2     N13315   3.596   1.257  13.479  0.5006 -0.2180 -0.3106
  905MPD2    H513316   3.644   1.194  13.416  1.4092  0.4723 -0.3117
  905MPD2    N113317   3.162   1.411  13.625 -0.0094  0.6178  0.1547
  905MPD2    H713318   3.062   1.409  13.611  0.1381 -2.5758 -0.3729
  906MPD2     C13319   1.159   1.044  11.772  0.0248 -0.4944 -0.0429
  906MPD2    C113320   1.117   1.025  11.647  0.1158 -0.3571 -0.4255
  906MPD2    C213321   1.043   0.915  11.617 -0.2343 -0.5109  0.3934
  906MPD2    C313322   1.020   0.812  11.703 -0.1112  0.2951  0.9869
  906MPD2    C413323   1.059   0.839  11.833 -0.1079  0.6077 -0.5755
  906MPD2    C513324   1.135   0.948  11.864 -0.0970 -0.2843 -0.2761
  906MPD2     H13325   1.004   0.896  11.517  0.7329 -0.5836  0.0229
  906MPD2    H113326   1.041   0.765  11.910  0.7270  0.7759 -0.2131
  906MPD2    H213327   1.205   1.134  11.811  0.2884 -0.2193 -1.0088
  906MPD2    H313328   1.167   0.958  11.967  0.2521 -0.1061 -0.4040
  906MPD2     N13329   0.953   0.691  11.673  0.3324 -0.7359 -0.6914
  906MPD2    H513330   0.944   0.625  11.749  1.4032  1.0361  0.9713
  906MPD2    N113331   1.140   1.115  11.544 -0.2149 -0.1471  0.0032
  906MPD2    H713332   1.122   1.078  11.451  0.4626  0.1115 -0.2241
  907MPD2     C13333   4.727   0.309  15.565  0.1553 -0.1719  0.5022
  907MPD2    C113334   0.083   0.210  15.546  0.1511  0.3724  0.2258
  907MPD2    C213335   0.154   0.163  15.657  0.2356 -0.1318 -0.3814
  907MPD2    C313336   0.117   0.202  15.783  0.4681  0.4396 -0.0020
  907MPD2    C413337   0.009   0.286  15.803 -0.1914 -0.2776 -0.3133
  907MPD2    C513338   4.691   0.350  15.695 -0.1837 -0.2491 -0.2299
  907MPD2     H13339   0.242   0.105  15.635 -0.7984 -2.0665  0.5778
  907MPD2    H113340   4.703   0.306  15.899 -0.2933 -2.1280  0.0163
  907MPD2    H213341   4.661   0.343  15.486 -0.9706 -1.2679  0.9812
  907MPD2    H313342   4.618   0.429  15.707 -2.0337 -1.5658 -2.7036
  907MPD2     N13343   0.187   0.143  15.888 -0.1273 -0.2393 -0.2611
  907MPD2    H513344   0.249   0.067  15.864 -0.0732  0.1247 -1.2710
  907MPD2    N113345   0.113   0.147  15.423 -0.1078  0.2373 -0.5303
  907MPD2    H713346   0.163   0.058  15.430 -0.9366 -0.2739 -1.1167
  908MPD2     C13347   2.172   0.511  10.057 -0.1752  0.4181 -0.2994
  908MPD2    C113348   2.242   0.449  10.155  0.3260 -0.3452  0.2348
  908MPD2    C213349   2.289   0.528  10.260 -0.6922 -0.0600  0.2064
  908MPD2    C313350   2.282   0.664  10.262 -0.1526  0.4628 -0.1732
  908MPD2    C413351   2.226   0.723  10.151  0.3180  0.0113  0.3250
  908MPD2    C513352   2.174   0.645  10.051  0.4918 -0.0050 -0.2522
  908MPD2     H13353   2.343   0.481  10.341  1.0343  1.7008  0.0782
  908MPD2    H113354   2.218   0.830  10.134  1.7673 -0.0966 -1.0479
  908MPD2    H213355   2.146   0.460   9.965  1.0546  1.8214 -1.4248
  908MPD2    H313356   2.141   0.688   9.956 -1.4866 -0.2872  0.3011
  908MPD2     N13357   2.349   0.732  10.366 -0.2244 -0.0680  0.8258
  908MPD2    H513358   2.401   0.677  10.434  1.1259  0.6079  0.3356
  908MPD2    N113359   2.260   0.311  10.143 -0.0379 -0.7865  0.6504
  908MPD2    H713360   2.222   0.273  10.058  2.2965  2.6655 -1.9507
  909MPD2     C13361   2.974   3.664  11.902 -0.3661  1.0651 -0.1797
  909MPD2    C113362   2.999   3.797  11.913  0.0770  0.4226  0.1939
  909MPD2    C213363   2.937   3.874  12.012 -0.4221  0.3112 -0.3567
  909MPD2    C313364   2.840   3.818  12.092 -0.2176 -0.4106 -0.4508
  909MPD2    C413365   2.806   3.686  12.065 -0.5158  0.2903  0.7702
  909MPD2    C513366   2.873   3.606  11.977  0.4700  0.0526 -1.3874
  909MPD2     H13367   2.961   3.977  12.035 -0.2377  0.6909 -2.2424
  909MPD2    H113368   2.726   3.642  12.124 -0.9236  0.0087  0.0022
  909MPD2    H213369   3.014   3.601  11.823 -1.9679  1.9603 -1.7038
  909MPD2    H313370   2.860   3.499  11.967  1.2162 -0.3876  2.6258
  909MPD2     N13371   2.763   3.902  12.172 -0.4276  0.2134 -1.1781
  909MPD2    H513372   2.784   4.001  12.163 -0.1634  0.3917  1.2279
  909MPD2    N113373   3.091   3.866  11.833 -0.2015  0.4658  0.2099
  909MPD2    H713374   3.101   3.966  11.845  2.0795 -0.0233  2.3146
  910MPD2     C13375   4.003   0.549  16.403  0.4376  0.1090 -0.1190
  910MPD2    C113376   4.093   0.560  16.296 -0.2271 -0.5098  0.3901
  910MPD2    C213377   4.045   0.639  16.193  0.3799 -0.0641  1.1094
  910MPD2    C313378   3.930   0.718  16.194 -0.5154 -0.0796 -0.6687
  910MPD2    C413379   3.853   0.712  16.309 -0.3401  0.8285 -0.4006
  910MPD2    C513380   3.882   0.620  16.409 -0.1287  0.2486  0.2157
  910MPD2     H13381   4.101   0.635  16.100  2.3436 -0.6911  2.3072
  910MPD2    H113382   3.754   0.756  16.304 -0.1508  1.2558 -0.4163
  910MPD2    H213383   4.026   0.487  16.488 -2.4138  0.7486  1.1150
  910MPD2    H313384   3.817   0.605  16.495  2.2367 -0.9169  1.8057
  910MPD2     N13385   3.881   0.798  16.094  0.4170 -0.5595  0.8044
  910MPD2    H513386   3.799   0.854  16.116 -1.2381 -2.7153  0.1899
  910MPD2    N113387   4.215   0.489  16.294 -0.5743  0.5795 -0.1780
  910MPD2    H713388   4.272   0.491  16.210 -0.9266 -1.8670 -0.4566
  911MPD2     C13389   1.833   1.115  16.008  0.3574 -1.0539 -0.0887
  911MPD2    C113390   1.866   1.153  16.135 -0.1507  0.1877 -0.0558
  911MPD2    C213391   1.812   1.271  16.182 -0.0459 -0.2370 -0.1178
  911MPD2    C313392   1.732   1.346  16.097 -0.0367  0.1447 -0.1189
  911MPD2    C413393   1.705   1.302  15.970 -0.2496 -0.2794 -0.5624
  911MPD2    C513394   1.761   1.191  15.922  0.6118 -0.1090 -0.1967
  911MPD2     H13395   1.828   1.303  16.285  1.4089 -1.8089  0.1387
  911MPD2    H113396   1.642   1.359  15.902 -0.1975 -0.7033 -0.9695
  911MPD2    H213397   1.864   1.018  15.970 -0.9538 -1.7483  0.6053
  911MPD2    H313398   1.740   1.153  15.823 -0.1072 -1.2587  0.3908
  911MPD2     N13399   1.663   1.461  16.146 -0.0904  0.0575 -0.0119
  911MPD2    H513400   1.578   1.490  16.100  0.0999 -0.1160 -0.4760
  911MPD2    N113401   1.961   1.076  16.202 -0.5656  0.1312 -0.1000
  911MPD2    H713402   1.980   0.986  16.159  0.2422 -0.7746  2.1605
  912MPD2     C13403   1.342   1.442  15.749  0.7208  0.3990  1.2312
  912MPD2    C113404   1.349   1.429  15.882  0.3395  0.1838  0.1184
  912MPD2    C213405   1.368   1.302  15.934 -0.0211 -0.0991 -0.0309
  912MPD2    C313406   1.405   1.199  15.851 -0.7145 -0.1384 -0.2198
  912MPD2    C413407   1.419   1.219  15.714  0.6471 -0.0453  0.2997
  912MPD2    C513408   1.373   1.337  15.663  0.3076  0.4197 -0.9719
  912MPD2     H13409   1.365   1.283  16.041  0.7326  2.8051  0.5019
  912MPD2    H113410   1.452   1.143  15.644 -0.6404 -0.1359 -0.2167
  912MPD2    H213411   1.331   1.540  15.704 -0.4590  1.0501  2.9221
  912MPD2    H313412   1.378   1.345  15.555  1.0081  0.4293 -0.9389
  912MPD2     N13413   1.425   1.082  15.924 -0.3327  0.2542 -0.2650
  912MPD2    H513414   1.414   1.087  16.025  1.2227  0.4654 -0.1097
  912MPD2    N113415   1.357   1.555  15.950  0.1744 -0.3295 -0.1515
  912MPD2    H713416   1.372   1.639  15.896  1.0632 -1.4231 -1.6030
  913MPD2     C13417   2.364   2.338  10.832 -0.2445 -0.3294 -0.1126
  913MPD2    C113418   2.439   2.422  10.910  0.7575 -0.4179  0.1849
  913MPD2    C213419   2.499   2.533  10.852  0.3407  0.6033  0.1450
  913MPD2    C313420   2.479   2.565  10.716 -0.2779  0.0823 -0.6583
  913MPD2    C413421   2.399   2.483  10.644  0.7228  0.0471 -0.2223
  913MPD2    C513422   2.350   2.369  10.701 -0.2494  0.0253 -0.6858
  913MPD2     H13423   2.561   2.592  10.918 -0.2290  0.7763  0.5324
  913MPD2    H113424   2.392   2.509  10.539 -2.5727 -0.3274 -0.0756
  913MPD2    H213425   2.317   2.247  10.868 -0.8337  0.7599  1.8579
  913MPD2    H313426   2.295   2.298  10.641 -0.5400  0.5040 -0.9885
  913MPD2     N13427   2.531   2.679  10.652 -0.3321  0.0346 -0.5385
  913MPD2    H513428   2.498   2.686  10.556 -1.9748  0.2245  0.0409
  913MPD2    N113429   2.448   2.388  11.047 -0.0051 -0.6217  0.1801
  913MPD2    H713430   2.378   2.319  11.071 -2.9601  2.7273  1.1556
  914MPD2     C13431   4.632   2.877  12.170 -0.2963 -0.3414 -0.0252
  914MPD2    C113432   4.671   2.978  12.255  0.3156  0.3728 -0.5420
  914MPD2    C213433   4.732   2.946  12.376  0.7596 -0.0948  0.8623
  914MPD2    C313434   4.733   2.810  12.417  0.0614  0.2861  0.0198
  914MPD2    C413435   4.693   2.712  12.332  0.2396  0.2292  0.0754
  914MPD2    C513436   4.642   2.746  12.211  0.4095  0.6577 -0.1015
  914MPD2     H13437   0.022   3.025  12.444 -3.6130  1.4303  0.9512
  914MPD2    H113438   4.685   2.606  12.354  0.5777  0.2885  0.4956
  914MPD2    H213439   4.597   2.903  12.070 -2.7181 -0.9685  0.6558
  914MPD2    H313440   4.621   2.661  12.147  0.3225  1.1127 -0.6683
  914MPD2     N13441   0.034   2.785  12.549 -0.1627  0.1379 -0.2602
  914MPD2    H513442   0.070   2.862  12.605  1.3804 -0.8181  0.0623
  914MPD2    N113443   4.662   3.106  12.202 -0.0308 -0.1171 -0.7923
  914MPD2    H713444   4.609   3.112  12.116  0.9202  3.2894 -1.1604
  915MPD2     C13445   3.180   2.766  15.743 -0.2033  0.1879 -0.2038
  915MPD2    C113446   3.071   2.787  15.666 -0.2703 -0.9797  0.4659
  915MPD2    C213447   2.948   2.818  15.722 -0.0132  0.0650 -0.5531
  915MPD2    C313448   2.923   2.791  15.858 -0.1426  0.2207 -0.2953
  915MPD2    C413449   3.037   2.757  15.931 -0.8350  0.2888 -0.0170
  915MPD2    C513450   3.160   2.746  15.872  0.6341 -0.1045  0.0102
  915MPD2     H13451   2.870   2.853  15.656 -1.2281 -1.4171  0.0970
  915MPD2    H113452   3.042   2.738  16.037  1.0819 -0.0687 -0.1702
  915MPD2    H213453   3.278   2.748  15.701  0.2941  0.7032  0.7240
  915MPD2    H313454   3.241   2.701  15.928  0.8898  2.8487  1.9880
  915MPD2     N13455   2.798   2.800  15.921  0.5140  0.4752  0.2316
  915MPD2    H513456   2.715   2.828  15.869 -0.2725 -0.8898  0.7527
  915MPD2    N113457   3.099   2.790  15.529  0.2808 -0.7286 -0.4125
  915MPD2    H713458   3.188   2.750  15.503  0.6391 -0.2771  0.1264
  916MPD2     C13459   0.951   1.004  15.811  0.4839 -0.4086  0.7716
  916MPD2    C113460   1.013   0.897  15.880 -0.3835 -0.3649 -0.4311
  916MPD2    C213461   1.094   0.805  15.819 -0.1446 -0.0487 -0.5843
  916MPD2    C313462   1.138   0.838  15.691  0.2628 -0.4989 -0.3240
  916MPD2    C413463   1.098   0.959  15.636 -0.5340 -0.7414  0.0705
  916MPD2    C513464   1.006   1.038  15.692 -0.8047 -0.3111 -0.9109
  916MPD2     H13465   1.143   0.730  15.880 -0.1785 -1.6125 -2.4861
  916MPD2    H113466   1.142   0.995  15.544  0.5660 -0.5770  0.6673
  916MPD2    H213467   0.871   1.068  15.847  0.3084 -0.2792  0.1500
  916MPD2    H313468   0.983   1.127  15.636 -1.2937  1.8687  2.7221
  916MPD2     N13469   1.240   0.764  15.629 -0.3284  0.5500 -0.4101
  916MPD2    H513470   1.285   0.692  15.684 -1.7954  0.0615  0.1704
  916MPD2    N113471   0.994   0.893  16.023 -1.1874 -0.1590  0.2888
  916MPD2    H713472   0.926   0.964  16.048  0.9340  2.0606 -0.2485
  917MPD2     C13473   1.722   3.087  11.712 -0.0500  0.8419 -0.2479
  917MPD2    C113474   1.654   3.204  11.697  0.3403  0.9131  0.4434
  917MPD2    C213475   1.693   3.279  11.587  0.4786  0.6713  0.2889
  917MPD2    C313476   1.774   3.229  11.489 -0.2905  0.0828  0.1425
  917MPD2    C413477   1.835   3.106  11.507 -0.2514 -0.0082 -0.5773
  917MPD2    C513478   1.813   3.041  11.623  1.1171  0.3314 -1.0060
  917MPD2     H13479   1.649   3.376  11.566  1.3949  1.0754  0.2338
  917MPD2    H113480   1.900   3.080  11.425 -0.5003 -3.6914  0.3649
  917MPD2    H213481   1.696   3.014  11.789 -0.5815 -1.3728 -2.5282
  917MPD2    H313482   1.874   2.956  11.651  0.1492  0.8417  2.6245
  917MPD2     N13483   1.799   3.293  11.369 -0.4584  0.3757 -0.6610
  917MPD2    H513484   1.856   3.254  11.294 -2.1258  0.8267 -2.1561
  917MPD2    N113485   1.547   3.245  11.786 -0.3508  0.7106 -0.9209
  917MPD2    H713486   1.522   3.177  11.857 -0.4059  1.5329 -0.1485
  918MPD2     C13487   1.313   4.013  12.394 -0.4412 -0.2014 -0.2920
  918MPD2    C113488   1.431   3.937  12.386  0.4394 -0.5133 -0.2354
  918MPD2    C213489   1.432   3.824  12.309 -0.4767 -0.7185  0.3603
  918MPD2    C313490   1.311   3.785  12.243  0.1580  0.5192  0.5597
  918MPD2    C413491   1.201   3.873  12.249 -0.1086 -0.0776 -0.4830
  918MPD2    C513492   1.201   3.986  12.319 -0.2514  0.1923 -0.1214
  918MPD2     H13493   1.527   3.777  12.290 -1.2289 -2.3554  0.6192
  918MPD2    H113494   1.113   3.851  12.189 -1.5196 -1.3907  2.0793
  918MPD2    H213495   1.310   4.110  12.442  2.6764 -0.3396  0.1950
  918MPD2    H313496   1.121   4.059  12.310 -0.5003 -0.1136 -0.3949
  918MPD2     N13497   1.302   3.664  12.171  0.0119  0.1236  0.2369
  918MPD2    H513498   1.384   3.603  12.175 -1.3806 -1.8453 -1.5966
  918MPD2    N113499   1.549   3.986  12.446 -0.4738  0.3093 -0.4249
  918MPD2    H713500   1.629   3.931  12.415  0.3760  0.6070  1.2495
  919MPD2     C13501   2.073   2.586  12.048  0.3568  0.3606  0.6682
  919MPD2    C113502   2.088   2.471  11.983 -0.1074  0.2487  0.6206
  919MPD2    C213503   2.092   2.480  11.843 -0.0347  0.1503  1.2530
  919MPD2    C313504   2.098   2.602  11.771  0.1435 -0.5621  0.0721
  919MPD2    C413505   2.116   2.713  11.845 -0.2867 -0.2587  0.7600
  919MPD2    C513506   2.079   2.697  11.979  0.2093  0.0331 -0.7187
  919MPD2     H13507   2.087   2.389  11.784 -1.9796  1.5780 -0.8081
  919MPD2    H113508   2.132   2.813  11.806 -0.4142  0.2474  1.9931
  919MPD2    H213509   2.074   2.585  12.157 -1.4963 -0.5771  0.6698
  919MPD2    H313510   2.079   2.785  12.042  0.2353 -1.1456  0.9129
  919MPD2     N13511   2.098   2.616  11.634  0.4243  0.4003  0.1518
  919MPD2    H513512   2.090   2.706  11.588  0.4874  0.6627  0.6567
  919MPD2    N113513   2.076   2.343  12.043 -0.0110 -0.8464 -0.0879
  919MPD2    H713514   2.075   2.259  11.986 -1.5188 -3.1582  3.3337
  920MPD2     C13515   1.382   2.905  11.040  0.1072 -0.5754 -0.5734
  920MPD2    C113516   1.401   2.774  11.006 -0.6193 -0.3908 -0.0238
  920MPD2    C213517   1.528   2.719  11.040  0.2303  0.0180  0.0035
  920MPD2    C313518   1.630   2.792  11.093  0.6847 -0.1449  0.3164
  920MPD2    C413519   1.605   2.924  11.126  0.4396  0.0636 -0.3998
  920MPD2    C513520   1.477   2.975  11.103 -0.1510  0.6906 -0.0172
  920MPD2     H13521   1.534   2.611  11.028  0.4208  0.0036  0.2376
  920MPD2    H113522   1.685   2.985  11.165 -0.2067  1.1113 -0.7392
  920MPD2    H213523   1.288   2.951  11.013 -0.2001 -0.5734  0.4948
  920MPD2    H313524   1.460   3.078  11.131  0.2608  0.2779  1.7360
  920MPD2     N13525   1.753   2.734  11.125 -0.0211 -0.2035  0.1338
  920MPD2    H513526   1.755   2.637  11.096  0.1184  0.1668 -1.0754
  920MPD2    N113527   1.305   2.691  10.948 -0.4694  0.4319 -0.3383
  920MPD2    H713528   1.331   2.593  10.951 -0.9531  0.3091  0.0850
  921MPD2     C13529   2.806   0.770  16.771  0.1460  0.1224 -0.0870
  921MPD2    C113530   2.768   0.884  16.713  0.0952 -0.0072 -0.7023
  921MPD2    C213531   2.632   0.893  16.678  0.1430 -0.5226 -0.2606
  921MPD2    C313532   2.543   0.789  16.690  0.1388 -0.2020 -0.0484
  921MPD2    C413533   2.588   0.676  16.755 -0.4846 -0.1049 -1.1502
  921MPD2    C513534   2.720   0.665  16.791 -0.3748 -0.4233 -0.2388
  921MPD2     H13535   2.603   0.981  16.623 -4.1599 -1.8369 -0.0402
  921MPD2    H113536   2.523   0.590  16.763  0.5673 -0.7972 -0.0275
  921MPD2    H213537   2.908   0.758  16.804 -0.2432 -0.4858  0.8958
  921MPD2    H313538   2.756   0.570  16.831  0.5084 -1.0971 -2.6834
  921MPD2     N13539   2.407   0.794  16.657 -0.3602  0.5457  0.8010
  921MPD2    H513540   2.340   0.722  16.682 -0.4596 -0.1183 -1.3227
  921MPD2    N113541   2.869   0.976  16.681  0.1076  0.4923  0.0730
  921MPD2    H713542   2.964   0.942  16.696  0.6811  1.4478 -1.4304
  922MPD2     C13543   3.699   4.191  17.471  0.0463  0.4564  0.0346
  922MPD2    C113544   3.665   4.141  17.347 -0.2129  0.4398 -0.3848
  922MPD2    C213545   3.570   4.041  17.326 -0.7650  0.4290 -0.0544
  922MPD2    C313546   3.505   3.995  17.434  0.2336  0.3237 -0.0140
  922MPD2    C413547   3.540   4.041  17.564  0.2193 -0.2009  0.0992
  922MPD2    C513548   3.636   4.137  17.581 -0.2144 -0.6513 -0.8851
  922MPD2     H13549   3.542   4.006  17.228 -1.2011 -1.5470  0.7846
  922MPD2    H113550   3.492   3.996  17.650 -0.7482 -2.0088 -1.3958
  922MPD2    H213551   3.792   4.245  17.485 -1.6917  3.2246  0.8066
  922MPD2    H313552   3.671   4.159  17.681  1.2841  0.1285 -1.5896
  922MPD2     N13553   3.407   3.899  17.411 -0.2751 -0.4006  0.6321
  922MPD2    H513554   3.400   3.863  17.316 -1.7026 -0.3278  0.7139
  922MPD2    N113555   3.736   4.175  17.225 -0.7268 -0.1421 -0.3643
  922MPD2    H713556   3.720   4.115  17.145 -2.1090 -0.0877 -0.1275
  923MPD2     C13557   0.262   1.680   9.001  0.1154 -0.4018 -0.0402
  923MPD2    C113558   0.231   1.667   9.132  0.2201  0.1034  0.6801
  923MPD2    C213559   0.327   1.612   9.213  0.9522 -0.1253  0.6620
  923MPD2    C313560   0.450   1.574   9.163  0.5120 -0.2715 -0.3692
  923MPD2    C413561   0.475   1.579   9.023  0.3842  0.2142 -0.0405
  923MPD2    C513562   0.380   1.635   8.943  0.3385  0.1488  0.1986
  923MPD2     H13563   0.303   1.589   9.317 -0.0262  0.7820  0.6422
  923MPD2    H113564   0.573   1.560   8.981 -0.4101  0.2438 -1.8715
  923MPD2    H213565   0.179   1.725   8.946 -0.3540 -1.2337 -0.0051
  923MPD2    H313566   0.401   1.654   8.838  0.1672 -0.1529  0.1100
  923MPD2     N13567   0.553   1.518   9.238 -0.0278 -0.2794 -0.3176
  923MPD2    H513568   0.643   1.518   9.192  1.0147  0.2196  1.7612
  923MPD2    N113569   0.102   1.725   9.180  0.5389  0.6177  0.5298
  923MPD2    H713570   0.036   1.761   9.112  2.3173 -0.2344 -1.6088
  924MPD2     C13571   0.621   4.136  16.347  0.2260 -0.1717 -0.8234
  924MPD2    C113572   0.543   4.164  16.237  0.4404  0.3336 -0.2652
  924MPD2    C213573   0.534   4.296  16.194  0.1576  0.3328 -0.2707
  924MPD2    C313574   0.602   4.394  16.256  0.2424 -0.9145 -0.6424
  924MPD2    C413575   0.683   4.356  16.365 -0.2233 -0.4655  0.2253
  924MPD2    C513576   0.689   4.233  16.409 -0.2841 -0.0618 -0.0272
  924MPD2     H13577   0.471   4.320  16.109  0.3488  1.1528 -0.1808
  924MPD2    H113578   0.722   4.430  16.433 -0.8698  0.2203 -0.1452
  924MPD2    H213579   0.635   4.039  16.393 -0.8323  0.0433 -0.0504
  924MPD2    H313580   0.735   4.218  16.506 -1.4138 -1.2715  0.3176
  924MPD2     N13581   0.585   4.534  16.233 -0.6386 -0.0428  0.4948
  924MPD2    H513582   0.639   4.599  16.289  1.9347 -1.7964  0.0479
  924MPD2    N113583   0.449   4.066  16.195 -0.4567  1.3726 -0.0755
  924MPD2    H713584   0.441   3.982  16.252  0.8000  2.6763  1.9955
  925MPD2     C13585   3.765   2.209  15.006 -0.2495 -0.3527 -0.8238
  925MPD2    C113586   3.633   2.241  14.973 -0.4304  0.4948 -0.1316
  925MPD2    C213587   3.539   2.257  15.073  0.1825  0.4260  0.0681
  925MPD2    C313588   3.577   2.251  15.207 -0.3964 -0.4002  1.0319
  925MPD2    C413589   3.702   2.213  15.232  0.3071 -0.4722 -0.0454
  925MPD2    C513590   3.799   2.185  15.132  0.2423 -0.1423  0.0902
  925MPD2     H13591   3.437   2.282  15.047 -0.3192 -0.2384  1.4319
  925MPD2    H113592   3.738   2.209  15.334  1.1971  0.0965 -0.3308
  925MPD2    H213593   3.832   2.182  14.926  0.9057  0.6002 -0.1852
  925MPD2    H313594   3.899   2.161  15.167  0.2077  0.4671  0.6189
  925MPD2     N13595   3.496   2.267  15.316  0.0743 -0.2844  0.3388
  925MPD2    H513596   3.540   2.232  15.401  1.6980  1.3174  0.1736
  925MPD2    N113597   3.575   2.226  14.843  0.3767 -0.1861  0.4843
  925MPD2    H713598   3.473   2.225  14.843  0.3864 -2.2652  1.8499
  926MPD2     C13599   2.590   0.658  13.514 -0.5310  0.1983 -0.6722
  926MPD2    C113600   2.481   0.703  13.437  0.5434  0.2633 -0.6556
  926MPD2    C213601   2.499   0.716  13.301 -0.2323 -0.5509 -0.4107
  926MPD2    C313602   2.616   0.681  13.239  0.1757  0.7663 -0.0483
  926MPD2    C413603   2.727   0.634  13.316  0.9529  0.2942  0.4385
  926MPD2    C513604   2.709   0.614  13.449 -0.1208  0.5632  0.4084
  926MPD2     H13605   2.412   0.747  13.243  1.2803 -0.5269 -2.6533
  926MPD2    H113606   2.823   0.608  13.274 -0.0546 -1.2346 -0.9545
  926MPD2    H213607   2.592   0.667  13.622 -2.7757 -1.7933 -0.4581
  926MPD2    H313608   2.795   0.575  13.503  0.5408 -1.0696 -1.8139
  926MPD2     N13609   2.643   0.691  13.098  0.1004  0.1588 -0.4021
  926MPD2    H513610   2.738   0.670  13.071  0.6126  0.7368  0.9943
  926MPD2    N113611   2.360   0.736  13.499 -0.2535  0.0560  0.1933
  926MPD2    H713612   2.291   0.779  13.439  1.7830  0.0625 -2.1608
  927MPD2     C13613   3.007   2.254   0.008 -0.1758  0.9456  0.4530
  927MPD2    C113614   2.896   2.313  17.721  0.6918  0.1085 -0.3297
  927MPD2    C213615   2.882   2.350  17.590  0.2510 -0.3616 -0.5114
  927MPD2    C313616   2.985   2.319  17.501 -0.2631  0.3534  0.3689
  927MPD2    C413617   3.105   2.265  17.546 -0.0424  0.6106 -0.4518
  927MPD2    C513618   3.113   2.238  17.677 -0.0315  0.3616  0.4361
  927MPD2     H13619   2.796   2.400  17.548  0.6570  1.3037  0.6521
  927MPD2    H113620   3.193   2.268  17.483 -2.3885 -1.1940 -3.8313
  927MPD2    H213621   3.015   2.234   0.114 -0.9430  0.1325  0.3498
  927MPD2    H313622   3.207   2.197  17.712  0.7157  0.5089 -1.4098
  927MPD2     N13623   2.956   2.350  17.364  0.4359  0.0660 -0.4337
  927MPD2    H513624   2.860   2.377  17.349  1.1917  2.3619 -1.2679
  927MPD2    N113625   2.786   2.323   0.049 -0.0332  0.3817  0.4839
  927MPD2    H713626   2.779   2.261   0.130 -3.3098  0.1775  0.0559
  928MPD2     C13627   4.684   0.834   1.364 -0.3388  0.3200  0.6260
  928MPD2    C113628   4.590   0.930   1.323  0.4857  0.2486  0.3931
  928MPD2    C213629   4.631   1.011   1.220  0.9850 -0.4188 -0.7573
  928MPD2    C313630   0.012   0.997   1.159 -0.2794 -0.2593 -0.4362
  928MPD2    C413631   0.099   0.894   1.194 -0.5068  0.4894  0.4275
  928MPD2    C513632   0.071   0.816   1.305  0.5155 -0.2467 -0.0727
  928MPD2     H13633   4.562   1.089   1.192  1.1026 -0.1439 -0.2832
  928MPD2    H113634   0.193   0.878   1.143  0.0668 -1.0263  1.9485
  928MPD2    H213635   4.653   0.769   1.445 -1.5589  0.7411  0.4931
  928MPD2    H313636   0.148   0.746   1.335  0.3840 -0.4858 -0.2898
  928MPD2     N13637   0.062   1.091   1.065  0.1660 -0.1668  0.5520
  928MPD2    H513638   0.160   1.085   1.038  0.1259 -0.8034  0.5414
  928MPD2    N113639   4.469   0.945   1.394 -0.0272 -0.2248  0.0138
  928MPD2    H713640   4.469   0.905   1.487 -1.8852 -1.7701 -0.6511
  929MPD2     C13641   0.308   1.610   9.901  0.6275 -0.3871  0.6697
  929MPD2    C113642   0.242   1.498   9.949 -0.3948  0.1985 -0.4586
  929MPD2    C213643   0.162   1.426   9.861  0.5393  0.4893  1.1945
  929MPD2    C313644   0.123   1.478   9.737  0.8413  1.3184 -0.1493
  929MPD2    C413645   0.193   1.583   9.692 -0.1315  0.2779  0.9284
  929MPD2    C513646   0.287   1.644   9.769 -0.5431 -0.0272 -0.1509
  929MPD2     H13647   0.113   1.338   9.900  2.1937 -1.4090 -1.0439
  929MPD2    H113648   0.175   1.627   9.594  1.5549 -2.3142 -0.5444
  929MPD2    H213649   0.373   1.672   9.962  0.0856  0.8594 -0.0086
  929MPD2    H313650   0.338   1.730   9.728 -0.8563 -0.1130 -0.7215
  929MPD2     N13651   0.018   1.432   9.651  0.9286  0.4020  0.7592
  929MPD2    H513652   0.012   1.469   9.556 -1.6274 -1.7310  0.1038
  929MPD2    N113653   0.266   1.456  10.078 -0.3293 -0.8460 -0.5596
  929MPD2    H713654   0.323   1.513  10.140 -2.3288  0.6606 -0.0796
  930MPD2     C13655   2.167   3.331  14.363  0.4991  0.1212 -0.6034
  930MPD2    C113656   2.123   3.460  14.346  0.2573  0.1144  0.0777
  930MPD2    C213657   2.024   3.483  14.258 -0.1603 -0.6657  0.4488
  930MPD2    C313658   1.967   3.374  14.186  0.8987  0.2619  0.1805
  930MPD2    C413659   2.005   3.244  14.204 -0.6227  0.2608 -0.3836
  930MPD2    C513660   2.106   3.221  14.296 -0.0066 -0.4638 -0.1780
  930MPD2     H13661   1.984   3.582  14.238 -0.2268 -0.8549 -0.3734
  930MPD2    H113662   1.952   3.169  14.147 -0.6048  0.9140 -1.2745
  930MPD2    H213663   2.242   3.316  14.439 -0.5296 -0.5174  0.2999
  930MPD2    H313664   2.143   3.122  14.320  0.2676  0.1137  1.7825
  930MPD2     N13665   1.870   3.399  14.083  0.2145  0.4103 -0.0788
  930MPD2    H513666   1.844   3.319  14.026  0.5545 -0.5534  1.1154
  930MPD2    N113667   2.188   3.552  14.426  0.3147  0.4847  0.0919
  930MPD2    H713668   2.253   3.506  14.490 -0.4904  2.5662  2.4318
  931MPD2     C13669   2.698   2.496   0.714 -0.4478  0.7108 -0.2698
  931MPD2    C113670   2.618   2.394   0.673  1.0931 -0.1214  0.3229
  931MPD2    C213671   2.553   2.315   0.764  0.6647 -0.0194 -0.3281
  931MPD2    C313672   2.557   2.355   0.899 -0.4329 -0.2768  0.4232
  931MPD2    C413673   2.636   2.461   0.934 -0.4203  0.6237  0.3249
  931MPD2    C513674   2.714   2.532   0.848  1.0200 -0.4811 -0.3803
  931MPD2     H13675   2.514   2.217   0.741 -0.4217  0.1230  0.8624
  931MPD2    H113676   2.636   2.505   1.033  2.0199 -1.4847  1.2470
  931MPD2    H213677   2.746   2.557   0.638 -0.5454 -0.2049 -1.0727
  931MPD2    H313678   2.776   2.617   0.874  2.2105 -1.2487 -0.7085
  931MPD2     N13679   2.483   2.300   1.002 -0.2926  0.1111 -0.3855
  931MPD2    H513680   2.489   2.349   1.090 -1.1517  0.5441 -0.5681
  931MPD2    N113681   2.615   2.369   0.535  0.2894 -0.5693  0.3654
  931MPD2    H713682   2.680   2.433   0.490  1.5663 -0.6202  2.1164
  932MPD2     C13683   3.667   2.037  11.478  0.3669  0.0289  0.0113
  932MPD2    C113684   3.767   2.132  11.463  0.1875 -0.0282 -0.4409
  932MPD2    C213685   3.897   2.094  11.438 -0.2024  0.0770  0.1652
  932MPD2    C313686   3.936   1.965  11.451  0.3957  0.3063  1.6925
  932MPD2    C413687   3.840   1.877  11.482  0.0136 -0.1576 -0.3576
  932MPD2    C513688   3.707   1.908  11.486 -0.0670 -0.2095  0.0358
  932MPD2     H13689   3.971   2.166  11.406 -0.8089  1.7327  2.4856
  932MPD2    H113690   3.872   1.776  11.503 -1.3771 -0.6328 -0.5344
  932MPD2    H213691   3.561   2.054  11.496  0.3738  0.0283  0.0542
  932MPD2    H313692   3.639   1.825  11.502 -1.4383  1.0754  0.9727
  932MPD2     N13693   4.074   1.927  11.442  0.0254 -0.4464  0.2555
  932MPD2    H513694   4.091   1.827  11.454 -1.5537 -1.0949 -2.7515
  932MPD2    N113695   3.737   2.270  11.458  0.4609  0.2489  0.5164
  932MPD2    H713696   3.808   2.333  11.421 -0.1347  0.7416  0.2153
  933MPD2     C13697   3.703   1.102   1.232  0.1855  1.1266  0.0377
  933MPD2    C113698   3.776   1.206   1.284 -0.4671 -0.1792 -0.0743
  933MPD2    C213699   3.723   1.332   1.261 -0.2548 -0.0133  0.8773
  933MPD2    C313700   3.606   1.360   1.195  0.1441  0.2593 -0.0544
  933MPD2    C413701   3.536   1.253   1.147 -0.3231 -0.1714 -0.1423
  933MPD2    C513702   3.587   1.127   1.167  0.7249  0.2133 -0.3639
  933MPD2     H13703   3.767   1.421   1.304  1.4764 -0.5230  0.1641
  933MPD2    H113704   3.437   1.263   1.107 -0.1054 -2.0509 -1.1099
  933MPD2    H213705   3.740   1.000   1.236 -1.8528  0.3921  0.2035
  933MPD2    H313706   3.547   1.035   1.127 -0.5512  0.2489  0.8355
  933MPD2     N13707   3.571   1.496   1.177  0.1259 -0.4026  0.5435
  933MPD2    H513708   3.636   1.563   1.218  0.5437 -1.5887  1.8147
  933MPD2    N113709   3.899   1.185   1.355  0.2757 -0.0088 -0.1637
  933MPD2    H713710   3.929   1.089   1.370 -2.3194 -0.7040  0.4860
  934MPD2     C13711   0.766   3.434   1.514 -0.6554 -0.0339 -0.0544
  934MPD2    C113712   0.862   3.346   1.465 -0.4650 -0.0539  0.0556
  934MPD2    C213713   0.822   3.226   1.401  0.5927  0.0121 -0.0483
  934MPD2    C313714   0.687   3.206   1.372  0.0330  0.2562 -0.0942
  934MPD2    C413715   0.600   3.294   1.424  0.9931 -0.2477 -0.7860
  934MPD2    C513716   0.634   3.406   1.490 -0.0826 -0.3136  0.0889
  934MPD2     H13717   0.895   3.161   1.355  1.1674  2.3460 -2.4231
  934MPD2    H113718   0.494   3.275   1.410  0.7590  0.4636 -0.0089
  934MPD2    H213719   0.786   3.524   1.572 -0.8811  0.2281 -0.3897
  934MPD2    H313720   0.559   3.481   1.510  1.2537 -0.2628  4.7748
  934MPD2     N13721   0.640   3.099   1.300  0.1063  0.1157 -0.6441
  934MPD2    H513722   0.541   3.095   1.280 -0.1073  0.1040  0.4241
  934MPD2    N113723   1.001   3.364   1.474 -0.1142 -0.2568  0.0841
  934MPD2    H713724   1.059   3.282   1.457  2.5912  1.3999  1.1511
  935MPD2     C13725   1.115   2.383   0.779  0.1163  0.1597 -0.7850
  935MPD2    C113726   0.986   2.340   0.802 -0.0382  0.0521 -0.3839
  935MPD2    C213727   0.893   2.426   0.859  0.2994  0.1951 -0.1214
  935MPD2    C313728   0.921   2.558   0.875 -0.4411  1.1593 -0.0214
  935MPD2    C413729   1.053   2.604   0.853 -0.4330  0.5121 -0.2740
  935MPD2    C513730   1.144   2.517   0.804  0.9424 -0.4449 -0.3557
  935MPD2     H13731   0.798   2.387   0.894  0.4329  0.1835  0.2215
  935MPD2    H113732   1.070   2.708   0.880  0.3553  0.4833 -0.6569
  935MPD2    H213733   1.194   2.319   0.741 -0.0352 -1.0670  1.0145
  935MPD2    H313734   1.238   2.564   0.775  0.6418  0.6352  0.4277
  935MPD2     N13735   0.834   2.648   0.927  0.1521  0.7517  0.1123
  935MPD2    H513736   0.871   2.738   0.957  0.4418  1.1911 -1.5699
  935MPD2    N113737   0.941   2.209   0.773 -0.2641  0.5094 -0.1688
  935MPD2    H713738   0.845   2.185   0.797  0.5624 -1.1202  1.5121
  936MPD2     C13739   4.095   0.561  13.021  0.4277 -0.0261 -0.1159
  936MPD2    C113740   4.179   0.490  13.109 -0.6742 -0.1574  0.7118
  936MPD2    C213741   4.310   0.476  13.079 -0.1355  1.3605  0.0666
  936MPD2    C313742   4.366   0.536  12.969 -0.0008 -0.1876  0.2244
  936MPD2    C413743   4.288   0.609  12.890  0.0105 -0.1247 -0.0508
  936MPD2    C513744   4.154   0.610  12.913  0.3492 -0.1502 -0.0940
  936MPD2     H13745   4.364   0.415  13.150 -1.7322 -1.3272 -1.0242
  936MPD2    H113746   4.320   0.662  12.801 -3.6347 -1.5400 -2.2004
  936MPD2    H213747   3.988   0.580  13.029  0.4890  0.2877 -0.0288
  936MPD2    H313748   4.097   0.665  12.838 -0.0774 -2.8053 -1.7386
  936MPD2     N13749   4.504   0.533  12.934 -0.0786  0.1397  0.0648
  936MPD2    H513750   4.536   0.580  12.851  0.4142  0.5470  0.4915
  936MPD2    N113751   4.132   0.418  13.216 -0.5784 -0.5988  0.1798
  936MPD2    H713752   4.211   0.367  13.252 -1.3527 -0.4267  2.1456
  937MPD2     C13753   2.161   1.633  11.902  0.0257  0.1977  0.5116
  937MPD2    C113754   2.156   1.767  11.866 -0.4409  0.5163  0.9335
  937MPD2    C213755   2.242   1.807  11.763  0.0697 -0.2288  0.2382
  937MPD2    C313756   2.320   1.717  11.689  0.2175  0.3176 -0.1573
  937MPD2    C413757   2.297   1.579  11.714  0.4826  0.1516 -0.0640
  937MPD2    C513758   2.230   1.545  11.825 -0.3967 -0.3092  0.4264
  937MPD2     H13759   2.262   1.913  11.755  0.2378 -0.4422 -2.1113
  937MPD2    H113760   2.355   1.499  11.669 -0.4315  0.5468 -1.9595
  937MPD2    H213761   2.113   1.594  11.991 -1.0298 -4.2714 -2.0113
  937MPD2    H313762   2.244   1.445  11.864 -0.4727 -0.3859  0.2556
  937MPD2     N13763   2.416   1.759  11.593  0.0434 -0.2634  0.2243
  937MPD2    H513764   2.433   1.859  11.588 -2.8055  0.3019  1.8502
  937MPD2    N113765   2.107   1.864  11.954 -0.1612  0.1396 -0.5312
  937MPD2    H713766   2.125   1.962  11.931  0.3524  0.1621 -0.0290
  938MPD2     C13767   0.008   2.504   0.657 -0.2624 -0.1043 -0.2734
  938MPD2    C113768   0.046   2.630   0.717 -0.3447  0.0607 -0.2506
  938MPD2    C213769   0.019   2.656   0.849 -0.4517 -0.1897 -0.0738
  938MPD2    C313770   4.704   2.557   0.933 -0.5324 -0.1425 -0.1601
  938MPD2    C413771   4.674   2.437   0.873  0.7457 -0.5352 -0.3476
  938MPD2    C513772   4.692   2.409   0.739  0.3166 -0.0891 -0.0029
  938MPD2     H13773   0.030   2.756   0.889  0.0616  0.6381 -2.3058
  938MPD2    H113774   4.624   2.358   0.928  0.3525 -0.4172 -0.5350
  938MPD2    H213775   0.008   2.473   0.553 -1.5563 -1.4224  0.1163
  938MPD2    H313776   4.651   2.319   0.696 -1.0527  0.0173  1.0790
  938MPD2     N13777   4.656   2.594   1.060 -0.4476 -0.4018  0.3991
  938MPD2    H513778   4.673   2.688   1.094  0.6073 -1.0081  1.5012
  938MPD2    N113779   0.097   2.734   0.645 -0.6503  0.3233 -0.3386
  938MPD2    H713780   0.146   2.803   0.702  2.4598 -2.5763  0.4604
  939MPD2     C13781   1.045   3.475   0.823  0.3917  0.2761 -0.5985
  939MPD2    C113782   1.150   3.555   0.793  0.6286  0.0602  0.2225
  939MPD2    C213783   1.235   3.502   0.698  0.3796 -0.8496 -0.1085
  939MPD2    C313784   1.198   3.385   0.619  0.2247  0.2141  0.4413
  939MPD2    C413785   1.083   3.319   0.651  0.3668  0.3795 -0.2303
  939MPD2    C513786   1.007   3.357   0.759 -0.3436  0.2058 -0.1526
  939MPD2     H13787   1.324   3.557   0.671  0.4664 -1.3901 -0.9261
  939MPD2    H113788   1.044   3.237   0.592  1.5629  1.6206 -2.7225
  939MPD2    H213789   0.969   3.509   0.892 -1.1115 -2.4707 -0.8764
  939MPD2    H313790   0.914   3.312   0.794  1.3012 -2.2058  1.1324
  939MPD2     N13791   1.274   3.336   0.511  0.0116 -0.5043  0.4332
  939MPD2    H513792   1.218   3.267   0.461  1.4355 -2.6872  1.8563
  939MPD2    N113793   1.169   3.678   0.863 -0.1358 -0.4035  0.7630
  939MPD2    H713794   1.101   3.701   0.935 -1.7524 -1.5574 -0.3926
  940MPD2     C13795   0.681   0.862  13.292  0.2138 -0.0831 -0.1365
  940MPD2    C113796   0.711   0.737  13.329  0.3376 -0.2318 -0.5947
  940MPD2    C213797   0.727   0.640  13.227  0.7155  0.8386 -0.2063
  940MPD2    C313798   0.699   0.670  13.100 -0.0201 -0.0191 -0.0045
  940MPD2    C413799   0.657   0.798  13.063  0.5065 -0.7549 -0.8380
  940MPD2    C513800   0.660   0.891  13.160  0.4473  0.0875 -0.5015
  940MPD2     H13801   0.745   0.539  13.262  0.7372  0.7444 -0.4895
  940MPD2    H113802   0.642   0.838  12.964 -0.8509 -1.2580 -0.8467
  940MPD2    H213803   0.662   0.944  13.361  1.1931 -0.2406  0.3205
  940MPD2    H313804   0.644   0.993  13.127  0.0386  0.2259  0.1259
  940MPD2     N13805   0.687   0.574  13.002  0.3849  0.1833 -0.2511
  940MPD2    H513806   0.646   0.613  12.918 -3.4579 -2.0047  0.5817
  940MPD2    N113807   0.714   0.697  13.464  0.1346  0.2484 -0.0132
  940MPD2    H713808   0.717   0.596  13.478  2.0532  0.4986  1.4040
  941MPD2     C13809   4.010   0.053  10.098 -0.4393 -0.1092 -0.8328
  941MPD2    C113810   4.084   4.681  10.139 -0.3500  0.4039 -0.1224
  941MPD2    C213811   4.033   4.550  10.127 -0.4448  0.9734  0.3268
  941MPD2    C313812   3.903   4.541  10.069 -0.1800  0.3402 -0.2644
  941MPD2    C413813   3.830   4.651  10.031  0.3537 -1.7679 -0.2643
  941MPD2    C513814   3.881   0.037  10.045 -0.6587 -0.3993  0.0560
  941MPD2     H13815   4.097   4.463  10.133  0.3912  1.5867  0.3016
  941MPD2    H113816   3.737   4.639   9.977  1.6218 -0.5865 -2.7197
  941MPD2    H213817   4.043   0.156  10.104  2.8331 -1.2097  0.3324
  941MPD2    H313818   3.828   0.119   9.998 -0.5251 -0.6296 -0.4921
  941MPD2     N13819   3.837   4.416  10.029  0.8325 -0.5551  0.0813
  941MPD2    H513820   3.750   4.420   9.977 -0.0133  0.8845  1.6213
  941MPD2    N113821   4.223   4.692  10.173  0.1997  0.0589  0.4043
  941MPD2    H713822   4.253   4.599  10.203  0.3783 -0.0656 -0.1746
  942MPD2     C13823   4.347   1.613   9.275 -0.1484  0.0419  0.6396
  942MPD2    C113824   4.417   1.508   9.340  0.1033  0.1283  0.7251
  942MPD2    C213825   4.521   1.439   9.274  0.3718  0.4055  0.4246
  942MPD2    C313826   4.562   1.489   9.150 -0.1209  0.0365 -0.6350
  942MPD2    C413827   4.487   1.586   9.090  0.0716  0.2692 -0.2291
  942MPD2    C513828   4.376   1.641   9.151 -0.3300 -0.5018 -0.4291
  942MPD2     H13829   4.572   1.357   9.323 -1.6615 -0.7539  0.6271
  942MPD2    H113830   4.501   1.617   8.987 -0.6422  3.4607  0.6263
  942MPD2    H213831   4.255   1.658   9.312 -1.2321 -1.6871  0.0257
  942MPD2    H313832   4.314   1.713   9.098 -0.0986  0.2150  0.2695
  942MPD2     N13833   4.662   1.427   9.070  0.5364  0.0251  0.4091
  942MPD2    H513834   4.662   1.453   8.971  1.2974  2.4657  1.0536
  942MPD2    N113835   4.403   1.479   9.475 -0.2441  0.3322 -0.0403
  942MPD2    H713836   4.456   1.396   9.499 -1.9998 -0.6486  0.4575
  943MPD2     C13837   3.432   4.412  10.577  0.2643 -0.0363  0.3960
  943MPD2    C113838   3.375   4.315  10.651  0.5152 -0.4641  0.4554
  943MPD2    C213839   3.348   4.339  10.782 -0.5659 -0.3378 -0.5196
  943MPD2    C313840   3.381   4.457  10.845 -0.3946 -0.4367  0.5161
  943MPD2    C413841   3.444   4.549  10.766  0.0905 -0.0550 -0.5803
  943MPD2    C513842   3.469   4.528  10.639  0.6704 -0.0354  0.1656
  943MPD2     H13843   3.302   4.261  10.842 -2.0455  1.0384  0.1334
  943MPD2    H113844   3.468   4.648  10.803 -0.1679 -0.0615 -0.3939
  943MPD2    H213845   3.430   4.397  10.470 -0.3488 -0.2301  0.4320
  943MPD2    H313846   3.519   4.604  10.580 -1.2895 -0.1229 -1.6382
  943MPD2     N13847   3.343   4.483  10.975  0.5604 -0.3920  0.4499
  943MPD2    H513848   3.367   4.570  11.022 -0.1123 -0.7060  1.3635
  943MPD2    N113849   3.344   4.193  10.589 -0.5925 -0.3166  0.4026
  943MPD2    H713850   3.355   4.198  10.488  0.9639 -0.6703  0.5625
  944MPD2     C13851   2.929   3.536  11.372 -0.9621 -0.8722  0.0164
  944MPD2    C113852   2.966   3.665  11.377  0.6531  1.0402 -0.2277
  944MPD2    C213853   2.900   3.743  11.465 -0.3344  0.0640 -0.3087
  944MPD2    C313854   2.793   3.699  11.539  1.0942 -0.0928 -0.4240
  944MPD2    C413855   2.757   3.566  11.535 -0.1089  0.7460  0.4161
  944MPD2    C513856   2.823   3.488  11.441 -0.1648 -0.4307  0.0628
  944MPD2     H13857   2.911   3.851  11.470 -0.0510 -0.0687  2.1754
  944MPD2    H113858   2.665   3.529  11.580  1.0557 -1.4029  1.0008
  944MPD2    H213859   2.971   3.460  11.307  2.0047 -0.3667  1.3435
  944MPD2    H313860   2.809   3.382  11.428 -2.5028 -0.0067 -0.9026
  944MPD2     N13861   2.725   3.804  11.610 -0.1397  0.0873  0.3372
  944MPD2    H513862   2.756   3.898  11.587 -0.2599 -0.1490 -0.8291
  944MPD2    N113863   3.065   3.713  11.292 -0.1581  0.2578  1.1298
  944MPD2    H713864   3.116   3.650  11.231 -0.4239 -0.6169  1.8202
    1TMC1    C113865   1.027   0.090  14.712 -0.3401 -0.2952  0.2815
    1TMC1    C213866   1.015   4.718  14.635 -0.2773  0.1932 -0.0898
    1TMC1    C313867   0.946   4.616  14.697 -0.1292 -0.5643 -0.0158
    1TMC1    C413868   0.977   0.104  14.837  0.2798 -1.0261 -0.1933
    1TMC1    C513869   0.905   0.008  14.887 -0.7223  0.0311 -0.7493
    1TMC1    C613870   0.886   4.627  14.817  0.1342  0.0749  0.3254
    1TMC1     C13871   1.089   0.210  14.656 -0.2235 -0.0343 -0.6364
    1TMC1     O13872   1.134   0.286  14.741  0.5922  0.0837  0.7302
    1TMC1     H13873   1.069   4.696  14.543  2.3750  0.8956  1.3105
    1TMC1    H113874   0.996   0.189  14.901 -1.0712  0.4308 -1.7290
    1TMC1    H213875   0.813   4.555  14.852 -0.1912 -0.8221 -2.1580
    1TMC1    C713876   0.818   0.024  14.998  0.0327 -0.0172  0.6299
    1TMC1    C813877   0.922   4.491  14.623  0.3802  0.0320 -0.1664
    1TMC1    O113878   0.823   4.686  15.095 -0.0535 -0.3358 -0.1954
    1TMC1    O213879   0.896   4.386  14.681  0.1122  0.5268  0.0361
    1TMC1    O313880   0.710   0.049  14.920  0.3284  0.1085  0.2437
    1TMC1    H313881   0.727   0.100  14.837 -0.2828  1.1942  0.7841
    1TMC1    O513882   0.879   4.519  14.500  0.6240 -0.5313  0.2004
    1TMC1    H513883   0.883   4.614  14.474 -4.7528 -0.3275  0.1358
    2MPD2     C13884   1.258   0.516  14.287 -0.4563  0.3727 -0.2025
    2MPD2    C113885   1.219   0.394  14.223 -0.4785  0.1656  0.3256
    2MPD2    C213886   1.176   0.292  14.308 -0.2133  0.1276 -0.3288
    2MPD2    C313887   1.170   0.311  14.442 -0.1192  0.6923  0.5195
    2MPD2    C413888   1.218   0.429  14.496 -0.7932 -0.2394  0.4602
    2MPD2    C513889   1.259   0.535  14.423  0.0443  0.0778 -0.4449
    2MPD2     H13890   1.135   0.202  14.262  0.1366 -0.4092  0.4088
    2MPD2    H113891   1.214   0.448  14.603  3.2721 -2.2718  0.9738
    2MPD2    H213892   1.293   0.597  14.225  4.9562 -0.0186  2.3264
    2MPD2    H313893   1.297   0.622  14.477  0.3603 -1.2903  1.5468
    2MPD2     N13894   1.122   0.204  14.521  0.0391  0.3804 -0.4640
    2MPD2    H513895   1.083   0.125  14.472 -1.0030 -1.0121  2.5826
    2MPD2    N113896   1.226   0.384  14.082 -0.0290 -0.0389  0.3220
    2MPD2    H713897   1.253   0.462  14.024 -0.1615  0.0708  0.4065
    3TMC2    C113898   1.226   0.279  13.865 -0.3425  0.4064 -0.2911
    3TMC2    C213899   1.151   0.204  13.772  0.3925  0.4856 -0.7463
    3TMC2    C313900   1.197   0.213  13.644  0.5138 -0.5042 -0.5449
    3TMC2    C413901   1.307   0.384  13.826 -0.2790  0.3095 -0.3662
    3TMC2    C513902   1.335   0.385  13.695 -0.8342 -0.5649  0.7098
    3TMC2    C613903   1.281   0.306  13.605  0.2948 -0.3393  0.3336
    3TMC2     C13904   1.193   0.268  14.005 -0.7566 -0.2197  0.2798
    3TMC2     O13905   1.151   0.162  14.046  0.0666  0.1312 -0.4194
    3TMC2     H13906   1.082   0.129  13.809  0.1719  0.3376 -1.4705
    3TMC2    H113907   1.367   0.444  13.894  0.0068  0.3306 -0.6350
    3TMC2    H213908   1.322   0.306  13.504 -1.5070  4.0655 -0.3919
    3TMC2    C713909   1.412   0.495  13.638 -0.3377 -0.0796  1.1399
    3TMC2    C813910   1.158   0.106  13.555  0.2650 -0.2647 -0.0169
    3TMC2    O113911   1.463   0.481  13.528 -0.0760 -0.2090  0.2487
    3TMC2    O213912   1.061   0.036  13.580 -0.2458  0.1649 -0.3648
    3TMC2    O513913   1.271   0.060  13.504  0.2056 -0.3797  0.1068
    3TMC2    H513914   1.331   0.138  13.499 -1.0231  0.4948 -0.9502
    4TMC2    C113915   0.772   1.174  13.816  0.3024 -0.3180 -0.0583
    4TMC2    C213916   0.770   1.287  13.743  0.1757 -0.2904  0.7450
    4TMC2    C313917   0.886   1.319  13.677 -0.0261 -0.3611  0.3877
    4TMC2    C413918   0.884   1.103  13.834  0.0369 -0.0336  0.7701
    4TMC2    C513919   1.005   1.149  13.783 -0.4734  0.0677  0.0502
    4TMC2    C613920   1.003   1.248  13.690  0.3569  0.2791 -0.2703
    4TMC2     C13921   0.641   1.137  13.867 -0.4457  0.9628 -0.1099
    4TMC2     O13922   0.643   1.092  13.981 -0.4745  0.3603 -0.2336
    4TMC2     H13923   0.681   1.348  13.734 -0.9928 -1.4131  4.6254
    4TMC2    H113924   0.874   1.021  13.905 -0.6320 -0.3287  0.3314
    4TMC2    H213925   1.092   1.265  13.631 -0.5429  2.1048 -1.1064
    4TMC2    C713926   1.110   1.051  13.786  0.3922  0.2664  0.8507
    4TMC2    C813927   0.900   1.459  13.646 -0.2234 -0.0858 -0.6672
    4TMC2    O113928   1.095   0.974  13.880 -0.0113 -0.0774 -0.4605
    4TMC2    O213929   0.832   1.556  13.673  0.9671  0.3874  0.1973
    4TMC2    O513930   0.971   1.458  13.531  0.1468 -1.0147  0.1736
    4TMC2    H513931   1.004   1.367  13.514  2.0751 -0.3878  0.5678
    5MPD2     C13932   0.198   0.917  13.827 -0.0046  0.5683 -0.7815
    5MPD2    C113933   0.251   0.913  13.700  0.2129 -0.8355 -0.0041
    5MPD2    C213934   0.367   0.982  13.681 -0.0704  0.4510 -0.1828
    5MPD2    C313935   0.425   1.058  13.785  0.1437 -0.9524 -0.5062
    5MPD2    C413936   0.370   1.059  13.903  0.6265  0.7389  0.3022
    5MPD2    C513937   0.254   0.990  13.923 -0.2706 -0.9742  0.8220
    5MPD2     H13938   0.412   0.970  13.583 -0.5683 -1.1145 -0.2203
    5MPD2    H113939   0.414   1.110  13.988  1.5709  2.6665 -1.3343
    5MPD2    H213940   0.118   0.852  13.859 -0.7079  1.4237 -0.7975
    5MPD2    H313941   0.206   0.991  14.020  0.2237 -0.1544  1.0546
    5MPD2     N13942   0.556   1.103  13.766 -0.6566  1.0662  0.5967
    5MPD2    H513943   0.597   1.118  13.675  3.3344  0.0784  2.2057
    5MPD2    N113944   0.177   0.838  13.608 -0.7400 -0.0444  0.6267
    5MPD2    H713945   0.094   0.790  13.640 -1.1307 -0.7306 -1.4027
    6MPD1     C13946   3.770   2.055  13.785 -0.0807  0.2824 -0.0230
    6MPD1    C113947   3.765   2.052  13.651 -0.3525  0.0019 -0.0168
    6MPD1    C213948   3.841   1.951  13.599  0.0899 -0.5534  0.1915
    6MPD1    C313949   3.903   1.850  13.679  0.6195  0.2800 -0.0230
    6MPD1    C413950   3.904   1.866  13.810  0.8576  0.2888  0.4147
    6MPD1    C513951   3.833   1.962  13.868  0.3259  0.1375  0.2669
    6MPD1     H13952   3.838   1.928  13.493 -0.9408 -2.1035  0.5476
    6MPD1    H113953   3.948   1.791  13.875 -1.5760 -0.5821  1.0271
    6MPD1    H213954   3.715   2.134  13.836 -0.3792  0.3890 -0.5091
    6MPD1    H313955   3.831   1.971  13.976  0.1398 -1.7167  0.4205
    6MPD1     N13956   3.979   1.743  13.627  0.2392  0.1281 -0.7030
    6MPD1    H513957   4.010   1.678  13.698 -0.5992  2.2805  1.6034
    6MPD1    N113958   3.701   2.161  13.582  0.0962  0.7903  0.1031
    6MPD1    H613959   3.612   2.194  13.619 -0.0726 -0.1331  0.5128
    6MPD1    H713960   3.683   2.127  13.488 -1.8467  4.1049 -0.7306
    7MPD2     C13961   4.306   1.134  13.817  0.2444 -0.4646  0.2142
    7MPD2    C113962   4.341   1.150  13.681 -0.2466 -0.9157  0.3122
    7MPD2    C213963   4.400   1.035  13.619 -0.1711 -1.0897  0.3788
    7MPD2    C313964   4.411   0.915  13.682 -0.5078  0.1896 -0.7595
    7MPD2    C413965   4.374   0.907  13.810 -0.0345 -0.5358  0.2528
    7MPD2    C513966   4.319   1.013  13.880 -0.0163  0.0852 -0.4908
    7MPD2     H13967   4.434   1.043  13.516  0.5035 -0.6397  0.6414
    7MPD2    H113968   4.385   0.816  13.867 -0.4761 -0.8861 -0.2218
    7MPD2    H213969   4.251   1.210  13.872  3.4431  1.5634  0.6240
    7MPD2    H313970   4.281   0.996  13.980  1.9730 -2.6761 -0.1855
    7MPD2     N13971   4.457   0.795  13.620  0.0184 -0.7561  0.3261
    7MPD2    H513972   4.481   0.720  13.683  1.2461  0.0574  0.8200
    7MPD2    N113973   4.323   1.264  13.597  0.0730  0.1122  0.0339
    7MPD2    H713974   4.337   1.260  13.497 -0.0986 -0.9282  0.0506
    8TMC3    C113975   4.581   0.713  13.438 -0.2412  0.1343  0.1294
    8TMC3    C213976   4.691   0.762  13.490  0.1058 -0.3676 -0.4955
    8TMC3    C313977   0.060   0.794  13.415  0.5395  0.4981 -0.5932
    8TMC3    C413978   4.562   0.729  13.305 -0.1060 -0.0183  0.3943
    8TMC3    C513979   4.672   0.756  13.225 -0.0703  0.9292  0.0155
    8TMC3    C613980   0.055   0.794  13.279  0.9243 -0.2128  0.7071
    8TMC3     C13981   4.463   0.783  13.481  0.0051  0.5499 -1.0921
    8TMC3     O13982   4.407   0.853  13.398  0.0026  0.0700  0.2152
    8TMC3     H13983   4.693   0.762  13.598  1.3184 -0.8108 -0.5110
    8TMC3    H113984   4.471   0.696  13.256  0.2631  0.5128 -0.6500
    8TMC3    H213985   0.132   0.841  13.219  0.4263  1.4898  1.4083
    8TMC3    C713986   4.633   0.825  13.104  0.3085  0.7510 -0.4536
    8TMC3    C813987   0.182   0.847  13.473 -0.1135  0.3909  0.4151
    8TMC3    O113988   4.703   0.825  13.005 -0.4338 -0.3478  0.4304
    8TMC3    O213989   0.259   0.901  13.400  0.2015 -0.1141  0.4617
    9TMC3    C113990   4.086   1.619  13.470  0.1748 -0.2970 -0.1858
    9TMC3    C213991   4.104   1.568  13.344 -0.0875  0.2507  0.3035
    9TMC3    C313992   4.215   1.488  13.320  0.2717 -0.0703  0.0054
    9TMC3    C413993   4.171   1.577  13.569  0.3079 -0.3835  0.0150
    9TMC3    C513994   4.271   1.490  13.541 -0.4837  0.0107 -0.3313
    9TMC3    C613995   4.299   1.442  13.415 -0.0124  0.2947 -0.2081
    9TMC3     C13996   3.983   1.712  13.492  0.1245 -0.4779 -0.0528
    9TMC3     O13997   3.933   1.763  13.392  0.3445  0.3882 -0.5018
    9TMC3     H13998   4.042   1.598  13.261 -0.7370  1.6167  1.2913
    9TMC3    H113999   4.158   1.591  13.676  2.6328  0.4421  0.1925
    9TMC3    H214000   4.393   1.393  13.392 -1.3743 -1.0667 -2.8012
    9TMC3    C714001   4.293   1.392  13.648 -0.0512 -0.1270  0.0338
    9TMC3    C814002   4.230   1.434  13.191 -0.1731  0.0206  0.1109
    9TMC3    O114003   4.286   1.443  13.762 -0.0281  0.5833  0.3001
    9TMC3    O214004   4.217   1.504  13.089 -0.2849 -0.1607  0.3964
   10MPD2     C14005   4.518   1.094  12.956 -0.3105 -0.8641 -0.0210
   10MPD2    C114006   4.485   1.037  13.083  0.9179  0.8835  1.0850
   10MPD2    C214007   4.400   1.110  13.159 -0.8437 -0.3068  0.5548
   10MPD2    C314008   4.346   1.230  13.116 -0.7279 -0.2809  0.0143
   10MPD2    C414009   4.384   1.279  12.991  0.1793 -0.4476  0.2874
   10MPD2    C514010   4.463   1.210  12.914 -0.9556  0.1994 -0.1576
   10MPD2     H14011   4.369   1.084  13.259 -0.4474  0.4115  0.8676
   10MPD2    H114012   4.348   1.375  12.955  0.2682 -0.2416  0.7481
   10MPD2    H214013   4.586   1.043  12.890  0.6055  1.8440 -1.1813
   10MPD2    H314014   4.490   1.239  12.812 -0.2820 -2.0660 -0.6260
   10MPD2     N14015   4.264   1.299  13.207 -0.2062 -0.4585 -0.3333
   10MPD2    H514016   4.250   1.256  13.297 -2.5395 -0.3045 -0.6281
   10MPD2    N114017   4.537   0.918  13.143  0.1720  0.1660  0.6407
   10MPD2    H714018   4.494   0.893  13.232 -2.8722  1.2739 -0.5500
   11MPD2     C14019   1.473   0.779  13.539 -0.1306 -0.2406  0.4059
   11MPD2    C114020   1.392   0.741  13.640 -0.4925  0.1378  0.1891
   11MPD2    C214021   1.300   0.837  13.691  0.0649 -0.4957 -0.6659
   11MPD2    C314022   1.292   0.960  13.639 -0.0549  0.0744  0.4156
   11MPD2    C414023   1.363   0.993  13.530  0.5590  0.5807  0.0421
   11MPD2    C514024   1.460   0.901  13.486 -0.8380  0.0079 -0.7588
   11MPD2     H14025   1.251   0.807  13.784 -1.8598  2.9067 -0.6041
   11MPD2    H114026   1.351   1.090  13.484 -0.7056 -0.9733 -2.9249
   11MPD2    H214027   1.547   0.710  13.500 -0.3040  0.3346 -0.9348
   11MPD2    H314028   1.520   0.922  13.398  0.4139 -1.2829 -0.2148
   11MPD2     N14029   1.200   1.060  13.682  0.3239 -0.2399  0.4797
   11MPD2    H514030   1.196   1.149  13.634 -1.7921  0.8362  2.6898
   11MPD2    N114031   1.375   0.611  13.696 -0.2968  0.5903  0.1119
   11MPD2    H714032   1.313   0.604  13.776  0.8650 -2.2855  0.7396
    1MPD1     C14033   2.424   2.126  17.566 -0.5975  0.0090 -0.0577
    1MPD1    C114034   2.469   2.145  17.439 -0.3474  0.6697 -0.3971
    1MPD1    C214035   2.600   2.116  17.398 -0.1033  0.0546  0.6716
    1MPD1    C314036   2.673   2.051  17.496  0.6118  0.3425  0.2626
    1MPD1    C414037   2.629   2.030  17.624 -0.6823 -0.5837  1.0827
    1MPD1    C514038   2.508   2.070  17.665  0.1897 -0.0002  0.3187
    1MPD1     H14039   2.628   2.145  17.298 -1.1462  2.0673  0.9613
    1MPD1    H114040   2.689   1.973  17.693  0.4903  0.2787  0.7698
    1MPD1    H214041   2.326   2.162  17.595 -0.6066  1.5931 -2.0453
    1MPD1    H314042   2.467   2.049   0.008  1.5470 -1.4250  0.5732
    1MPD1     N14043   2.810   2.006  17.467 -0.3646 -0.6944 -0.3189
    1MPD1    H514044   2.858   1.951  17.538 -0.0805  0.8933  0.7168
    1MPD1    N114045   2.393   2.218  17.348 -0.7293  0.2127  0.1206
    1MPD1    H614046   2.292   2.230  17.358 -0.8542  0.6240 -1.7366
    1MPD1    H714047   2.408   2.209  17.248  0.1572  1.5498  0.1357
    2MPD1     C14048   3.717   2.303  17.255  0.0190  0.6145 -0.4174
    2MPD1    C114049   3.603   2.373  17.304 -0.6903 -0.2457 -0.0938
    2MPD1    C214050   3.482   2.295  17.296  0.3882 -0.1502 -0.0903
    2MPD1    C314051   3.475   2.168  17.252  0.1184  0.1356 -0.1442
    2MPD1    C414052   3.593   2.110  17.210 -0.0516  0.5885  0.6111
    2MPD1    C514053   3.713   2.174  17.209  0.8028  1.2248 -0.1430
    2MPD1     H14054   3.391   2.351  17.316  0.9910  2.3177 -4.3194
    2MPD1    H114055   3.598   2.012  17.164  1.6031  1.5634 -1.3162
    2MPD1    H214056   3.810   2.356  17.246  0.0586  0.7254  0.5990
    2MPD1    H314057   3.801   2.115  17.185  0.5074 -0.7243  3.5891
    2MPD1     N14058   3.350   2.098  17.261  0.3071  0.5460 -0.4459
    2MPD1    H514059   3.268   2.157  17.268 -0.7019 -0.9742  0.4043
    2MPD1    N114060   3.615   2.508  17.325 -0.5175  1.1263 -0.1364
    2MPD1    H614061   3.708   2.524  17.363 -0.3911 -1.3715  0.5486
    2MPD1    H714062   3.548   2.541  17.395 -0.3672  2.2406 -0.5040
    3TMC3    C114063   3.205   1.903  17.263 -0.4044 -0.1339 -0.3153
    3TMC3    C214064   3.197   1.772  17.305  0.7053 -0.5225  0.5430
    3TMC3    C314065   3.078   1.730  17.358  0.6610 -0.4050  0.3944
    3TMC3    C414066   3.103   1.992  17.283  1.1107 -0.0772  0.6462
    3TMC3    C514067   2.990   1.946  17.344  0.0319 -1.1626 -0.1314
    3TMC3    C614068   2.972   1.809  17.371  0.8495 -0.5585  0.3066
    3TMC3     C14069   3.340   1.958  17.256 -0.2061 -0.7055 -0.4207
    3TMC3     O14070   3.432   1.882  17.281  0.0595  0.7148  0.2834
    3TMC3     H14071   3.284   1.708  17.296  1.5078  0.3112  2.3928
    3TMC3    H114072   3.106   2.094  17.247 -0.8449 -0.3727 -0.3426
    3TMC3    H214073   2.889   1.766  17.425 -1.3617  2.6467 -0.5787
    3TMC3    C714074   2.879   2.029  17.349 -0.0070 -0.4172  0.7285
    3TMC3    C814075   3.054   1.603  17.321 -0.1256 -0.1171 -0.4356
    3TMC3    O114076   2.857   2.098  17.250  0.4479  0.7829 -0.1973
    3TMC3    O214077   3.120   1.521  17.385  0.5006  0.7919  0.2526
    4MPD1     C14078   2.815   1.256  17.038  0.1000 -0.0471 -0.6281
    4MPD1    C114079   2.732   1.362  17.042 -0.4895 -0.3193 -0.4020
    4MPD1    C214080   2.789   1.478  17.103  0.2712  0.3465  0.1812
    4MPD1    C314081   2.902   1.476  17.179  0.1998  0.2797 -0.5243
    4MPD1    C414082   2.975   1.361  17.178  0.1696  0.9519 -0.3884
    4MPD1    C514083   2.941   1.255  17.100 -0.2054  0.2551  0.0306
    4MPD1     H14084   2.737   1.573  17.101  0.7537  0.6590  3.5869
    4MPD1    H114085   3.071   1.350  17.226  0.1611 -2.6451 -1.1818
    4MPD1    H214086   2.787   1.170  16.978 -3.2628  2.1344 -2.1801
    4MPD1    H314087   3.009   1.174  17.078  0.2525  1.1741 -1.9743
    4MPD1     N14088   2.947   1.593  17.236 -0.2661 -0.1917  0.3583
    4MPD1    H514089   2.900   1.678  17.206  1.7647  0.3868 -1.2767
    4MPD1    N114090   2.615   1.374  16.967 -0.6551 -0.2407 -0.1937
    4MPD1    H614091   2.581   1.289  16.921 -3.8360  1.0105 -0.1808
    4MPD1    H714092   2.538   1.426  17.009  0.8076  0.8639  1.0896
    1TCq1    O114093   4.152   0.608  10.807  0.2303  0.0965 -0.3636
    1TCq1    C114094   4.054   0.661  10.729  0.6997  0.7888 -1.0368
    1TCq1    O214095   3.957   0.601  10.691 -0.0480 -0.0424 -0.0237
    1TCq1    C214096   4.046   0.808  10.737  0.1561  0.3795  0.9059
    1TCq1    C314097   4.117   0.873  10.831  0.0998  0.3109  0.4905
    1TCq1    C414098   4.081   0.996  10.876 -0.1290 -0.0412 -0.3384
    1TCq1    C514099   3.961   1.046  10.846 -0.5796  0.0489  0.2602
    1TCq1    C614100   3.893   0.986  10.741  0.0601  1.0045 -0.2056
    1TCq1    C714101   3.934   0.867  10.686  0.4186 -0.2228  0.2338
    1TCq1    C814102   3.777   1.062  10.684 -0.4364 -0.6362 -0.1084
    1TCq1    O414103   3.755   1.171  10.732 -0.0830  0.3191  0.0883
    1TCq1    C914104   4.132   1.043  11.002 -0.5682  0.2813 -0.7339
    1TCq1    O514105   4.123   1.165  11.021  0.4605 -0.2580 -0.3258
    1TCq1    O614106   4.184   0.955  11.072 -0.1488  0.5801 -0.0286
    1TCq1    H114107   4.231   0.667  10.811  0.4625 -0.1843 -0.7724
    1TCq1    H214108   4.191   0.817  10.887 -1.0918 -0.3613  1.3917
    1TCq1    H314109   3.912   1.131  10.892  0.6005  0.6470  0.4171
    1TCq1    H414110   3.897   0.827  10.592 -1.1053  0.7578  0.4055
    2MPD1     C14111   3.313   1.082  10.428 -0.2189  0.5011 -0.4274
    2MPD1    C114112   3.384   0.963  10.403 -0.3131 -0.4752 -0.5249
    2MPD1    C214113   3.511   0.941  10.456 -0.3401 -0.3870  0.3194
    2MPD1    C314114   3.583   1.032  10.534  0.3637  0.4768  0.2565
    2MPD1    C414115   3.515   1.145  10.562 -0.1301 -0.2240  0.3831
    2MPD1    C514116   3.384   1.166  10.512  0.7628 -0.1711 -0.8477
    2MPD1     H14117   3.553   0.843  10.437 -1.8172 -0.7694 -0.9981
    2MPD1    H114118   3.550   1.232  10.618  1.3973  0.1399 -1.1473
    2MPD1    H214119   3.210   1.097  10.400 -0.3566 -2.0074 -1.2583
    2MPD1    H314120   3.351   1.266  10.538 -1.9933 -1.8563  2.1329
    2MPD1     N14121   3.711   0.998  10.585  0.8991 -0.6942  0.3246
    2MPD1    H514122   3.755   0.915  10.545  0.2586 -1.7841  1.8537
    2MPD1    N114123   3.320   0.853  10.349 -0.0263  0.5199  0.1543
    2MPD1    H614124   3.261   0.874  10.269  0.8676  3.0900  0.1714
    2MPD1    H714125   3.383   0.790  10.300 -0.3516 -0.1125  0.5455
    1TMC1    C114126   1.979   1.981   0.868  0.3646  0.3190 -0.5434
    1TMC1    C214127   1.861   1.916   0.879  0.2934  0.0676 -0.1590
    1TMC1    C314128   1.854   1.791   0.828  0.6535  0.4202 -0.0114
    1TMC1    C414129   2.085   1.922   0.805  0.4062  0.6421  0.9886
    1TMC1    C514130   2.078   1.797   0.765 -0.4215 -0.2277  0.7491
    1TMC1    C614131   1.959   1.725   0.768 -0.7454 -0.5522 -0.1942
    1TMC1     C14132   1.981   2.126   0.903 -0.2300  0.4195  0.4074
    1TMC1     O14133   1.892   2.159   0.985 -0.5487 -0.2863 -0.1250
    1TMC1     H14134   1.770   1.954   0.924  1.1216  0.3681  1.2620
    1TMC1    H114135   2.184   1.961   0.827  0.0313  2.7248 -0.9822
    1TMC1    H214136   1.948   1.619   0.748 -0.1208 -0.7439  0.4672
    1TMC1    C714137   2.189   1.741   0.682  1.3477 -0.3921 -0.6236
    1TMC1    C814138   1.734   1.718   0.873  0.2593  0.0501 -0.3754
    1TMC1    O114139   2.187   1.621   0.648 -0.7697 -0.4983  0.7668
    1TMC1    O214140   1.695   1.720   0.990  0.0582 -0.0588  0.1330
    1TMC1    O314141   2.227   1.849   0.607 -0.1438  0.7703  0.0122
    1TMC1    H314142   2.200   1.939   0.635 -0.2548  1.0256 -0.8945
    1TMC1    O514143   1.728   1.608   0.797  0.5998  0.0340  0.8360
    1TMC1    H514144   1.745   1.627   0.702 -0.4436 -0.5009  0.5539
    2MPD1     C14145   2.154   2.616   0.876  0.3343  0.0111 -0.0785
    2MPD1    C114146   2.247   2.536   0.825  0.3103 -0.2933 -0.3696
    2MPD1    C214147   2.219   2.405   0.813 -0.3416 -0.2624 -0.1721
    2MPD1    C314148   2.109   2.339   0.876  0.6300 -1.3602 -0.7441
    2MPD1    C414149   2.019   2.425   0.936  0.4451 -0.4723  0.0581
    2MPD1    C514150   2.043   2.562   0.945 -0.5146 -0.6819  0.7876
    2MPD1     H14151   2.285   2.345   0.751  0.3673  3.6479 -3.1638
    2MPD1    H114152   1.925   2.391   0.979  0.4243 -1.9912 -1.1925
    2MPD1    H214153   2.172   2.723   0.874  2.2777 -0.3886 -3.2497
    2MPD1    H314154   1.967   2.623   0.991 -1.6303 -2.4838  1.3391
    2MPD1     N14155   2.085   2.198   0.855  0.6148 -0.0510  0.4304
    2MPD1    H514156   2.138   2.154   0.781  2.4834  2.7419  0.0944
    2MPD1    N114157   2.352   2.599   0.753  0.6735  0.3913  0.4366
    2MPD1    H614158   2.376   2.692   0.784 -1.8558  1.2265 -0.0606
    2MPD1    H714159   2.430   2.535   0.759 -0.1290 -0.5246  1.1926
    1MPD1     C14160   1.328   2.047  11.670 -0.2958  0.1582 -0.7145
    1MPD1    C114161   1.323   1.997  11.796 -0.3979  0.0924 -0.1204
    1MPD1    C214162   1.326   2.086  11.902  0.0995 -0.4098  1.2571
    1MPD1    C314163   1.352   2.219  11.887 -0.6788 -0.2680 -0.3283
    1MPD1    C414164   1.373   2.267  11.755  0.5150 -0.6200  0.5312
    1MPD1    C514165   1.352   2.183  11.650 -0.0564 -0.1873 -0.3217
    1MPD1     H14166   1.322   2.050  12.004  0.7666 -2.6338  0.4836
    1MPD1    H114167   1.383   2.372  11.730  1.3124 -1.3948 -2.3597
    1MPD1    H214168   1.326   1.980  11.585  1.0379  1.3360 -1.6677
    1MPD1    H314169   1.358   2.227  11.551 -2.7035  2.9777  0.9490
    1MPD1     N14170   1.365   2.305  12.001 -0.1879  0.7539 -0.2170
    1MPD1    H514171   1.364   2.263  12.093 -1.0085 -2.1726 -1.5602
    1MPD1    N114172   1.286   1.863  11.817  0.2473 -0.1976  0.4506
    1MPD1    H614173   1.308   1.835  11.913  0.5521  0.2493  0.5097
    1MPD1    H714174   1.335   1.798  11.757  0.2397  0.9990 -0.8419
    2MPD1     C14175   0.578   2.531  11.295 -0.4843 -0.1606 -0.0935
    2MPD1    C114176   0.518   2.533  11.172  0.2489  0.0276 -0.2137
    2MPD1    C214177   0.583   2.467  11.067 -0.3558 -0.5353  0.0913
    2MPD1    C314178   0.698   2.393  11.094  0.4696 -0.0689 -0.3422
    2MPD1    C414179   0.763   2.403  11.216  0.1095 -0.1186  0.0788
    2MPD1    C514180   0.690   2.459  11.321  0.0438 -0.0113  0.4553
    2MPD1     H14181   0.538   2.474  10.969  3.4994  0.6178 -1.6005
    2MPD1    H114182   0.861   2.366  11.243  1.0638  1.5394 -1.1335
    2MPD1    H214183   0.546   2.588  11.381 -0.0926 -0.1834  0.0632
    2MPD1    H314184   0.731   2.456  11.421 -0.0474  0.3539  0.5044
    2MPD1     N14185   0.766   2.319  10.997 -0.0193 -0.1053 -0.3644
    2MPD1    H514186   0.866   2.310  11.010 -0.2734  0.7622  2.3636
    2MPD1    N114187   0.415   2.627  11.153  0.4599  0.1088 -0.2147
    2MPD1    H614188   0.349   2.593  11.084 -0.3133  0.7796  0.1931
    2MPD1    H714189   0.355   2.655  11.231  0.4257  0.6125 -0.4265
    3MPD1     C14190   0.668   2.330  10.030  1.3969  0.4335  0.6925
    3MPD1    C114191   0.651   2.419  10.138  0.2298  0.2263  0.9076
    3MPD1    C214192   0.698   2.377  10.264 -0.7169 -0.6510 -0.2694
    3MPD1    C314193   0.756   2.254  10.285 -0.4295  0.2893 -1.0743
    3MPD1    C414194   0.764   2.159  10.181 -0.3921 -0.3473 -0.0977
    3MPD1    C514195   0.715   2.202  10.056  0.0361  0.4603 -0.3769
    3MPD1     H14196   0.695   2.441  10.351  1.2006 -0.2264 -0.5217
    3MPD1    H114197   0.819   2.066  10.187  0.5237  0.0862 -1.7488
    3MPD1    H214198   0.642   2.353   9.927  0.3822  0.0679  0.8630
    3MPD1    H314199   0.718   2.141   9.967 -1.3698 -0.2995  0.0964
    3MPD1     N14200   0.799   2.225  10.415 -0.0402  0.3021  0.3291
    3MPD1    H514201   0.778   2.298  10.482 -0.7989 -0.3484  0.8063
    3MPD1    N114202   0.634   2.554  10.111 -0.5796 -0.3393 -0.9624
    3MPD1    H614203   0.571   2.570  10.033 -0.4728  3.4143 -0.2651
    3MPD1    H714204   0.585   2.596  10.189 -1.7988  0.1691 -2.0114
    4MPD2     C14205   1.680   2.684  11.614  0.1598  1.1056 -0.7453
    4MPD2    C114206   1.721   2.577  11.695 -0.2993  0.1937  0.1194
    4MPD2    C214207   1.763   2.467  11.618 -0.0747 -0.2388  0.8532
    4MPD2    C314208   1.743   2.450  11.483 -0.5102  0.2260  0.9324
    4MPD2    C414209   1.693   2.558  11.409  0.8221  0.6038 -0.3474
    4MPD2    C514210   1.666   2.673  11.476 -0.2740 -0.5210 -0.2780
    4MPD2     H14211   1.817   2.389  11.670  1.6201  0.8082  0.6755
    4MPD2    H114212   1.676   2.550  11.302  3.5840  0.5994 -0.7886
    4MPD2    H214213   1.644   2.777  11.658 -0.3332  0.4279  0.2793
    4MPD2    H314214   1.637   2.761  11.420  1.1554 -0.3653 -0.7772
    4MPD2     N14215   1.778   2.328  11.416 -0.3795 -0.9793  0.2812
    4MPD2    H514216   1.809   2.257  11.483 -1.4774 -2.2605 -0.5756
    4MPD2    N114217   1.726   2.583  11.837  0.3629 -0.1167 -0.5651
    4MPD2    H714218   1.731   2.491  11.879  2.8568 -0.2374 -1.1196
    5TMC3    C114219   1.653   2.627  12.054  0.1671 -0.2094  0.2763
    5TMC3    C214220   1.517   2.610  12.070  0.2905 -0.4055 -0.0491
    5TMC3    C314221   1.459   2.495  12.107 -0.2031 -0.1620 -0.3419
    5TMC3    C414222   1.730   2.519  12.082  0.4276  0.7832  0.0481
    5TMC3    C514223   1.670   2.400  12.127 -0.1498  0.9671  0.5807
    5TMC3    C614224   1.537   2.390  12.154  0.3103 -0.3751 -0.3568
    5TMC3     C14225   1.680   2.678  11.922 -0.1513  0.4723  0.0787
    5TMC3     O14226   1.651   2.794  11.908  0.4139 -0.4276 -0.0908
    5TMC3     H14227   1.463   2.688  12.017 -0.7064 -0.7863  0.3957
    5TMC3    H114228   1.836   2.520  12.062  0.6481 -0.3158  1.1275
    5TMC3    H214229   1.496   2.299  12.196  3.4435 -1.1861  0.9959
    5TMC3    C714230   1.707   2.294  12.034  0.1418  0.5055  0.1502
    5TMC3    C814231   1.367   2.446  12.000  0.1921  0.5706  0.0383
    5TMC3    O114232   1.774   2.325  11.936  0.0875  0.4572 -0.2092
    5TMC3    O214233   1.356   2.521  11.904 -0.3557  0.1354 -0.2651
    6TMC3    C114234   0.796   2.188  10.809  0.2541 -0.1839 -0.1430
    6TMC3    C214235   0.779   2.185  10.672 -0.3756  0.3527 -0.0971
    6TMC3    C314236   0.868   2.104  10.600  0.0552 -0.1524 -0.7245
    6TMC3    C414237   0.869   2.097  10.878 -0.0961  0.5803 -0.3700
    6TMC3    C514238   0.938   2.013  10.800  0.0093  0.3406  0.1434
    6TMC3    C614239   0.952   2.017  10.666  0.1631  0.5648  0.4499
    6TMC3     C14240   0.706   2.266  10.891 -0.7593 -0.1325 -0.3378
    6TMC3     O14241   0.587   2.268  10.860 -0.4086  0.1045 -0.1717
    6TMC3     H14242   0.699   2.246  10.632  0.2335  0.3326 -1.3266
    6TMC3    H114243   0.862   2.087  10.986  0.3760 -0.0594 -0.3974
    6TMC3    H214244   1.029   1.956  10.620 -0.6152 -0.5036  0.5576
    6TMC3    C714245   1.046   1.940  10.868 -0.0258 -0.3524 -0.5893
    6TMC3    C814246   0.850   2.104  10.458  0.1530  0.1838  0.6783
    6TMC3    O114247   1.161   1.959  10.827  0.2277 -0.1574 -0.1644
    6TMC3    O214248   0.889   2.010  10.390  0.1498  0.0814 -0.0462
    7MPD2     C14249   1.661   1.813  11.852 -0.0686 -0.0855  0.3852
    7MPD2    C114250   1.700   1.926  11.786 -0.5124 -0.0451 -0.5880
    7MPD2    C214251   1.705   2.041  11.858 -0.1117  0.1396 -0.2432
    7MPD2    C314252   1.660   2.046  11.987 -0.6271 -0.8636  0.9093
    7MPD2    C414253   1.610   1.934  12.044  0.5732  0.5912 -0.9857
    7MPD2    C514254   1.605   1.818  11.975  0.1675 -0.0587  0.0919
    7MPD2     H14255   1.744   2.134  11.817  2.3810 -1.0852 -0.6593
    7MPD2    H114256   1.558   1.944  12.139 -0.6859 -0.3319 -1.5775
    7MPD2    H214257   1.656   1.717  11.803  0.8916  0.1598 -0.1820
    7MPD2    H314258   1.561   1.733  12.026  2.1932 -0.6123  0.9099
    7MPD2     N14259   1.653   2.172  12.068  0.4444 -0.9175  0.1540
    7MPD2    H514260   1.606   2.172  12.159 -0.1119  1.7485 -0.1300
    7MPD2    N114261   1.742   1.917  11.652  0.1695  0.0747 -0.0326
    7MPD2    H714262   1.724   1.832  11.600 -1.9773  0.4706  0.0333
    8TMC3    C114263   1.772   2.002  11.424 -0.0403 -0.9184  0.2612
    8TMC3    C214264   1.651   1.960  11.376 -0.2264 -0.0749  0.3302
    8TMC3    C314265   1.616   2.008  11.255 -0.2865  0.2967  0.4662
    8TMC3    C414266   1.843   2.098  11.361 -1.0320 -0.1447  0.6693
    8TMC3    C514267   1.788   2.163  11.260  0.2669 -0.3486 -0.1607
    8TMC3    C614268   1.693   2.100  11.184  0.5140 -0.0770 -0.5518
    8TMC3     C14269   1.790   2.019  11.570  0.2904  0.0100  0.5839
    8TMC3     O14270   1.850   2.121  11.602  0.2934  0.3007 -0.1812
    8TMC3     H14271   1.581   1.907  11.439 -1.6736  0.6896 -0.6342
    8TMC3    H114272   1.933   2.138  11.408 -1.7165  0.9552  1.0552
    8TMC3    H214273   1.654   2.143  11.092 -3.0241  0.5166  1.2251
    8TMC3    C714274   1.761   2.302  11.277 -0.9272  0.2866 -0.0674
    8TMC3    C814275   1.488   1.977  11.197 -0.0989  0.3850  0.5045
    8TMC3    O114276   1.718   2.361  11.179 -0.1636  0.5477  0.4288
    8TMC3    O214277   1.463   2.032  11.089 -0.0777 -0.2737  0.3637
    9MPD2     C14278   1.202   1.822  11.361 -0.6552  0.5484  0.4427
    9MPD2    C114279   1.266   1.874  11.251 -0.8646 -0.2331 -0.3518
    9MPD2    C214280   1.209   1.881  11.127  0.4960  0.0403 -0.6636
    9MPD2    C314281   1.077   1.855  11.105  0.0114 -0.2752 -0.3271
    9MPD2    C414282   1.011   1.810  11.218  0.6163  0.3477  0.5995
    9MPD2    C514283   1.077   1.783  11.335  0.8089  0.3076  0.9780
    9MPD2     H14284   1.261   1.924  11.042  2.5536  1.4723  1.3042
    9MPD2    H114285   0.906   1.783  11.213  0.6536  0.3636 -0.2436
    9MPD2    H214286   1.239   1.813  11.463  0.9578 -0.7192 -0.2623
    9MPD2    H314287   1.023   1.746  11.422 -0.4065  0.1810  0.1639
    9MPD2     N14288   0.999   1.894  10.988  0.1322  0.3844 -0.7063
    9MPD2    H514289   0.901   1.872  10.995  0.4660  0.2158  3.5574
    9MPD2    N114290   1.400   1.913  11.273 -0.0502 -0.5336 -0.7515
    9MPD2    H714291   1.440   1.898  11.365  0.6148  1.2491 -0.7512
    1MPD1     C14292   0.723   4.596  15.790  0.3292 -0.8901 -0.6743
    1MPD1    C114293   0.705   4.671  15.670 -0.0221  0.1377  0.0348
    1MPD1    C214294   0.735   0.065  15.675 -0.5716  0.4203 -0.0694
    1MPD1    C314295   0.802   0.112  15.786 -0.2416 -0.5715  0.7501
    1MPD1    C414296   0.842   0.028  15.885  0.1469  0.6017 -0.1718
    1MPD1    C514297   0.796   4.641  15.892  0.4221  0.3587  0.2572
    1MPD1     H14298   0.705   0.124  15.589 -1.6612  2.2964  1.5766
    1MPD1    H114299   0.885   0.058  15.980  0.2562 -0.2841  0.0626
    1MPD1    H214300   0.691   4.493  15.792  1.0441 -1.0668  1.3756
    1MPD1    H314301   0.813   4.581  15.981  2.2810 -0.7952 -0.8614
    1MPD1     N14302   0.825   0.250  15.808  0.1356  0.0667  0.5274
    1MPD1    H514303   0.881   0.281  15.887 -0.7008 -3.2256  2.3784
    1MPD1    N114304   0.633   4.618  15.564 -0.2358  0.3086 -0.3095
    1MPD1    H614305   0.647   4.671  15.478 -0.7743 -2.1732 -1.9395
    1MPD1    H714306   0.648   4.518  15.551  3.3506  0.9288 -0.9320
    2TMC2    C114307   0.698   0.643  15.900  0.5672 -1.0644 -0.0447
    2TMC2    C214308   0.698   0.742  15.803 -0.7207  0.6343 -0.5516
    2TMC2    C314309   0.762   0.707  15.690  0.1522 -0.0550  1.0254
    2TMC2    C414310   0.756   0.516  15.880  0.1397 -0.2608 -0.7470
    2TMC2    C514311   0.806   0.482  15.761  0.1959 -0.3151 -0.5657
    2TMC2    C614312   0.810   0.580  15.660  0.2652  0.3116  0.3348
    2TMC2     C14313   0.664   0.681  16.038 -0.6362  0.1258 -0.0499
    2TMC2     O14314   0.716   0.603  16.119 -0.2428 -0.1208 -0.3875
    2TMC2     H14315   0.665   0.844  15.822 -1.9577 -0.1679  1.5802
    2TMC2    H114316   0.753   0.448  15.964  0.8996  0.4181 -0.1743
    2TMC2    H214317   0.855   0.564  15.562 -1.3261  3.2925 -0.8839
    2TMC2    C714318   0.793   0.346  15.716 -0.6007  0.4869 -0.1216
    2TMC2    C814319   0.744   0.776  15.561 -0.2635  0.2435  0.3504
    2TMC2    O114320   0.761   0.340  15.599 -0.3767 -0.1383 -0.1170
    2TMC2    O214321   0.822   0.771  15.467  0.1518 -0.1393  0.2884
    2TMC2    O514322   0.651   0.869  15.585 -0.1538  0.0309 -0.3187
    2TMC2    H514323   0.608   0.853  15.672 -3.7151 -0.9564 -2.2520
    3MPD1     C14324   0.489   0.983  16.414 -0.3740  0.2558 -0.1216
    3MPD1    C114325   0.471   1.047  16.297 -0.2076 -0.5940 -0.2871
    3MPD1    C214326   0.504   0.984  16.177 -0.6246  0.1319 -0.6609
    3MPD1    C314327   0.563   0.857  16.177 -0.8366 -0.2386  0.4065
    3MPD1    C414328   0.586   0.793  16.300  0.6057  0.8811  0.0054
    3MPD1    C514329   0.538   0.852  16.406  0.5695 -0.1016 -0.1523
    3MPD1     H14330   0.464   1.024  16.084  0.4860  1.1428 -0.6951
    3MPD1    H114331   0.626   0.694  16.313 -1.1508 -0.0476 -1.7028
    3MPD1    H214332   0.454   1.016  16.511  3.9172 -0.7831  1.8108
    3MPD1    H314333   0.544   0.799  16.501 -2.3508 -0.5108 -0.2204
    3MPD1     N14334   0.604   0.800  16.056  0.1333  0.6175 -0.5166
    3MPD1    H514335   0.570   0.851  15.975  1.4057 -0.5843 -1.8068
    3MPD1    N114336   0.390   1.162  16.305  0.2944 -0.0301  0.3298
    3MPD1    H614337   0.423   1.238  16.246  1.6007 -0.9719 -0.1378
    3MPD1    H714338   0.380   1.194  16.401 -0.7059 -1.7816  0.8083
    1TMC1    C114339   3.770   4.512  13.069  0.0229  0.0383  0.1319
    1TMC1    C214340   3.701   4.516  13.189 -0.2278 -0.2582  0.0111
    1TMC1    C314341   3.569   4.499  13.184 -0.4468 -0.0012 -0.0122
    1TMC1    C414342   3.703   4.491  12.957  0.2318  0.4052 -0.2218
    1TMC1    C514343   3.571   4.469  12.952 -0.2292 -0.2608 -0.3210
    1TMC1    C614344   3.496   4.477  13.067 -0.2498  1.0132  0.5244
    1TMC1     C14345   3.918   4.505  13.070  0.2783  0.5340  0.0387
    1TMC1     O14346   3.971   4.516  12.959  0.4073 -0.3137 -0.2226
    1TMC1     H14347   3.744   4.524  13.289  0.2790  0.2244 -0.2401
    1TMC1    H114348   3.766   4.469  12.871 -0.3217 -1.3460 -0.1771
    1TMC1    H214349   3.390   4.457  13.058 -0.6527  3.2494  0.3367
    1TMC1    C714350   3.498   4.474  12.827  0.1508  0.1189  0.2771
    1TMC1    C814351   3.502   4.469  13.307 -0.3368 -0.1939  0.1853
    1TMC1    O114352   3.416   4.563  12.801  0.1068 -0.3804  0.2065
    1TMC1    O214353   3.561   4.402  13.394  0.7506  0.3195  0.3831
    1TMC1    O314354   3.562   4.388  12.746 -0.5406 -0.3318  0.2084
    1TMC1    H314355   3.623   4.327  12.792 -0.0520 -2.3962 -3.1151
    1TMC1    O514356   3.364   4.472  13.299 -0.0079  0.5078  0.5315
    1TMC1    H514357   3.332   4.521  13.220 -0.9312  0.6916  1.0203
    2MPD2     C14358   4.201   4.533  13.125  0.2231  0.0815 -0.3025
    2MPD2    C114359   4.106   4.514  13.226  0.4498  0.2070 -0.4054
    2MPD2    C214360   4.145   4.497  13.358 -0.1451 -0.3756 -0.1566
    2MPD2    C314361   4.279   4.511  13.392  0.4721 -0.2831 -0.2841
    2MPD2    C414362   4.366   4.539  13.290 -1.1206  0.8200  0.0995
    2MPD2    C514363   4.330   4.558  13.159 -0.6066  0.0112 -0.1418
    2MPD2     H14364   4.077   4.487  13.442  2.3984 -0.8329  1.8206
    2MPD2    H114365   4.472   4.560  13.306 -1.0969  1.2353 -0.6016
    2MPD2    H214366   4.192   4.527  13.017 -0.9859  2.9247 -0.3546
    2MPD2    H314367   4.401   4.564  13.077 -0.1957 -2.6124  0.0238
    2MPD2     N14368   4.315   4.510  13.530 -0.4432 -0.1404 -0.4557
    2MPD2    H514369   4.243   4.523  13.600  1.3750  0.7792  1.2133
    2MPD2    N114370   3.971   4.498  13.193  0.3325  0.1734  0.0458
    2MPD2    H714371   3.913   4.469  13.271 -1.0529  2.7813 -0.0145
    3TCq1    O114372   4.239   0.042  13.930  1.0175 -0.3400  0.3652
    3TCq1    C114373   4.291   4.692  14.014 -0.0440 -0.4639 -0.2966
    3TCq1    O214374   4.291   4.698  14.137 -0.4843 -0.0187 -0.0183
    3TCq1    C214375   4.382   4.612  13.929  0.4899 -0.1102  0.2744
    3TCq1    C314376   4.498   4.582  13.989 -0.2872  0.4242  0.0761
    3TCq1    C414377   4.589   4.511  13.915  0.0755  0.5245  0.4009
    3TCq1    C514378   4.569   4.477  13.786 -0.4467 -0.0689 -0.4646
    3TCq1    C614379   4.451   4.514  13.728  0.4342  0.2825 -0.1851
    3TCq1    C714380   4.351   4.577  13.801  0.1008 -1.1782 -0.3903
    3TCq1    C814381   4.444   4.509  13.581 -0.6721 -0.2950 -0.6161
    3TCq1    O414382   4.543   4.464  13.522 -0.2829  0.6596 -0.0226
    3TCq1    C914383   4.712   4.470  13.982 -0.3147  0.6296  0.4029
    3TCq1    O514384   4.736   4.516  14.098  0.0022  0.3803 -0.0318
    3TCq1    O614385   0.025   4.366  13.934 -0.6435  0.2206 -0.1293
    3TCq1    H114386   4.283   0.047  13.842  1.8011 -1.0696  0.7194
    3TCq1    H214387   4.519   4.610  14.091  1.1179 -2.1397  0.5135
    3TCq1    H314388   4.638   4.417  13.728 -0.9148 -0.3960 -0.6865
    3TCq1    H414389   4.252   4.602  13.765  0.2533 -2.4624 -1.6912
    1MPD2     C14390   3.544   0.538  15.068 -0.3140  0.8009  0.5375
    1MPD2    C114391   3.495   0.418  15.052 -0.4383  0.0504 -0.3828
    1MPD2    C214392   3.568   0.325  14.980 -0.2715  0.1298 -0.6102
    1MPD2    C314393   3.675   0.367  14.898 -0.4689 -0.0187 -0.6948
    1MPD2    C414394   3.710   0.500  14.899  0.2494 -0.2169 -0.8215
    1MPD2    C514395   3.650   0.582  14.994 -0.0794  0.3787  0.2925
    1MPD2     H14396   3.551   0.219  14.967 -0.8158 -0.3004  3.5522
    1MPD2    H114397   3.787   0.538  14.834  1.0678 -1.3728 -0.5240
    1MPD2    H214398   3.491   0.608  15.132 -1.8844  1.5388 -1.6033
    1MPD2    H314399   3.678   0.687  14.990  1.4239 -0.0901 -1.5812
    1MPD2     N14400   3.735   0.271  14.818 -0.3396 -0.4424 -0.2410
    1MPD2    H514401   3.697   0.177  14.822  1.8267 -1.2293  1.1427
    1MPD2    N114402   3.380   0.383  15.131 -0.1334  0.8245 -0.4638
    1MPD2    H714403   3.329   0.464  15.165 -0.3085 -0.5481  2.5742
    2TMC3    C114404   3.193   0.256  15.202  0.3545 -0.3450  0.2775
    2TMC3    C214405   3.144   0.135  15.160  0.4179  0.3603 -0.1450
    2TMC3    C314406   3.032   0.130  15.068  0.8115  0.3795 -0.5369
    2TMC3    C414407   3.113   0.362  15.184  0.2131 -0.5611  0.0646
    2TMC3    C514408   2.992   0.358  15.116 -0.2300 -0.2898 -0.8898
    2TMC3    C614409   2.954   0.243  15.052 -0.1424 -0.9992 -0.1169
    2TMC3     C14410   3.331   0.259  15.156 -0.0431 -0.5620  0.2102
    2TMC3     O14411   3.386   0.149  15.129 -0.4904  0.2454  0.1781
    2TMC3     H14412   3.206   0.048  15.178 -1.7148 -1.0755  0.2790
    2TMC3    H114413   3.135   0.444  15.251 -3.6979  1.4243 -1.0382
    2TMC3    H214414   2.867   0.244  14.986 -0.5929 -0.9014  0.4774
    2TMC3    C714415   2.923   0.481  15.072 -0.3156  0.4321  0.3243
    2TMC3    C814416   3.046   0.055  14.938 -0.3096 -0.7795 -0.1704
    2TMC3    O114417   2.829   0.468  15.000  0.0012 -0.4204  0.2705
    2TMC3    O214418   2.957   0.045  14.855 -0.3700  0.5295 -0.1864
    3TCq1    O114419   3.293   1.643  15.256 -0.1078  0.8192 -0.1007
    3TCq1    C114420   3.162   1.627  15.225 -0.0620  0.2917  0.0974
    3TCq1    O214421   3.066   1.691  15.274 -0.0478 -0.3425 -0.0257
    3TCq1    C214422   3.159   1.513  15.134  0.3921 -0.3380 -0.0277
    3TCq1    C314423   3.275   1.471  15.066 -0.5251 -0.8077  0.0495
    3TCq1    C414424   3.287   1.339  15.027 -0.2940  0.1116 -0.2430
    3TCq1    C514425   3.187   1.251  15.058 -0.1764 -0.5834 -0.1345
    3TCq1    C614426   3.071   1.297  15.108 -0.2726  0.5940 -0.2537
    3TCq1    C714427   3.055   1.428  15.143  0.7451  0.4263  0.5726
    3TCq1    C814428   2.964   1.206  15.130 -0.6113  0.9067  0.4354
    3TCq1    O414429   2.854   1.242  15.160  0.0834  0.1211  0.3191
    3TCq1    C914430   3.406   1.291  14.957  0.0602  1.0010  0.1254
    3TCq1    O514431   3.495   1.371  14.933 -0.3202  0.1283  0.2529
    3TCq1    O614432   3.407   1.168  14.927 -0.1877  0.2779  0.2735
    3TCq1    H114433   3.338   1.560  15.228  1.3409  0.4892  3.2717
    3TCq1    H214434   3.367   1.527  15.059 -1.0685 -0.1294 -1.6695
    3TCq1    H314435   3.196   1.150  15.020  2.2045 -0.9428  1.3856
    3TCq1    H414436   2.968   1.453  15.204  1.0552 -0.2096  1.2785
    4MPD2     C14437   2.785   0.970  15.101  0.1752 -0.3662 -0.5322
    4MPD2    C114438   2.920   0.959  15.130  0.9350  0.4144  0.7211
    4MPD2    C214439   2.978   0.837  15.131 -0.4750 -0.7059  1.0292
    4MPD2    C314440   2.910   0.721  15.113  0.0706 -0.1949  0.1246
    4MPD2    C414441   2.778   0.727  15.080 -0.1665 -0.3831  0.0755
    4MPD2    C514442   2.719   0.849  15.079 -0.2802  0.0677 -0.4387
    4MPD2     H14443   3.083   0.835  15.158 -0.7200 -1.5270  1.9483
    4MPD2    H114444   2.711   0.643  15.076 -0.9866  0.4132 -3.0670
    4MPD2    H214445   2.728   1.061  15.093  2.8141  1.4129  0.8963
    4MPD2    H314446   2.611   0.850  15.069 -0.3817  0.1918  0.7425
    4MPD2     N14447   2.971   0.597  15.132 -0.7664 -0.4537  0.1073
    4MPD2    H514448   3.066   0.588  15.167 -0.8826  3.0516  1.4077
    4MPD2    N114449   3.003   1.074  15.137  0.6876  0.0521 -0.6735
    4MPD2    H714450   3.102   1.056  15.144  0.3517 -0.2630  3.4416
    5TMC2    C114451   3.798   4.692  14.760  0.5567  0.7192  0.7265
    5TMC2    C214452   3.907   4.652  14.831 -0.2591  1.0051 -0.3171
    5TMC2    C314453   4.009   0.004  14.849 -0.1444  0.0317  0.1390
    5TMC2    C414454   3.789   0.071  14.693 -0.6222 -0.4219  0.7245
    5TMC2    C514455   3.896   0.156  14.704 -0.8332 -0.0363  0.2607
    5TMC2    C614456   4.007   0.117  14.773  0.7781 -0.3485  0.7107
    5TMC2     C14457   3.671   4.633  14.787  1.3391 -0.3259 -0.1483
    5TMC2     O14458   3.647   4.614  14.904  0.3527  0.2653  0.7196
    5TMC2     H14459   3.921   4.558  14.884 -0.9253  0.6806 -0.7097
    5TMC2    H114460   3.701   0.109  14.642 -0.0985 -0.1208  0.0315
    5TMC2    H214461   4.084   0.190  14.793  1.8093 -1.3570  0.4136
    5TMC2    C714462   3.851   0.288  14.738  0.2459  0.9790  0.6207
    5TMC2    C814463   4.137   4.696  14.908  0.1007 -0.8128 -0.0301
    5TMC2    O114464   3.936   0.376  14.729  0.2522 -0.3888 -0.4406
    5TMC2    O214465   4.244   4.679  14.856 -0.2515 -0.0676  0.0941
    5TMC2    O514466   4.103   4.664  15.035  0.2607 -0.0009  0.0426
    5TMC2    H514467   4.012   4.701  15.045  1.0324  2.0823 -0.6074
    6MPD2     C14468   3.171   4.704  14.671 -0.6694  0.3741 -0.1455
    6MPD2    C114469   3.238   4.730  14.791 -0.6658 -0.2926 -0.6717
    6MPD2    C214470   3.373   4.704  14.800 -0.3581 -0.3202 -0.1497
    6MPD2    C314471   3.447   4.667  14.686 -0.1258 -0.4591 -0.2251
    6MPD2    C414472   3.381   4.666  14.566 -0.1248  0.0257  0.2663
    6MPD2    C514473   3.245   4.675  14.556 -0.0386 -0.0128  0.1226
    6MPD2     H14474   3.432   4.703  14.891 -0.0869  0.7315 -0.3221
    6MPD2    H114475   3.443   4.659  14.477  1.1445  1.6893  1.0055
    6MPD2    H214476   3.063   4.707  14.664 -0.6373  0.7634 -0.4801
    6MPD2    H314477   3.194   4.677  14.460  1.2269 -0.6967 -0.5786
    6MPD2     N14478   3.586   4.651  14.682  0.0608 -0.1321 -0.0107
    6MPD2    H514479   3.636   4.648  14.594  0.8044 -0.6166  0.4282
    6MPD2    N114480   3.179   0.023  14.920  0.3978  0.2658 -0.0544
    6MPD2    H714481   3.239   0.026  15.002  1.2476  0.1952 -0.6742
  945NH3     N114482   1.833   3.945  10.770 -0.1808  0.4477  1.0464
  945NH3     H214483   1.732   3.930  10.771 -0.0848 -0.3325 -0.7855
  945NH3     H314484   1.860   3.899  10.684 -0.8081  0.9743  0.5666
  945NH3     H414485   1.874   3.886  10.841  2.2296  3.0082  1.7995
  946SOD     NA14486   4.661   0.810  14.640 -0.7794  0.2791  0.5104
  947SOD     NA14487   2.982   4.028   7.566 -0.3781  0.1045 -0.1450
  948SOD     NA14488   0.101   0.912  11.457  0.0180  0.0913 -0.1403
  949SOD     NA14489   1.905   0.136  10.573  0.1482 -0.0960  0.0787
  950SOD     NA14490   3.813   1.959  13.033  0.2586 -0.2711 -0.3282
  951SOD     NA14491   3.209   3.343   7.126  0.4319 -0.1576 -0.0347
  952SOD     NA14492   3.185   3.078  16.749  0.2544 -0.2188 -0.0416
  953SOD     NA14493   0.354   4.048  14.749  0.0775 -0.7426  0.2708
  954SOL     OW14494   1.848   3.768   5.565  0.5403  0.2007 -0.3741
  954SOL    HW114495   1.942   3.775   5.581  0.5215 -1.3500  0.3857
  954SOL    HW214496   1.824   3.729   5.649 -1.6193  0.6272 -0.7982
  955SOL     OW14497   1.753   1.641  10.209  0.0712 -0.2882  0.1063
  955SOL    HW114498   1.708   1.673  10.288 -1.8760 -0.8647 -0.7663
  955SOL    HW214499   1.840   1.615  10.237 -0.3053  0.0494  1.6413
  956SOL     OW14500   4.736   4.217   5.202 -0.8363 -0.2085 -0.8003
  956SOL    HW114501   0.053   4.275   5.151  1.5230 -1.0567  0.8601
  956SOL    HW214502   4.707   4.144   5.146 -0.7030 -1.0514  0.2235
  957SOL     OW14503   1.940   0.105   3.867  0.1729  0.0511  0.4315
  957SOL    HW114504   1.889   0.186   3.875 -1.4979 -0.9240 -0.4061
  957SOL    HW214505   1.869   0.044   3.844  0.1818  0.1284  0.1944
  958SOL     OW14506   0.748   1.876  13.875  0.1660 -0.5582 -0.0680
  958SOL    HW114507   0.775   1.928  13.799 -0.9218  0.5688  0.3115
  958SOL    HW214508   0.815   1.908  13.934 -0.3872  2.3162 -0.9602
  959SOL     OW14509   3.568   0.242   6.874  0.2062  0.0629 -0.2948
  959SOL    HW114510   3.483   0.283   6.890  0.6202  1.5952 -1.9856
  959SOL    HW214511   3.623   0.320   6.869 -1.9779  1.6018 -0.1485
  960SOL     OW14512   0.249   1.947   5.711 -1.0446 -0.1419 -0.4027
  960SOL    HW114513   0.245   1.930   5.617  1.2050 -1.2805 -0.3001
  960SOL    HW214514   0.290   1.872   5.754 -0.9344  1.2825  1.9800
  961SOL     OW14515   3.096   4.157  10.095 -0.1798  0.3189  0.4284
  961SOL    HW114516   3.017   4.187  10.051 -0.2466 -0.7448 -0.1766
  961SOL    HW214517   3.059   4.120  10.174 -0.0670 -1.5840 -0.4147
  962SOL     OW14518   3.526   1.298   6.029 -0.2626  0.2942  0.2945
  962SOL    HW114519   3.434   1.321   6.043  0.1051  1.7076  0.4213
  962SOL    HW214520   3.557   1.384   5.999 -1.4132  0.5309 -0.2191
  963SOL     OW14521   4.251   1.199   9.149 -0.0142  0.9743 -0.1345
  963SOL    HW114522   4.219   1.288   9.164  1.2419  0.9742  2.6501
  963SOL    HW214523   4.310   1.182   9.222  0.8398 -0.6942 -1.2069
  964SOL     OW14524   0.753   3.818   9.406 -0.4958  0.8801 -0.0419
  964SOL    HW114525   0.798   3.902   9.407  1.2646 -0.0680 -2.0704
  964SOL    HW214526   0.713   3.831   9.320 -1.7828 -0.2427  0.3771
  965SOL     OW14527   1.910   2.871   7.352 -1.1090  0.3112 -0.2900
  965SOL    HW114528   1.983   2.819   7.387 -0.8941  0.5896 -0.3268
  965SOL    HW214529   1.950   2.954   7.379  0.5469  0.0006 -1.7940
  966SOL     OW14530   3.642   3.960  10.448 -0.0258  0.0590 -0.1268
  966SOL    HW114531   3.642   4.037  10.390  0.6965 -0.4599 -0.8115
  966SOL    HW214532   3.731   3.928  10.458  0.5684  1.9798  0.8165
  967SOL     OW14533   3.109   0.881   4.989  0.1955 -0.2595  0.1142
  967SOL    HW114534   3.053   0.881   5.067 -1.3891  0.6263 -1.0162
  967SOL    HW214535   3.103   0.786   4.973  0.0761 -0.2405  0.0422
  968SOL     OW14536   3.191   3.304  10.844  0.1311 -0.6372 -0.0538
  968SOL    HW114537   3.167   3.246  10.916 -4.2624  1.5460  0.2328
  968SOL    HW214538   3.168   3.394  10.866 -1.2269 -0.3820 -2.4586
  969SOL     OW14539   3.879   0.811  11.073  0.2028 -0.7002 -0.6493
  969SOL    HW114540   3.906   0.903  11.068 -1.0472 -0.2188  1.4294
  969SOL    HW214541   3.846   0.804  10.983 -0.1460 -1.6633 -0.4414
  970SOL     OW14542   2.021   3.254   3.358 -0.2462  0.9025 -0.0346
  970SOL    HW114543   1.954   3.284   3.420  0.4783  0.5523  0.9131
  970SOL    HW214544   2.097   3.295   3.398  1.4920 -3.4756  1.1533
  971SOL     OW14545   0.634   4.636   8.927  0.3966 -0.2697  0.1042
  971SOL    HW114546   0.675   4.623   8.841 -0.2885 -2.2047  0.0722
  971SOL    HW214547   0.542   4.633   8.901  0.4085  1.2022 -0.0655
  972SOL     OW14548   0.130   2.256  13.870 -0.2720 -0.7029 -0.0746
  972SOL    HW114549   0.216   2.268  13.829 -1.2495 -1.5063 -2.3289
  972SOL    HW214550   0.142   2.188  13.937 -0.4259 -2.2327 -1.6052
  973SOL     OW14551   3.900   2.965  13.920 -0.0679 -0.5952 -0.0705
  973SOL    HW114552   3.854   3.049  13.914  0.4183 -0.1196  2.7298
  973SOL    HW214553   3.986   2.978  13.879  0.4006 -0.3935  0.9817
  974SOL     OW14554   1.261   1.843   8.393  0.0048 -0.1366  0.2908
  974SOL    HW114555   1.182   1.790   8.385 -1.6325  2.0465  2.2599
  974SOL    HW214556   1.262   1.837   8.488 -1.4544 -2.2089  0.1599
  975SOL     OW14557   1.467   3.638   5.442  0.3312 -0.2250 -0.3922
  975SOL    HW114558   1.472   3.651   5.347  1.1994 -0.1803 -0.3351
  975SOL    HW214559   1.381   3.677   5.459  0.2482 -0.9554  0.8841
  976SOL     OW14560   1.550   3.596   4.487  0.1535  0.1512  0.1882
  976SOL    HW114561   1.483   3.581   4.554 -0.7682  3.1708 -0.0314
  976SOL    HW214562   1.497   3.627   4.414 -1.5812 -1.2363  0.8546
  977SOL     OW14563   4.623   3.309   5.698  0.2987  0.8067  0.2460
  977SOL    HW114564   4.538   3.276   5.726  0.6998 -1.5683 -1.3853
  977SOL    HW214565   4.684   3.242   5.727 -0.6155 -0.1557 -0.0714
  978SOL     OW14566   4.308   0.527   7.227 -0.0074  0.4239 -0.1063
  978SOL    HW114567   4.334   0.490   7.143 -3.1616 -1.3311 -0.2961
  978SOL    HW214568   4.320   0.447   7.278  1.4537 -0.1628 -1.3791
  979SOL     OW14569   4.088   2.315   5.796  0.1832  0.1941 -0.3884
  979SOL    HW114570   4.099   2.230   5.756  2.3950  0.7459 -0.9504
  979SOL    HW214571   4.122   2.296   5.884 -0.2002  1.4046  0.0362
  980SOL     OW14572   1.328   2.247   7.407  0.0550  0.5129 -0.6459
  980SOL    HW114573   1.372   2.272   7.325  1.4396  0.4598  0.0857
  980SOL    HW214574   1.274   2.176   7.371  1.1366 -0.8481  0.4406
  981SOL     OW14575   0.354   0.671  13.292  0.3275 -0.6453  0.3921
  981SOL    HW114576   0.335   0.761  13.320  0.4444 -0.9465  1.4494
  981SOL    HW214577   0.400   0.677  13.208  1.9281  0.0432  1.3247
  982SOL     OW14578   2.618   1.814   4.828 -0.4481 -0.2968 -0.0956
  982SOL    HW114579   2.710   1.840   4.827 -0.5845  0.2583  2.3537
  982SOL    HW214580   2.584   1.893   4.785  0.2046 -0.9275 -1.7979
  983SOL     OW14581   2.320   4.358   3.478 -0.5892  0.9048 -0.0565
  983SOL    HW114582   2.241   4.374   3.426 -2.4607 -2.6203  1.7180
  983SOL    HW214583   2.287   4.348   3.567 -1.0675 -2.0756 -0.5709
  984SOL     OW14584   1.779   1.287   8.378  0.7317  0.3587 -0.2708
  984SOL    HW114585   1.841   1.341   8.331  1.4600 -0.0342  0.2373
  984SOL    HW214586   1.750   1.216   8.321  1.6278 -0.7992  0.7088
  985SOL     OW14587   2.293   2.082   9.577 -0.0305 -0.2835  0.3087
  985SOL    HW114588   2.290   1.988   9.556 -1.4197 -0.1216 -0.2429
  985SOL    HW214589   2.290   2.089   9.672  2.0439  0.9266  0.2799
  986SOL     OW14590   0.377   0.023   6.326  0.1191  0.2042 -0.2026
  986SOL    HW114591   0.434   4.699   6.283 -0.4740 -0.1434 -0.4709
  986SOL    HW214592   0.435   0.056   6.395 -0.0860 -0.7575  0.4235
  987SOL     OW14593   2.224   0.063   8.532  0.0078  0.2363 -0.0855
  987SOL    HW114594   2.291   0.077   8.465 -0.0850  0.6730 -0.0824
  987SOL    HW214595   2.158   0.123   8.499  1.3241  1.5948 -0.2366
  988SOL     OW14596   1.935   4.347   8.247 -0.1747 -0.2239 -0.0649
  988SOL    HW114597   2.002   4.322   8.184 -0.1570 -1.2284  0.3520
  988SOL    HW214598   1.955   4.435   8.281 -2.0038  0.1542  0.0571
  989SOL     OW14599   1.250   1.625  16.538 -0.5429  0.7385 -0.5869
  989SOL    HW114600   1.169   1.677  16.540 -2.1408 -1.7766  0.9445
  989SOL    HW214601   1.217   1.558  16.478 -1.3888 -0.0652  0.7760
  990SOL     OW14602   3.285   1.032  15.282 -0.1665 -0.0074 -0.1478
  990SOL    HW114603   3.338   0.976  15.226  0.4013  0.5616 -0.1722
  990SOL    HW214604   3.346   1.106  15.282  2.4170 -2.1382 -2.3042
  991SOL     OW14605   2.711   4.102  10.895  0.3132  0.3882 -0.6777
  991SOL    HW114606   2.761   4.102  10.977 -0.0598 -0.7625 -0.4504
  991SOL    HW214607   2.694   4.195  10.879 -1.3421 -0.2375 -2.5973
  992SOL     OW14608   4.438   1.191   6.639  0.8784 -0.3763  0.3888
  992SOL    HW114609   4.480   1.222   6.719 -0.9813 -0.5591  1.4138
  992SOL    HW214610   4.350   1.219   6.663  0.9205  0.0407  0.0662
  993SOL     OW14611   2.782   1.253   3.079 -0.2671 -0.1205 -0.2617
  993SOL    HW114612   2.726   1.206   3.141 -0.9615  0.1215 -0.7015
  993SOL    HW214613   2.864   1.262   3.128 -2.1785  2.1040  2.5352
  994SOL     OW14614   3.290   2.881   6.841  0.3984  0.2721 -0.2829
  994SOL    HW114615   3.332   2.967   6.849  1.6799 -0.2656 -1.2537
  994SOL    HW214616   3.227   2.886   6.913  0.0674  1.9159 -0.6907
  995SOL     OW14617   0.732   2.958  15.626 -0.3318 -0.0509 -0.0227
  995SOL    HW114618   0.659   2.936  15.568 -1.7276 -0.8966  2.0864
  995SOL    HW214619   0.794   3.007  15.571  0.1466  1.5734  1.9647
  996SOL     OW14620   4.729   2.784  15.354  0.0838 -0.1972 -0.6674
  996SOL    HW114621   0.024   2.752  15.271  0.6271 -2.3413  0.3883
  996SOL    HW214622   0.074   2.778  15.398 -0.8563 -1.0650  1.0059
  997SOL     OW14623   4.290   3.732  13.778 -0.3101  0.0549  0.2381
  997SOL    HW114624   4.306   3.681  13.857  0.9074 -0.6708 -0.4685
  997SOL    HW214625   4.209   3.683  13.762  0.5807 -0.6950 -1.9595
  998SOL     OW14626   4.357   4.478  12.022 -0.3010 -0.5309 -0.1094
  998SOL    HW114627   4.331   4.409  11.961 -0.6122 -0.1834 -0.3692
  998SOL    HW214628   4.337   4.553  11.967  2.4921  1.4778  1.6185
  999SOL     OW14629   2.317   1.588   0.946 -0.2747  0.5381  0.0029
  999SOL    HW114630   2.302   1.660   1.007 -0.2426  1.8304 -1.5070
  999SOL    HW214631   2.244   1.527   0.955  0.0318  0.0401 -0.8426
 1000SOL     OW14632   4.031   0.344   3.403 -0.7823  0.2070 -0.2022
 1000SOL    HW114633   4.078   0.410   3.453 -0.7264 -0.0828  0.1214
 1000SOL    HW214634   4.038   0.264   3.456 -0.6525 -0.6055 -1.4498
 1001SOL     OW14635   3.672   0.158   7.448  0.1114 -0.2495 -0.6995
 1001SOL    HW114636   3.763   0.145   7.476 -0.4632 -0.1942  1.1486
 1001SOL    HW214637   3.630   0.121   7.525  1.4303 -2.1867 -0.8894
 1002SOL     OW14638   3.900   4.015   4.733 -0.2787 -0.0594 -0.0130
 1002SOL    HW114639   3.941   4.098   4.759  2.7479 -1.0499 -1.5266
 1002SOL    HW214640   3.826   4.018   4.793  0.1413  1.9221  0.3930
 1003SOL     OW14641   3.362   1.380   7.443  0.1238 -0.0785  0.0193
 1003SOL    HW114642   3.309   1.454   7.411 -0.1987  0.4710  1.8563
 1003SOL    HW214643   3.288   1.320   7.451 -1.3383  1.8463  0.8779
 1004SOL     OW14644   1.292   3.499  15.773 -0.0910  0.2581  0.1008
 1004SOL    HW114645   1.325   3.509  15.684 -0.0908 -2.1025 -0.1801
 1004SOL    HW214646   1.253   3.585  15.783 -0.8331 -0.1702  0.8993
 1005SOL     OW14647   4.131   1.270   7.196  0.1301  0.5912  0.2200
 1005SOL    HW114648   4.189   1.343   7.219 -0.8421  2.2214 -2.4828
 1005SOL    HW214649   4.188   1.225   7.133 -0.0137 -1.4910  1.5871
 1006SOL     OW14650   4.411   3.483   6.486 -0.4431 -0.2156  0.1438
 1006SOL    HW114651   4.438   3.459   6.574  1.2839 -0.8069 -0.5600
 1006SOL    HW214652   4.490   3.462   6.436 -0.1542 -1.0918  0.9639
 1007SOL     OW14653   1.943   0.835   7.815  0.3467 -0.3818  0.2075
 1007SOL    HW114654   1.974   0.824   7.726  2.9160  1.5364  0.8527
 1007SOL    HW214655   1.944   0.931   7.820  1.1526 -0.2968 -1.7914
 1008SOL     OW14656   2.600   4.270   3.037 -0.2338  0.3454 -0.5224
 1008SOL    HW114657   2.656   4.249   2.963  0.0049 -0.7471 -0.0322
 1008SOL    HW214658   2.542   4.341   3.008  0.7268  0.4285 -2.2242
 1009SOL     OW14659   3.951   1.544   3.750  0.0596  0.2026  0.1390
 1009SOL    HW114660   3.937   1.608   3.820  2.1215  1.4265 -0.5615
 1009SOL    HW214661   3.977   1.471   3.807 -0.1188  0.5955  0.7299
 1010SOL     OW14662   1.688   2.814  15.382  0.2279 -0.3255 -0.4344
 1010SOL    HW114663   1.626   2.753  15.342  0.0328 -0.0580 -0.5397
 1010SOL    HW214664   1.642   2.842  15.461  0.2307  1.6996 -1.1547
 1011SOL     OW14665   2.092   2.737  10.346 -0.0628  0.2612  0.2885
 1011SOL    HW114666   2.065   2.728  10.254 -1.5993  1.8469  0.5833
 1011SOL    HW214667   2.033   2.673  10.387 -1.7586  2.1431  0.7842
 1012SOL     OW14668   3.133   4.665   3.489 -0.4284 -0.0164  0.7679
 1012SOL    HW114669   3.169   0.004   3.530  1.5546  0.1902 -1.3723
 1012SOL    HW214670   3.074   4.639   3.560 -2.3303  2.8113  0.2617
 1013SOL     OW14671   2.123   2.515   5.285 -0.0233  0.1408  0.0344
 1013SOL    HW114672   2.049   2.511   5.224  0.8251 -0.7640 -0.9315
 1013SOL    HW214673   2.187   2.566   5.234  1.5523 -1.5103  0.3444
 1014SOL     OW14674   2.143   2.897  11.535  0.1936 -0.2357  0.6427
 1014SOL    HW114675   2.147   2.947  11.453 -2.8065  1.6552  1.6511
 1014SOL    HW214676   2.160   2.969  11.596  1.7376  0.9743 -1.2324
 1015SOL     OW14677   4.106   0.771   5.213  0.2985 -0.5621 -0.2352
 1015SOL    HW114678   4.031   0.802   5.162  1.1847  3.0775  0.6709
 1015SOL    HW214679   4.163   0.729   5.148  0.7626  1.5378 -1.2243
 1016SOL     OW14680   0.424   0.499   8.880  0.5972 -0.6312  0.5809
 1016SOL    HW114681   0.335   0.501   8.916 -0.4231 -0.1551 -1.9482
 1016SOL    HW214682   0.464   0.449   8.951  0.8486 -1.2739 -0.0139
 1017SOL     OW14683   3.634   3.543   4.525 -0.2137  0.1356 -0.0253
 1017SOL    HW114684   3.656   3.618   4.580  0.1454  0.5244 -0.6950
 1017SOL    HW214685   3.709   3.556   4.467  0.0237  0.2320  0.3087
 1018SOL     OW14686   0.497   1.560  14.495 -0.1236  0.4568  0.0496
 1018SOL    HW114687   0.486   1.631  14.433 -0.2071 -0.5323 -1.0712
 1018SOL    HW214688   0.410   1.523  14.510  0.6991 -0.6166  2.3362
 1019SOL     OW14689   2.268   4.271  15.503 -0.2179 -0.0340  0.1316
 1019SOL    HW114690   2.325   4.202  15.538 -3.4010 -2.7270  0.0956
 1019SOL    HW214691   2.189   4.243  15.550 -0.5428 -0.2719 -0.5563
 1020SOL     OW14692   1.638   2.565  10.251  0.4009  0.1828 -0.0409
 1020SOL    HW114693   1.550   2.529  10.243  0.6788 -0.1244 -1.7587
 1020SOL    HW214694   1.670   2.525  10.332 -1.5737  1.5959  1.4334
 1021SOL     OW14695   4.110   1.309   4.340  0.4441 -0.2095  0.1249
 1021SOL    HW114696   4.062   1.391   4.334 -0.4415 -0.6691  0.9445
 1021SOL    HW214697   4.169   1.327   4.414  0.0109 -0.3823  0.5149
 1022SOL     OW14698   1.156   3.251   8.020  0.4886 -0.5824 -0.2425
 1022SOL    HW114699   1.193   3.195   7.952  0.4909 -1.7880  0.7492
 1022SOL    HW214700   1.147   3.333   7.973  0.9078  0.0287  0.7360
 1023SOL     OW14701   1.243   2.909  14.314  0.2159  0.1118 -0.4934
 1023SOL    HW114702   1.266   2.837  14.256 -1.7729  0.0017 -1.1732
 1023SOL    HW214703   1.328   2.946  14.336  0.2566 -1.3468  1.7376
 1024SOL     OW14704   3.509   1.776  12.774 -0.4085 -0.3518  0.4377
 1024SOL    HW114705   3.583   1.795  12.716 -0.7228 -0.7466 -0.0944
 1024SOL    HW214706   3.513   1.680  12.779 -2.4060 -0.6186 -2.5060
 1025SOL     OW14707   1.739   2.026   2.354  0.1037  0.1722  0.3541
 1025SOL    HW114708   1.671   2.050   2.417 -1.5034  2.1444 -2.1318
 1025SOL    HW214709   1.792   1.973   2.414  0.9617 -0.2223 -0.7643
 1026SOL     OW14710   4.639   0.702   5.260  0.0584  0.0742 -0.7439
 1026SOL    HW114711   4.556   0.738   5.292  1.8920  3.0460  0.6714
 1026SOL    HW214712   4.630   0.608   5.280 -2.0436  0.6810  1.2012
 1027SOL     OW14713   4.448   0.863   0.027 -0.0504 -0.0963  0.4811
 1027SOL    HW114714   4.427   0.956   0.015  1.9666  0.3748  0.5414
 1027SOL    HW214715   4.526   0.870   0.082 -0.0794  3.6951  0.0972
 1028SOL     OW14716   1.962   2.093  10.328  0.1327  0.0927 -0.2696
 1028SOL    HW114717   1.891   2.147  10.365 -0.9443 -1.4226 -0.1194
 1028SOL    HW214718   2.020   2.095  10.403  0.3536 -2.1250 -0.3800
 1029SOL     OW14719   2.365   4.345   2.175  0.0364 -0.1805  0.1354
 1029SOL    HW114720   2.452   4.313   2.151  0.0331  0.4699 -0.7248
 1029SOL    HW214721   2.359   4.420   2.116 -0.2048  0.0956  0.5155
 1030SOL     OW14722   3.313   1.272   8.615  0.0969 -0.0639  0.1728
 1030SOL    HW114723   3.254   1.246   8.544 -1.3207 -1.5408  1.9068
 1030SOL    HW214724   3.307   1.209   8.687 -0.2313 -0.1544  0.0652
 1031SOL     OW14725   0.765   1.812   2.147 -0.1394  0.1630  0.6155
 1031SOL    HW114726   0.777   1.841   2.237  0.7537  2.4601 -0.2457
 1031SOL    HW214727   0.688   1.856   2.112 -0.9766 -0.4128  1.7782
 1032SOL     OW14728   4.345   4.448   4.734  0.0915  0.0901 -0.7866
 1032SOL    HW114729   4.329   4.372   4.790  3.9046  0.7976  1.2411
 1032SOL    HW214730   4.364   4.403   4.652  0.7414 -0.7692 -0.1758
 1033SOL     OW14731   4.063   0.777   7.717  0.6361  0.0858  0.1840
 1033SOL    HW114732   4.005   0.707   7.748  0.1126  0.0711 -0.8336
 1033SOL    HW214733   4.096   0.820   7.796  1.1115 -0.5603  0.3434
 1034SOL     OW14734   2.899   4.520   5.932 -0.1134  0.0303  0.1780
 1034SOL    HW114735   2.822   4.469   5.959  1.1961 -1.6284  0.8134
 1034SOL    HW214736   2.860   4.567   5.858  0.2850  1.3807  0.8222
 1035SOL     OW14737   3.949   2.477  16.923 -0.0422 -0.5202 -0.8514
 1035SOL    HW114738   3.966   2.383  16.916 -1.5452 -0.7861 -0.9108
 1035SOL    HW214739   3.991   2.490  17.008  0.1887  0.9086 -1.1743
 1036SOL     OW14740   0.571   3.963  14.661  0.0702 -0.2015  0.0269
 1036SOL    HW114741   0.588   3.871  14.640  2.5818  0.4547 -0.8627
 1036SOL    HW214742   0.606   4.005  14.582 -1.2871 -0.9650 -0.9776
 1037SOL     OW14743   4.594   0.525  11.791 -0.1847  0.7278 -0.2159
 1037SOL    HW114744   4.599   0.611  11.750 -0.4110  0.0742 -1.6375
 1037SOL    HW214745   4.537   0.548  11.864 -1.0407 -2.4501  0.1324
 1038SOL     OW14746   1.398   2.109  10.815 -0.2380 -0.4756 -0.3091
 1038SOL    HW114747   1.311   2.071  10.825 -0.4535 -0.2836 -1.5018
 1038SOL    HW214748   1.385   2.189  10.764  1.2542  0.4618  0.7806
 1039SOL     OW14749   1.022   2.701   1.936 -0.0703  0.1819 -0.6548
 1039SOL    HW114750   0.948   2.715   1.994 -0.6258 -0.4824 -1.2136
 1039SOL    HW214751   0.977   2.659   1.863  3.5253 -1.8633 -1.6732
 1040SOL     OW14752   4.162   3.543  14.216  0.4194  0.3234  0.1595
 1040SOL    HW114753   4.142   3.539  14.310 -1.4024  1.7690 -0.1713
 1040SOL    HW214754   4.080   3.519  14.173 -0.0520 -0.7854  1.6770
 1041SOL     OW14755   0.112   2.604   6.588  0.4477  0.0134 -0.8390
 1041SOL    HW114756   0.160   2.529   6.554  0.1819 -0.0121 -1.1581
 1041SOL    HW214757   0.026   2.602   6.546  0.3660 -1.9970 -0.5966
 1042SOL     OW14758   0.156   4.012   6.966 -0.0835 -0.2016 -0.6394
 1042SOL    HW114759   0.172   3.932   6.915  1.6268 -0.6073  0.5406
 1042SOL    HW214760   0.243   4.051   6.972 -1.4298  2.6836  0.1206
 1043SOL     OW14761   2.447   2.319   2.475  0.2510  0.1837 -0.3934
 1043SOL    HW114762   2.534   2.360   2.476 -0.5113  1.7110  3.5265
 1043SOL    HW214763   2.416   2.318   2.385  0.8009 -2.2216 -0.5389
 1044SOL     OW14764   1.199   4.532   2.476 -0.1109 -0.5958  0.2033
 1044SOL    HW114765   1.156   4.446   2.479  0.9801 -1.1331  0.2064
 1044SOL    HW214766   1.123   4.576   2.515  1.0425  1.7103 -0.1549
 1045SOL     OW14767   1.148   2.761  10.098 -0.0640 -0.4522 -0.1232
 1045SOL    HW114768   1.176   2.726  10.182 -0.6330  1.7980  0.9912
 1045SOL    HW214769   1.073   2.709  10.069  0.0539 -2.2414  2.8107
 1046SOL     OW14770   0.176   3.020   4.487 -0.1016  0.3001  0.2681
 1046SOL    HW114771   0.217   2.977   4.562 -0.5443 -2.3063 -0.9836
 1046SOL    HW214772   0.088   2.983   4.489  0.2846 -0.5671  0.9963
 1047SOL     OW14773   0.121   0.758   5.451 -0.1060  0.4820 -0.6702
 1047SOL    HW114774   0.068   0.722   5.522  3.6046 -2.1744  0.7554
 1047SOL    HW214775   0.066   0.754   5.373 -3.1804 -0.9798  1.5702
 1048SOL     OW14776   2.696   2.045   6.344  0.2747  0.1702 -0.1513
 1048SOL    HW114777   2.688   1.977   6.411 -1.0647 -1.7721 -2.2773
 1048SOL    HW214778   2.736   2.120   6.388  0.2526 -0.8016  1.5449
 1049SOL     OW14779   0.076   1.547   3.953  0.3283 -0.0538 -0.6628
 1049SOL    HW114780   0.128   1.507   4.023  2.8208  1.5976 -1.5638
 1049SOL    HW214781   0.069   1.468   3.899 -1.6820 -0.6510  0.4616
 1050SOL     OW14782   0.270   4.054   8.605 -0.0818 -0.0807  0.3732
 1050SOL    HW114783   0.235   4.062   8.694 -1.7718  0.5996 -0.3587
 1050SOL    HW214784   0.217   4.118   8.557 -1.7503 -2.6423 -1.1861
 1051SOL     OW14785   3.543   2.922   8.173 -0.3257 -0.0392 -0.0953
 1051SOL    HW114786   3.553   2.827   8.171 -3.3142 -0.4033  1.9173
 1051SOL    HW214787   3.521   2.944   8.083 -0.5446 -0.3427 -0.1162
 1052SOL     OW14788   1.568   1.768  17.107 -0.2564 -0.2342 -0.1144
 1052SOL    HW114789   1.588   1.729  17.022 -1.2042 -0.7905 -0.0866
 1052SOL    HW214790   1.641   1.828  17.122 -0.4458 -0.3978  1.4603
 1053SOL     OW14791   2.684   0.215   3.430 -0.4124 -0.2179 -0.4172
 1053SOL    HW114792   2.603   0.197   3.478  0.1523 -1.3538  0.1215
 1053SOL    HW214793   2.657   0.295   3.386 -0.5730  1.3611  2.5280
 1054SOL     OW14794   2.869   2.703  16.404 -0.7338 -0.3338 -0.3574
 1054SOL    HW114795   2.871   2.668  16.315 -3.3288 -0.6704 -0.2706
 1054SOL    HW214796   2.848   2.623  16.450  3.1786 -0.8632  0.4851
 1055SOL     OW14797   3.943   1.127   2.380 -0.4826  0.0124 -0.4126
 1055SOL    HW114798   4.008   1.191   2.352  2.0828 -2.0768  0.7705
 1055SOL    HW214799   3.955   1.150   2.472 -1.7269 -0.5301 -0.1172
 1056SOL     OW14800   1.297   2.089   0.483 -0.1439  0.0993 -0.2633
 1056SOL    HW114801   1.335   2.174   0.504  0.4036 -0.3682  0.6232
 1056SOL    HW214802   1.231   2.094   0.552  1.2751 -0.7036  1.1381
 1057SOL     OW14803   0.250   0.605   3.567  0.4871 -0.1722 -0.9090
 1057SOL    HW114804   0.192   0.681   3.563 -0.5340 -0.9660 -1.3932
 1057SOL    HW214805   0.214   0.567   3.647  0.8187  0.7582 -0.3212
 1058SOL     OW14806   0.473   0.808   0.435  0.6242 -0.0678 -0.0290
 1058SOL    HW114807   0.520   0.733   0.471  0.7802 -0.7286 -1.6109
 1058SOL    HW214808   0.537   0.829   0.367  0.5392  0.6647  0.1141
 1059SOL     OW14809   2.998   4.131   1.464 -0.2745  0.3908  0.4711
 1059SOL    HW114810   3.069   4.146   1.401 -1.3926 -2.0699 -1.3376
 1059SOL    HW214811   2.940   4.069   1.420  2.2764 -0.4134 -1.7569
 1060SOL     OW14812   1.301   0.480   5.846 -0.0674 -0.4483  0.3915
 1060SOL    HW114813   1.316   0.387   5.860  0.5463 -0.2150  1.2483
 1060SOL    HW214814   1.316   0.499   5.753  1.7710  0.7006  0.9112
 1061SOL     OW14815   3.431   2.713   3.240  0.1808  0.1879 -0.5258
 1061SOL    HW114816   3.471   2.792   3.275  0.9964 -1.0532  1.4042
 1061SOL    HW214817   3.366   2.750   3.181 -1.2834 -0.2863  0.7778
 1062SOL     OW14818   1.374   0.199   5.875  0.1156 -0.0820 -0.2656
 1062SOL    HW114819   1.429   0.132   5.834  2.0382  0.7658  0.9425
 1062SOL    HW214820   1.299   0.144   5.851  0.8144 -0.5266 -1.4123
 1063SOL     OW14821   3.688   0.247   8.717 -0.0720  0.3724  0.4836
 1063SOL    HW114822   3.664   0.288   8.800 -0.6546 -0.4956  0.7324
 1063SOL    HW214823   3.618   0.182   8.708 -0.3224  1.0049 -2.2764
 1064SOL     OW14824   1.553   4.293   2.524 -0.0657  0.2914  0.6922
 1064SOL    HW114825   1.496   4.364   2.555  1.1653  1.3724  0.4366
 1064SOL    HW214826   1.482   4.230   2.535 -1.3950  1.6417 -0.1067
 1065SOL     OW14827   1.845   2.451   3.952 -0.0304 -0.1865  0.2858
 1065SOL    HW114828   1.753   2.431   3.933 -0.2723  1.1672  0.0944
 1065SOL    HW214829   1.846   2.538   3.914 -0.9547 -0.0905  0.4850
 1066SOL     OW14830   1.722   1.557  15.344  0.5150 -0.3211 -0.3889
 1066SOL    HW114831   1.733   1.621  15.413 -1.7228 -0.4876  0.1236
 1066SOL    HW214832   1.810   1.520  15.339  0.5010 -0.4491  0.4127
 1067SOL     OW14833   4.224   1.024   1.984 -0.8382 -0.5159  0.0188
 1067SOL    HW114834   4.231   0.939   1.940 -0.2497 -1.0086  1.0737
 1067SOL    HW214835   4.306   1.063   1.955 -0.2639 -1.6010  0.1754
 1068SOL     OW14836   0.036   0.872   6.385 -0.2190 -0.1567 -0.0022
 1068SOL    HW114837   4.721   0.938   6.426 -4.1908 -2.8609 -0.9074
 1068SOL    HW214838   0.053   0.820   6.464  1.9012  1.0578  0.3418
 1069SOL     OW14839   1.401   4.048  10.002  0.0212 -0.6774  0.0989
 1069SOL    HW114840   1.410   3.962  10.042 -1.1906 -0.1738  1.4722
 1069SOL    HW214841   1.455   4.038   9.924  0.1918  0.4220  0.0665
 1070SOL     OW14842   4.472   2.450  15.255  0.0326 -0.5755 -0.4681
 1070SOL    HW114843   4.376   2.449  15.256 -0.0070  2.9974 -0.4324
 1070SOL    HW214844   4.509   2.396  15.325  3.1647  3.8652  1.2769
 1071SOL     OW14845   0.406   4.639   0.013  0.0162 -0.2862 -0.0568
 1071SOL    HW114846   0.357   4.675  17.695 -0.5850  0.1080  0.5439
 1071SOL    HW214847   0.494   4.634  17.731 -0.2626  0.6267 -0.8267
 1072SOL     OW14848   1.556   3.377   7.559  0.1708  0.5571 -1.0938
 1072SOL    HW114849   1.605   3.325   7.494  1.0832 -2.4768  1.9835
 1072SOL    HW214850   1.609   3.455   7.574  1.5630 -0.9944  2.2705
 1073SOL     OW14851   1.934   2.263   3.065  0.5848  0.1317  0.4028
 1073SOL    HW114852   1.912   2.337   3.121 -0.3315 -1.6121  2.3263
 1073SOL    HW214853   1.871   2.201   3.102 -1.2474  1.8568  0.1899
 1074SOL     OW14854   2.782   0.199   2.111 -0.2681 -0.1475  0.4198
 1074SOL    HW114855   2.806   0.291   2.125  2.1404 -0.6860 -0.1401
 1074SOL    HW214856   2.726   0.206   2.034 -1.2600  0.3414  1.1801
 1075SOL     OW14857   4.324   1.436   3.203 -0.1903  0.5167  0.6118
 1075SOL    HW114858   4.396   1.475   3.154 -0.7826  0.6830 -0.1332
 1075SOL    HW214859   4.373   1.389   3.271  1.9777  1.0576 -0.5807
 1076SOL     OW14860   3.294   2.969   3.426  0.5097 -0.0480 -0.0891
 1076SOL    HW114861   3.306   3.064   3.427 -1.4116  0.2077  0.3927
 1076SOL    HW214862   3.377   2.955   3.382  0.6190  1.1303 -0.2587
 1077SOL     OW14863   0.540   2.327   1.901  0.2696 -0.4884  0.0298
 1077SOL    HW114864   0.471   2.368   1.954  0.2933  0.3495 -0.5820
 1077SOL    HW214865   0.524   2.239   1.935 -1.1449 -0.7034 -1.1656
 1078SOL     OW14866   4.063   0.045   3.995 -0.0599  0.1667  0.2940
 1078SOL    HW114867   4.016   0.049   3.912 -0.2236  1.1789  0.4293
 1078SOL    HW214868   4.091   4.694   4.006  1.5323  0.5914 -0.2008
 1079SOL     OW14869   4.221   2.837   6.521 -0.4170  0.4065  0.3264
 1079SOL    HW114870   4.196   2.904   6.585  0.2034 -0.7990  1.8157
 1079SOL    HW214871   4.316   2.851   6.519 -0.2769 -0.7676 -0.9936
 1080SOL     OW14872   4.335   3.476   3.114  0.0714 -0.6493 -0.2610
 1080SOL    HW114873   4.315   3.568   3.098  1.7339  0.2254  2.6669
 1080SOL    HW214874   4.264   3.425   3.075  1.0477 -2.6279  0.5487
 1081SOL     OW14875   4.337   2.328   4.114 -0.0723 -0.2662  0.2223
 1081SOL    HW114876   4.300   2.343   4.027 -1.5803  1.4752  1.1549
 1081SOL    HW214877   4.288   2.388   4.171  0.4420  0.3989 -0.0399
 1082SOL     OW14878   2.307   2.290   5.340 -0.3044 -0.2822  0.8353
 1082SOL    HW114879   2.333   2.245   5.421 -0.9618 -2.1354  0.0286
 1082SOL    HW214880   2.235   2.347   5.364  0.4056  1.6249 -1.5524
 1083SOL     OW14881   2.542   4.378   5.087  0.3589  0.2160  0.5250
 1083SOL    HW114882   2.595   4.301   5.067  2.2925  2.0819 -1.5309
 1083SOL    HW214883   2.544   4.380   5.182  1.8889  1.0361  0.4663
 1084SOL     OW14884   0.607   2.580   4.627  0.2116 -0.3186  0.2330
 1084SOL    HW114885   0.606   2.676   4.632 -2.7415 -0.2273 -1.9810
 1084SOL    HW214886   0.521   2.560   4.664 -0.8056  3.2293 -0.1618
 1085SOL     OW14887   0.693   2.642   7.943 -0.3931 -0.5030 -0.0009
 1085SOL    HW114888   0.713   2.705   8.013 -2.4427 -0.2906  0.3969
 1085SOL    HW214889   0.601   2.660   7.930 -0.6617 -1.5107  0.4825
 1086SOL     OW14890   3.618   4.132   8.595 -0.5241  0.1184 -0.3400
 1086SOL    HW114891   3.581   4.143   8.683  1.2684 -0.9464  0.5514
 1086SOL    HW214892   3.711   4.133   8.616 -0.2216 -2.6693 -1.6422
 1087SOL     OW14893   2.700   1.565   2.214 -0.3257 -0.2378 -0.6592
 1087SOL    HW114894   2.680   1.632   2.149 -0.5045  1.6426  1.3191
 1087SOL    HW214895   2.613   1.546   2.249  0.3955 -2.7420 -0.2265
 1088SOL     OW14896   1.051   3.565   9.579  0.7391  0.1447  0.3815
 1088SOL    HW114897   1.029   3.513   9.657 -1.4003 -1.1377 -1.0513
 1088SOL    HW214898   1.028   3.655   9.599 -2.3869 -0.9837  1.9486
 1089SOL     OW14899   0.805   3.830   2.634 -0.2727 -0.8286  0.2768
 1089SOL    HW114900   0.768   3.898   2.689  0.0831 -1.2086  0.9853
 1089SOL    HW214901   0.727   3.781   2.608 -0.1594 -1.8038  1.7585
 1090SOL     OW14902   1.517   4.292   3.517  0.0957 -0.4720 -0.6318
 1090SOL    HW114903   1.499   4.354   3.447 -2.0231  1.0038  1.2065
 1090SOL    HW214904   1.500   4.337   3.600  0.2036 -2.4032  0.4269
 1091SOL     OW14905   3.585   4.466   9.160 -0.0892  0.0186 -0.2879
 1091SOL    HW114906   3.577   4.560   9.172 -1.4417 -0.2118  0.6015
 1091SOL    HW214907   3.558   4.432   9.245 -2.3877  1.3936 -0.4919
 1092SOL     OW14908   2.827   0.589   5.197 -0.7753  0.1709  0.2935
 1092SOL    HW114909   2.866   0.531   5.132 -1.3374  0.9305 -0.7344
 1092SOL    HW214910   2.734   0.597   5.173 -0.8279 -1.2728  0.0524
 1093SOL     OW14911   3.496   2.201   8.978  0.3133  0.4751  0.4504
 1093SOL    HW114912   3.475   2.126   8.923  1.8389  0.5899 -0.2767
 1093SOL    HW214913   3.557   2.156   9.036 -0.5404 -0.1882  0.8317
 1094SOL     OW14914   2.151   3.101   4.628  0.2638  0.0859  0.5023
 1094SOL    HW114915   2.218   3.063   4.684 -1.0881 -2.3482  0.4519
 1094SOL    HW214916   2.078   3.046   4.657 -0.7292  0.3594 -1.4415
 1095SOL     OW14917   2.862   0.888   2.533  0.3925  0.2181 -0.1076
 1095SOL    HW114918   2.879   0.920   2.444  0.3171  2.3602  0.6373
 1095SOL    HW214919   2.817   0.805   2.521 -1.7633  1.3661  0.0552
 1096SOL     OW14920   3.345   3.704  14.340 -0.8790 -0.1637  0.2160
 1096SOL    HW114921   3.255   3.679  14.320 -1.3667 -0.8355  3.1746
 1096SOL    HW214922   3.403   3.652  14.285  0.5764 -0.7941  2.3328
 1097SOL     OW14923   1.922   4.216   3.934  0.2277 -0.1387 -0.4131
 1097SOL    HW114924   2.014   4.238   3.925  0.1536  0.4159  0.1830
 1097SOL    HW214925   1.912   4.126   3.963  0.8097 -0.4013 -1.0227
 1098SOL     OW14926   3.434   3.663  15.625 -0.1885 -0.0726  0.4022
 1098SOL    HW114927   3.444   3.740  15.682  1.0981 -0.4827  0.7330
 1098SOL    HW214928   3.356   3.632  15.671 -0.0836 -0.4116  0.3481
 1099SOL     OW14929   0.500   3.195   7.027  0.3107 -0.2101 -0.6835
 1099SOL    HW114930   0.537   3.109   7.045  1.1803  0.2818 -0.1140
 1099SOL    HW214931   0.407   3.178   7.045  0.3208 -1.3305 -1.7292
 1100SOL     OW14932   3.127   0.236   2.893  0.2076  0.3480  0.0987
 1100SOL    HW114933   3.091   0.286   2.966 -1.4902 -0.0246 -0.4795
 1100SOL    HW214934   3.118   0.149   2.932 -2.2888  0.5902  0.0403
 1101SOL     OW14935   1.208   3.153   7.238 -0.4109 -0.1349  0.6490
 1101SOL    HW114936   1.265   3.078   7.255  2.3527  1.9710  0.5430
 1101SOL    HW214937   1.275   3.221   7.245 -0.7453 -0.2006  4.7279
 1102SOL     OW14938   2.922   2.355  12.079 -0.1854 -0.7027 -0.1669
 1102SOL    HW114939   3.010   2.378  12.049 -0.6663  0.2090 -0.8744
 1102SOL    HW214940   2.865   2.432  12.086  0.0256 -0.5643  0.0478
 1103SOL     OW14941   1.250   1.788   8.950  0.0074  0.2711  0.0581
 1103SOL    HW114942   1.183   1.741   9.000  2.6694 -1.8399  1.6888
 1103SOL    HW214943   1.328   1.781   9.006  1.7278  1.0695 -2.2255
 1104SOL     OW14944   2.005   1.888   1.852  0.1804  0.7421 -0.0438
 1104SOL    HW114945   2.046   1.973   1.863 -0.1329  0.9741 -0.6445
 1104SOL    HW214946   2.058   1.856   1.779 -0.0858  3.4587 -1.4275
 1105SOL     OW14947   0.778   1.281   2.629  0.0807  0.1467  0.3951
 1105SOL    HW114948   0.810   1.239   2.708  1.7593 -2.4468 -1.6639
 1105SOL    HW214949   0.782   1.206   2.571 -0.0066  0.8855 -0.5706
 1106SOL     OW14950   2.906   0.223   8.859 -0.1224 -0.6392 -0.6489
 1106SOL    HW114951   2.946   0.237   8.945 -2.2752 -0.1389  0.2698
 1106SOL    HW214952   2.903   0.127   8.855 -0.1255 -0.6279 -0.9184
 1107SOL     OW14953   1.389   0.687   5.982  0.2918 -0.0783  0.7174
 1107SOL    HW114954   1.358   0.605   5.943 -2.2837  0.7999  0.8711
 1107SOL    HW214955   1.371   0.735   5.901  2.7221 -0.2656  0.0782
 1108SOL     OW14956   0.069   3.108   7.827  0.4183  0.3676  0.1036
 1108SOL    HW114957   4.713   3.095   7.831  0.2161  0.8274 -3.2432
 1108SOL    HW214958   0.084   3.160   7.906  1.2759  3.1894 -1.9706
 1109SOL     OW14959   0.565   3.407   2.090  0.7849  0.4210  0.7538
 1109SOL    HW114960   0.566   3.385   1.997 -0.0518 -2.3865  1.3912
 1109SOL    HW214961   0.481   3.450   2.100  0.9403  0.9498 -0.2433
 1110SOL     OW14962   1.275   1.973   5.099  0.1830  0.1298 -0.5499
 1110SOL    HW114963   1.356   1.940   5.060  0.8432  0.5593  0.4409
 1110SOL    HW214964   1.222   1.915   5.045  1.1078 -1.3771  0.1543
 1111SOL     OW14965   0.593   3.021   9.013 -0.2674  0.1177  0.4216
 1111SOL    HW114966   0.529   2.951   9.025  0.8358 -0.8458  0.7045
 1111SOL    HW214967   0.666   2.987   9.064 -0.7910 -2.1829 -0.3695
 1112SOL     OW14968   2.914   1.023   6.287 -0.3487 -0.0847 -0.1682
 1112SOL    HW114969   2.858   0.946   6.289  1.5407 -1.4789 -1.1619
 1112SOL    HW214970   2.996   0.976   6.302 -0.7412 -1.5827 -2.7782
 1113SOL     OW14971   1.988   2.359   0.580 -0.6053  0.3432 -0.0256
 1113SOL    HW114972   2.083   2.358   0.570 -0.8220 -2.6025 -1.7482
 1113SOL    HW214973   1.975   2.451   0.603  2.2947  1.1891 -1.6973
 1114SOL     OW14974   1.096   4.528   6.222 -0.2769  0.4818  0.0859
 1114SOL    HW114975   1.037   4.556   6.152 -0.3724  1.7949  0.6885
 1114SOL    HW214976   1.183   4.506   6.187 -0.1325  1.3444 -0.1061
 1115SOL     OW14977   2.420   3.714   2.662  0.1248 -0.4375 -0.0895
 1115SOL    HW114978   2.337   3.667   2.654 -0.9407  1.4151  0.0530
 1115SOL    HW214979   2.402   3.800   2.622  0.3155 -0.7753 -0.8917
 1116SOL     OW14980   3.919   1.371   9.661 -0.8090 -0.5796  0.2364
 1116SOL    HW114981   3.916   1.377   9.757 -0.7721  2.2993  0.0777
 1116SOL    HW214982   3.828   1.398   9.647 -0.1376  1.5910 -0.0642
 1117SOL     OW14983   0.287   0.070   3.457 -0.1250 -0.2515 -0.6249
 1117SOL    HW114984   0.335   4.727   3.466  0.4807  0.0344 -1.2299
 1117SOL    HW214985   0.261   0.094   3.546 -0.3270  0.6173 -0.9238
 1118SOL     OW14986   2.369   2.564   7.676 -0.2141 -0.2612  0.4810
 1118SOL    HW114987   2.423   2.512   7.735  0.6910 -2.2954 -2.1377
 1118SOL    HW214988   2.404   2.654   7.671 -1.7424  0.3803  1.5114
 1119SOL     OW14989   2.043   3.781  12.186 -0.3610 -0.2256 -0.2109
 1119SOL    HW114990   2.059   3.764  12.093 -1.8390 -2.2328 -0.1077
 1119SOL    HW214991   2.059   3.875  12.192  0.2049 -0.3931  1.0328
 1120SOL     OW14992   0.527   1.678   7.230 -0.0305  0.4325  0.2873
 1120SOL    HW114993   0.533   1.721   7.315  0.0941  1.5446 -0.2859
 1120SOL    HW214994   0.598   1.729   7.191  2.6683 -2.6950  1.1393
 1121SOL     OW14995   3.789   1.654   2.967  0.3482 -0.2491  0.1591
 1121SOL    HW114996   3.803   1.740   2.927 -1.6807 -0.1749 -0.4027
 1121SOL    HW214997   3.725   1.620   2.904  0.3960 -0.0254 -0.0118
 1122SOL     OW14998   1.168   4.025   5.014  0.2805 -0.4423 -0.0335
 1122SOL    HW114999   1.116   3.944   5.017 -0.9336  0.2491 -2.6183
 1122SOL    HW215000   1.169   4.049   5.107  2.1559 -3.5828  0.7357
 1123SOL     OW15001   3.699   3.836  15.269  0.0716 -0.0504  0.2806
 1123SOL    HW115002   3.692   3.924  15.306  0.3473  0.2804 -0.4626
 1123SOL    HW215003   3.618   3.834  15.218  1.3462 -1.1407 -1.7095
 1124SOL     OW15004   2.045   4.598   6.487  0.8075 -0.6437  0.5984
 1124SOL    HW115005   2.008   4.662   6.548  0.8685  1.0676 -1.1621
 1124SOL    HW215006   2.000   4.520   6.517 -0.2103 -0.5668 -0.7492
 1125SOL     OW15007   1.644   3.616   3.244  0.1017  0.2231  0.0380
 1125SOL    HW115008   1.618   3.706   3.226  0.1641 -0.2280 -2.2953
 1125SOL    HW215009   1.574   3.580   3.299  0.6649 -0.5575  0.2517
 1126SOL     OW15010   4.729   0.387   2.504  0.3686 -0.4314  0.1949
 1126SOL    HW115011   4.687   0.404   2.588 -0.6659  0.6933 -0.5499
 1126SOL    HW215012   4.701   0.464   2.454 -2.0711  0.1695  2.4969
 1127SOL     OW15013   0.527   1.098   6.722 -0.1795  0.2294  0.0158
 1127SOL    HW115014   0.593   1.159   6.689 -0.1942 -0.2030 -0.7967
 1127SOL    HW215015   0.571   1.014   6.733  0.0992  0.2473 -0.9788
 1128SOL     OW15016   0.537   3.718   9.576 -0.6619 -0.8023  0.0097
 1128SOL    HW115017   0.493   3.802   9.564  1.0206 -0.3114 -2.6920
 1128SOL    HW215018   0.624   3.731   9.538 -0.6126  1.5748  0.9705
 1129SOL     OW15019   3.771   3.493   7.499  0.1771 -0.0948  0.3880
 1129SOL    HW115020   3.757   3.419   7.558 -1.5921  0.4549  0.6791
 1129SOL    HW215021   3.690   3.540   7.518 -0.7548 -0.6353 -2.1858
 1130SOL     OW15022   3.470   2.802  15.478 -0.4762  0.2359  0.1696
 1130SOL    HW115023   3.514   2.875  15.434  0.9405  0.5349  2.1203
 1130SOL    HW215024   3.493   2.817  15.569  0.3435  1.9548 -0.3158
 1131SOL     OW15025   2.140   4.536   8.693  0.0519 -0.4335  0.1357
 1131SOL    HW115026   2.102   4.618   8.725  2.5133  1.0616 -0.8256
 1131SOL    HW215027   2.230   4.567   8.683 -0.1706  0.1353 -0.0937
 1132SOL     OW15028   1.289   2.839   4.798 -0.1685 -0.1524 -0.3991
 1132SOL    HW115029   1.306   2.766   4.858 -1.6959  1.2870  1.7864
 1132SOL    HW215030   1.194   2.841   4.810 -0.1648  5.3082 -1.5092
 1133SOL     OW15031   0.846   0.783   2.471  0.2857 -0.2090 -0.2535
 1133SOL    HW115032   0.791   0.760   2.396 -0.7925 -1.5642  0.9624
 1133SOL    HW215033   0.907   0.710   2.482 -1.0895 -1.0626  1.5782
 1134SOL     OW15034   4.131   2.251   2.682  0.4266 -0.0896 -0.0060
 1134SOL    HW115035   4.217   2.271   2.645  1.4155 -3.9511  0.2569
 1134SOL    HW215036   4.081   2.324   2.645  0.9549  0.2193 -0.1196
 1135SOL     OW15037   2.444   1.640   9.560  0.2997 -0.3913  0.1210
 1135SOL    HW115038   2.388   1.718   9.560  1.3637  0.3671  1.6757
 1135SOL    HW215039   2.394   1.577   9.507  1.8427 -0.6071 -1.0721
 1136SOL     OW15040   0.949   3.533   4.211  0.0055  0.0025 -0.2308
 1136SOL    HW115041   0.982   3.567   4.294  0.0399  0.4434 -0.4237
 1136SOL    HW215042   0.938   3.616   4.164  1.1759 -0.1994 -0.8851
 1137SOL     OW15043   1.097   4.674   0.668 -0.0702  0.7054 -0.3907
 1137SOL    HW115044   1.180   4.661   0.621  0.4796 -0.4018  0.8541
 1137SOL    HW215045   1.071   0.021   0.637  0.1059  0.9151  0.0375
 1138SOL     OW15046   4.460   0.694   4.045  0.1725  0.5819 -0.0198
 1138SOL    HW115047   4.471   0.657   3.957 -0.7563 -0.8278  0.4778
 1138SOL    HW215048   4.378   0.740   4.026 -0.8395 -0.8214  1.0109
 1139SOL     OW15049   2.198   3.622  11.255  0.5145 -0.6156 -0.6709
 1139SOL    HW115050   2.164   3.533  11.262 -1.1999  0.1629  0.9418
 1139SOL    HW215051   2.223   3.635  11.164  0.6261 -2.3679 -0.8964
 1140SOL     OW15052   0.602   2.067   5.493  0.2721  0.1642 -0.1131
 1140SOL    HW115053   0.692   2.098   5.504  0.4622 -0.8964  1.3425
 1140SOL    HW215054   0.612   2.008   5.419  1.1622 -1.4283  1.2751
 1141SOL     OW15055   4.359   2.579   9.324  0.1155  0.2783 -0.2023
 1141SOL    HW115056   4.396   2.582   9.236  1.7504  1.0120  0.5269
 1141SOL    HW215057   4.432   2.553   9.380 -2.1918 -3.5443  1.0991
 1142SOL     OW15058   3.243   2.825   3.044  0.0561 -0.8594  0.1902
 1142SOL    HW115059   3.199   2.849   2.963 -0.7645 -1.9718  0.3069
 1142SOL    HW215060   3.173   2.860   3.099  0.6986 -1.8534  1.6439
 1143SOL     OW15061   2.174   1.316   7.079 -0.3912 -0.1061 -0.5693
 1143SOL    HW115062   2.113   1.378   7.039  1.0345  0.0021 -2.6019
 1143SOL    HW215063   2.251   1.372   7.093 -1.0362  0.7069 -0.3078
 1144SOL     OW15064   0.089   3.248   8.052  0.1121  0.6671  0.1728
 1144SOL    HW115065   0.031   3.268   8.126  2.2370  0.5511  1.8837
 1144SOL    HW215066   0.180   3.271   8.071 -0.0082 -0.8242  2.5989
 1145SOL     OW15067   0.632   0.290   8.364 -0.0154  0.5001  0.4815
 1145SOL    HW115068   0.723   0.275   8.338 -0.1961 -1.0707  0.7865
 1145SOL    HW215069   0.630   0.242   8.447  0.5339 -0.8934 -0.3107
 1146SOL     OW15070   3.962   1.317   6.335 -0.1609 -0.4413 -0.3532
 1146SOL    HW115071   3.882   1.343   6.290  0.2779  0.6309 -0.5219
 1146SOL    HW215072   3.932   1.295   6.423 -1.2141  1.1254 -0.3254
 1147SOL     OW15073   3.246   0.209   1.014  0.3217 -0.2113  0.1744
 1147SOL    HW115074   3.252   0.244   1.103  1.1466  1.1433 -0.4166
 1147SOL    HW215075   3.209   0.123   1.032 -0.7324  0.3527  0.7252
 1148SOL     OW15076   0.777   1.216   6.034  0.1513 -0.1380 -0.0993
 1148SOL    HW115077   0.811   1.161   5.963  1.0416  0.4727 -0.1545
 1148SOL    HW215078   0.842   1.286   6.046  0.9562 -0.7867 -0.6276
 1149SOL     OW15079   0.432   0.964  11.689 -0.6881 -0.1639 -0.4932
 1149SOL    HW115080   0.337   0.959  11.703 -0.9151 -0.6198 -2.2807
 1149SOL    HW215081   0.437   1.005  11.603  0.8413 -0.1451 -0.3935
 1150SOL     OW15082   0.165   1.341   2.822 -0.1717 -0.1651 -0.5864
 1150SOL    HW115083   0.142   1.365   2.912 -0.9494 -2.8962 -0.0539
 1150SOL    HW215084   0.243   1.289   2.842 -1.0302 -1.1314  0.2581
 1151SOL     OW15085   0.020   3.362   7.357 -0.0384  0.5663 -0.0916
 1151SOL    HW115086   4.699   3.395   7.423  0.0581 -2.8080  1.6691
 1151SOL    HW215087   4.704   3.302   7.307  0.7779 -1.4361  1.3915
 1152SOL     OW15088   3.560   2.790   9.413 -0.6253  0.0919 -0.8457
 1152SOL    HW115089   3.515   2.707   9.397 -0.5258  0.0591 -0.9629
 1152SOL    HW215090   3.559   2.823   9.323 -0.2877 -2.0417 -1.6526
 1153SOL     OW15091   4.144   0.054   7.303  0.0408 -0.3234  0.3943
 1153SOL    HW115092   4.051   0.070   7.287 -0.0888 -1.0747  0.3928
 1153SOL    HW215093   4.166   0.147   7.306  1.6094 -0.7289  1.3233
 1154SOL     OW15094   0.993   3.827   9.593  0.4772  0.6973 -0.2997
 1154SOL    HW115095   1.031   3.876   9.666  1.8093  1.0834 -1.2671
 1154SOL    HW215096   0.922   3.887   9.572  0.6385  1.6732  1.9019
 1155SOL     OW15097   1.834   3.175  13.884  0.1026 -0.1645  0.2781
 1155SOL    HW115098   1.928   3.178  13.871  0.1170 -0.7450  0.2632
 1155SOL    HW215099   1.791   3.135  13.808 -0.2859 -1.2722  1.0769
 1156SOL     OW15100   2.767   3.821  10.542 -0.5326  0.0903  0.1672
 1156SOL    HW115101   2.782   3.897  10.598  1.4264  0.8263 -1.3481
 1156SOL    HW215102   2.805   3.838  10.456  0.7950 -1.1068  0.5050
 1157SOL     OW15103   0.870   0.523  14.309  0.3195 -0.5244 -0.7031
 1157SOL    HW115104   0.904   0.497  14.223 -0.1723 -2.9197 -0.1802
 1157SOL    HW215105   0.814   0.600  14.296  1.0911 -0.1138 -1.6631
 1158SOL     OW15106   1.585   3.442   7.951 -0.5099  0.3557  0.5269
 1158SOL    HW115107   1.621   3.482   8.030  1.5378  0.3151 -0.3839
 1158SOL    HW215108   1.621   3.354   7.940  0.3642  0.8997 -0.9957
 1159SOL     OW15109   3.329   0.947   5.628  0.2032 -0.5904  0.1964
 1159SOL    HW115110   3.236   0.938   5.649 -0.0326 -0.8500 -0.9607
 1159SOL    HW215111   3.322   1.009   5.555 -0.4676  0.2237  0.9449
 1160SOL     OW15112   0.402   3.615   2.075  0.6686 -0.2097 -0.4813
 1160SOL    HW115113   0.412   3.594   1.982  4.0891  2.7499 -0.8070
 1160SOL    HW215114   0.341   3.688   2.078 -2.2421 -2.6131 -1.6885
 1161SOL     OW15115   4.292   4.220   4.893 -0.0191  0.0657  0.2889
 1161SOL    HW115116   4.269   4.228   4.986  1.5313  0.6240  0.6177
 1161SOL    HW215117   4.355   4.148   4.896 -1.8308 -1.4329  2.7728
 1162SOL     OW15118   2.379   2.452   8.741 -0.0794  0.7983  0.2623
 1162SOL    HW115119   2.456   2.509   8.734 -0.9633  1.9481 -0.0251
 1162SOL    HW215120   2.357   2.420   8.654  0.5803  2.7043 -0.6186
 1163SOL     OW15121   4.133   0.699  13.909  0.0611  0.1231  0.4745
 1163SOL    HW115122   4.185   0.735  13.980  1.1477 -0.3599 -0.0797
 1163SOL    HW215123   4.079   0.775  13.890  1.0687  0.7602  0.1931
 1164SOL     OW15124   2.204   1.167   4.081 -0.6937 -0.4804 -0.6535
 1164SOL    HW115125   2.278   1.155   4.022  1.6498  0.3115  2.1248
 1164SOL    HW215126   2.209   1.258   4.109  1.3660 -0.6880 -0.3947
 1165SOL     OW15127   2.966   0.366   1.846  0.0701 -0.0736  0.2197
 1165SOL    HW115128   3.033   0.434   1.849 -0.0525 -0.0273  1.7034
 1165SOL    HW215129   3.010   0.286   1.817 -0.6831  0.1484 -1.5523
 1166SOL     OW15130   4.350   2.148  12.515  0.3614 -0.1668 -0.1143
 1166SOL    HW115131   4.324   2.238  12.533  1.0615 -0.3405  1.7502
 1166SOL    HW215132   4.394   2.125  12.597  0.7160  0.3052 -0.1804
 1167SOL     OW15133   2.286   0.641   9.126 -0.2585  0.0122  0.3967
 1167SOL    HW115134   2.361   0.699   9.113 -0.2541  0.1263  0.9345
 1167SOL    HW215135   2.216   0.704   9.136 -0.6910 -0.7015  1.7627
 1168SOL     OW15136   4.231   2.623  11.774 -0.6952  0.6918  0.4681
 1168SOL    HW115137   4.232   2.561  11.700  2.3357  0.7730  0.4579
 1168SOL    HW215138   4.137   2.633  11.789 -1.2778  1.2249 -3.4137
 1169SOL     OW15139   0.905   4.037   9.376 -0.0344 -0.0059  0.5359
 1169SOL    HW115140   0.981   4.020   9.319 -0.1810 -2.8158  1.1690
 1169SOL    HW215141   0.919   4.125   9.410 -0.9869  0.0297  0.8338
 1170SOL     OW15142   2.572   3.122  10.908 -0.1507 -0.6736  0.8968
 1170SOL    HW115143   2.590   3.201  10.960 -1.0813  1.2238 -1.6405
 1170SOL    HW215144   2.512   3.157  10.842 -0.0478 -2.0805  0.0551
 1171SOL     OW15145   2.976   0.595   4.359 -0.4527 -0.0521 -0.3731
 1171SOL    HW115146   2.980   0.690   4.347 -0.1136  0.1677  1.6065
 1171SOL    HW215147   2.886   0.579   4.331  0.1115 -2.2929 -1.0013
 1172SOL     OW15148   4.344   0.140   1.690 -0.8678 -0.2152  0.2240
 1172SOL    HW115149   4.354   0.117   1.782  0.2659  0.8082  0.3599
 1172SOL    HW215150   4.257   0.179   1.701  0.2671  1.8270  2.0325
 1173SOL     OW15151   0.855   1.522  11.400 -0.0072 -0.1283  0.1018
 1173SOL    HW115152   0.789   1.591  11.405 -0.2445 -0.4063  0.9267
 1173SOL    HW215153   0.927   1.564  11.446  0.7754  0.0675 -1.3354
 1174SOL     OW15154   4.459   0.438   3.044 -0.2088 -0.1059 -1.2938
 1174SOL    HW115155   4.479   0.500   2.974  0.1366  0.4756 -0.6688
 1174SOL    HW215156   4.381   0.484   3.074  0.4365 -0.4269  0.8390
 1175SOL     OW15157   3.461   2.038   7.566  0.1033 -0.1808 -0.3553
 1175SOL    HW115158   3.392   1.994   7.517  1.0909 -2.2297  0.1124
 1175SOL    HW215159   3.501   1.969   7.619 -0.0089  0.2773  0.3379
 1176SOL     OW15160   2.788   0.963   7.887 -0.5559  0.4562 -0.0240
 1176SOL    HW115161   2.771   0.990   7.977  2.5758 -0.8173  0.9158
 1176SOL    HW215162   2.828   1.041   7.848  0.2473 -0.4095 -0.9370
 1177SOL     OW15163   0.546   3.239   3.720 -0.0690  0.3528 -0.0435
 1177SOL    HW115164   0.605   3.242   3.646  2.9301 -0.3862  2.3260
 1177SOL    HW215165   0.580   3.171   3.778 -0.7723 -1.8575 -2.2408
 1178SOL     OW15166   1.156   0.819   7.319  0.2414 -0.0107 -0.2236
 1178SOL    HW115167   1.164   0.724   7.327 -2.5080 -0.3178 -0.9769
 1178SOL    HW215168   1.197   0.841   7.236 -2.0067  3.1394 -0.4950
 1179SOL     OW15169   3.795   0.832  10.370 -0.1021  0.1625 -0.1111
 1179SOL    HW115170   3.747   0.784  10.302 -0.1687 -0.2970  0.2600
 1179SOL    HW215171   3.859   0.884  10.322  1.4015 -1.1696  0.4876
 1180SOL     OW15172   2.994   2.221   3.054 -0.1356  0.0941 -0.3322
 1180SOL    HW115173   3.058   2.170   3.003 -1.4812 -0.2423 -1.6961
 1180SOL    HW215174   2.945   2.151   3.096 -2.4206  2.8672  1.5728
 1181SOL     OW15175   2.724   2.103   6.090 -0.1244  0.3537 -0.3762
 1181SOL    HW115176   2.719   2.071   6.180  0.6567  2.5077  0.4251
 1181SOL    HW215177   2.763   2.035   6.035 -1.2970  0.7489 -1.7226
 1182SOL     OW15178   0.109   0.593   1.569  0.4495 -0.3710  0.5077
 1182SOL    HW115179   0.167   0.525   1.604 -0.4396 -2.0365 -1.2490
 1182SOL    HW215180   0.090   0.566   1.479 -0.2934 -0.5642  0.7225
 1183SOL     OW15181   1.531   4.173   4.972  0.4816 -0.3517 -0.3156
 1183SOL    HW115182   1.466   4.243   4.984  2.1254  1.4107 -1.8770
 1183SOL    HW215183   1.593   4.195   5.041  0.3455  1.3212 -0.7308
 1184SOL     OW15184   4.067   3.498   2.591  0.3365 -0.1114  0.1152
 1184SOL    HW115185   4.075   3.408   2.622  1.1100 -0.7324 -1.8417
 1184SOL    HW215186   4.062   3.473   2.498 -0.6411  0.6589 -0.0294
 1185SOL     OW15187   1.639   2.174   7.664  0.1145 -0.0689  0.3902
 1185SOL    HW115188   1.594   2.131   7.737 -0.9117 -0.0767 -0.2418
 1185SOL    HW215189   1.624   2.114   7.591 -1.5278  2.1018 -1.0477
 1186SOL     OW15190   4.325   1.057  17.583 -0.3192  0.3674 -0.1999
 1186SOL    HW115191   4.338   1.015  17.498  1.3149 -1.0097  0.7498
 1186SOL    HW215192   4.256   1.010  17.630  0.7483  0.3795  1.3490
 1187SOL     OW15193   0.812   1.798  12.038  0.3543  0.3941 -0.1819
 1187SOL    HW115194   0.894   1.749  12.034 -0.8151 -1.6388  1.1266
 1187SOL    HW215195   0.834   1.839  11.955 -1.7467  1.3546 -0.2434
 1188SOL     OW15196   4.673   2.408  13.017  0.2030 -0.3197  0.5121
 1188SOL    HW115197   4.651   2.372  12.931 -1.3692 -0.1964  0.8553
 1188SOL    HW215198   4.598   2.467  13.024 -0.8247 -1.3125 -2.5059
 1189SOL     OW15199   3.837   0.269  17.743  0.4476  0.5509 -0.2971
 1189SOL    HW115200   3.858   0.329   0.059  1.3463  2.1801 -1.9225
 1189SOL    HW215201   3.922   0.250  17.704  1.1815  0.3632  1.3953
 1190SOL     OW15202   4.203   3.063   6.709 -0.2285  0.1702  0.3753
 1190SOL    HW115203   4.217   3.147   6.665  2.1286 -0.2626  0.2678
 1190SOL    HW215204   4.257   3.081   6.786 -0.1911  0.0208  0.3844
 1191SOL     OW15205   1.026   3.596  13.241 -0.5180 -0.1594 -0.1245
 1191SOL    HW115206   1.115   3.598  13.205 -0.3420  1.3684  0.3767
 1191SOL    HW215207   0.989   3.519  13.200 -1.0807 -0.1855  0.4438
 1192SOL     OW15208   3.192   1.554   9.983 -0.6262  0.2204  0.1766
 1192SOL    HW115209   3.257   1.617   9.954  1.5951 -1.6992  0.9395
 1192SOL    HW215210   3.226   1.510  10.061 -1.6786  0.0017  0.5220
 1193SOL     OW15211   0.622   2.086  13.276 -0.4865 -0.4197  0.2774
 1193SOL    HW115212   0.659   1.998  13.287 -3.3295 -1.6166  0.2753
 1193SOL    HW215213   0.536   2.065  13.241  0.6775 -1.4938 -1.9401
 1194SOL     OW15214   1.825   2.076   3.993 -0.7358  0.2925 -0.4914
 1194SOL    HW115215   1.731   2.069   4.008 -0.3524 -1.0547  1.2402
 1194SOL    HW215216   1.827   2.074   3.897 -0.7271  0.4411 -0.4940
 1195SOL     OW15217   3.654   3.765   9.381  0.1010  0.4665  0.1211
 1195SOL    HW115218   3.701   3.752   9.299 -0.9344  1.1630 -0.5914
 1195SOL    HW215219   3.617   3.677   9.386 -1.1675  1.0708  1.2749
 1196SOL     OW15220   2.459   0.810   6.162 -0.2216 -0.1650 -0.3763
 1196SOL    HW115221   2.376   0.791   6.205 -0.4231  2.0605  0.2207
 1196SOL    HW215222   2.433   0.892   6.119 -2.8873 -0.6688  0.3086
 1197SOL     OW15223   2.238   1.556   6.181 -0.0050 -0.1985 -0.6253
 1197SOL    HW115224   2.229   1.481   6.240  1.4812  0.5810  0.6125
 1197SOL    HW215225   2.325   1.549   6.142  1.3220 -0.0562  2.2566
 1198SOL     OW15226   0.375   1.443   2.598 -0.1873  0.2781  0.3148
 1198SOL    HW115227   0.292   1.455   2.643 -0.0890  0.6214  0.4109
 1198SOL    HW215228   0.381   1.348   2.595  3.0110  0.4509  0.3736
 1199SOL     OW15229   1.082   2.355  14.940 -0.2903 -0.7021 -0.0893
 1199SOL    HW115230   0.993   2.349  14.974 -0.5098 -1.4450 -0.8140
 1199SOL    HW215231   1.090   2.274  14.890 -0.9287 -0.8398  0.0313
 1200SOL     OW15232   1.115   3.774  14.466 -0.2813  0.7343  0.2185
 1200SOL    HW115233   1.100   3.707  14.399 -1.1140 -0.8640  2.0104
 1200SOL    HW215234   1.198   3.812  14.436 -1.0434  2.1343 -0.0738
 1201SOL     OW15235   4.541   2.636  14.180 -0.4453  0.3670 -0.6240
 1201SOL    HW115236   4.562   2.713  14.127  1.0281  0.9847  0.8818
 1201SOL    HW215237   4.495   2.677  14.253 -1.9840 -0.9703 -0.8432
 1202SOL     OW15238   2.412   2.099   1.414  0.2856  0.3794  0.4052
 1202SOL    HW115239   2.399   2.005   1.416 -0.3965  0.4637 -0.1698
 1202SOL    HW215240   2.487   2.105   1.354  0.0461  1.2822  0.1993
 1203SOL     OW15241   1.743   4.171   6.360  0.4121 -0.2793  0.0917
 1203SOL    HW115242   1.770   4.079   6.366 -1.2935 -0.9415 -2.4377
 1203SOL    HW215243   1.648   4.161   6.359  0.4692 -0.5470 -1.9921
 1204SOL     OW15244   1.102   2.830   8.295  0.3014 -0.0960 -0.2296
 1204SOL    HW115245   1.157   2.858   8.221  0.1587 -0.6379 -0.5402
 1204SOL    HW215246   1.019   2.803   8.254 -0.6132 -1.4128  2.5282
 1205SOL     OW15247   3.883   4.035   5.255 -0.0560  1.0242 -0.3277
 1205SOL    HW115248   3.900   4.013   5.347 -1.0679 -0.7720 -0.5857
 1205SOL    HW215249   3.907   3.958   5.204  1.6174  0.4079  1.3563
 1206SOL     OW15250   1.675   2.309  12.569  0.0079  0.2672 -0.0884
 1206SOL    HW115251   1.657   2.235  12.511  0.5247 -1.2848  1.7312
 1206SOL    HW215252   1.580   2.313  12.582 -0.1310  1.9691 -1.6196
 1207SOL     OW15253   1.086   0.812  15.186  0.5712  0.3959 -0.2079
 1207SOL    HW115254   1.053   0.900  15.172 -1.4458 -0.3527 -0.1966
 1207SOL    HW215255   1.128   0.834  15.269 -1.1107 -0.2979  0.8278
 1208SOL     OW15256   2.081   3.170   1.851 -0.5792 -0.1930  0.5827
 1208SOL    HW115257   2.057   3.081   1.876 -2.4687  0.0166 -0.5181
 1208SOL    HW215258   2.008   3.185   1.791  0.4457  0.8262 -0.4064
 1209SOL     OW15259   1.145   4.028   8.022 -0.6242 -0.3974 -0.1214
 1209SOL    HW115260   1.187   4.114   8.011 -1.2562 -0.1204 -0.3814
 1209SOL    HW215261   1.184   3.976   7.952  0.4543  0.8831 -0.4784
 1210SOL     OW15262   1.441   4.216   1.333 -0.2602 -0.0556 -1.0513
 1210SOL    HW115263   1.354   4.210   1.371  0.5251  3.1624  1.2493
 1210SOL    HW215264   1.489   4.184   1.409 -1.4568 -3.8337 -1.8846
 1211SOL     OW15265   2.181   0.142   7.101 -0.1591  1.0405  0.4545
 1211SOL    HW115266   2.215   0.165   7.188 -2.1058  1.0934  1.2270
 1211SOL    HW215267   2.116   0.072   7.116 -0.4412  1.2872  0.3830
 1212SOL     OW15268   4.662   0.920  14.844  0.3986 -0.1448  0.2548
 1212SOL    HW115269   4.604   0.993  14.866 -1.2173 -1.5086  0.5030
 1212SOL    HW215270   4.690   0.899  14.934  1.8452  2.2695  0.3903
 1213SOL     OW15271   4.664   0.994  12.614  0.1667  0.1687 -0.6086
 1213SOL    HW115272   4.671   1.084  12.648 -0.7090 -0.3999  1.0603
 1213SOL    HW215273   4.704   1.005  12.528  0.8832  0.9567 -0.1795
 1214SOL     OW15274   0.382   2.137   5.337  0.2788 -0.6028 -0.4516
 1214SOL    HW115275   0.349   2.190   5.410 -4.0087 -0.0083 -2.8094
 1214SOL    HW215276   0.462   2.102   5.376  0.0113 -0.4517  0.2230
 1215SOL     OW15277   0.925   0.351   9.019 -0.2592 -0.2365  0.1776
 1215SOL    HW115278   0.855   0.286   9.022 -1.3557  0.9181 -0.7333
 1215SOL    HW215279   0.878   0.430   8.993  1.7769 -0.1550 -3.2141
 1216SOL     OW15280   3.078   1.723   8.525  0.0886 -0.1570 -0.6032
 1216SOL    HW115281   3.123   1.660   8.582 -0.9300  0.9206  1.3785
 1216SOL    HW215282   3.151   1.767   8.483  0.2785 -0.8787 -1.0241
 1217SOL     OW15283   3.783   4.019   1.978 -0.2599  0.5095  0.1022
 1217SOL    HW115284   3.714   4.013   2.044 -0.6744 -0.4582 -0.4124
 1217SOL    HW215285   3.835   4.092   2.010  1.4187 -0.6722  0.0910
 1218SOL     OW15286   0.411   0.835   3.233  0.0969  0.2783  0.6619
 1218SOL    HW115287   0.483   0.898   3.233  1.8116 -1.6683  1.0422
 1218SOL    HW215288   0.339   0.888   3.266 -1.0484 -0.4434 -0.7018
 1219SOL     OW15289   1.024   2.680   7.496 -0.0254  0.2246  0.1171
 1219SOL    HW115290   0.984   2.765   7.481 -1.7113 -0.8713 -1.6220
 1219SOL    HW215291   0.942   2.641   7.525  0.1622 -0.7431 -0.6475
 1220SOL     OW15292   3.372   0.193   4.387 -0.0912  0.2818  0.3204
 1220SOL    HW115293   3.357   0.116   4.442  2.4790 -0.8554 -0.5450
 1220SOL    HW215294   3.297   0.250   4.402 -2.1366 -2.4234  0.2704
 1221SOL     OW15295   2.174   4.178   6.133 -0.1763  0.1516  0.1512
 1221SOL    HW115296   2.139   4.199   6.220  1.7782 -0.3832  1.0592
 1221SOL    HW215297   2.265   4.196   6.154  0.0340  0.6671 -1.2141
 1222SOL     OW15298   0.400   4.092   2.614 -0.5508  0.1615 -0.1555
 1222SOL    HW115299   0.491   4.097   2.587  0.1752 -3.4283  1.6239
 1222SOL    HW215300   0.396   4.002   2.583 -0.6823  0.5120 -1.1543
 1223SOL     OW15301   1.145   3.273  15.789 -0.1954  0.3361 -0.0961
 1223SOL    HW115302   1.055   3.283  15.820 -0.1659 -0.9130  0.4200
 1223SOL    HW215303   1.185   3.359  15.803  3.0274 -1.1826 -0.0325
 1224SOL     OW15304   0.564   1.058   5.589  0.4579 -0.4306 -0.2405
 1224SOL    HW115305   0.495   0.992   5.597 -0.3822  0.4337 -0.3455
 1224SOL    HW215306   0.519   1.130   5.544 -0.1153 -1.0238 -0.6022
 1225SOL     OW15307   1.183   0.948   6.766 -0.1547 -0.1341 -0.3580
 1225SOL    HW115308   1.141   0.877   6.718 -3.0075  2.0279 -1.0589
 1225SOL    HW215309   1.124   1.018   6.739 -0.2050  0.1713  0.5323
 1226SOL     OW15310   1.171   2.879   8.042  0.0198 -0.4222 -0.8138
 1226SOL    HW115311   1.194   2.938   7.969 -0.6887  0.1283 -0.5879
 1226SOL    HW215312   1.115   2.811   8.004  0.2591 -2.2304  2.1040
 1227SOL     OW15313   1.933   3.920   0.825 -0.4366 -0.2109  0.2275
 1227SOL    HW115314   1.973   3.887   0.906 -1.4612  0.7509  1.1223
 1227SOL    HW215315   1.959   4.012   0.823 -0.3692 -0.2133  0.8650
 1228SOL     OW15316   2.242   3.985   9.133 -0.6596  0.0662  0.1697
 1228SOL    HW115317   2.320   4.039   9.149 -2.9318  2.9156  1.6555
 1228SOL    HW215318   2.258   3.948   9.046 -1.4106 -1.3413  0.6397
 1229SOL     OW15319   4.528   1.441   1.121  0.0642 -0.3540 -0.1055
 1229SOL    HW115320   4.533   1.363   1.067 -2.9145 -1.8238  1.7311
 1229SOL    HW215321   4.594   1.500   1.086 -1.8550  1.5462 -0.5518
 1230SOL     OW15322   0.020   2.967   6.948 -0.1589 -0.1408 -0.2231
 1230SOL    HW115323   4.734   2.940   6.860 -1.5885 -2.5185  0.9105
 1230SOL    HW215324   4.676   2.981   6.994 -1.1316 -0.9860 -1.7364
 1231SOL     OW15325   1.616   0.470   5.047  0.3649  0.2586 -0.1696
 1231SOL    HW115326   1.592   0.558   5.076  1.2153  0.2678  0.5216
 1231SOL    HW215327   1.594   0.431   5.132  0.2616  0.0416 -0.2958
 1232SOL     OW15328   1.622   3.703  15.399  0.4968 -0.2502  0.8982
 1232SOL    HW115329   1.685   3.717  15.328  1.6780  0.4566  2.1079
 1232SOL    HW215330   1.571   3.625  15.375  0.5125 -0.4474  1.5276
 1233SOL     OW15331   1.540   3.136   4.953  0.1333 -0.2557 -0.6143
 1233SOL    HW115332   1.479   3.111   4.883 -0.9011 -0.5402  0.3978
 1233SOL    HW215333   1.551   3.051   4.995  0.7822 -0.1295 -0.5366
 1234SOL     OW15334   4.211   0.550  11.402 -0.0428  0.5097 -0.0502
 1234SOL    HW115335   4.208   0.491  11.477 -0.8453 -1.4079 -1.5772
 1234SOL    HW215336   4.127   0.532  11.360 -0.0157  1.6500 -0.5908
 1235SOL     OW15337   3.510   4.620  10.286 -0.1872  0.8657 -0.2203
 1235SOL    HW115338   3.552   4.695  10.327  0.3899  0.6293 -0.3805
 1235SOL    HW215339   3.574   4.554  10.312 -1.3340 -0.3204 -0.3567
 1236SOL     OW15340   0.507   0.600   8.616  0.3826  0.0747 -0.6446
 1236SOL    HW115341   0.477   0.510   8.629 -2.5968  1.0457 -0.9086
 1236SOL    HW215342   0.502   0.637   8.704 -0.1279  0.3324 -0.7790
 1237SOL     OW15343   1.026   1.217  13.390  0.2651  0.1028  0.4615
 1237SOL    HW115344   1.019   1.123  13.402  0.9843  0.0215  0.2153
 1237SOL    HW215345   1.009   1.234  13.297  1.4382  2.6681  0.6979
 1238SOL     OW15346   1.077   3.600  14.269 -0.4255 -0.3435 -0.2799
 1238SOL    HW115347   1.138   3.574  14.200  0.1149 -2.7790  1.1309
 1238SOL    HW215348   1.047   3.683  14.232 -1.2268 -1.3558 -1.8900
 1239SOL     OW15349   1.162   2.457   0.481 -0.1122 -0.2287 -0.1807
 1239SOL    HW115350   1.119   2.532   0.441  1.5396  1.0461  0.4190
 1239SOL    HW215351   1.087   2.402   0.505 -0.1581  0.9912  2.4963
 1240SOL     OW15352   4.019   2.236   4.209 -0.1353  0.2673  0.5601
 1240SOL    HW115353   3.938   2.191   4.187 -0.5362  1.4194 -0.3275
 1240SOL    HW215354   4.005   2.323   4.170 -2.0738 -0.0761  0.5233
 1241SOL     OW15355   0.453   1.050   0.558 -0.0153  0.3267  0.8204
 1241SOL    HW115356   0.476   1.127   0.507 -3.6158  0.9647  0.1673
 1241SOL    HW215357   0.457   0.979   0.493 -0.2699  0.8710  0.2152
 1242SOL     OW15358   1.340   0.188   6.594 -0.0719 -0.1860  0.0738
 1242SOL    HW115359   1.430   0.221   6.583  0.3669 -1.5066 -0.3297
 1242SOL    HW215360   1.323   0.131   6.519  1.0229 -0.5574  0.0969
 1243SOL     OW15361   0.387   3.615   6.421 -0.0525 -0.6348  0.0635
 1243SOL    HW115362   0.335   3.622   6.341 -0.7909  3.3762  0.8618
 1243SOL    HW215363   0.420   3.526   6.413  0.2919 -0.4824 -0.2392
 1244SOL     OW15364   3.463   0.105   3.479 -0.3148  0.1487 -0.1134
 1244SOL    HW115365   3.425   0.082   3.394 -2.8075  2.0773  0.5018
 1244SOL    HW215366   3.392   0.081   3.539 -0.7432 -0.5510 -0.8964
 1245SOL     OW15367   2.275   2.719  11.044 -0.3479  0.2970 -0.5333
 1245SOL    HW115368   2.289   2.707  11.138 -1.0211 -1.7582 -0.7016
 1245SOL    HW215369   2.341   2.788  11.040 -0.6112  0.5845  0.0075
 1246SOL     OW15370   0.969   1.991  13.981  0.0209 -0.1457  0.1759
 1246SOL    HW115371   1.056   1.996  13.940  0.0737 -0.4580  0.2493
 1246SOL    HW215372   0.962   2.084  14.001 -1.9875 -0.2795  0.1042
 1247SOL     OW15373   1.074   3.282   6.211 -0.2033  0.1298  0.5333
 1247SOL    HW115374   1.028   3.233   6.279 -0.9494  2.3636  1.6376
 1247SOL    HW215375   1.022   3.361   6.197 -0.5846 -0.0979  0.6903
 1248SOL     OW15376   1.696   3.832   0.742 -0.6469  0.1810  0.2786
 1248SOL    HW115377   1.679   3.914   0.695  1.9381  0.3182 -0.3981
 1248SOL    HW215378   1.785   3.853   0.769 -0.5155 -1.1422  0.8532
 1249SOL     OW15379   2.445   1.611   1.799 -0.2122 -0.4957  0.0087
 1249SOL    HW115380   2.405   1.561   1.728 -2.0550  0.3761  0.4380
 1249SOL    HW215381   2.380   1.680   1.815  0.6541  0.3331 -0.0430
 1250SOL     OW15382   2.836   3.875   9.087 -0.5345  0.0730 -0.1919
 1250SOL    HW115383   2.893   3.877   9.164  0.2707  1.2848 -0.8215
 1250SOL    HW215384   2.873   3.804   9.034  1.6141  1.1362 -0.1231
 1251SOL     OW15385   3.688   3.997  12.613 -0.4872 -0.0269  0.3562
 1251SOL    HW115386   3.716   4.030  12.698  1.3443  2.9929 -1.4476
 1251SOL    HW215387   3.596   4.022  12.616 -0.3479  0.9574 -3.7986
 1252SOL     OW15388   4.414   1.536   0.770 -0.5692  0.5486  0.4696
 1252SOL    HW115389   4.433   1.626   0.797  0.6433  0.7236 -1.0159
 1252SOL    HW215390   4.425   1.553   0.677 -1.9135 -3.1704 -0.3392
 1253SOL     OW15391   2.685   0.316   7.019  0.1861  0.0183  0.1488
 1253SOL    HW115392   2.765   0.263   7.013  0.2258 -0.1411  1.9444
 1253SOL    HW215393   2.715   0.407   7.012  1.2129 -0.4398 -1.4082
 1254SOL     OW15394   2.413   0.451   6.629 -0.2848  0.7194 -0.4286
 1254SOL    HW115395   2.404   0.364   6.668 -0.0055  1.5758  1.5367
 1254SOL    HW215396   2.439   0.503   6.705  2.4016  0.0574 -0.8955
 1255SOL     OW15397   3.505   2.417  12.347 -0.4748  0.4644 -0.2295
 1255SOL    HW115398   3.563   2.457  12.412  2.1416 -1.4909 -1.3505
 1255SOL    HW215399   3.429   2.386  12.395 -0.9781  2.4728  0.2649
 1256SOL     OW15400   1.319   3.047   9.001  0.3862 -0.0545  0.0906
 1256SOL    HW115401   1.352   3.053   8.912 -1.9678  0.0654 -0.7709
 1256SOL    HW215402   1.357   3.129   9.032  0.5623 -0.0661 -0.1005
 1257SOL     OW15403   2.317   0.326   9.371  0.1398 -0.0895  0.0194
 1257SOL    HW115404   2.225   0.326   9.397  0.7885 -2.8285  2.3595
 1257SOL    HW215405   2.314   0.316   9.276  0.7134  1.8013 -0.1902
 1258SOL     OW15406   0.473   3.531   1.826  0.0689  0.2068 -0.4031
 1258SOL    HW115407   0.457   3.539   1.732 -2.5952  1.0449  0.1368
 1258SOL    HW215408   0.482   3.436   1.838  0.6458  0.3622  0.3736
 1259SOL     OW15409   3.685   2.576   1.966 -0.1314 -0.2071  0.4260
 1259SOL    HW115410   3.626   2.565   1.891  2.5143  1.7439 -1.9696
 1259SOL    HW215411   3.644   2.657   1.997 -0.5417 -0.5016  0.6533
 1260SOL     OW15412   3.980   2.678   9.099  0.0181  0.3765 -0.1194
 1260SOL    HW115413   4.016   2.599   9.141 -0.0767 -0.0125 -0.7828
 1260SOL    HW215414   4.064   2.723   9.091  0.1836  0.0921  0.0206
 1261SOL     OW15415   1.770   3.062   2.651  0.4070  0.6817 -0.6543
 1261SOL    HW115416   1.715   3.136   2.677  0.5153  0.5067  0.0830
 1261SOL    HW215417   1.853   3.108   2.662  1.3952 -1.4326  0.7678
 1262SOL     OW15418   1.430   2.229   8.242 -0.1756 -0.8285 -0.7601
 1262SOL    HW115419   1.424   2.296   8.175  2.7686  0.8532  0.6327
 1262SOL    HW215420   1.347   2.247   8.285  0.5804  0.6112  0.0928
 1263SOL     OW15421   3.527   4.382   8.472  0.2568  0.4458  0.1070
 1263SOL    HW115422   3.521   4.432   8.554 -1.5809  2.2819 -1.1278
 1263SOL    HW215423   3.570   4.302   8.502  1.7118  1.0562 -0.3894
 1264SOL     OW15424   3.895   0.062   7.217 -0.5637  0.2439 -0.0986
 1264SOL    HW115425   3.861   0.142   7.257 -0.2315  0.7851 -0.9027
 1264SOL    HW215426   3.823   0.022   7.170  0.5982 -2.1570  0.1377
 1265SOL     OW15427   3.297   2.512   7.139  0.8398  0.5712 -0.1496
 1265SOL    HW115428   3.346   2.565   7.076  0.9938 -0.5675 -0.9943
 1265SOL    HW215429   3.268   2.444   7.078  1.1477 -0.8520  1.2806
 1266SOL     OW15430   3.109   1.345   9.836  0.0744  0.0622 -0.6473
 1266SOL    HW115431   3.161   1.420   9.863 -0.0587 -0.3143  0.6274
 1266SOL    HW215432   3.163   1.269   9.856  0.3916  0.6207  0.5734
 1267SOL     OW15433   1.375   1.326  12.516 -0.3671 -0.0495 -0.0640
 1267SOL    HW115434   1.414   1.251  12.470 -0.8293 -0.2358 -0.1542
 1267SOL    HW215435   1.286   1.313  12.483 -0.8997  0.7243  1.0538
 1268SOL     OW15436   3.089   1.896   2.341 -0.0536  0.1252 -0.0016
 1268SOL    HW115437   3.043   1.887   2.258 -0.1126  0.9264 -0.0630
 1268SOL    HW215438   3.018   1.884   2.403 -1.8995 -1.8616 -2.4830
 1269SOL     OW15439   0.831   3.205   8.289  0.4587 -0.0927 -0.3378
 1269SOL    HW115440   0.837   3.254   8.371  0.0270  0.8669 -0.8798
 1269SOL    HW215441   0.851   3.121   8.330  0.7569 -0.4985 -1.3412
 1270SOL     OW15442   3.246   0.037   2.636  0.7602 -0.4028 -0.0461
 1270SOL    HW115443   3.341   0.025   2.631  0.5653 -1.7704 -0.4914
 1270SOL    HW215444   3.229   4.718   2.711 -1.4440 -0.5453 -0.6616
 1271SOL     OW15445   4.658   2.927   4.188 -0.3252  0.4554 -0.1816
 1271SOL    HW115446   4.578   2.959   4.146  0.6033  1.1870 -1.3981
 1271SOL    HW215447   4.710   2.886   4.119 -0.6568 -3.6544  2.0354
 1272SOL     OW15448   1.703   0.492   8.399 -0.0051  0.4828  0.2012
 1272SOL    HW115449   1.636   0.509   8.333  1.2284 -0.3429 -1.2691
 1272SOL    HW215450   1.704   0.397   8.409  2.4178  0.4645 -0.3186
 1273SOL     OW15451   1.307   0.227   3.340  0.2112  0.4326  0.5420
 1273SOL    HW115452   1.300   0.314   3.300  0.7578  0.6504  0.9299
 1273SOL    HW215453   1.237   0.236   3.405 -1.2695  0.1714 -1.0117
 1274SOL     OW15454   1.263   3.172  14.759 -0.2946 -0.0901  0.2411
 1274SOL    HW115455   1.286   3.172  14.666 -1.6926 -0.7259 -0.1172
 1274SOL    HW215456   1.335   3.227  14.790  0.4721  0.2968 -2.2131
 1275SOL     OW15457   0.238   2.342   5.430 -0.3697 -0.8128  0.1506
 1275SOL    HW115458   0.153   2.333   5.386  0.8072 -1.6157 -1.9602
 1275SOL    HW215459   0.267   2.429   5.402  2.9191 -1.9371  0.0288
 1276SOL     OW15460   4.130   4.295  11.476 -0.6862 -1.0170  0.0899
 1276SOL    HW115461   4.107   4.208  11.507  0.6095 -1.0926  0.8700
 1276SOL    HW215462   4.087   4.312  11.392  1.3766 -1.6008 -1.1151
 1277SOL     OW15463   0.180   4.400   6.085 -0.0740  0.1167 -0.1036
 1277SOL    HW115464   0.177   4.347   6.165 -0.5308 -0.1824 -0.3168
 1277SOL    HW215465   0.159   4.333   6.020  0.4795 -0.7470  0.6133
 1278SOL     OW15466   3.421   1.580   7.148  0.3624 -0.4464  0.3106
 1278SOL    HW115467   3.450   1.491   7.127 -1.7640 -1.5828  2.2554
 1278SOL    HW215468   3.502   1.629   7.159  0.1688 -0.3966  1.4694
 1279SOL     OW15469   3.642   3.272   4.701 -0.6594 -0.1236 -0.5137
 1279SOL    HW115470   3.613   3.361   4.682  0.1125 -0.0729 -1.4772
 1279SOL    HW215471   3.731   3.298   4.724 -1.0582 -0.0219  0.8778
 1280SOL     OW15472   1.775   0.824   0.043 -1.0531 -0.1656  0.0793
 1280SOL    HW115473   1.742   0.779   0.120  0.4206 -0.5748  0.4679
 1280SOL    HW215474   1.842   0.768   0.003 -0.3613  2.0098 -1.8152
 1281SOL     OW15475   0.063   3.295   8.342 -0.2666  0.3674 -0.2358
 1281SOL    HW115476   0.134   3.262   8.397  0.9572  1.0188 -1.4335
 1281SOL    HW215477   0.062   3.386   8.371 -1.0972  0.7148 -1.3514
 1282SOL     OW15478   0.453   0.279  17.753  0.3671 -0.2632 -0.5288
 1282SOL    HW115479   0.456   0.344   0.067 -1.9798 -0.2556 -0.4454
 1282SOL    HW215480   0.400   0.219   0.049  0.9547  0.3316  0.7608
 1283SOL     OW15481   0.245   4.046  15.214  0.2123  0.4237 -0.1640
 1283SOL    HW115482   0.197   4.072  15.135 -1.3131 -1.3083  0.1675
 1283SOL    HW215483   0.245   4.135  15.250 -1.8971  0.6405 -0.6627
 1284SOL     OW15484   0.261   3.784   6.579  0.2252  0.3905 -0.2607
 1284SOL    HW115485   0.309   3.845   6.635  0.1137  1.0175 -0.8494
 1284SOL    HW215486   0.336   3.741   6.538 -0.9260 -0.0613 -1.8614
 1285SOL     OW15487   0.055   0.994  10.040  0.4043 -0.2926  0.2528
 1285SOL    HW115488   0.086   1.069  10.090  1.8887 -1.8929  1.7205
 1285SOL    HW215489   4.701   0.997  10.060  0.0630  2.5242 -1.7696
 1286SOL     OW15490   3.829   3.373   7.807 -0.3541  1.1871  0.3844
 1286SOL    HW115491   3.816   3.340   7.896 -1.7685 -0.4353 -0.4001
 1286SOL    HW215492   3.761   3.318   7.767  1.7821  0.3275 -2.0679
 1287SOL     OW15493   4.591   2.988   6.247 -0.5251 -0.1351 -0.2577
 1287SOL    HW115494   4.555   2.900   6.241  0.4169 -0.4756 -0.8226
 1287SOL    HW215495   4.638   2.975   6.330 -1.2823 -3.3834 -0.3379
 1288SOL     OW15496   3.157   1.984   5.751  0.4409 -0.2326 -0.3307
 1288SOL    HW115497   3.202   2.058   5.792  0.9676  0.0095 -1.3509
 1288SOL    HW215498   3.215   1.968   5.676  0.7250  2.3914 -0.6974
 1289SOL     OW15499   1.058   2.349   2.331 -0.2666 -0.3641 -0.0004
 1289SOL    HW115500   1.134   2.356   2.274 -0.6274 -0.8949 -0.5544
 1289SOL    HW215501   0.997   2.402   2.280 -1.6175 -2.6529 -0.7734
 1290SOL     OW15502   1.802   0.173   3.322 -0.3379  0.6397 -0.0976
 1290SOL    HW115503   1.741   0.239   3.288 -0.5541  0.5038  0.0230
 1290SOL    HW215504   1.875   0.229   3.347 -0.8029  2.0359 -1.8403
 1291SOL     OW15505   0.958   4.341   4.297 -0.4211 -0.3409  0.0522
 1291SOL    HW115506   0.865   4.345   4.319 -0.4167  1.3542 -0.2431
 1291SOL    HW215507   0.995   4.285   4.365  1.0795 -0.3851 -0.8081
 1292SOL     OW15508   3.970   3.454  10.891 -0.1016  0.1066 -0.0599
 1292SOL    HW115509   4.039   3.515  10.918 -1.7351  2.3245 -0.8456
 1292SOL    HW215510   3.916   3.465  10.969 -1.6859 -2.6738 -0.7885
 1293SOL     OW15511   0.629   0.393   2.127  0.2468 -0.3325 -0.1300
 1293SOL    HW115512   0.546   0.346   2.121 -1.5970  2.7128  1.7750
 1293SOL    HW215513   0.676   0.359   2.051  1.2760 -3.4652  1.9227
 1294SOL     OW15514   3.857   1.537   3.356 -0.4264  0.2902  0.3137
 1294SOL    HW115515   3.858   1.631   3.337 -1.9294  0.7025  2.2323
 1294SOL    HW215516   3.768   1.517   3.327 -0.2621 -0.4959  0.3426
 1295SOL     OW15517   2.984   2.687   6.902  0.0299  0.1064 -0.3067
 1295SOL    HW115518   2.978   2.715   6.810  2.7114 -0.0916 -0.5534
 1295SOL    HW215519   3.033   2.759   6.941  0.0784  0.0359 -0.2369
 1296SOL     OW15520   3.532   0.311   1.499  0.7927 -0.1046  0.4025
 1296SOL    HW115521   3.461   0.286   1.559 -0.3064 -0.2272 -0.9616
 1296SOL    HW215522   3.488   0.390   1.467  3.1831  1.4948  1.1038
 1297SOL     OW15523   4.570   1.971  15.807 -0.2548  0.0492 -0.7238
 1297SOL    HW115524   4.493   1.922  15.836 -0.2966 -0.0941 -1.0759
 1297SOL    HW215525   4.531   2.054  15.779 -0.5405 -0.1967 -1.0421
 1298SOL     OW15526   2.166   3.323   7.884  0.3107  0.2588  0.2773
 1298SOL    HW115527   2.070   3.324   7.891  0.3137  1.6394  0.2211
 1298SOL    HW215528   2.186   3.408   7.924  2.0408 -0.6194  1.2581
 1299SOL     OW15529   2.680   2.696   5.634 -0.3938  0.1784 -0.3654
 1299SOL    HW115530   2.610   2.638   5.602 -2.2944  2.3566 -0.1706
 1299SOL    HW215531   2.749   2.634   5.658  1.3942  1.9047 -1.0226
 1300SOL     OW15532   0.264   4.099  17.196  0.4922 -0.1276 -0.2235
 1300SOL    HW115533   0.234   4.190  17.200 -1.2314 -0.7364  0.4160
 1300SOL    HW215534   0.254   4.077  17.289 -0.6033  2.2104  0.2188
 1301SOL     OW15535   1.256   3.839   6.144  1.0997  0.4884  0.3507
 1301SOL    HW115536   1.204   3.788   6.206 -0.6608 -0.2066 -1.6993
 1301SOL    HW215537   1.230   3.803   6.059 -1.2383  2.8067  0.0835
 1302SOL     OW15538   3.949   4.403   5.282 -0.4314  0.0903 -0.6668
 1302SOL    HW115539   3.918   4.493   5.295  0.3459  0.3189 -0.4009
 1302SOL    HW215540   3.873   4.365   5.238 -1.9089  1.7742  0.4683
 1303SOL     OW15541   4.185   3.051   4.198 -0.2949  0.1064  0.4379
 1303SOL    HW115542   4.180   3.143   4.171  0.7710 -0.3170 -1.1735
 1303SOL    HW215543   4.139   3.045   4.282  0.8127 -0.6457  0.9818
 1304SOL     OW15544   4.338   2.677   8.358  0.4468  0.6390 -0.1745
 1304SOL    HW115545   4.279   2.750   8.337  0.0073  0.6979  1.2575
 1304SOL    HW215546   4.284   2.598   8.348  1.9949 -0.1490 -2.2812
 1305SOL     OW15547   3.134   0.850  16.679 -0.8555  0.0293 -0.3580
 1305SOL    HW115548   3.202   0.835  16.745 -2.3798 -0.2392  1.1525
 1305SOL    HW215549   3.156   0.794  16.605  1.9415  0.4143  0.1938
 1306SOL     OW15550   4.415   1.815   3.087 -0.1969 -0.4633 -0.1568
 1306SOL    HW115551   4.324   1.786   3.097 -0.4969  0.9229  1.0653
 1306SOL    HW215552   4.424   1.879   3.158  0.5792 -1.7315  0.8903
 1307SOL     OW15553   1.351   2.621   0.282 -0.0190 -0.0447  0.1993
 1307SOL    HW115554   1.394   2.657   0.206 -0.5182 -0.7183 -0.4071
 1307SOL    HW215555   1.307   2.542   0.249  0.3893 -0.7760  1.3872
 1308SOL     OW15556   2.760   0.727   6.339  0.1484 -0.2808  0.8070
 1308SOL    HW115557   2.715   0.651   6.377  0.0194 -1.4130 -1.6484
 1308SOL    HW215558   2.835   0.693   6.291 -0.7031 -1.3779  0.2755
 1309SOL     OW15559   2.553   0.861   8.789  0.2109  0.1834 -0.2638
 1309SOL    HW115560   2.459   0.844   8.796  0.7917 -1.6085  3.3033
 1309SOL    HW215561   2.551   0.956   8.793 -0.6666  0.1370  0.2948
 1310SOL     OW15562   2.317   2.989   2.461 -0.0421  0.8201  0.2369
 1310SOL    HW115563   2.395   2.994   2.515  0.9703  1.5111 -1.2807
 1310SOL    HW215564   2.260   2.931   2.512  2.6357 -0.2578  2.0067
 1311SOL     OW15565   0.309   2.687  12.300  0.0014 -0.0793  0.4294
 1311SOL    HW115566   0.282   2.605  12.342  1.9226 -1.4326 -0.9282
 1311SOL    HW215567   0.235   2.745  12.317 -0.3390 -0.4243  0.1383
 1312SOL     OW15568   4.162   0.214   5.112  0.4432 -0.4390  0.3492
 1312SOL    HW115569   4.244   0.239   5.070 -0.9022  4.1707  0.5634
 1312SOL    HW215570   4.111   0.277   5.063 -2.4512 -2.2897  0.9958
 1313SOL     OW15571   3.961   1.758   7.215 -0.1152  0.1342 -0.0129
 1313SOL    HW115572   4.047   1.797   7.226  0.3294 -0.5044 -1.2469
 1313SOL    HW215573   3.907   1.832   7.243 -0.7979 -1.2718  2.3824
 1314SOL     OW15574   1.254   2.505  12.480  0.1798 -0.1338  0.1047
 1314SOL    HW115575   1.312   2.433  12.503 -0.7030 -0.4611  1.3027
 1314SOL    HW215576   1.305   2.585  12.494  2.2999 -1.1879 -1.7414
 1315SOL     OW15577   0.322   3.197   3.017 -0.5414  0.4366 -0.0328
 1315SOL    HW115578   0.255   3.201   3.085  1.6511 -0.6597  2.2042
 1315SOL    HW215579   0.267   3.170   2.944 -1.0034 -0.9882  0.8344
 1316SOL     OW15580   0.120   0.708  14.118  0.8635 -0.0935  0.1208
 1316SOL    HW115581   0.077   0.656  14.050  0.8066  0.4801 -0.2822
 1316SOL    HW215582   0.051   0.774  14.118  1.1742  0.2390  2.7979
 1317SOL     OW15583   1.226   3.246   8.270 -0.0256  0.2853 -0.0927
 1317SOL    HW115584   1.200   3.233   8.179  0.1221  0.0066 -0.0949
 1317SOL    HW215585   1.296   3.181   8.282 -1.2277 -1.1364 -0.7388
 1318SOL     OW15586   4.560   1.585   7.984  0.2848  0.4331  0.1679
 1318SOL    HW115587   4.653   1.566   7.997 -0.0500 -0.8640  0.6662
 1318SOL    HW215588   4.547   1.592   8.079 -3.2843 -0.6154 -0.2457
 1319SOL     OW15589   0.842   3.547   5.666  0.3842  0.2070 -0.6387
 1319SOL    HW115590   0.760   3.578   5.627 -0.2700 -0.4596  0.2101
 1319SOL    HW215591   0.815   3.481   5.730 -0.2758  1.9475  0.8617
 1320SOL     OW15592   4.043   4.302   5.896 -0.2667 -0.6272 -0.0367
 1320SOL    HW115593   4.015   4.385   5.935  1.2740 -1.0219  1.9299
 1320SOL    HW215594   4.101   4.275   5.968 -0.8805 -1.3568  0.1822
 1321SOL     OW15595   0.091   3.131  15.195 -0.2365  0.4086  0.0150
 1321SOL    HW115596   0.125   3.218  15.176  2.1855 -0.4576  0.4370
 1321SOL    HW215597   0.029   3.154  15.265 -0.6776 -1.0184  0.0916
 1322SOL     OW15598   3.491   0.678   0.396 -0.1858 -0.6332 -0.2643
 1322SOL    HW115599   3.575   0.676   0.441 -0.6947  1.2862  0.7766
 1322SOL    HW215600   3.519   0.688   0.305  0.7921 -0.3689  0.0686
 1323SOL     OW15601   2.082   0.844   2.091  0.1080 -0.4191 -0.3687
 1323SOL    HW115602   2.138   0.766   2.090 -1.1612 -1.3626  1.3786
 1323SOL    HW215603   2.002   0.810   2.130 -1.9079  1.3233 -2.9824
 1324SOL     OW15604   2.521   4.709   9.447 -0.0687  0.2456 -0.2667
 1324SOL    HW115605   2.426   4.719   9.443  0.1119  2.0279 -0.3118
 1324SOL    HW215606   2.552   4.705   9.357  0.4848  0.4830 -0.0875
 1325SOL     OW15607   3.395   2.891   1.172  0.0311 -0.0192 -0.0675
 1325SOL    HW115608   3.437   2.872   1.088  0.2121  1.8674 -0.3970
 1325SOL    HW215609   3.345   2.972   1.162  0.6191  0.4179  0.5384
 1326SOL     OW15610   0.229   0.878  12.025 -0.5681 -0.6036 -0.0248
 1326SOL    HW115611   0.250   0.821  11.951  1.1801  0.6169 -0.4601
 1326SOL    HW215612   0.155   0.836  12.069 -1.2352  1.5868  0.9771
 1327SOL     OW15613   1.892   3.584  15.671 -0.0264  0.1538 -0.4713
 1327SOL    HW115614   1.814   3.533  15.648  0.3103 -1.2999  1.5369
 1327SOL    HW215615   1.907   3.642  15.597  1.8242 -1.3503 -1.2949
 1328SOL     OW15616   1.276   0.654   2.261  0.1792  0.2493 -0.2676
 1328SOL    HW115617   1.328   0.728   2.229 -0.8087  1.1275  0.1481
 1328SOL    HW215618   1.344   0.616   2.316 -0.3820 -0.9793 -0.4213
 1329SOL     OW15619   3.945   3.475   2.313  0.6541  0.4287 -0.6201
 1329SOL    HW115620   3.915   3.405   2.255 -1.3202 -0.2791  1.2343
 1329SOL    HW215621   3.937   3.544   2.248  2.8427  0.0859 -1.2648
 1330SOL     OW15622   3.273   4.517   9.580  0.9011 -0.6910  0.1239
 1330SOL    HW115623   3.255   4.523   9.673  2.0652 -0.9163  0.3725
 1330SOL    HW215624   3.200   4.466   9.545  1.3406  0.8619 -3.1018
 1331SOL     OW15625   1.063   3.385   9.802 -0.2095 -0.1255  0.0298
 1331SOL    HW115626   1.084   3.294   9.783  0.9579  0.3456 -0.9456
 1331SOL    HW215627   1.012   3.368   9.881 -0.1333  0.7673  0.2807
 1332SOL     OW15628   2.730   3.831   7.873 -0.1285  0.0922  0.3368
 1332SOL    HW115629   2.654   3.783   7.907  0.6669 -0.1641  1.7295
 1332SOL    HW215630   2.710   3.920   7.903  0.2963  0.3266 -0.0756
 1333SOL     OW15631   4.449   1.392   1.382 -0.0604 -0.2253 -0.2686
 1333SOL    HW115632   4.538   1.358   1.398 -0.5532 -1.6834 -0.6719
 1333SOL    HW215633   4.459   1.434   1.297 -0.2001  1.1091  0.3673
 1334SOL     OW15634   0.026   4.227  12.573 -0.1557  0.1755  0.3938
 1334SOL    HW115635   4.681   4.230  12.529  1.1025  1.2004 -1.9161
 1334SOL    HW215636   4.733   4.222  12.663  3.8120  0.2567  1.8310
 1335SOL     OW15637   0.623   2.416   5.529 -0.4944  0.0490 -0.1876
 1335SOL    HW115638   0.537   2.397   5.567 -1.8755  2.6501 -1.9957
 1335SOL    HW215639   0.662   2.470   5.597 -0.6339 -0.9549  0.6895
 1336SOL     OW15640   0.493   1.273   3.394  0.3047 -0.1967 -0.1386
 1336SOL    HW115641   0.484   1.363   3.425 -1.0368 -0.2790 -0.2828
 1336SOL    HW215642   0.557   1.240   3.456 -1.4329 -2.4150  0.5018
 1337SOL     OW15643   2.991   1.524   2.141  0.5352 -0.0152  0.3220
 1337SOL    HW115644   2.901   1.552   2.159  0.5554 -0.6205  1.4191
 1337SOL    HW215645   2.974   1.468   2.066 -1.4107  2.5931 -1.1686
 1338SOL     OW15646   1.148   3.279  11.582 -0.3992  0.2561 -0.1855
 1338SOL    HW115647   1.165   3.370  11.607 -2.0172  0.7654 -0.9173
 1338SOL    HW215648   1.138   3.295  11.488  0.2042 -1.4498 -0.5376
 1339SOL     OW15649   3.732   2.394   7.626  0.2277 -0.1626  0.6130
 1339SOL    HW115650   3.764   2.459   7.563 -2.1634  1.2075  0.7964
 1339SOL    HW215651   3.669   2.350   7.569  0.4833  1.4612 -0.9367
 1340SOL     OW15652   2.108   2.525   7.824  0.2162  0.4239 -0.3883
 1340SOL    HW115653   2.049   2.579   7.772 -3.3078 -1.1730  1.9685
 1340SOL    HW215654   2.185   2.558   7.777  2.5043 -2.7339  1.1339
 1341SOL     OW15655   3.399   1.885   3.957 -0.5496 -0.7789 -0.6076
 1341SOL    HW115656   3.373   1.857   3.870 -1.9660 -1.9653  0.2002
 1341SOL    HW215657   3.315   1.922   3.984  0.2757  1.4130 -1.0200
 1342SOL     OW15658   0.779   1.230  12.951  0.6153 -0.5655 -0.2962
 1342SOL    HW115659   0.789   1.174  12.874 -3.2069  0.0134 -1.2113
 1342SOL    HW215660   0.684   1.238  12.955  0.8487  0.9396  2.4471
 1343SOL     OW15661   1.169   0.256   1.859 -0.1824  0.0237 -0.0035
 1343SOL    HW115662   1.221   0.268   1.939 -0.4375  0.3764  0.1111
 1343SOL    HW215663   1.106   0.188   1.884 -0.9417  1.2074  1.3419
 1344SOL     OW15664   3.598   3.979   5.564  0.3928 -0.1937  0.4212
 1344SOL    HW115665   3.680   3.937   5.537  0.3864  0.7902 -1.1391
 1344SOL    HW215666   3.629   4.067   5.585  1.6488 -0.0914 -1.8350
 1345SOL     OW15667   1.921   3.353   8.045 -0.0210 -0.1794 -0.3096
 1345SOL    HW115668   1.921   3.445   8.073  3.0041  0.2463 -1.5967
 1345SOL    HW215669   1.955   3.298   8.116  0.8190  0.8866  0.1193
 1346SOL     OW15670   3.183   3.292   7.367 -0.1396 -0.2726 -0.6390
 1346SOL    HW115671   3.089   3.309   7.372  0.2731  2.1513 -1.1012
 1346SOL    HW215672   3.190   3.197   7.372 -0.5577 -0.2892 -0.3629
 1347SOL     OW15673   4.685   2.349   6.840  0.3168 -0.6390 -0.3712
 1347SOL    HW115674   4.656   2.349   6.931 -1.5630  2.9030 -0.9599
 1347SOL    HW215675   4.709   2.441   6.830  0.9252 -0.9033 -1.2643
 1348SOL     OW15676   2.794   4.652  14.680 -0.7820  0.1155  0.2956
 1348SOL    HW115677   2.841   4.685  14.756 -0.2871 -0.6395  0.3143
 1348SOL    HW215678   2.850   4.582  14.648  0.3368  0.3210  1.7918
 1349SOL     OW15679   2.667   0.683  17.492 -0.0063 -0.2680 -0.1884
 1349SOL    HW115680   2.617   0.602  17.507 -0.9331  0.8376  2.6714
 1349SOL    HW215681   2.720   0.682  17.571  0.6725  1.4450 -0.6215
 1350SOL     OW15682   3.324   1.082   8.856 -0.5743 -0.1722 -0.0563
 1350SOL    HW115683   3.348   1.022   8.927 -0.3611 -1.0823 -0.8946
 1350SOL    HW215684   3.248   1.127   8.893 -0.4583 -1.7029  2.0304
 1351SOL     OW15685   0.156   0.506   5.262  0.3499  0.3793 -0.0105
 1351SOL    HW115686   0.219   0.573   5.237  0.3741 -0.1951 -1.4544
 1351SOL    HW215687   0.102   0.521   5.184 -0.0190  2.3919  0.6259
 1352SOL     OW15688   3.229   1.168  14.367 -0.6080 -0.2429  0.2568
 1352SOL    HW115689   3.284   1.117  14.426  0.6444 -0.4826 -1.0917
 1352SOL    HW215690   3.146   1.148  14.410 -0.7102 -1.4394 -0.4990
 1353SOL     OW15691   1.747   2.614   3.590  0.2564 -0.1429  0.0198
 1353SOL    HW115692   1.779   2.637   3.678 -0.2652  0.3611  0.0770
 1353SOL    HW215693   1.820   2.632   3.531 -2.3422  1.8594 -2.5717
 1354SOL     OW15694   4.711   3.640   5.395  0.6536 -0.0952 -0.4159
 1354SOL    HW115695   4.692   3.723   5.440  1.2011  0.6399 -1.5464
 1354SOL    HW215696   0.010   3.598   5.472 -0.7465  0.1049  0.3967
 1355SOL     OW15697   3.172   3.264   9.511  0.2068  0.2611 -0.0142
 1355SOL    HW115698   3.109   3.293   9.576  0.5682  1.0391 -0.0050
 1355SOL    HW215699   3.201   3.177   9.539 -1.9966 -0.7353 -0.8516
 1356SOL     OW15700   0.041   1.380   1.287 -0.7545  0.4289  0.5773
 1356SOL    HW115701   0.020   1.442   1.357  0.8827  0.4696  1.0228
 1356SOL    HW215702   0.031   1.298   1.335 -1.8702  0.3039  0.1428
 1357SOL     OW15703   0.059   3.245  17.049 -0.3602 -0.2598 -0.1123
 1357SOL    HW115704   0.020   3.226  16.964 -0.4789  0.6438 -0.2606
 1357SOL    HW215705   0.096   3.159  17.069 -1.1419 -1.1525 -2.4893
 1358SOL     OW15706   1.725   0.935   9.411 -0.4733 -0.1420 -0.5416
 1358SOL    HW115707   1.728   0.849   9.453 -0.1242 -0.1378 -0.5592
 1358SOL    HW215708   1.794   0.927   9.345 -0.0227  1.8115 -0.2898
 1359SOL     OW15709   0.835   2.645   7.111 -0.5302 -0.2988  0.0920
 1359SOL    HW115710   0.918   2.607   7.139  0.5008  1.6600 -0.2969
 1359SOL    HW215711   0.855   2.655   7.018  1.0596  0.7093  0.5619
 1360SOL     OW15712   0.109   0.488  10.264 -0.2886  0.2362 -0.4087
 1360SOL    HW115713   0.204   0.486  10.265 -0.2537  3.5279  3.3135
 1360SOL    HW215714   0.095   0.401  10.226 -0.0060 -0.3802  0.9289
 1361SOL     OW15715   3.732   2.688   0.478 -0.0989  0.0113  0.3451
 1361SOL    HW115716   3.717   2.690   0.573  1.9598 -1.0329  0.6866
 1361SOL    HW215717   3.734   2.594   0.459 -2.5310 -0.7567  3.8621
 1362SOL     OW15718   2.312   0.926   7.799  0.0310 -0.0484 -0.4167
 1362SOL    HW115719   2.405   0.906   7.801  0.3449  1.3653 -0.6207
 1362SOL    HW215720   2.306   0.975   7.717  0.2598 -1.3177 -1.1948
 1363SOL     OW15721   1.309   0.190   7.610 -0.1772  0.3862  0.0938
 1363SOL    HW115722   1.337   0.176   7.519  1.2223 -1.1552  0.7624
 1363SOL    HW215723   1.327   0.282   7.627 -1.9629  0.9417 -1.0513
 1364SOL     OW15724   0.061   0.986   6.126 -0.0780 -0.2277  0.4171
 1364SOL    HW115725   0.054   0.955   6.216 -0.8991 -0.0454  0.4151
 1364SOL    HW215726   4.708   0.987   6.102  0.1715 -2.3191 -0.6225
 1365SOL     OW15727   3.061   2.068   6.106  0.2721  0.3110 -0.2682
 1365SOL    HW115728   3.032   2.010   6.176  1.5525 -0.3902 -0.3144
 1365SOL    HW215729   3.155   2.055   6.119  0.1231  0.7044  1.1059
 1366SOL     OW15730   1.888   1.835   8.217 -0.7677 -0.2001 -0.3469
 1366SOL    HW115731   1.803   1.812   8.178  0.3229  0.2586 -3.0002
 1366SOL    HW215732   1.932   1.890   8.153 -0.0682  0.2827  0.5600
 1367SOL     OW15733   1.002   0.146   8.609 -0.0795  0.0573  0.1455
 1367SOL    HW115734   1.018   0.073   8.670 -0.2974  0.5062  0.7425
 1367SOL    HW215735   1.074   0.208   8.622  0.4268 -0.7031  1.0180
 1368SOL     OW15736   1.258   0.122   2.195  0.3111 -0.0476 -0.1618
 1368SOL    HW115737   1.234   0.208   2.159  0.8148  0.5973  1.0323
 1368SOL    HW215738   1.353   0.127   2.182  0.4087  0.3685  0.7151
 1369SOL     OW15739   0.708   4.730   3.462  0.5140 -0.1508  0.2741
 1369SOL    HW115740   0.616   0.015   3.477 -0.1661 -1.8170 -1.0561
 1369SOL    HW215741   0.726   4.673   3.536  0.1623 -1.5414 -0.6959
 1370SOL     OW15742   1.828   0.668   7.575 -0.4066  0.1645 -0.5202
 1370SOL    HW115743   1.828   0.578   7.544 -2.0627 -0.7860  2.2274
 1370SOL    HW215744   1.833   0.711   7.490  0.5471  0.8904 -0.0951
 1371SOL     OW15745   2.511   0.700  11.961 -0.0070  0.0713  0.2671
 1371SOL    HW115746   2.504   0.643  12.037  1.4596 -2.5972 -1.5905
 1371SOL    HW215747   2.439   0.763  11.970 -0.0154  0.0240  0.5291
 1372SOL     OW15748   3.314   3.713   8.404  0.9278 -0.1266  0.2096
 1372SOL    HW115749   3.373   3.638   8.397 -0.2355 -0.9136 -1.0384
 1372SOL    HW215750   3.377   3.784   8.394  0.6134 -0.2082 -2.3756
 1373SOL     OW15751   2.016   1.125   6.243 -0.4611  0.4976 -0.4110
 1373SOL    HW115752   2.060   1.174   6.173 -2.5106 -1.5483 -3.1417
 1373SOL    HW215753   1.941   1.081   6.202 -0.7859  1.9993 -1.4437
 1374SOL     OW15754   0.884   2.764   3.881  0.3572 -0.0228 -0.7452
 1374SOL    HW115755   0.796   2.769   3.845  0.2880  0.5293 -0.5032
 1374SOL    HW215756   0.902   2.680   3.839  0.2557  0.0288 -0.8928
 1375SOL     OW15757   1.211   2.510   1.901  0.3137 -0.6798  0.0750
 1375SOL    HW115758   1.176   2.437   1.850 -2.1950  1.9202 -1.8461
 1375SOL    HW215759   1.150   2.582   1.910  0.5798 -0.4797  0.2969
 1376SOL     OW15760   2.859   3.444   5.690  0.6471 -0.1518 -0.6714
 1376SOL    HW115761   2.787   3.473   5.746  0.8466  0.6747 -0.8418
 1376SOL    HW215762   2.937   3.462   5.743  1.4283 -0.7830 -1.5962
 1377SOL     OW15763   3.706   1.276   7.883  0.6474 -0.4397 -0.0713
 1377SOL    HW115764   3.723   1.262   7.790  0.4159  2.8993 -0.6219
 1377SOL    HW215765   3.741   1.365   7.890 -1.2780  0.3101  0.1340
 1378SOL     OW15766   0.144   1.272   8.206 -0.1062  0.5625  0.3223
 1378SOL    HW115767   0.161   1.194   8.259 -1.3599 -1.6833 -2.6096
 1378SOL    HW215768   0.198   1.256   8.129 -1.0594 -1.9775  0.1995
 1379SOL     OW15769   0.262   2.590   4.648 -0.6911  0.0845  0.2796
 1379SOL    HW115770   0.237   2.631   4.565  0.7534  3.8173  1.6352
 1379SOL    HW215771   0.233   2.502   4.625 -1.2537  0.2774  0.2578
 1380SOL     OW15772   4.052   0.826   8.934 -0.2273 -0.2913  0.5267
 1380SOL    HW115773   4.090   0.795   9.016  1.0361 -0.2217 -0.0401
 1380SOL    HW215774   4.100   0.906   8.916  0.2097 -0.6412  0.1243
 1381SOL     OW15775   3.604   3.634  17.134  0.5872 -0.1051  0.1235
 1381SOL    HW115776   3.634   3.699  17.197  0.2668 -0.6543  0.8391
 1381SOL    HW215777   3.514   3.655  17.109  0.4012  1.6317  2.2775
 1382SOL     OW15778   1.547   2.600   7.465  0.1625  0.2208  0.0068
 1382SOL    HW115779   1.557   2.581   7.558  1.9297 -0.6200 -0.3447
 1382SOL    HW215780   1.452   2.601   7.456  0.1125 -0.6347  0.4118
 1383SOL     OW15781   0.500   4.054   7.247  0.7300 -0.5076  0.1293
 1383SOL    HW115782   0.451   4.121   7.295 -0.8076 -1.7080  0.2362
 1383SOL    HW215783   0.489   3.985   7.312 -0.6570 -2.0792 -1.7631
 1384SOL     OW15784   2.848   3.288   8.953 -0.1545  0.3487  0.0149
 1384SOL    HW115785   2.943   3.286   8.944 -0.1931 -1.3609  0.0569
 1384SOL    HW215786   2.840   3.366   9.009 -0.7930 -0.5725  1.2138
 1385SOL     OW15787   4.349   2.144   8.479  0.3449  0.3948  0.4125
 1385SOL    HW115788   4.296   2.075   8.439 -0.6926  0.3035  1.9423
 1385SOL    HW215789   4.440   2.115   8.464  0.4230  1.3323 -0.9841
 1386SOL     OW15790   1.206   3.776   5.510  0.4314  0.3741  0.1690
 1386SOL    HW115791   1.139   3.726   5.463  2.0574 -2.0665  0.4649
 1386SOL    HW215792   1.174   3.781   5.600  1.9352 -1.9336  0.8094
 1387SOL     OW15793   0.713   4.525   4.427 -0.8651 -0.0690 -0.0625
 1387SOL    HW115794   0.662   4.552   4.503 -1.8093  1.4260 -1.2451
 1387SOL    HW215795   0.786   4.583   4.448 -0.7979 -0.1457 -0.0847
 1388SOL     OW15796   0.856   1.096   2.443  0.4806 -0.6165 -0.3759
 1388SOL    HW115797   0.824   1.112   2.354 -0.8039 -1.9049 -0.1489
 1388SOL    HW215798   0.838   1.003   2.456  0.0841 -0.5557 -0.4691
 1389SOL     OW15799   3.701   2.384   6.055  0.6730 -0.1938 -0.0388
 1389SOL    HW115800   3.716   2.299   6.013 -1.5405 -0.1850 -0.8427
 1389SOL    HW215801   3.610   2.403   6.032  0.6564  1.7490  1.7127
 1390SOL     OW15802   3.433   2.679  12.246 -0.5776  0.3858 -0.5663
 1390SOL    HW115803   3.450   2.657  12.154  1.0580 -1.1108  0.1059
 1390SOL    HW215804   3.479   2.610  12.293  0.1712  1.1245 -0.2238
 1391SOL     OW15805   2.857   2.980  16.989 -0.0198  0.5894 -0.3170
 1391SOL    HW115806   2.920   3.042  16.954  2.3419 -2.9693 -2.3424
 1391SOL    HW215807   2.838   2.932  16.908  0.3164  1.1972 -0.7500
 1392SOL     OW15808   1.112   3.885   7.030  0.0943 -0.1043  0.0585
 1392SOL    HW115809   1.122   3.952   7.098  2.3841 -1.8326  1.4128
 1392SOL    HW215810   1.051   3.828   7.077  0.1491 -0.1969  0.0175
 1393SOL     OW15811   3.787   2.313   8.790 -0.3742 -0.1907  0.3422
 1393SOL    HW115812   3.811   2.315   8.882  0.7371 -1.1094  0.0644
 1393SOL    HW215813   3.718   2.379   8.794  0.0780  0.4674 -2.7672
 1394SOL     OW15814   1.976   2.171   7.057  0.1294 -0.1084 -0.1714
 1394SOL    HW115815   1.931   2.254   7.041  1.5497  0.5398 -0.8488
 1394SOL    HW215816   2.012   2.137   6.975 -1.7233 -2.9067  0.1655
 1395SOL     OW15817   2.282   3.910  12.331  0.0120 -0.1485 -0.1103
 1395SOL    HW115818   2.291   3.862  12.414 -1.9561 -0.7585 -0.2539
 1395SOL    HW215819   2.224   3.984  12.350 -0.5572 -1.1125  1.9340
 1396SOL     OW15820   4.517   0.651  11.442 -0.4642  0.4373  0.0132
 1396SOL    HW115821   4.544   0.561  11.422 -2.4256  0.0170 -0.7690
 1396SOL    HW215822   4.423   0.642  11.455 -0.1154 -1.7736  0.9293
 1397SOL     OW15823   0.809   0.332  14.478  0.1885  0.4148  0.1367
 1397SOL    HW115824   0.725   0.357  14.438  0.3393  1.9228  0.7652
 1397SOL    HW215825   0.861   0.393  14.427  1.2403  0.5224  1.3296
 1398SOL     OW15826   4.212   3.183   6.128 -0.4681  0.5848  0.1409
 1398SOL    HW115827   4.224   3.125   6.203 -0.5695  0.4810  0.0754
 1398SOL    HW215828   4.141   3.139   6.081  1.6313  0.3460 -2.8148
 1399SOL     OW15829   4.260   0.451   2.182  0.1418 -0.1341  0.0823
 1399SOL    HW115830   4.334   0.391   2.172  0.3895  0.1688  0.0947
 1399SOL    HW215831   4.298   0.499   2.257 -1.3538  1.5262 -0.2107
 1400SOL     OW15832   0.638   4.215   7.790 -0.0864  0.4624  0.4222
 1400SOL    HW115833   0.661   4.278   7.722 -1.3060  1.7860  1.2312
 1400SOL    HW215834   0.718   4.165   7.806 -1.1757 -2.1997 -2.5892
 1401SOL     OW15835   1.519   3.008   3.824 -0.1213  0.0985 -0.2672
 1401SOL    HW115836   1.577   2.974   3.892 -0.7188  2.8358  1.6286
 1401SOL    HW215837   1.497   2.922   3.789 -1.2494  0.3322 -0.1330
 1402SOL     OW15838   1.329   3.182  14.111  0.6587 -0.3695  0.1225
 1402SOL    HW115839   1.269   3.242  14.066  2.3433  1.9670  1.0642
 1402SOL    HW215840   1.269   3.107  14.113 -0.3169  0.4010  0.1366
 1403SOL     OW15841   1.680   3.920   2.630  0.3205  0.1690  0.1449
 1403SOL    HW115842   1.607   3.897   2.688 -0.8636 -0.0984 -1.4475
 1403SOL    HW215843   1.690   3.844   2.572 -0.5291 -1.1128  1.6709
 1404SOL     OW15844   4.731   1.694   3.524  0.8741  0.5211  0.1492
 1404SOL    HW115845   4.644   1.696   3.565 -1.3573 -0.7698 -4.5337
 1404SOL    HW215846   0.038   1.758   3.578 -1.6092  1.0391  1.6757
 1405SOL     OW15847   4.528   4.513   7.840  0.3352  0.0922  0.1471
 1405SOL    HW115848   4.489   4.430   7.812  1.9557 -0.7620  0.4202
 1405SOL    HW215849   4.604   4.474   7.883  0.3468  0.1001  0.1338
 1406SOL     OW15850   0.818   3.501   6.251  0.5485 -0.2514 -0.1389
 1406SOL    HW115851   0.867   3.484   6.331 -0.8409 -1.1779  0.5113
 1406SOL    HW215852   0.748   3.553   6.291 -0.5880 -1.0508 -1.0758
 1407SOL     OW15853   2.716   2.003  10.397  0.0342 -0.3945  0.0316
 1407SOL    HW115854   2.721   1.919  10.351 -2.1170 -0.8597  0.6345
 1407SOL    HW215855   2.702   2.061  10.322  0.5091 -1.3047 -0.7548
 1408SOL     OW15856   1.508   3.310  10.340 -0.0170  0.6097  0.0624
 1408SOL    HW115857   1.580   3.353  10.295  0.6421 -0.7703 -0.2045
 1408SOL    HW215858   1.555   3.282  10.419  0.5280 -0.2041 -0.5579
 1409SOL     OW15859   3.506   1.006   7.011  0.2892 -0.3443  0.7248
 1409SOL    HW115860   3.501   0.981   6.919 -2.3363 -0.8099  1.0187
 1409SOL    HW215861   3.557   0.935   7.051  2.1075 -0.2508 -1.4239
 1410SOL     OW15862   1.113   1.211  16.242  0.1163  0.3096  0.8320
 1410SOL    HW115863   1.188   1.154  16.257 -0.0023  0.2489  1.1779
 1410SOL    HW215864   1.110   1.228  16.148  0.1232  3.0653  1.3171
 1411SOL     OW15865   0.907   0.220  15.389  0.1589  0.0367 -0.0030
 1411SOL    HW115866   0.863   0.273  15.322 -3.2560 -1.1891  1.2525
 1411SOL    HW215867   0.863   0.242  15.471  0.4310  0.3005  0.0715
 1412SOL     OW15868   1.324   0.068   2.467  0.3817 -0.3114 -0.5321
 1412SOL    HW115869   1.236   0.057   2.503  0.8991  1.2628  1.2562
 1412SOL    HW215870   1.322   0.060   2.372  2.1458 -1.1793 -0.5064
 1413SOL     OW15871   0.137   3.428   7.087  0.0425  0.1183  0.2678
 1413SOL    HW115872   0.092   3.447   7.170  0.0677 -0.4990  0.4189
 1413SOL    HW215873   0.227   3.415   7.120 -0.9504 -1.6211  2.2912
 1414SOL     OW15874   0.767   2.623  14.077 -0.8105 -0.4454  0.3521
 1414SOL    HW115875   0.770   2.663  13.990  1.2438  0.3192  0.7931
 1414SOL    HW215876   0.704   2.679  14.122  0.5998  1.6049 -0.2230
 1415SOL     OW15877   3.944   0.260  15.445 -0.4652 -0.2823 -0.2170
 1415SOL    HW115878   4.024   0.221  15.410 -0.2948 -1.2422  1.2710
 1415SOL    HW215879   3.895   0.291  15.368  2.9082  2.9667 -1.0321
 1416SOL     OW15880   0.291   0.756   8.506 -0.0935 -0.3056  0.5548
 1416SOL    HW115881   0.309   0.676   8.457  0.4342 -0.6800  1.3798
 1416SOL    HW215882   0.352   0.740   8.578  0.2784 -1.6986 -0.0754
 1417SOL     OW15883   3.622   0.631   7.534  0.4481 -0.1204 -0.0156
 1417SOL    HW115884   3.709   0.671   7.529 -0.0797  1.0090 -0.2935
 1417SOL    HW215885   3.621   0.622   7.629 -0.7992 -0.3297 -0.0430
 1418SOL     OW15886   0.971   3.258   4.172  0.2742  0.3860 -0.1368
 1418SOL    HW115887   1.040   3.214   4.221  0.9783  1.4316 -0.1770
 1418SOL    HW215888   0.988   3.352   4.181 -0.1272  0.4749 -0.3141
 1419SOL     OW15889   3.955   4.167  13.642 -0.2163  0.0011  0.6297
 1419SOL    HW115890   3.925   4.215  13.719 -0.9524  0.8862 -0.1993
 1419SOL    HW215891   4.050   4.177  13.640 -0.0502 -1.5835 -0.0313
 1420SOL     OW15892   2.104   2.553   4.389  0.2995  0.9166  0.5836
 1420SOL    HW115893   2.141   2.623   4.334  1.6707 -0.7488 -0.6452
 1420SOL    HW215894   2.011   2.547   4.367  0.2755  2.0127  0.3743
 1421SOL     OW15895   1.279   3.782   7.346  0.1023 -0.0817 -0.4585
 1421SOL    HW115896   1.211   3.834   7.303 -0.0158  0.7443  0.7187
 1421SOL    HW215897   1.288   3.838   7.424 -0.3950 -0.9761  0.2338
 1422SOL     OW15898   4.686   1.127   5.316 -0.1653 -0.1832 -0.0424
 1422SOL    HW115899   4.621   1.138   5.385 -2.1196 -0.2745 -1.8649
 1422SOL    HW215900   4.629   1.103   5.243  2.0739 -0.4683 -1.6934
 1423SOL     OW15901   1.442   3.590   6.042 -0.1688 -0.0546  0.2980
 1423SOL    HW115902   1.353   3.555   6.046  0.0178 -0.2659  2.4967
 1423SOL    HW215903   1.446   3.590   5.946  2.1564 -1.4477  0.4012
 1424SOL     OW15904   3.355   2.199   3.531 -1.0595  0.1868  0.0790
 1424SOL    HW115905   3.358   2.237   3.619 -4.7694 -0.0032  0.2856
 1424SOL    HW215906   3.381   2.107   3.539  0.2433  0.3932 -1.6440
 1425SOL     OW15907   0.463   0.457  17.564  0.4176  0.0042 -0.2568
 1425SOL    HW115908   0.369   0.469  17.557  0.2572 -0.0705  2.0170
 1425SOL    HW215909   0.477   0.389  17.630 -1.0569  0.3873  0.4429
 1426SOL     OW15910   1.362   0.601  15.853 -0.5118  0.4815 -0.2922
 1426SOL    HW115911   1.453   0.572  15.840 -0.4571 -0.2523  1.6251
 1426SOL    HW215912   1.341   0.544  15.927  0.6817 -1.2898 -1.3084
 1427SOL     OW15913   1.091   1.935  14.654  0.1988 -0.2534  0.4696
 1427SOL    HW115914   1.048   1.866  14.605 -1.4444 -0.2373  1.8559
 1427SOL    HW215915   1.031   2.005  14.628  2.3834  1.5638  0.2857
 1428SOL     OW15916   4.595   3.586   4.296 -0.5714  0.1346 -0.2698
 1428SOL    HW115917   4.524   3.548   4.244  0.6365 -1.2432 -0.9274
 1428SOL    HW215918   4.624   3.502   4.331  0.0235  1.1746  1.7172
 1429SOL     OW15919   0.591   4.484  13.790 -0.1784  0.6901 -0.0700
 1429SOL    HW115920   0.539   4.413  13.827  0.5941  1.1836  1.9464
 1429SOL    HW215921   0.567   4.480  13.697  2.0085 -0.9491 -0.5424
 1430SOL     OW15922   0.231   1.810  10.966 -0.0076  0.9891  0.4577
 1430SOL    HW115923   0.210   1.903  10.957  1.5290  1.3663  0.8768
 1430SOL    HW215924   0.239   1.775  10.877 -1.4116  1.0034  0.3234
 1431SOL     OW15925   0.784   2.029   7.832  0.5850 -0.6145  0.1642
 1431SOL    HW115926   0.747   2.088   7.897  0.8326 -0.6381  0.3245
 1431SOL    HW215927   0.827   1.958   7.880 -0.3363 -0.2163  1.5654
 1432SOL     OW15928   0.320   1.202   7.010  0.0644  0.1005  0.1748
 1432SOL    HW115929   0.388   1.134   7.018 -0.9224 -0.6868  1.9170
 1432SOL    HW215930   0.294   1.215   7.101 -0.4378  2.2043 -0.2760
 1433SOL     OW15931   0.191   3.549   7.980  0.1949 -0.1077  0.2361
 1433SOL    HW115932   0.162   3.602   8.053 -1.6678 -2.4785  1.2188
 1433SOL    HW215933   0.150   3.463   7.991  0.1298 -0.6126 -3.8923
 1434SOL     OW15934   4.384   2.753   2.828  0.4670 -0.4137 -0.0358
 1434SOL    HW115935   4.416   2.697   2.900  0.2468 -0.6315 -0.1086
 1434SOL    HW215936   4.385   2.834   2.878 -0.8335  0.7024 -1.8287
 1435SOL     OW15937   2.951   2.405   3.293  0.0331 -0.5291  0.0615
 1435SOL    HW115938   2.985   2.365   3.213 -0.5982 -0.7440 -0.1007
 1435SOL    HW215939   2.859   2.419   3.270 -0.4012 -0.9792  1.5194
 1436SOL     OW15940   3.754   1.563   8.570 -0.2359  0.0862 -0.0502
 1436SOL    HW115941   3.727   1.523   8.486  0.3908 -1.1830  0.3574
 1436SOL    HW215942   3.707   1.646   8.567  0.5690  0.5122 -0.7279
 1437SOL     OW15943   2.299   2.233   6.663  0.3464 -0.4051 -0.0436
 1437SOL    HW115944   2.346   2.275   6.735  0.6758 -2.6427  1.0354
 1437SOL    HW215945   2.324   2.293   6.592 -1.1421 -1.2591 -1.2903
 1438SOL     OW15946   3.991   1.894   5.226  0.3731 -0.1358  0.5776
 1438SOL    HW115947   3.954   1.919   5.141  1.5258 -0.4103 -0.0016
 1438SOL    HW215948   3.920   1.847   5.269 -1.9891  0.8458 -2.2439
 1439SOL     OW15949   3.365   2.809   2.334  0.2889  0.1820  0.4772
 1439SOL    HW115950   3.406   2.820   2.420 -0.5251  0.9806  0.7648
 1439SOL    HW215951   3.401   2.884   2.287 -1.4827  2.6190  2.9672
 1440SOL     OW15952   3.589   0.313   3.621  0.0560 -0.3668  0.4616
 1440SOL    HW115953   3.531   0.273   3.556 -0.4847 -0.3929  0.9561
 1440SOL    HW215954   3.642   0.359   3.556  0.9874 -2.9684 -0.5825
 1441SOL     OW15955   0.833   0.381   2.671 -0.0369 -0.0268  0.4490
 1441SOL    HW115956   0.882   0.384   2.588  0.7030 -0.0460  0.8872
 1441SOL    HW215957   0.753   0.429   2.648 -2.0382 -2.6156  2.0290
 1442SOL     OW15958   1.580   0.787   1.807 -0.0501  0.5266  0.0706
 1442SOL    HW115959   1.638   0.713   1.790  0.4369  0.7242  0.8997
 1442SOL    HW215960   1.633   0.858   1.843  1.6126 -0.5690 -0.2410
 1443SOL     OW15961   0.317   1.971   8.567 -0.3138 -0.4561  0.2200
 1443SOL    HW115962   0.410   1.990   8.556  0.3325 -2.6154  1.9802
 1443SOL    HW215963   0.322   1.876   8.584  0.4730 -0.3636  0.5282
 1444SOL     OW15964   3.132   4.685   0.547  0.0853 -0.1453  0.4291
 1444SOL    HW115965   3.214   4.669   0.501  0.2477  0.6918  0.4418
 1444SOL    HW215966   3.169   4.721   0.628  2.1308  0.1491 -0.6356
 1445SOL     OW15967   0.008   3.977   2.208  0.5093 -0.3696 -0.1063
 1445SOL    HW115968   4.735   3.909   2.275 -1.9772 -1.0899 -1.3021
 1445SOL    HW215969   4.657   4.006   2.209  0.6176 -0.0011 -0.9259
 1446SOL     OW15970   2.224   2.417  10.283 -0.2122 -0.3786  0.4929
 1446SOL    HW115971   2.281   2.494  10.288 -0.4383 -0.0273 -1.9231
 1446SOL    HW215972   2.275   2.352  10.234 -0.2338 -1.0304  1.3518
 1447SOL     OW15973   2.783   3.181   6.453 -0.2340 -0.7433  0.8345
 1447SOL    HW115974   2.864   3.231   6.442  0.6785 -1.4464  4.1926
 1447SOL    HW215975   2.727   3.209   6.381  0.2183 -4.0344 -0.7897
 1448SOL     OW15976   4.730   0.996   2.067 -0.8388  0.4739  0.4229
 1448SOL    HW115977   4.651   1.045   2.044  0.3479  2.2873  0.1603
 1448SOL    HW215978   4.697   0.907   2.069  0.3352  0.0309 -0.0662
 1449SOL     OW15979   2.637   1.337  11.498  0.3485  0.2507  0.3091
 1449SOL    HW115980   2.572   1.407  11.510 -0.0694  0.2820 -2.0784
 1449SOL    HW215981   2.655   1.352  11.405  2.5358 -0.4248  0.6215
 1450SOL     OW15982   2.056   4.334  15.321 -0.0778 -0.5095 -0.5735
 1450SOL    HW115983   2.127   4.316  15.383  0.2665 -0.5293 -0.9791
 1450SOL    HW215984   2.035   4.426  15.335  0.7377 -0.4352  0.1550
 1451SOL     OW15985   4.521   0.329   1.961 -0.3538 -0.2325 -0.7738
 1451SOL    HW115986   4.543   0.243   1.996 -3.9627 -0.2587  1.3955
 1451SOL    HW215987   4.437   0.302   1.926 -0.3294 -1.6413  0.2442
 1452SOL     OW15988   2.569   0.470   1.716  0.0839 -0.4197  0.0898
 1452SOL    HW115989   2.540   0.451   1.627 -0.1846  1.3007 -0.1889
 1452SOL    HW215990   2.488   0.475   1.767  0.5792  0.6805  0.7550
 1453SOL     OW15991   1.102   1.523   4.855 -0.2111 -0.1525 -0.0832
 1453SOL    HW115992   1.046   1.568   4.919  0.5702  2.1357 -1.0149
 1453SOL    HW215993   1.114   1.590   4.787 -0.1119 -0.2770 -0.1870
 1454SOL     OW15994   3.465   1.059  14.708  0.0283  0.2785  0.0050
 1454SOL    HW115995   3.438   1.112  14.784  0.1955  2.8480 -1.7260
 1454SOL    HW215996   3.479   0.974  14.750  0.9193  0.1572 -0.5477
 1455SOL     OW15997   2.245   4.731   2.885 -0.0416 -0.6598 -0.2550
 1455SOL    HW115998   2.290   4.737   2.801  0.0323  0.6269 -0.1218
 1455SOL    HW215999   2.207   4.644   2.880  0.5277 -1.0467  1.9068
 1456SOL     OW16000   3.470   1.068   7.374  0.5876 -0.3791 -0.0491
 1456SOL    HW116001   3.403   1.103   7.434 -0.6774  1.7601 -2.7159
 1456SOL    HW216002   3.423   0.995   7.334 -1.2605  1.6170 -1.5634
 1457SOL     OW16003   0.369   2.403   5.656  0.3423 -0.0081  0.1369
 1457SOL    HW116004   0.315   2.378   5.580 -0.1668  0.9427  0.1837
 1457SOL    HW216005   0.295   2.421   5.714 -0.5704 -1.2180 -0.6379
 1458SOL     OW16006   4.203   4.021  10.338  0.4339 -0.0696 -0.2927
 1458SOL    HW116007   4.223   4.029  10.245  1.2989 -0.1774 -0.1169
 1458SOL    HW216008   4.210   4.113  10.364 -0.0924 -0.1664  0.2009
 1459SOL     OW16009   4.240   3.271  10.567  0.3031 -0.5391 -0.2787
 1459SOL    HW116010   4.216   3.240  10.655  0.2010  3.1623  0.9860
 1459SOL    HW216011   4.330   3.302  10.576  0.0815  0.6124 -2.0693
 1460SOL     OW16012   1.235   0.071  16.247 -0.8043  0.3653 -0.2471
 1460SOL    HW116013   1.152   0.048  16.205 -0.8019 -1.7376  0.8975
 1460SOL    HW216014   1.292   0.008  16.202  0.4673  1.0032  0.4650
 1461SOL     OW16015   0.991   1.811   6.375 -0.0183  0.4060  0.8611
 1461SOL    HW116016   0.951   1.858   6.302  3.1644 -0.2094 -1.2594
 1461SOL    HW216017   1.077   1.853   6.368 -1.4009  3.7263  3.2041
 1462SOL     OW16018   2.746   2.573   6.854  0.5013  0.2890  0.3105
 1462SOL    HW116019   2.826   2.623   6.871 -0.5330  1.0254  2.9313
 1462SOL    HW216020   2.721   2.562   6.946  0.8447 -0.3469  0.3301
 1463SOL     OW16021   2.843   4.515  15.466  0.8318  0.2915  0.1220
 1463SOL    HW116022   2.747   4.520  15.466  0.7834 -0.6467 -0.0617
 1463SOL    HW216023   2.877   4.588  15.519  1.8518 -0.3321  0.3343
 1464SOL     OW16024   1.875   3.837   5.007 -0.4118  0.1092 -0.0985
 1464SOL    HW116025   1.931   3.861   4.933  0.1071  1.0486  0.5910
 1464SOL    HW216026   1.786   3.862   4.982 -0.7485 -0.5019  0.5054
 1465SOL     OW16027   3.238   2.668   7.374  0.5202 -0.1554 -0.0256
 1465SOL    HW116028   3.223   2.612   7.298  0.4196 -0.5376  0.2708
 1465SOL    HW216029   3.334   2.674   7.373  0.3791  1.6769 -1.6251
 1466SOL     OW16030   3.586   0.045   5.473 -0.3770  0.0813 -0.3472
 1466SOL    HW116031   3.562   0.070   5.562 -1.4651  3.2299 -1.5589
 1466SOL    HW216032   3.640   0.123   5.463 -1.6953  1.1219  0.6476
 1467SOL     OW16033   0.147   1.977   5.433 -0.0116  0.3290 -0.1070
 1467SOL    HW116034   0.129   1.915   5.362 -0.1513 -2.1857  2.1159
 1467SOL    HW216035   0.176   2.047   5.376  2.2449  0.1697  0.8594
 1468SOL     OW16036   1.737   4.100   1.516  0.0158  0.7221 -0.3349
 1468SOL    HW116037   1.757   4.148   1.596 -2.2629 -0.1344  0.7510
 1468SOL    HW216038   1.645   4.077   1.526 -0.0308  0.8795 -0.4098
 1469SOL     OW16039   3.924   4.058   2.349  0.1128  0.0257 -0.3870
 1469SOL    HW116040   3.851   4.092   2.297  0.2626 -0.2221 -0.7632
 1469SOL    HW216041   3.870   4.047   2.427 -1.7327  2.9353 -1.2859
 1470SOL     OW16042   1.740   4.465   3.062  0.1983  0.4632 -0.0236
 1470SOL    HW116043   1.748   4.449   2.968  0.7149  1.2664 -0.1216
 1470SOL    HW216044   1.767   4.557   3.069  0.1672  0.4642  0.0847
 1471SOL     OW16045   0.380   0.516  10.329 -0.0470  0.0323  0.0240
 1471SOL    HW116046   0.440   0.581  10.293 -0.8754 -0.2163 -1.8525
 1471SOL    HW216047   0.437   0.439  10.337 -0.6223 -0.4303 -0.2865
 1472SOL     OW16048   4.268   1.647   8.534 -0.5367  0.0503 -0.3765
 1472SOL    HW116049   4.194   1.682   8.584 -1.2503 -0.9281 -0.7504
 1472SOL    HW216050   4.331   1.718   8.519 -3.1692  2.3631 -0.6650
 1473SOL     OW16051   4.359   0.921   4.845  0.1480 -0.5265  0.1241
 1473SOL    HW116052   4.394   0.832   4.843  2.9550  0.5375  0.9338
 1473SOL    HW216053   4.267   0.913   4.823 -0.0023  0.1693  0.5028
 1474SOL     OW16054   3.095   2.893  16.353  0.0602  0.1370  0.0370
 1474SOL    HW116055   3.123   2.893  16.444  0.4425  2.0140 -0.0843
 1474SOL    HW216056   3.015   2.842  16.353 -0.6567  1.2725 -0.0274
 1475SOL     OW16057   4.471   3.326   7.827 -0.2699  0.1860  0.0408
 1475SOL    HW116058   4.411   3.332   7.752  2.3041 -1.7873 -2.1885
 1475SOL    HW216059   4.504   3.238   7.813 -4.4259 -1.3244 -0.2533
 1476SOL     OW16060   1.990   0.028   8.694  0.9387 -0.0011  0.0470
 1476SOL    HW116061   2.078   0.051   8.666  0.9733  1.8987  1.7602
 1476SOL    HW216062   1.943   0.017   8.611  1.2661 -3.4295  0.3227
 1477SOL     OW16063   0.087   3.251   2.150  0.1872  0.0353 -0.2577
 1477SOL    HW116064   0.165   3.242   2.094  0.2283 -0.9019 -0.0535
 1477SOL    HW216065   0.058   3.161   2.163  0.8204 -0.0920  0.2696
 1478SOL     OW16066   0.059   3.688   4.631 -0.1907  0.3290 -0.7257
 1478SOL    HW116067   0.093   3.754   4.691 -1.9721 -0.5200  1.2401
 1478SOL    HW216068   0.057   3.613   4.691 -0.1595 -0.5743 -1.8565
 1479SOL     OW16069   0.990   4.441   3.124 -0.4123  0.0013  0.0879
 1479SOL    HW116070   1.052   4.475   3.189  1.4877 -1.2098 -1.0814
 1479SOL    HW216071   0.959   4.362   3.167 -1.8132 -0.2865 -1.4505
 1480SOL     OW16072   2.410   1.227   1.444  0.3394  0.2037 -0.6235
 1480SOL    HW116073   2.379   1.242   1.355 -1.0740 -1.1002 -0.3395
 1480SOL    HW216074   2.392   1.134   1.460 -0.0808  0.3314 -0.3580
 1481SOL     OW16075   3.375   3.498   9.190  0.6770  0.0222 -0.1070
 1481SOL    HW116076   3.448   3.484   9.250 -1.3901 -1.4493  2.1014
 1481SOL    HW216077   3.314   3.548   9.244  1.2139 -1.3725  1.8073
 1482SOL     OW16078   1.620   0.528   6.727  0.5405 -0.6263  0.8749
 1482SOL    HW116079   1.698   0.572   6.762  1.0452 -0.0316 -1.0037
 1482SOL    HW216080   1.570   0.597   6.684 -0.0143 -1.1424  0.6866
 1483SOL     OW16081   2.885   2.671  17.397  0.3199 -1.0322  0.0015
 1483SOL    HW116082   2.893   2.724  17.318  0.0137  2.0090  2.0149
 1483SOL    HW216083   2.794   2.695  17.412  0.4588 -0.1015 -0.7041
 1484SOL     OW16084   2.687   3.243   2.116 -0.4176 -0.0785 -0.0026
 1484SOL    HW116085   2.759   3.302   2.140 -0.4759 -0.1434  0.3366
 1484SOL    HW216086   2.723   3.205   2.036  0.2928 -1.7782  1.1155
 1485SOL     OW16087   4.072   4.228   1.506 -0.5577 -0.5080  0.4236
 1485SOL    HW116088   4.006   4.235   1.438  0.3737  2.2411 -0.2158
 1485SOL    HW216089   4.103   4.139   1.489 -1.1762 -0.7540  0.5930
 1486SOL     OW16090   4.659   0.693  13.814  0.5786 -0.2442 -0.0141
 1486SOL    HW116091   4.714   0.634  13.865  0.4420 -1.5780 -1.4295
 1486SOL    HW216092   4.615   0.737  13.887  0.5659  1.1505 -0.8523
 1487SOL     OW16093   3.496   2.219   8.178  0.4497  0.0890  0.2774
 1487SOL    HW116094   3.413   2.263   8.196  0.7050  1.2468 -1.4332
 1487SOL    HW216095   3.553   2.280   8.225  1.6147  1.5048 -3.0396
 1488SOL     OW16096   3.955   2.443   2.591 -0.1388 -0.0507  0.1379
 1488SOL    HW116097   3.992   2.526   2.622  0.6091 -0.3117 -0.0506
 1488SOL    HW216098   3.892   2.482   2.531  1.7308  1.2827 -0.9786
 1489SOL     OW16099   2.809   3.939   9.858 -0.8175 -0.1512 -0.2861
 1489SOL    HW116100   2.864   3.906   9.929 -0.2277 -0.1398 -0.7424
 1489SOL    HW216101   2.870   3.959   9.787 -0.5304  0.9226  0.2657
 1490SOL     OW16102   3.185   3.118  14.702 -0.6157  0.4605  0.2880
 1490SOL    HW116103   3.264   3.065  14.713 -1.2845 -0.2868  1.5002
 1490SOL    HW216104   3.116   3.052  14.705 -1.2894  1.1619  0.3009
 1491SOL     OW16105   0.438   0.003   9.630  0.3930 -0.1088  0.4333
 1491SOL    HW116106   0.356   0.052   9.623  1.2296  0.8184 -2.4884
 1491SOL    HW216107   0.489   0.076   9.665 -2.1877  1.1137  1.6735
 1492SOL     OW16108   4.736   1.675  17.473 -0.1745 -0.4196 -0.2240
 1492SOL    HW116109   4.680   1.707  17.544 -1.3031  1.9363 -2.1778
 1492SOL    HW216110   0.062   1.745  17.468 -0.9697  0.2872 -0.6685
 1493SOL     OW16111   0.586   3.907   3.455 -0.1580 -0.4795  0.2792
 1493SOL    HW116112   0.681   3.921   3.462 -0.3214  1.4285 -1.2989
 1493SOL    HW216113   0.559   3.998   3.439 -0.5797 -0.3470  1.7337
 1494SOL     OW16114   2.831   3.253   2.497 -0.0573 -0.1003  0.4493
 1494SOL    HW116115   2.762   3.314   2.523  0.1252  0.3675 -0.1704
 1494SOL    HW216116   2.856   3.221   2.584  0.2419  0.3888  0.5403
 1495SOL     OW16117   2.008   0.063   9.592  0.0943  0.4607 -0.0726
 1495SOL    HW116118   1.922   0.021   9.604  0.3561  0.5375  2.0503
 1495SOL    HW216119   1.995   0.131   9.658 -0.1694 -1.7303  2.1516
 1496SOL     OW16120   4.341   0.220  16.748 -0.4735 -1.0751  0.4026
 1496SOL    HW116121   4.273   0.202  16.683 -2.0741  1.1536  1.4415
 1496SOL    HW216122   4.284   0.270  16.807  0.0212 -0.6118  0.4820
 1497SOL     OW16123   0.787   3.995   5.421 -0.6705  0.1207 -0.5174
 1497SOL    HW116124   0.775   4.052   5.345 -0.7494 -1.0237 -1.3794
 1497SOL    HW216125   0.880   3.976   5.415 -0.9643 -0.9738 -1.6888
 1498SOL     OW16126   2.538   3.422   8.604  0.0267 -0.2921  0.6338
 1498SOL    HW116127   2.603   3.353   8.613  1.6655  1.1800  0.1922
 1498SOL    HW216128   2.561   3.481   8.677 -0.8177  1.6254 -0.6383
 1499SOL     OW16129   0.475   0.664  17.298  0.5972 -0.1388 -0.7389
 1499SOL    HW116130   0.421   0.717  17.356  0.4612  0.2609 -1.2294
 1499SOL    HW216131   0.444   0.687  17.210  0.5396  0.0678 -0.6644
 1500SOL     OW16132   1.639   4.560   6.033 -0.0527  0.6146 -0.0222
 1500SOL    HW116133   1.617   4.471   6.005  0.9121 -0.5049  2.6912
 1500SOL    HW216134   1.688   4.594   5.958 -2.1224  0.0176 -1.6462
 1501SOL     OW16135   2.099   0.321   8.885  0.0536 -0.0784  0.5034
 1501SOL    HW116136   2.040   0.323   8.961  2.1783 -0.5608  2.1567
 1501SOL    HW216137   2.133   0.410   8.886 -2.5538  0.9310 -0.4660
 1502SOL     OW16138   3.143   4.127   1.698  0.1622 -0.9427  0.2393
 1502SOL    HW116139   3.087   4.055   1.726 -0.9310 -0.6757 -1.2300
 1502SOL    HW216140   3.095   4.159   1.621  1.0568 -1.5495 -0.5620
 1503SOL     OW16141   3.744   1.946   8.165  0.4109  0.2732  0.4930
 1503SOL    HW116142   3.823   1.906   8.201  1.5338  0.0805 -2.1542
 1503SOL    HW216143   3.685   1.929   8.238  0.6558 -0.1380  0.5985
 1504SOL     OW16144   1.867   4.587   2.007 -0.0524  0.5366 -0.0058
 1504SOL    HW116145   1.891   4.539   1.927 -1.3862 -2.0630  1.1614
 1504SOL    HW216146   1.842   4.510   2.058  3.1111 -1.6974 -1.8440
 1505SOL     OW16147   3.794   2.634   6.104  0.5114  0.2498  0.4345
 1505SOL    HW116148   3.773   2.541   6.101  0.2542  0.2967  0.6950
 1505SOL    HW216149   3.857   2.638   6.175  1.6766 -1.0004 -0.5284
 1506SOL     OW16150   4.247   4.259   7.327 -0.1567 -0.2713 -0.3554
 1506SOL    HW116151   4.281   4.342   7.359 -2.0689  0.0717  0.7737
 1506SOL    HW216152   4.312   4.228   7.264  0.7297 -0.4969  0.6812
 1507SOL     OW16153   2.698   2.599  10.031 -0.1862 -0.4653 -0.0878
 1507SOL    HW116154   2.673   2.666  10.094 -3.0038 -0.5992 -1.0834
 1507SOL    HW216155   2.615   2.581   9.988 -0.0497  0.4527 -0.7692
 1508SOL     OW16156   1.350   2.826  17.199 -0.8619  0.0158  0.4424
 1508SOL    HW116157   1.308   2.860  17.120  2.1148  1.5841 -0.4341
 1508SOL    HW216158   1.320   2.735  17.194 -1.6871  0.4674 -3.0409
 1509SOL     OW16159   2.334   2.744   6.875 -0.1942 -0.2620 -0.2653
 1509SOL    HW116160   2.423   2.748   6.841 -0.2025  0.6346 -0.1786
 1509SOL    HW216161   2.347   2.666   6.928 -1.0820 -0.3836 -0.2280
 1510SOL     OW16162   0.795   1.586   1.623 -0.1436  0.4685  0.0573
 1510SOL    HW116163   0.781   1.527   1.697 -1.4041  0.0248 -0.5291
 1510SOL    HW216164   0.705   1.611   1.600 -0.7063 -0.4287  1.2812
 1511SOL     OW16165   1.680   2.412   8.312  0.2209  0.2325 -0.4077
 1511SOL    HW116166   1.632   2.330   8.328  0.5190 -0.4509 -2.8641
 1511SOL    HW216167   1.653   2.459   8.390  0.2963  0.1155 -0.3111
 1512SOL     OW16168   3.772   0.945   5.336  0.1588  0.4389 -0.4530
 1512SOL    HW116169   3.841   0.893   5.378 -1.9907 -1.5582  0.6180
 1512SOL    HW216170   3.822   0.955   5.254  0.1167  1.3688 -0.3579
 1513SOL     OW16171   3.872   4.191   3.734 -0.1534 -0.1427  0.4156
 1513SOL    HW116172   3.787   4.215   3.696  0.1676 -0.8313 -0.7539
 1513SOL    HW216173   3.891   4.260   3.797 -0.1767  0.8714 -0.6802
 1514SOL     OW16174   2.900   1.841   0.194 -0.3860  0.2978  1.0279
 1514SOL    HW116175   2.987   1.874   0.214 -1.0903  2.7157  0.1651
 1514SOL    HW216176   2.907   1.746   0.205  1.8940  0.5707  1.7556
 1515SOL     OW16177   0.198   2.443  17.738 -0.1706 -0.4963  0.0422
 1515SOL    HW116178   0.267   2.390   0.025  0.5930 -1.0132 -1.8394
 1515SOL    HW216179   0.167   2.485   0.062  3.0640 -2.0461  2.1330
 1516SOL     OW16180   2.704   3.628   4.970  0.2885  0.6323 -0.0632
 1516SOL    HW116181   2.798   3.621   4.951 -0.0212 -0.3063 -1.2702
 1516SOL    HW216182   2.696   3.582   5.054  1.2781  1.1077  0.2968
 1517SOL     OW16183   3.415   1.583   6.703 -0.0259  0.1113 -0.0285
 1517SOL    HW116184   3.367   1.610   6.625  0.2161 -0.8853 -0.5210
 1517SOL    HW216185   3.499   1.581   6.657  0.5682  2.2548  0.9689
 1518SOL     OW16186   3.497   2.990   6.041  0.0867 -0.6654  0.6531
 1518SOL    HW116187   3.516   2.951   5.955  1.1089  0.4160  0.3792
 1518SOL    HW216188   3.495   2.905   6.084  1.5636 -0.6580  0.7458
 1519SOL     OW16189   3.623   0.779   8.327 -0.3087  0.0509  0.3526
 1519SOL    HW116190   3.582   0.730   8.398 -0.2657 -1.3171 -0.5808
 1519SOL    HW216191   3.601   0.868   8.355  2.7838  0.6509  0.8710
 1520SOL     OW16192   3.352   0.744   7.619  0.1852  0.2411  0.1481
 1520SOL    HW116193   3.329   0.687   7.692 -1.5072 -0.2852 -0.8006
 1520SOL    HW216194   3.427   0.780   7.665  0.2574  1.4526 -0.9253
 1521SOL     OW16195   3.872   4.426  17.688  0.0471 -0.0855  0.1841
 1521SOL    HW116196   3.920   4.440  17.606  0.1949 -0.6435  0.1757
 1521SOL    HW216197   3.858   4.519  17.706 -1.3857  0.0216 -1.4648
 1522SOL     OW16198   2.957   3.249   9.692  0.5705  0.3292 -0.0759
 1522SOL    HW116199   2.921   3.174   9.740 -1.6103 -0.2937 -2.7098
 1522SOL    HW216200   2.932   3.320   9.752 -1.9094  0.3793 -1.1864
 1523SOL     OW16201   3.557   2.053   2.973 -0.3400  0.0607  0.5164
 1523SOL    HW116202   3.564   2.036   2.879  1.6180 -0.7392  0.8211
 1523SOL    HW216203   3.647   2.073   2.994  1.0683 -2.1816 -3.2430
 1524SOL     OW16204   2.785   4.324  10.292  0.2927 -0.1168  0.3764
 1524SOL    HW116205   2.707   4.377  10.274  1.1104  1.7281  2.2105
 1524SOL    HW216206   2.755   4.236  10.269  0.4989 -0.3448  0.9988
 1525SOL     OW16207   2.168   3.094  11.773  0.6817 -0.0228 -0.3247
 1525SOL    HW116208   2.247   3.120  11.819  0.0119 -0.2599  0.9720
 1525SOL    HW216209   2.101   3.089  11.842  1.7531  0.7180  0.7578
 1526SOL     OW16210   0.080   2.602   4.430  0.1509 -0.0352  0.2284
 1526SOL    HW116211   0.115   2.607   4.341 -0.6176 -0.1574 -0.0789
 1526SOL    HW216212   4.737   2.553   4.422 -0.0565  0.6303 -1.6222
 1527SOL     OW16213   3.639   4.640   7.131 -0.4181 -0.0855 -0.4494
 1527SOL    HW116214   3.689   4.558   7.128  2.0165  1.5532 -3.5112
 1527SOL    HW216215   3.611   4.650   7.040 -1.1465  2.3621  0.0383
 1528SOL     OW16216   4.170   0.316   0.906  0.2596 -0.3540  0.2408
 1528SOL    HW116217   4.139   0.397   0.864 -1.2632 -0.8439  0.3916
 1528SOL    HW216218   4.084   0.298   0.945 -0.6622  0.3807 -1.3995
 1529SOL     OW16219   2.841   2.701  12.339  0.1992  0.8076  0.2649
 1529SOL    HW116220   2.883   2.624  12.379  3.6888  1.0901 -2.8512
 1529SOL    HW216221   2.875   2.778  12.385 -2.6456  2.0778  0.2033
 1530SOL     OW16222   1.850   4.437  12.403 -0.8246 -0.0696 -0.1957
 1530SOL    HW116223   1.810   4.523  12.416  1.5874  0.8757  0.8884
 1530SOL    HW216224   1.770   4.385  12.411 -0.8320  0.1138  0.8545
 1531SOL     OW16225   3.173   0.670   6.590 -0.2668  0.0424  0.5134
 1531SOL    HW116226   3.261   0.637   6.610  0.0136  1.1381  1.0781
 1531SOL    HW216227   3.147   0.614   6.517  2.2509 -0.6846  0.1872
 1532SOL     OW16228   0.547   2.121   7.034  0.6387 -0.6620  0.2282
 1532SOL    HW116229   0.485   2.080   7.094 -0.6085  0.0458 -0.5864
 1532SOL    HW216230   0.618   2.057   7.043  0.1021 -1.0254  1.8000
 1533SOL     OW16231   1.367   2.284   7.671 -0.2612 -0.8965 -0.1684
 1533SOL    HW116232   1.452   2.244   7.689 -0.3002 -0.8518  0.1141
 1533SOL    HW216233   1.368   2.287   7.575 -0.8347 -0.1556 -0.1570
 1534SOL     OW16234   4.204   3.592   6.798  0.1254  0.4376  0.0200
 1534SOL    HW116235   4.280   3.566   6.747 -1.4263 -0.6942 -1.7384
 1534SOL    HW216236   4.241   3.654   6.860 -0.6125 -1.4846  2.4048
 1535SOL     OW16237   2.264   4.118  10.024 -0.3859  0.0100  0.3980
 1535SOL    HW116238   2.194   4.128   9.960 -1.3996 -0.3272  1.4545
 1535SOL    HW216239   2.230   4.179  10.090 -3.7029  0.1248 -1.4282
 1536SOL     OW16240   1.843   3.603  10.031  0.4749  0.0263  0.4359
 1536SOL    HW116241   1.907   3.594   9.960 -1.2586  0.5095 -1.1668
 1536SOL    HW216242   1.760   3.630   9.994  0.5115 -1.2896 -0.5911
 1537SOL     OW16243   4.246   0.766  11.802 -0.0148 -0.4040  0.0560
 1537SOL    HW116244   4.238   0.770  11.897  0.1315  2.1403 -0.0575
 1537SOL    HW216245   4.198   0.684  11.789  2.2873 -2.1826  2.5384
 1538SOL     OW16246   0.908   3.391   3.873 -0.4565 -0.5184  0.5610
 1538SOL    HW116247   0.845   3.387   3.944 -1.4507  1.8383 -0.1968
 1538SOL    HW216248   0.885   3.457   3.807  1.0189 -2.0810 -1.5545
 1539SOL     OW16249   3.740   2.423   4.145 -0.4101 -0.3135 -0.1729
 1539SOL    HW116250   3.682   2.418   4.222  0.3896  2.5815  0.5803
 1539SOL    HW216251   3.761   2.332   4.124  0.1069 -0.1012 -0.5643
 1540SOL     OW16252   1.444   1.090  17.023 -0.2694 -0.2835  0.2435
 1540SOL    HW116253   1.361   1.043  17.017 -0.8613  1.2053 -2.9049
 1540SOL    HW216254   1.507   1.034  16.978 -1.4047  0.0105 -1.7301
 1541SOL     OW16255   3.319   0.654   5.336 -0.2937 -0.1739  0.7226
 1541SOL    HW116256   3.326   0.595   5.411  0.4727 -1.0243 -0.0259
 1541SOL    HW216257   3.238   0.702   5.353  1.0686  1.9516  1.2356
 1542SOL     OW16258   3.864   2.237   0.528  0.6891  0.2463  0.0604
 1542SOL    HW116259   3.865   2.150   0.488 -1.6862  0.5569 -0.6400
 1542SOL    HW216260   3.958   2.256   0.537  0.3399  1.5762  0.9702
 1543SOL     OW16261   1.428   0.784   2.032 -0.3221 -0.2018  0.5407
 1543SOL    HW116262   1.397   0.694   2.024  1.8539 -1.0644  1.8750
 1543SOL    HW216263   1.486   0.794   1.956 -0.1688  1.9227  0.9352
 1544SOL     OW16264   0.456   1.559   6.458 -0.6287 -0.4746 -0.0513
 1544SOL    HW116265   0.506   1.629   6.418 -0.5473 -0.6772 -0.3037
 1544SOL    HW216266   0.367   1.592   6.468 -0.7628 -0.7210 -0.4267
 1545SOL     OW16267   0.387   0.203   6.044  0.4282 -0.1992  0.4528
 1545SOL    HW116268   0.322   0.243   6.101 -0.9614 -2.0616  0.1797
 1545SOL    HW216269   0.366   0.113   6.066 -1.3003  0.9532  3.5168
 1546SOL     OW16270   2.906   2.907   8.614 -0.5024  0.2540  0.0359
 1546SOL    HW116271   2.889   2.992   8.572 -2.0233 -1.0089 -1.9071
 1546SOL    HW216272   2.819   2.875   8.638 -0.2967 -0.5093 -0.2403
 1547SOL     OW16273   3.805   4.587   4.028 -0.0569 -0.1476  0.3772
 1547SOL    HW116274   3.853   4.510   3.996 -0.9940 -0.5719  0.0084
 1547SOL    HW216275   3.717   4.574   3.993  0.0935 -0.1340 -0.0021
 1548SOL     OW16276   2.815   3.809   6.297 -0.0290 -0.0769  0.0368
 1548SOL    HW116277   2.908   3.827   6.280  0.1039 -0.6052  0.2232
 1548SOL    HW216278   2.795   3.875   6.363  0.3034  1.0998 -1.0307
 1549SOL     OW16279   3.249   0.325   1.261 -0.7195  0.1760  0.3379
 1549SOL    HW116280   3.186   0.290   1.324 -1.9945  1.5377 -0.1768
 1549SOL    HW216281   3.284   0.400   1.308 -2.1701 -0.3566  2.2404
 1550SOL     OW16282   0.873   1.612   7.625  0.3255 -0.1477  0.2739
 1550SOL    HW116283   0.897   1.521   7.612 -1.8458 -0.8096  0.8976
 1550SOL    HW216284   0.788   1.612   7.582 -0.2218  1.0348  1.3442
 1551SOL     OW16285   4.521   3.021   3.245 -0.2097  0.8413  0.0351
 1551SOL    HW116286   4.525   3.010   3.340 -0.7743  1.7853  0.1630
 1551SOL    HW216287   4.507   3.115   3.237 -1.9985  0.6019  0.3931
 1552SOL     OW16288   0.442   2.318   7.881  0.2232  0.1003 -0.9240
 1552SOL    HW116289   0.406   2.405   7.861  0.3029  0.0393 -1.3181
 1552SOL    HW216290   0.360   2.270   7.883 -0.5913  1.5170  0.0483
 1553SOL     OW16291   3.795   2.246   2.714  0.5346  0.0606  0.0580
 1553SOL    HW116292   3.742   2.228   2.636 -0.3458 -0.2324  0.7248
 1553SOL    HW216293   3.827   2.333   2.691  1.0959 -0.7575 -2.1890
 1554SOL     OW16294   1.499   3.625  10.662 -0.4134  1.1954  0.1779
 1554SOL    HW116295   1.570   3.647  10.602 -1.4591  0.4367 -1.3424
 1554SOL    HW216296   1.528   3.537  10.684 -1.5155  1.3292  2.1548
 1555SOL     OW16297   3.173   4.303  16.372 -0.2179  0.2455  0.4124
 1555SOL    HW116298   3.268   4.317  16.369 -0.2506  0.7898  1.8923
 1555SOL    HW216299   3.155   4.224  16.321 -1.4240  1.2314 -0.7106
 1556SOL     OW16300   4.258   0.144  13.154 -0.8379  0.2365  0.5346
 1556SOL    HW116301   4.268   0.051  13.133  1.0099  0.3312  1.0050
 1556SOL    HW216302   4.244   0.187  13.069 -0.8100 -1.4558 -0.3325
 1557SOL     OW16303   0.296   4.041   0.202 -0.1625 -0.5062  0.3292
 1557SOL    HW116304   0.385   4.070   0.179 -0.6993  0.4333 -0.5435
 1557SOL    HW216305   0.285   3.953   0.166 -0.2962 -1.2082  2.0642
 1558SOL     OW16306   1.429   1.764  13.846 -0.0089  0.2813 -0.1390
 1558SOL    HW116307   1.468   1.789  13.930  0.4642 -1.6733  0.2317
 1558SOL    HW216308   1.503   1.735  13.792 -0.1072 -1.3404  0.5944
 1559SOL     OW16309   4.392   4.486   8.556 -0.0835  0.0873  0.0309
 1559SOL    HW116310   4.318   4.524   8.604  0.8043  2.3600 -0.3696
 1559SOL    HW216311   4.363   4.478   8.465 -2.3413  0.8428  0.6858
 1560SOL     OW16312   3.932   1.797   8.304  0.1971 -0.1764  0.4117
 1560SOL    HW116313   3.982   1.731   8.257  1.8721 -0.1823  2.2182
 1560SOL    HW216314   3.931   1.751   8.388 -1.0700 -0.8893  0.0048
 1561SOL     OW16315   2.221   1.089   1.675  0.3879  0.3330 -0.0516
 1561SOL    HW116316   2.146   1.082   1.733  1.5733  0.8636  1.5383
 1561SOL    HW216317   2.290   1.066   1.737 -0.4852  1.3322  1.2838
 1562SOL     OW16318   4.435   4.596   9.528 -0.0648 -0.1275  0.0388
 1562SOL    HW116319   4.480   4.573   9.610 -0.8156 -0.9548  0.2248
 1562SOL    HW216320   4.370   4.527   9.521 -0.3798 -0.0179  1.8075
 1563SOL     OW16321   2.682   4.558   2.883  0.0800  0.1865  0.0815
 1563SOL    HW116322   2.666   4.504   2.806  0.8216  0.5949 -0.3682
 1563SOL    HW216323   2.613   4.539   2.946  0.5902  0.3126  0.6836
 1564SOL     OW16324   1.976   4.130   6.602  0.0114  0.0562 -0.2212
 1564SOL    HW116325   2.059   4.122   6.649 -0.0071  0.3803 -0.1285
 1564SOL    HW216326   1.933   4.049   6.628  0.8218 -0.3313 -0.1088
 1565SOL     OW16327   3.373   0.360   2.902 -0.4336 -0.2271  0.3088
 1565SOL    HW116328   3.340   0.438   2.946  1.7628  2.7693 -3.2861
 1565SOL    HW216329   3.290   0.314   2.911 -0.7025  0.1143 -0.3737
 1566SOL     OW16330   3.911   0.428  10.943  0.1078 -0.0871 -0.4238
 1566SOL    HW116331   4.004   0.414  10.960  0.5808  1.7364 -1.5315
 1566SOL    HW216332   3.915   0.519  10.912 -0.3782  0.4329  1.0354
 1567SOL     OW16333   3.789   1.449   9.915  0.7080  0.0359  0.1355
 1567SOL    HW116334   3.805   1.528   9.863  2.5806  0.4109  1.2741
 1567SOL    HW216335   3.713   1.471   9.969 -0.6074 -0.3586 -1.5441
 1568SOL     OW16336   1.440   0.376   1.550  0.3961 -0.0061  0.1618
 1568SOL    HW116337   1.524   0.360   1.592  0.4459 -2.0659 -0.7579
 1568SOL    HW216338   1.421   0.467   1.573 -0.0301  0.5180 -2.2144
 1569SOL     OW16339   3.129   1.956   6.572  0.1144 -0.8527 -0.0317
 1569SOL    HW116340   3.131   2.050   6.592 -0.1167 -1.0176  0.7882
 1569SOL    HW216341   3.096   1.928   6.658  0.6139 -0.0853  0.4152
 1570SOL     OW16342   2.917   1.853  17.681  0.1747 -1.2687 -0.1705
 1570SOL    HW116343   3.010   1.834  17.692  0.4427  0.6166  0.7679
 1570SOL    HW216344   2.893   1.858   0.018  0.4382  1.5762 -0.2313
 1571SOL     OW16345   1.719   4.558   7.067 -0.7031  0.0904 -0.4545
 1571SOL    HW116346   1.790   4.517   7.117  0.0311 -0.0114 -1.5767
 1571SOL    HW216347   1.711   4.503   6.989  1.4756  0.7389 -1.1328
 1572SOL     OW16348   2.762   0.256   0.965 -0.0250 -0.2391 -0.0158
 1572SOL    HW116349   2.750   0.288   0.875  0.5177 -0.0601 -0.0225
 1572SOL    HW216350   2.857   0.262   0.965 -0.2498  3.0801  0.8594
 1573SOL     OW16351   0.746   1.768   7.093 -0.6908 -0.2447  0.8584
 1573SOL    HW116352   0.755   1.852   7.049  1.4000 -1.7926 -1.6853
 1573SOL    HW216353   0.825   1.762   7.146  0.2658 -1.0490 -0.6389
 1574SOL     OW16354   3.460   0.926   4.617 -0.1964 -0.4585 -0.5903
 1574SOL    HW116355   3.386   0.907   4.675 -0.7189 -0.6159 -1.3078
 1574SOL    HW216356   3.459   0.841   4.572  1.2492  0.1133 -1.6547
 1575SOL     OW16357   1.604   0.303   5.756  0.0538 -0.7190  0.2567
 1575SOL    HW116358   1.540   0.232   5.754 -2.4031  1.5346 -0.8946
 1575SOL    HW216359   1.652   0.266   5.830  0.1553  1.5507  1.3237
 1576SOL     OW16360   0.687   2.946   2.582 -0.0169 -0.0550  0.1506
 1576SOL    HW116361   0.754   2.884   2.612 -1.1007 -0.2810  2.1490
 1576SOL    HW216362   0.736   3.027   2.576  0.6511 -0.4691  0.0439
 1577SOL     OW16363   2.582   0.962   2.307  0.1665 -0.6064  0.5458
 1577SOL    HW116364   2.590   0.980   2.214  0.8591 -0.1235  0.6982
 1577SOL    HW216365   2.628   0.878   2.312  1.2181 -0.0499  0.3391
 1578SOL     OW16366   0.188   0.690  14.387  0.2214 -0.0994  0.7417
 1578SOL    HW116367   0.179   0.779  14.423 -0.8513 -0.4693  1.3728
 1578SOL    HW216368   0.156   0.708  14.299 -1.7483  0.6069  1.6136
 1579SOL     OW16369   1.211   0.233   6.827  0.2961 -0.7047  0.4087
 1579SOL    HW116370   1.232   0.213   6.736  1.2954  0.9906  0.2548
 1579SOL    HW216371   1.294   0.275   6.849  0.5741  0.3514 -2.7148
 1580SOL     OW16372   2.484   0.159   1.987  0.2466  0.3457  0.1049
 1580SOL    HW116373   2.556   0.201   1.940 -0.5590 -1.5874 -2.9135
 1580SOL    HW216374   2.446   0.233   2.035 -1.6485 -0.0719 -0.7339
 1581SOL     OW16375   3.641   0.021  15.135 -0.6680 -0.3081 -0.2465
 1581SOL    HW116376   3.630   4.684  15.078 -0.4731  1.2360 -2.3445
 1581SOL    HW216377   3.550   0.051  15.143 -0.8823 -0.5349 -1.7930
 1582SOL     OW16378   4.087   1.435  17.445 -0.1121  0.9024  0.2556
 1582SOL    HW116379   4.099   1.504  17.380 -0.4688 -0.2481 -1.0298
 1582SOL    HW216380   3.992   1.433  17.455 -0.1000  2.1839  0.6694
 1583SOL     OW16381   3.522   0.222  17.434  0.3119  0.1892 -0.7438
 1583SOL    HW116382   3.574   0.291  17.476  0.9573 -0.5629 -0.3296
 1583SOL    HW216383   3.503   0.178  17.517 -2.2874 -0.8036 -1.8481
 1584SOL     OW16384   3.778   3.707   8.476 -0.2738 -0.1879  0.0353
 1584SOL    HW116385   3.834   3.772   8.434 -0.2066 -0.3414 -0.1115
 1584SOL    HW216386   3.841   3.658   8.529 -0.5556 -0.4552  0.1241
 1585SOL     OW16387   2.980   2.114   1.206  0.3748  0.3195 -0.5224
 1585SOL    HW116388   2.947   2.086   1.121  2.2650 -0.6848 -0.9272
 1585SOL    HW216389   2.931   2.067   1.274  1.1868  1.5511  0.9094
 1586SOL     OW16390   4.487   2.819  17.136  0.2026 -0.0021  0.6010
 1586SOL    HW116391   4.565   2.875  17.144  0.2485  0.0065  0.0988
 1586SOL    HW216392   4.462   2.824  17.228  1.2238  0.4847  0.8572
 1587SOL     OW16393   1.902   3.811   3.664 -0.3766  0.1005 -0.1114
 1587SOL    HW116394   1.883   3.887   3.609  0.8733  1.6624  1.6791
 1587SOL    HW216395   1.848   3.826   3.741  3.0558 -1.5937  2.5961
 1588SOL     OW16396   3.927   1.202   9.083  0.2850 -0.2618 -0.8582
 1588SOL    HW116397   3.985   1.185   9.157  0.6930 -0.9255 -1.3345
 1588SOL    HW216398   3.841   1.196   9.124 -0.9351  0.0663 -3.3471
 1589SOL     OW16399   3.632   1.716  17.220 -0.1395 -0.3238 -0.6330
 1589SOL    HW116400   3.562   1.772  17.252 -2.0428 -2.2567 -1.4592
 1589SOL    HW216401   3.696   1.745  17.285  0.0070 -1.6111 -0.2165
 1590SOL     OW16402   0.941   1.365   3.469  0.0841 -0.3276  0.6215
 1590SOL    HW116403   0.872   1.308   3.434  1.8116 -0.2022 -2.9718
 1590SOL    HW216404   0.962   1.331   3.556  1.6399  1.2589  0.8556
 1591SOL     OW16405   4.379   2.571   2.634  0.4295  0.1870  0.3876
 1591SOL    HW116406   4.455   2.565   2.576 -0.1148 -2.6462  0.0049
 1591SOL    HW216407   4.402   2.641   2.695 -0.2078  1.2304 -0.5706
 1592SOL     OW16408   1.420   4.539   8.003 -0.2805  0.3631 -0.1184
 1592SOL    HW116409   1.421   4.613   7.942  3.2872 -0.0233 -0.5548
 1592SOL    HW216410   1.509   4.521   8.034 -1.2204 -1.0442  1.7277
 1593SOL     OW16411   0.937   4.373   2.467 -0.0301 -0.0038 -0.2323
 1593SOL    HW116412   0.902   4.303   2.411 -0.0790 -1.3559  1.4764
 1593SOL    HW216413   0.936   4.448   2.407  2.6809  0.5219  0.3982
 1594SOL     OW16414   2.909   3.918   7.116  0.0281  0.1382 -0.4065
 1594SOL    HW116415   2.882   3.957   7.032  1.8419  1.2179 -0.5014
 1594SOL    HW216416   2.830   3.941   7.164 -2.2304 -2.0822 -3.0091
 1595SOL     OW16417   3.027   2.383   7.596 -0.5931  0.5246 -0.3111
 1595SOL    HW116418   3.082   2.367   7.520 -0.6940  1.3248 -0.5582
 1595SOL    HW216419   2.999   2.295   7.620  2.8135 -0.9384 -1.7548
 1596SOL     OW16420   0.558   2.411   8.785 -0.6815 -0.7934  0.0944
 1596SOL    HW116421   0.483   2.384   8.838 -0.9441  0.2640  0.2731
 1596SOL    HW216422   0.589   2.493   8.823  2.4864 -1.0641 -1.8991
 1597SOL     OW16423   1.521   2.501   7.055 -0.1717  0.4319 -0.0274
 1597SOL    HW116424   1.503   2.459   6.970  2.4427  0.1969 -0.4509
 1597SOL    HW216425   1.511   2.595   7.040  0.6120  0.3170 -1.3183
 1598SOL     OW16426   2.651   0.752   3.520  0.3326 -0.5877  0.2290
 1598SOL    HW116427   2.699   0.678   3.557  0.1403 -0.7290  0.1976
 1598SOL    HW216428   2.681   0.821   3.578 -0.0008  0.6820 -1.1243
 1599SOL     OW16429   2.646   3.404   2.605  0.0697 -0.7228  0.0666
 1599SOL    HW116430   2.669   3.490   2.569 -0.2329 -0.9816 -0.7516
 1599SOL    HW216431   2.571   3.425   2.659 -0.1261 -2.9297  0.6611
 1600SOL     OW16432   2.766   0.313   8.609 -0.0527  0.0362  0.6023
 1600SOL    HW116433   2.763   0.385   8.673  0.1929  1.5404 -1.0625
 1600SOL    HW216434   2.817   0.246   8.653 -1.1849  0.9652  3.3635
 1601SOL     OW16435   2.626   2.677   4.813 -0.6293 -0.2533 -0.0881
 1601SOL    HW116436   2.629   2.751   4.873 -0.2718 -0.7569  0.5086
 1601SOL    HW216437   2.593   2.605   4.868  0.7924 -0.0947  0.9610
 1602SOL     OW16438   4.289   1.290  12.403 -0.1762  0.2520  0.3471
 1602SOL    HW116439   4.248   1.374  12.387  1.7325  1.2631  0.7277
 1602SOL    HW216440   4.312   1.285  12.496  0.9918  0.5680  0.0833
 1603SOL     OW16441   1.867   2.519   4.313 -0.1414  0.4581 -0.2506
 1603SOL    HW116442   1.882   2.430   4.282  0.5925  0.5672 -0.1994
 1603SOL    HW216443   1.773   2.524   4.335 -0.6313 -1.9581 -1.7721
 1604SOL     OW16444   1.752   0.610   1.724 -0.0878  0.9040 -0.3484
 1604SOL    HW116445   1.737   0.516   1.720  0.6305  0.7079  1.8246
 1604SOL    HW216446   1.802   0.618   1.643  0.3738 -3.3244 -0.4687
 1605SOL     OW16447   0.714   2.301   8.585 -0.5380  0.5236 -0.4579
 1605SOL    HW116448   0.628   2.333   8.612  0.0212  2.1890 -0.6620
 1605SOL    HW216449   0.763   2.340   8.657 -1.1737 -0.6091  0.6090
 1606SOL     OW16450   3.680   0.159   8.452  0.0849  0.1361 -0.2355
 1606SOL    HW116451   3.689   0.196   8.540 -1.0649  0.2866 -0.1779
 1606SOL    HW216452   3.768   0.168   8.417 -0.4780  2.0746 -1.1479
 1607SOL     OW16453   0.732   4.511   3.046  0.4301  0.1536 -0.1101
 1607SOL    HW116454   0.695   4.442   2.991 -2.0215  0.6703  0.8469
 1607SOL    HW216455   0.823   4.487   3.060  0.1088 -0.8890  0.1706
 1608SOL     OW16456   2.537   2.410  13.006 -0.3411 -0.1279 -0.3112
 1608SOL    HW116457   2.489   2.345  12.955  0.1210  0.3132 -1.3146
 1608SOL    HW216458   2.495   2.493  12.984 -1.1739 -0.9755 -1.9364
 1609SOL     OW16459   0.751   1.099  11.099  0.4950 -0.0196 -0.1514
 1609SOL    HW116460   0.696   1.137  11.030 -3.7078 -4.5649  0.6961
 1609SOL    HW216461   0.817   1.167  11.100 -0.4380  0.9052 -1.2951
 1610SOL     OW16462   0.835   3.948   8.858 -0.4555  0.5793 -0.1375
 1610SOL    HW116463   0.916   3.951   8.808  1.6137 -1.4653  3.1197
 1610SOL    HW216464   0.859   3.894   8.933  1.6990  2.4252  0.4763
 1611SOL     OW16465   1.964   0.344  12.433 -0.0308 -0.8476 -0.2522
 1611SOL    HW116466   1.907   0.335  12.356 -1.3962 -0.6067  0.7341
 1611SOL    HW216467   1.975   0.258  12.472 -1.8565  0.3384  2.9188
 1612SOL     OW16468   4.628   1.099  15.203  0.0306  0.0420 -0.4391
 1612SOL    HW116469   4.613   1.140  15.288  0.1814 -3.0265  1.0646
 1612SOL    HW216470   4.660   1.174  15.154  0.4593  0.0836 -0.0940
 1613SOL     OW16471   3.032   1.539   4.780  0.1718  0.7412 -1.0579
 1613SOL    HW116472   2.962   1.483   4.747 -0.1810 -0.6018  1.9961
 1613SOL    HW216473   3.077   1.567   4.700  0.9126 -1.3811 -1.3962
 1614SOL     OW16474   3.518   0.785  14.724  0.1525 -0.9730 -0.1625
 1614SOL    HW116475   3.489   0.694  14.724  0.2512 -0.9987 -0.8159
 1614SOL    HW216476   3.572   0.778  14.803  1.3216  1.0285 -0.7766
 1615SOL     OW16477   2.843   4.146  16.133 -0.0249  0.2500  0.2134
 1615SOL    HW116478   2.749   4.151  16.150 -0.0562 -1.0322  0.4080
 1615SOL    HW216479   2.840   4.155  16.037 -0.8722  0.7565  0.2927
 1616SOL     OW16480   3.298   3.134   5.316  0.5081 -0.8681 -0.4905
 1616SOL    HW116481   3.254   3.176   5.242  0.5928  0.7623  0.3771
 1616SOL    HW216482   3.325   3.212   5.365 -1.6271  0.8653 -2.0779
 1617SOL     OW16483   3.201   2.959  11.349 -0.4201 -0.1835  0.0515
 1617SOL    HW116484   3.194   2.928  11.259 -0.0352 -2.0201  0.6603
 1617SOL    HW216485   3.130   2.911  11.391 -2.4721  3.0397  0.2747
 1618SOL     OW16486   2.133   4.102   5.712  0.5192 -0.0103  0.1472
 1618SOL    HW116487   2.066   4.074   5.649  0.3685 -0.3785  0.4764
 1618SOL    HW216488   2.175   4.173   5.662  0.2419  0.1506  0.1445
 1619SOL     OW16489   2.738   1.449   5.067 -0.2007 -0.4321 -0.4776
 1619SOL    HW116490   2.748   1.518   5.133 -2.9025 -2.7291  2.3873
 1619SOL    HW216491   2.678   1.484   5.001 -1.0360 -2.2735 -0.7058
 1620SOL     OW16492   1.588   2.112  16.704 -0.3238 -0.4727  0.2737
 1620SOL    HW116493   1.507   2.135  16.750 -0.0570  1.4042 -0.2096
 1620SOL    HW216494   1.597   2.182  16.640  0.6841 -0.0364  0.8885
 1621SOL     OW16495   0.862   2.449   3.925  0.0710  0.0511 -0.1571
 1621SOL    HW116496   0.815   2.403   3.855  1.3777  0.6000 -1.3759
 1621SOL    HW216497   0.925   2.390   3.965 -1.5355 -1.6509 -0.1144
 1622SOL     OW16498   1.025   1.102   9.718 -0.6600 -0.4171  0.1782
 1622SOL    HW116499   1.004   1.016   9.682  2.0139 -0.3705 -1.4390
 1622SOL    HW216500   0.974   1.115   9.798  0.6555  1.3322  0.7535
 1623SOL     OW16501   1.657   4.496  13.805  0.2518 -0.0595  0.0464
 1623SOL    HW116502   1.645   4.515  13.898 -1.9922  2.2217 -0.7037
 1623SOL    HW216503   1.748   4.515  13.784  0.6919 -1.3005  0.8507
 1624SOL     OW16504   0.170   2.278  13.148 -0.7399  0.0898  0.4061
 1624SOL    HW116505   0.166   2.212  13.080 -2.5229  0.1343  0.4696
 1624SOL    HW216506   0.109   2.341  13.109  0.6042  1.4935  0.5636
 1625SOL     OW16507   1.758   0.984   1.918 -0.1188 -0.6852  0.3340
 1625SOL    HW116508   1.850   0.986   1.891  0.0472 -0.2480  0.9329
 1625SOL    HW216509   1.756   1.061   1.975 -0.6054  0.6223 -1.4320
 1626SOL     OW16510   0.801   2.219   7.353 -0.0899  0.0962 -0.1201
 1626SOL    HW116511   0.802   2.145   7.415 -3.2094  1.5394  1.6796
 1626SOL    HW216512   0.847   2.284   7.406  1.2847 -0.2460 -0.9062
 1627SOL     OW16513   0.145   2.189   8.551 -0.2217 -0.2829 -0.0857
 1627SOL    HW116514   0.147   2.229   8.638 -0.2006  0.1380 -0.2790
 1627SOL    HW216515   0.205   2.115   8.548 -1.1863 -1.0968  0.6857
 1628SOL     OW16516   3.461   3.772   6.459 -0.3042 -0.3729 -0.1666
 1628SOL    HW116517   3.412   3.776   6.541 -0.7590 -1.2495 -0.3988
 1628SOL    HW216518   3.550   3.759   6.491 -0.7440 -0.2416  1.0781
 1629SOL     OW16519   1.816   3.130   9.080  0.3309  0.2094 -0.4814
 1629SOL    HW116520   1.894   3.112   9.133 -0.6183  2.3628  1.6062
 1629SOL    HW216521   1.770   3.194   9.133  1.0351 -1.7240  2.4769
 1630SOL     OW16522   2.592   0.970   2.704  0.3121  0.2262 -0.7949
 1630SOL    HW116523   2.653   0.972   2.630 -1.6274  0.9812 -2.3669
 1630SOL    HW216524   2.616   0.884   2.738  3.3105  0.6407 -1.8629
 1631SOL     OW16525   3.269   0.289  11.597  0.1271 -0.1893 -0.1753
 1631SOL    HW116526   3.245   0.250  11.513  0.2386 -1.1419  0.2397
 1631SOL    HW216527   3.347   0.332  11.564  0.4428 -1.0556 -0.5469
 1632SOL     OW16528   0.704   1.867  13.395 -0.7790 -0.3771  0.3477
 1632SOL    HW116529   0.787   1.839  13.434 -0.9206 -1.0355  0.1880
 1632SOL    HW216530   0.696   1.797  13.329  1.9000 -1.2103  0.9156
 1633SOL     OW16531   1.506   2.661   9.195 -0.4986 -0.6314  0.3450
 1633SOL    HW116532   1.527   2.754   9.194 -3.1017  0.0200  3.6630
 1633SOL    HW216533   1.545   2.649   9.282 -0.1469 -1.1203  0.1191
 1634SOL     OW16534   1.589   4.456   4.813  0.0200 -0.2452 -0.3097
 1634SOL    HW116535   1.678   4.424   4.829  0.0373 -0.7728 -1.5129
 1634SOL    HW216536   1.534   4.403   4.871 -1.7718  1.2602 -0.6401
 1635SOL     OW16537   4.387   0.855  17.358  0.5621 -0.8986  0.0474
 1635SOL    HW116538   4.326   0.874  17.287  0.7243  3.9024  1.1691
 1635SOL    HW216539   4.464   0.837  17.304 -1.6504  1.2185 -3.7585
 1636SOL     OW16540   0.064   4.704  13.094 -0.3586 -0.0875  0.2197
 1636SOL    HW116541   4.717   4.717  13.057 -0.8405 -2.8807  0.3748
 1636SOL    HW216542   0.047   4.623  13.143 -0.5834 -1.4854 -2.1482
 1637SOL     OW16543   2.974   3.785   5.294 -0.3149  0.0696 -0.0894
 1637SOL    HW116544   3.039   3.744   5.351  1.6665  0.4497 -2.0956
 1637SOL    HW216545   2.906   3.718   5.307 -1.2701  0.9885 -0.3817
 1638SOL     OW16546   2.302   0.868   5.408 -0.2054 -0.1887  0.3352
 1638SOL    HW116547   2.207   0.876   5.403 -0.0221  2.4438  0.9623
 1638SOL    HW216548   2.301   0.793   5.468  1.3306  1.0238  1.8702
 1639SOL     OW16549   0.986   1.444   8.013 -0.7499  0.0956 -0.2860
 1639SOL    HW116550   1.034   1.483   7.940  0.2836  2.3003  1.5679
 1639SOL    HW216551   0.951   1.361   7.980  2.1807 -0.7731 -1.1583
 1640SOL     OW16552   1.606   4.456  17.314 -0.5048  0.5329  0.7037
 1640SOL    HW116553   1.621   4.371  17.273 -1.8554 -0.4641  2.2205
 1640SOL    HW216554   1.698   4.482  17.313 -0.6547  0.9670 -0.6775
 1641SOL     OW16555   1.733   4.683   8.303 -0.4560 -0.1686 -0.3039
 1641SOL    HW116556   1.759   4.737   8.229 -0.1850 -1.1591 -0.9412
 1641SOL    HW216557   1.796   4.713   8.368 -0.2380  0.3230 -0.7506
 1642SOL     OW16558   2.692   3.203   6.014  0.2293  0.4754  0.7190
 1642SOL    HW116559   2.597   3.215   6.009  0.1752  0.4761  1.7659
 1642SOL    HW216560   2.700   3.170   6.103  0.0972 -0.6886  0.3069
 1643SOL     OW16561   1.887   3.397   8.977 -0.8745 -0.2380  0.0774
 1643SOL    HW116562   1.824   3.327   8.994 -0.2622 -1.6804 -3.5867
 1643SOL    HW216563   1.917   3.427   9.063  1.1798  0.0438 -0.7516
 1644SOL     OW16564   2.766   3.868   3.850  0.0910  0.3700 -0.2841
 1644SOL    HW116565   2.727   3.925   3.915 -0.9401  0.3749 -0.9058
 1644SOL    HW216566   2.716   3.787   3.865  0.7724  0.2347  1.2288
 1645SOL     OW16567   2.027   1.367   9.721 -0.2700  0.1152  0.0552
 1645SOL    HW116568   1.952   1.426   9.734 -1.2536 -1.6542  2.3259
 1645SOL    HW216569   2.038   1.359   9.626  0.4660  0.2498  0.1296
 1646SOL     OW16570   0.758   0.131   0.430 -0.0323  0.7060  0.1439
 1646SOL    HW116571   0.779   0.187   0.505  0.5919  0.3097  0.2602
 1646SOL    HW216572   0.746   0.051   0.480 -3.4018  0.8258 -0.4282
 1647SOL     OW16573   1.975   1.320   7.674 -0.2354  0.2672 -0.0366
 1647SOL    HW116574   1.929   1.397   7.708  2.9319  1.3689  1.7477
 1647SOL    HW216575   1.964   1.255   7.744  0.2215  1.0183  0.7322
 1648SOL     OW16576   4.570   1.618   5.795 -0.0565 -0.1320 -0.4797
 1648SOL    HW116577   4.606   1.684   5.736  0.7705 -0.8325 -0.7605
 1648SOL    HW216578   4.610   1.650   5.876  0.6989  0.6250 -1.1446
 1649SOL     OW16579   3.258   3.295   9.898  0.3789 -0.7582  0.0155
 1649SOL    HW116580   3.196   3.297   9.825 -0.1207  2.2133  0.5289
 1649SOL    HW216581   3.332   3.254   9.854  1.0440  1.8243 -1.2765
 1650SOL     OW16582   3.471   0.574   4.251  0.1407  0.3197  0.0713
 1650SOL    HW116583   3.400   0.547   4.193 -0.8101  0.0278  1.3632
 1650SOL    HW216584   3.521   0.493   4.241  0.8152  0.8140 -0.5389
 1651SOL     OW16585   0.385   2.229   3.756 -0.0065 -0.5992 -0.1467
 1651SOL    HW116586   0.384   2.283   3.835  1.4868  0.6406 -0.9538
 1651SOL    HW216587   0.466   2.179   3.759  0.4779  0.2004  0.2754
 1652SOL     OW16588   1.778   1.229   1.710 -0.2903  0.2027  0.4980
 1652SOL    HW116589   1.708   1.290   1.735 -0.3911 -0.6016  2.1406
 1652SOL    HW216590   1.771   1.165   1.781  1.5007 -1.1000 -0.5157
 1653SOL     OW16591   3.390   1.376   2.835  0.0872 -0.5886 -0.1480
 1653SOL    HW116592   3.427   1.322   2.766  2.0748  1.7974 -0.9756
 1653SOL    HW216593   3.444   1.454   2.823 -1.7781  0.7531  0.0256
 1654SOL     OW16594   0.592   1.131   6.204  0.2008  0.5572  0.0095
 1654SOL    HW116595   0.658   1.126   6.135 -1.2657 -1.1453 -1.2822
 1654SOL    HW216596   0.513   1.116   6.151  0.7876  1.6910 -1.1809
 1655SOL     OW16597   2.113   0.021   5.979  0.4749  0.1488  0.0040
 1655SOL    HW116598   2.055   0.085   5.938 -0.0106  0.7875  1.7032
 1655SOL    HW216599   2.136   0.062   6.063  0.1307  1.0194 -0.3294
 1656SOL     OW16600   0.292   3.887  15.424  0.1787  0.0995  0.4548
 1656SOL    HW116601   0.256   3.939  15.352 -0.3822 -0.4346  0.3507
 1656SOL    HW216602   0.339   3.955  15.472  1.3464 -1.1037  1.0206
 1657SOL     OW16603   4.585   1.447  17.045 -0.3741 -0.2206 -0.2382
 1657SOL    HW116604   4.624   1.512  17.104 -1.4265 -0.1102  0.3462
 1657SOL    HW216605   4.493   1.461  17.067 -0.6862 -2.6354 -0.0569
 1658SOL     OW16606   4.313   1.410   6.969 -0.1101 -0.2336  0.2828
 1658SOL    HW116607   4.337   1.418   7.062 -0.5140 -3.4820  0.6865
 1658SOL    HW216608   4.293   1.503   6.964 -0.0172 -0.1025  2.0934
 1659SOL     OW16609   1.025   1.564   8.690 -0.0363  0.5760 -0.4762
 1659SOL    HW116610   1.075   1.514   8.755 -1.4800  0.5470  0.5972
 1659SOL    HW216611   1.097   1.579   8.629 -1.0791  0.5821 -1.7137
 1660SOL     OW16612   1.228   2.242   5.108 -0.0133 -0.0698 -0.5153
 1660SOL    HW116613   1.306   2.280   5.150 -0.6272  1.0298 -0.3656
 1660SOL    HW216614   1.250   2.149   5.107 -1.6493 -0.4346 -1.5889
 1661SOL     OW16615   2.083   2.623   5.515 -0.0636 -0.9133 -0.4218
 1661SOL    HW116616   2.097   2.576   5.433  1.6800 -0.7195 -0.2218
 1661SOL    HW216617   2.171   2.621   5.553  0.4649  1.4064 -1.5726
 1662SOL     OW16618   0.132   1.132   5.651  0.2011 -0.0022 -0.2117
 1662SOL    HW116619   0.145   1.200   5.716 -0.6809  0.0204 -0.0590
 1662SOL    HW216620   0.048   1.160   5.614  0.1045 -0.3583 -0.2613
 1663SOL     OW16621   4.241   0.531   0.283 -0.4313  0.4164  0.2165
 1663SOL    HW116622   4.261   0.621   0.258  0.7095  0.1310  0.1073
 1663SOL    HW216623   4.212   0.506   0.196  0.5972 -1.2934  0.3731
 1664SOL     OW16624   1.581   3.169  13.006  0.0337  0.4347 -0.8605
 1664SOL    HW116625   1.571   3.241  12.944  1.5591  0.4710 -1.0579
 1664SOL    HW216626   1.492   3.133  13.013  0.0690  0.6409  0.5622
 1665SOL     OW16627   0.177   3.389   1.860 -0.1221 -0.4459  0.3408
 1665SOL    HW116628   0.093   3.345   1.856  0.0398 -0.6702 -0.6147
 1665SOL    HW216629   0.147   3.452   1.926  0.9427 -1.7923  2.1418
 1666SOL     OW16630   0.397   2.846   7.915 -0.7913  0.1673 -0.2480
 1666SOL    HW116631   0.406   2.904   7.840  0.0266 -2.2847 -2.0263
 1666SOL    HW216632   0.406   2.908   7.988 -0.5343 -0.6106  0.3917
 1667SOL     OW16633   1.909   1.669   2.671  0.1072  0.4800 -0.2583
 1667SOL    HW116634   1.837   1.619   2.634 -0.4567  0.6459  0.5942
 1667SOL    HW216635   1.896   1.674   2.766 -2.8844 -2.3449 -0.5229
 1668SOL     OW16636   0.986   1.665   2.072  0.1336  0.0869  0.5932
 1668SOL    HW116637   0.914   1.715   2.108 -2.2985 -3.2121  0.3057
 1668SOL    HW216638   1.036   1.642   2.150  1.3704 -1.3286 -0.6058
 1669SOL     OW16639   4.360   3.392   0.897  0.4974  0.2926  0.3001
 1669SOL    HW116640   4.300   3.432   0.960 -0.5137 -2.5840  1.1718
 1669SOL    HW216641   4.389   3.470   0.851  0.4741 -0.5011 -1.0521
 1670SOL     OW16642   4.505   1.858  16.286 -0.0763  0.1944  0.5837
 1670SOL    HW116643   4.510   1.941  16.238  1.4822  0.6817  1.5959
 1670SOL    HW216644   4.583   1.871  16.339  0.2954  2.2841 -0.4698
 1671SOL     OW16645   3.387   3.220  12.249  0.5793  0.0303 -0.2903
 1671SOL    HW116646   3.375   3.129  12.278  4.0034 -0.1191  0.7050
 1671SOL    HW216647   3.458   3.202  12.187  1.0814  0.1838  0.2394
 1672SOL     OW16648   0.596   1.731   6.855 -0.0006 -0.2722 -0.5836
 1672SOL    HW116649   0.662   1.731   6.924  0.3571  0.5535 -0.9341
 1672SOL    HW216650   0.577   1.637   6.862 -1.0057  0.0156  0.4848
 1673SOL     OW16651   4.237   3.990   3.480  0.0736  0.3884 -0.3030
 1673SOL    HW116652   4.271   4.061   3.535 -1.4065 -0.5116  1.7545
 1673SOL    HW216653   4.308   3.968   3.420  0.0790 -1.2624  0.3126
 1674SOL     OW16654   3.209   0.906  10.064 -0.0683 -0.2693  0.2837
 1674SOL    HW116655   3.124   0.942  10.040 -0.6987 -1.6707  0.4084
 1674SOL    HW216656   3.203   0.821  10.021 -0.6160 -0.1273  0.0895
 1675SOL     OW16657   3.384   4.287   1.653  0.1720 -0.1892 -0.1464
 1675SOL    HW116658   3.293   4.256   1.656  0.2336 -0.3334  0.3951
 1675SOL    HW216659   3.433   4.228   1.711  0.9700  3.2558  2.6900
 1676SOL     OW16660   4.196   0.732   3.876  0.0909  0.1422  0.1070
 1676SOL    HW116661   4.214   0.825   3.882  1.0100  0.0864 -1.8463
 1676SOL    HW216662   4.240   0.708   3.794 -0.3032  1.5580 -0.5241
 1677SOL     OW16663   0.535   2.102   9.408  0.3379 -0.2011 -0.6198
 1677SOL    HW116664   0.622   2.067   9.385  0.0873 -0.2732 -1.4865
 1677SOL    HW216665   0.483   2.024   9.428  0.1711 -0.2355 -1.1780
 1678SOL     OW16666   2.162   0.277   6.592  0.1837  0.4636  0.1386
 1678SOL    HW116667   2.153   0.259   6.498  1.2116 -1.7439  0.4792
 1678SOL    HW216668   2.074   0.253   6.624 -0.0050  0.6634 -0.2303
 1679SOL     OW16669   2.516   3.807   4.225  0.1074 -0.1906  0.1511
 1679SOL    HW116670   2.498   3.883   4.279 -1.8166 -0.9155  0.5345
 1679SOL    HW216671   2.508   3.732   4.283  0.4887 -2.1121 -2.2507
 1680SOL     OW16672   1.403   1.027   4.357 -0.3637  0.5174 -0.5793
 1680SOL    HW116673   1.451   1.057   4.279  2.7924  0.5601  1.3986
 1680SOL    HW216674   1.362   1.104   4.396  0.2069  0.1549  0.7362
 1681SOL     OW16675   4.264   2.122   7.079  0.2753 -0.0145  0.6988
 1681SOL    HW116676   4.233   2.171   7.003  1.9223 -1.6174 -1.0291
 1681SOL    HW216677   4.188   2.071   7.106  2.0048 -0.9162  3.8601
 1682SOL     OW16678   3.015   0.537   5.539  0.1259  0.4652 -0.5438
 1682SOL    HW116679   2.982   0.504   5.455 -1.2752  0.1735  0.1096
 1682SOL    HW216680   3.053   0.623   5.521 -2.1440  1.6031  0.1392
 1683SOL     OW16681   4.110   0.655   6.269 -0.1525  0.1011 -0.1977
 1683SOL    HW116682   4.087   0.726   6.209  1.2888 -0.0701 -0.9633
 1683SOL    HW216683   4.204   0.642   6.256  0.1411  1.4083  0.6239
 1684SOL     OW16684   3.639   1.667   3.854 -0.6257 -0.0912 -0.1227
 1684SOL    HW116685   3.643   1.683   3.948 -2.6123 -1.6549  0.2215
 1684SOL    HW216686   3.640   1.756   3.819 -1.1922  0.5409  1.4616
 1685SOL     OW16687   3.439   2.579  16.403  0.0825  0.5018 -0.2768
 1685SOL    HW116688   3.432   2.483  16.401 -0.2329  0.5219 -0.1933
 1685SOL    HW216689   3.521   2.594  16.356  0.1473 -0.1204 -0.3691
 1686SOL     OW16690   4.011   2.228  13.503 -0.3109 -0.3268  0.2857
 1686SOL    HW116691   3.956   2.164  13.547  2.8226 -2.3303  1.3546
 1686SOL    HW216692   3.962   2.304  13.535  2.6775  1.8233 -0.1839
 1687SOL     OW16693   1.368   1.382   5.134 -0.1782 -0.1198 -0.2074
 1687SOL    HW116694   1.384   1.457   5.191 -1.1078 -0.1083  0.0427
 1687SOL    HW216695   1.343   1.317   5.200 -3.1820  0.4817 -0.7419
 1688SOL     OW16696   1.894   4.044   7.954  0.5038  0.0646  0.0234
 1688SOL    HW116697   1.947   4.117   7.985  1.1503  0.4956 -2.1080
 1688SOL    HW216698   1.805   4.080   7.955 -0.3099 -1.9356  0.6956
 1689SOL     OW16699   2.043   4.276   8.715  0.0450  0.2454 -0.5999
 1689SOL    HW116700   2.001   4.238   8.638 -0.2688 -0.8958  0.1336
 1689SOL    HW216701   2.054   4.366   8.684 -0.7830  0.9630  1.2069
 1690SOL     OW16702   0.652   3.141   7.908 -0.2357 -0.2261 -0.0437
 1690SOL    HW116703   0.730   3.129   7.962  1.3750  2.8263 -1.6937
 1690SOL    HW216704   0.584   3.101   7.962 -1.7254  1.7103 -0.5161
 1691SOL     OW16705   4.271   3.790   5.255  0.2151  0.1216  0.1559
 1691SOL    HW116706   4.218   3.716   5.284 -0.2747 -0.1426 -1.4353
 1691SOL    HW216707   4.358   3.750   5.261 -0.1609 -0.7505 -0.2795
 1692SOL     OW16708   0.383   2.009  13.212  0.2251 -0.7045  0.9744
 1692SOL    HW116709   0.342   2.071  13.273 -1.4777  0.0563 -0.9003
 1692SOL    HW216710   0.313   1.996  13.147  2.5456  1.3782 -1.9670
 1693SOL     OW16711   4.217   1.110   2.791 -0.3466 -0.5114 -0.2152
 1693SOL    HW116712   4.258   1.189   2.827 -0.0762 -0.4414 -0.6683
 1693SOL    HW216713   4.293   1.053   2.782 -0.3889 -0.6680  0.4887
 1694SOL     OW16714   0.278   1.811   9.500  0.1884 -0.4983  0.0927
 1694SOL    HW116715   0.235   1.737   9.456 -1.2863  0.4882 -0.1487
 1694SOL    HW216716   0.361   1.819   9.454 -0.7288 -2.0350 -1.8421
 1695SOL     OW16717   2.789   1.920   3.943 -0.0523  0.1423  0.0419
 1695SOL    HW116718   2.783   2.008   3.906  2.5852  1.2193  2.1462
 1695SOL    HW216719   2.819   1.944   4.031 -1.3771 -0.0671  0.5536
 1696SOL     OW16720   2.971   1.404   8.838  0.1028 -0.8470  0.0279
 1696SOL    HW116721   2.955   1.425   8.746 -0.2183 -0.8149  0.0892
 1696SOL    HW216722   2.988   1.490   8.877 -0.6522  1.0916 -3.9423
 1697SOL     OW16723   3.752   0.181  12.322  0.4300  0.0911  0.1406
 1697SOL    HW116724   3.701   0.160  12.400  1.1398 -0.9910  0.3132
 1697SOL    HW216725   3.686   0.208  12.258  0.0286  1.1495  1.0047
 1698SOL     OW16726   3.080   4.452   8.939  0.0976 -0.2396 -0.0197
 1698SOL    HW116727   3.136   4.456   9.017 -0.7521 -1.6472  0.6509
 1698SOL    HW216728   3.133   4.501   8.876  0.6016 -0.8964 -0.1050
 1699SOL     OW16729   1.823   4.125   9.069 -0.1516 -0.2532 -0.0809
 1699SOL    HW116730   1.813   4.034   9.098 -2.3265 -0.3885 -1.2707
 1699SOL    HW216731   1.899   4.110   9.012  1.0173 -0.9936  1.6804
 1700SOL     OW16732   3.580   2.582  12.561 -0.5956 -0.2640  0.2579
 1700SOL    HW116733   3.530   2.658  12.591 -0.7822 -0.6131  0.8221
 1700SOL    HW216734   3.553   2.517  12.626  0.4992  0.1188  1.0795
 1701SOL     OW16735   0.813   2.517   5.698 -0.4653  0.2175  0.1427
 1701SOL    HW116736   0.867   2.515   5.777  1.8185  1.6609 -1.3742
 1701SOL    HW216737   0.876   2.540   5.629  0.2547  0.2788  0.8189
 1702SOL     OW16738   4.661   0.137   2.102 -0.7033 -0.2161 -0.2995
 1702SOL    HW116739   4.728   0.183   2.152 -0.2346 -2.0048  0.7423
 1702SOL    HW216740   4.717   0.113   2.027  0.8913 -0.3129  0.9213
 1703SOL     OW16741   0.813   2.312   1.946 -0.3005  0.2099  0.3231
 1703SOL    HW116742   0.831   2.361   2.026  1.4605  0.8326 -0.4463
 1703SOL    HW216743   0.720   2.326   1.932 -0.2598  1.0175  0.8422
 1704SOL     OW16744   0.936   4.256   1.372 -0.4333 -0.2432  0.3378
 1704SOL    HW116745   0.914   4.225   1.284  0.2751  0.4071 -0.0745
 1704SOL    HW216746   0.918   4.349   1.359  1.3096  0.5379  3.3328
 1705SOL     OW16747   0.792   4.138   4.582  0.0392 -0.1527  0.4106
 1705SOL    HW116748   0.757   4.210   4.634 -2.9155 -0.5086 -1.0985
 1705SOL    HW216749   0.765   4.162   4.494  1.3699  3.3515  0.9433
 1706SOL     OW16750   1.091   3.172  12.906 -0.0522  0.0451 -0.3480
 1706SOL    HW116751   1.034   3.094  12.907 -0.1128  0.1030  0.3776
 1706SOL    HW216752   1.173   3.137  12.941 -0.8111  0.0087  1.3862
 1707SOL     OW16753   4.677   1.973   3.332 -0.2688  0.5294 -0.4192
 1707SOL    HW116754   0.013   1.944   3.281 -2.0429 -3.0430 -0.9915
 1707SOL    HW216755   4.717   1.982   3.418  0.5466  1.3289 -0.8846
 1708SOL     OW16756   0.780   3.524   5.273 -0.1198 -0.3197  0.0481
 1708SOL    HW116757   0.693   3.526   5.233  0.2042  1.3836 -0.5915
 1708SOL    HW216758   0.787   3.431   5.294  0.5460 -0.4150 -0.5872
 1709SOL     OW16759   2.106   0.286   8.414  0.4228  0.0414 -0.2558
 1709SOL    HW116760   2.191   0.330   8.404  1.4002 -1.9601 -0.8456
 1709SOL    HW216761   2.101   0.235   8.333  0.6387 -0.8774  0.3091
 1710SOL     OW16762   4.297   1.363  11.876  0.3620  0.1562 -0.3992
 1710SOL    HW116763   4.335   1.312  11.948 -1.0265  0.6455  0.6675
 1710SOL    HW216764   4.366   1.342  11.813  0.6040 -0.2879  0.0126
 1711SOL     OW16765   1.281   0.046  14.998 -0.1997  0.1543  0.2122
 1711SOL    HW116766   1.271   0.140  15.014 -2.5487 -0.4581  2.4829
 1711SOL    HW216767   1.375   0.038  15.011  0.3196  0.2806 -3.6246
 1712SOL     OW16768   0.805   2.679  11.018  0.1650  0.5845  0.7975
 1712SOL    HW116769   0.833   2.722  11.098  3.7058 -1.8166  0.8143
 1712SOL    HW216770   0.748   2.608  11.047  2.0329 -1.7851 -1.3073
 1713SOL     OW16771   1.587   4.422   5.482 -0.2667  0.7623  0.3241
 1713SOL    HW116772   1.582   4.463   5.395  0.2859 -1.1059 -0.5727
 1713SOL    HW216773   1.680   4.401   5.484  0.0249  2.0699  1.2471
 1714SOL     OW16774   4.428   1.636  14.619  0.0134 -0.0953  0.4172
 1714SOL    HW116775   4.333   1.646  14.621 -0.0710 -0.4533 -1.9225
 1714SOL    HW216776   4.438   1.549  14.658  0.4130 -0.8478 -1.3380
 1715SOL     OW16777   2.640   2.109   1.219  0.7538 -0.0220  0.1465
 1715SOL    HW116778   2.696   2.095   1.295 -0.2571 -0.0706  0.8934
 1715SOL    HW216779   2.697   2.137   1.148  0.8758 -1.2554 -0.2386
 1716SOL     OW16780   2.504   4.626   1.726  0.4247  0.6512  0.3855
 1716SOL    HW116781   2.559   4.579   1.663 -0.4453 -0.1853  0.2560
 1716SOL    HW216782   2.515   4.716   1.695  0.5824  0.2352 -0.7739
 1717SOL     OW16783   1.509   4.600  14.725  0.6567  0.9152 -0.2184
 1717SOL    HW116784   1.472   4.629  14.642  1.5612  0.4434 -0.7954
 1717SOL    HW216785   1.575   4.537  14.695 -0.4699 -1.1390  1.6109
 1718SOL     OW16786   4.485   2.289   3.456  0.2774 -0.3461  0.4875
 1718SOL    HW116787   4.522   2.276   3.369 -0.3376  0.9680  0.0414
 1718SOL    HW216788   4.461   2.381   3.453 -1.0835 -0.7001  0.4836
 1719SOL     OW16789   0.416   3.478   9.526  0.5499  0.4750  0.2967
 1719SOL    HW116790   0.324   3.484   9.552  0.6948  0.5650  0.7903
 1719SOL    HW216791   0.446   3.569   9.519 -0.0610  0.5211 -1.5988
 1720SOL     OW16792   3.571   2.927   3.358  0.2917  0.2529  0.4814
 1720SOL    HW116793   3.636   2.925   3.427  1.4661  0.1053 -0.6340
 1720SOL    HW216794   3.589   3.012   3.317  0.1111 -0.1137 -0.3709
 1721SOL     OW16795   1.851   2.142   8.229 -0.1991  0.2085 -0.1256
 1721SOL    HW116796   1.838   2.155   8.323  3.6289 -0.4411  0.4892
 1721SOL    HW216797   1.946   2.144   8.225 -0.2937  1.7108 -1.4437
 1722SOL     OW16798   4.221   4.525   7.623 -0.1481 -0.6394 -0.3020
 1722SOL    HW116799   4.147   4.580   7.600  2.1290  2.1930 -0.8866
 1722SOL    HW216800   4.261   4.508   7.538 -0.7249  2.1813 -1.1201
 1723SOL     OW16801   3.687   3.132   5.810  0.5397  0.2762  0.1576
 1723SOL    HW116802   3.649   3.045   5.825  1.5258 -0.3691 -1.1462
 1723SOL    HW216803   3.770   3.114   5.767 -0.6219 -1.5488 -1.3178
 1724SOL     OW16804   2.569   2.470   6.287  0.2261  0.2426  0.1093
 1724SOL    HW116805   2.515   2.426   6.352 -0.5396  0.9113 -0.0826
 1724SOL    HW216806   2.593   2.553   6.329  0.1314  0.0817  0.4820
 1725SOL     OW16807   2.172   1.240   3.723  0.5876  0.1437  0.5306
 1725SOL    HW116808   2.169   1.250   3.628  0.9111  1.4898  0.6732
 1725SOL    HW216809   2.257   1.275   3.748  0.3303  1.5091 -0.5056
 1726SOL     OW16810   1.334   1.164  14.148  0.3159 -0.0610 -0.1793
 1726SOL    HW116811   1.355   1.084  14.197 -2.1397 -0.4507  0.2393
 1726SOL    HW216812   1.421   1.200  14.132  0.6316 -0.0706  1.5324
 1727SOL     OW16813   2.614   0.698   5.990  0.0220 -0.4841  0.1232
 1727SOL    HW116814   2.670   0.775   5.986  2.6646 -2.3758  0.0573
 1727SOL    HW216815   2.549   0.733   6.050  1.3834 -0.0430  1.3353
 1728SOL     OW16816   1.266   2.295   8.844  0.0894 -0.2266 -0.1351
 1728SOL    HW116817   1.232   2.210   8.873 -0.2229 -0.5113 -1.3185
 1728SOL    HW216818   1.301   2.319   8.929 -1.7595 -0.2522  0.6264
 1729SOL     OW16819   2.559   3.976   9.168  0.1323 -0.9821 -0.5635
 1729SOL    HW116820   2.651   4.001   9.176  0.0814 -1.0254  0.1379
 1729SOL    HW216821   2.540   3.975   9.261  0.4767 -2.6855 -0.5119
 1730SOL     OW16822   0.649   1.251   7.790  0.3743  0.3703 -0.1021
 1730SOL    HW116823   0.625   1.296   7.872 -1.2100  0.2232 -0.4905
 1730SOL    HW216824   0.586   1.179   7.788 -0.6109  1.1858  0.8723
 1731SOL     OW16825   2.044   4.715  13.904  0.5755 -0.0002  0.0623
 1731SOL    HW116826   2.095   4.726  13.824 -1.2051 -1.9710 -1.3100
 1731SOL    HW216827   2.033   4.622  13.889  2.6649 -0.1343 -0.6110
 1732SOL     OW16828   3.567   1.957   2.473 -0.1053  0.2503 -0.1983
 1732SOL    HW116829   3.488   1.903   2.462 -0.9906  1.6338 -0.6543
 1732SOL    HW216830   3.612   1.927   2.395  0.6036 -0.9388  0.6673
 1733SOL     OW16831   2.423   1.230   6.756 -0.3366  0.6280 -0.4408
 1733SOL    HW116832   2.328   1.220   6.744 -0.4616  2.2652 -0.7822
 1733SOL    HW216833   2.458   1.167   6.692  0.3552 -0.2497  0.8076
 1734SOL     OW16834   3.565   2.932   6.598 -0.2653  0.2273 -0.2240
 1734SOL    HW116835   3.606   3.019   6.595 -1.3113  0.7950  1.7019
 1734SOL    HW216836   3.575   2.905   6.689 -3.6910 -2.0068 -0.5282
 1735SOL     OW16837   2.389   1.289   4.328 -0.4935  0.0654  0.0583
 1735SOL    HW116838   2.457   1.235   4.286 -1.2323 -1.2521  0.5419
 1735SOL    HW216839   2.352   1.333   4.251  0.8541  2.9426  1.0702
 1736SOL     OW16840   1.114   3.789   3.371  0.1234  0.7310  0.5934
 1736SOL    HW116841   1.162   3.808   3.290 -0.3462  0.9428  0.3635
 1736SOL    HW216842   1.115   3.693   3.374 -0.8363  0.6798 -0.6773
 1737SOL     OW16843   4.556   1.221   6.884 -0.2057  0.1949  0.4605
 1737SOL    HW116844   4.628   1.281   6.904  2.1978 -2.5409  0.1401
 1737SOL    HW216845   4.569   1.147   6.943 -1.5556 -1.1592 -0.9346
 1738SOL     OW16846   1.292   2.715   6.208  0.6654  0.7902  0.0189
 1738SOL    HW116847   1.266   2.802   6.176 -0.1719  0.1042 -1.1723
 1738SOL    HW216848   1.370   2.692   6.158  0.2244 -0.0570 -0.2879
 1739SOL     OW16849   4.433   2.856  14.612  0.0348 -0.0291  0.1992
 1739SOL    HW116850   4.518   2.899  14.624  0.8595 -2.4289  2.8914
 1739SOL    HW216851   4.382   2.933  14.637  0.0054  0.2324 -0.6522
 1740SOL     OW16852   0.358   3.822  15.852  0.1578 -0.4047 -0.5220
 1740SOL    HW116853   0.435   3.820  15.910  0.5021  2.0411 -0.8957
 1740SOL    HW216854   0.376   3.900  15.799  0.7558  0.4106  0.8917
 1741SOL     OW16855   1.209   4.526   4.886  0.2025  0.4275 -0.0312
 1741SOL    HW116856   1.117   4.501   4.875  0.2230  0.3739 -0.0838
 1741SOL    HW216857   1.233   4.546   4.795  0.9384  2.7234  0.6965
 1742SOL     OW16858   4.319   0.304   2.470  0.3419  0.5004 -0.0112
 1742SOL    HW116859   4.316   0.373   2.536  0.3756  1.6298 -1.1993
 1742SOL    HW216860   4.373   0.331   2.396  1.9387  0.8431  1.2859
 1743SOL     OW16861   4.074   3.483   7.949 -0.6178  0.3711 -1.0921
 1743SOL    HW116862   4.103   3.563   7.905  0.3520 -0.6040 -2.1979
 1743SOL    HW216863   3.984   3.478   7.914 -0.3741 -0.7270 -1.5419
 1744SOL     OW16864   4.034   4.171   8.283  0.3880  0.5168 -0.4745
 1744SOL    HW116865   3.982   4.241   8.242 -3.5978 -1.2706  1.5014
 1744SOL    HW216866   4.110   4.181   8.226 -0.4423  1.4838 -1.4248
 1745SOL     OW16867   0.407   1.528   3.481  0.3490  0.5592 -0.3613
 1745SOL    HW116868   0.432   1.617   3.508  0.7775 -0.4453  2.5718
 1745SOL    HW216869   0.323   1.541   3.438  0.5130  0.3365 -0.7471
 1746SOL     OW16870   4.430   2.220  15.794 -0.7270  0.5688 -0.2707
 1746SOL    HW116871   4.466   2.308  15.786  2.1326 -0.5546  0.0273
 1746SOL    HW216872   4.359   2.245  15.853 -1.2317  0.1394 -0.6923
 1747SOL     OW16873   3.690   0.882  11.271 -0.2629  0.5946  0.1113
 1747SOL    HW116874   3.719   0.972  11.287  1.0975 -0.0301  1.1821
 1747SOL    HW216875   3.763   0.866  11.211 -1.1195  2.1873 -1.3731
 1748SOL     OW16876   0.354   1.028   4.359  0.3179  0.2264  0.1250
 1748SOL    HW116877   0.262   1.028   4.332  0.4220  0.2188 -0.2350
 1748SOL    HW216878   0.362   1.112   4.405  0.0351 -0.2312  0.9933
 1749SOL     OW16879   0.089   3.800   9.098 -0.4758  0.1282  0.4821
 1749SOL    HW116880   0.117   3.856   9.171  1.0562  1.7482 -1.3474
 1749SOL    HW216881   0.098   3.711   9.133  2.8416 -0.0330 -0.7306
 1750SOL     OW16882   0.541   3.399  16.423  0.4557 -0.8982  0.6078
 1750SOL    HW116883   0.456   3.379  16.461  0.1776 -1.9368 -0.5547
 1750SOL    HW216884   0.601   3.346  16.477  0.6045  0.2056  1.5269
 1751SOL     OW16885   0.366   0.744   7.903 -0.7201 -0.1961  0.1778
 1751SOL    HW116886   0.275   0.715   7.914 -0.9990  0.1911 -1.1624
 1751SOL    HW216887   0.371   0.757   7.808 -3.9791  0.1385  0.0449
 1752SOL     OW16888   3.774   2.805  12.507  0.5852  0.1223 -0.4931
 1752SOL    HW116889   3.851   2.789  12.562 -0.5133  1.3175  1.3812
 1752SOL    HW216890   3.714   2.732  12.523  0.2830  0.7874  1.4369
 1753SOL     OW16891   1.804   4.088   2.005 -0.2099  0.4388  0.6386
 1753SOL    HW116892   1.758   4.050   1.930  1.4029  1.5803 -0.9160
 1753SOL    HW216893   1.749   4.036   2.064 -0.8417 -1.4450 -1.6412
 1754SOL     OW16894   0.372   0.881  12.397  0.9745 -0.1941 -0.0708
 1754SOL    HW116895   0.440   0.946  12.377  0.6139  0.4373  0.7728
 1754SOL    HW216896   0.415   0.809  12.444 -0.2201 -1.0129 -0.2494
 1755SOL     OW16897   0.719   1.959  17.102 -0.4280 -0.6100 -0.1299
 1755SOL    HW116898   0.788   1.979  17.165 -1.9508  1.0249  1.0358
 1755SOL    HW216899   0.733   1.869  17.072 -0.1542  0.0979 -2.1180
 1756SOL     OW16900   2.436   4.429   7.943  0.2361  0.3093  0.4468
 1756SOL    HW116901   2.388   4.494   7.892  1.8245  1.8045  0.8581
 1756SOL    HW216902   2.521   4.470   7.961 -0.2983  0.2455  3.0804
 1757SOL     OW16903   2.372   3.826   7.573  0.4606  0.1354  0.3416
 1757SOL    HW116904   2.315   3.768   7.522 -0.6473 -0.3479  2.1454
 1757SOL    HW216905   2.350   3.803   7.664  0.3658  1.0694  0.5475
 1758SOL     OW16906   0.551   2.017   3.977  0.6474  0.1598 -0.2227
 1758SOL    HW116907   0.498   2.077   4.029 -0.0637 -1.9721  1.4958
 1758SOL    HW216908   0.486   2.005   3.908 -0.5949 -1.0346  1.1650
 1759SOL     OW16909   3.320   3.713   3.273 -0.5050 -0.6040  0.5760
 1759SOL    HW116910   3.251   3.663   3.316  0.1218  0.6823  3.0361
 1759SOL    HW216911   3.356   3.640   3.223  0.3460  1.5176 -1.9344
 1760SOL     OW16912   3.049   2.524  16.727  0.0784  0.4341 -0.5482
 1760SOL    HW116913   2.957   2.527  16.698  0.2386 -1.0710 -1.2390
 1760SOL    HW216914   3.098   2.549  16.649 -0.5590  3.3298 -0.0418
 1761SOL     OW16915   4.636   0.624   6.175 -0.1543  0.1683 -0.2442
 1761SOL    HW116916   4.706   0.652   6.234  0.5238 -0.2493 -0.8594
 1761SOL    HW216917   4.659   0.677   6.099  0.0465 -1.3521 -1.2208
 1762SOL     OW16918   2.706   1.711   9.029 -0.3107  0.6872  0.0091
 1762SOL    HW116919   2.665   1.735   9.113 -3.1801 -1.8171 -0.6802
 1762SOL    HW216920   2.698   1.617   9.017 -1.7914  0.5876  1.6934
 1763SOL     OW16921   2.435   4.308   3.758 -0.1045  0.1128  0.3224
 1763SOL    HW116922   2.363   4.252   3.787  0.9320 -1.5903 -0.3951
 1763SOL    HW216923   2.389   4.392   3.759 -0.3237 -0.0092  0.7365
 1764SOL     OW16924   3.755   2.550   2.443 -0.0394 -0.4240  0.3345
 1764SOL    HW116925   3.692   2.487   2.408 -0.6061  0.4925 -0.3166
 1764SOL    HW216926   3.730   2.633   2.402 -1.6553 -0.5477  1.0660
 1765SOL     OW16927   0.811   1.678  17.187 -0.0143 -0.2030  0.1632
 1765SOL    HW116928   0.760   1.600  17.163 -1.4615  0.2470  1.7188
 1765SOL    HW216929   0.782   1.704  17.274  0.4566 -1.0766  0.5796
 1766SOL     OW16930   4.483   1.973   8.180 -0.0646  0.4888  0.1322
 1766SOL    HW116931   4.566   2.016   8.197  0.7205 -0.8135 -0.3583
 1766SOL    HW216932   4.432   2.053   8.189  1.5484  1.1721  3.2768
 1767SOL     OW16933   2.558   1.812   5.971  0.4286 -0.0556 -0.1464
 1767SOL    HW116934   2.651   1.790   5.978  0.8986  1.9184 -0.3390
 1767SOL    HW216935   2.526   1.738   5.918 -3.2307  1.4818 -0.0792
 1768SOL     OW16936   0.263   3.183  14.054  0.0140  0.5122 -0.6338
 1768SOL    HW116937   0.283   3.196  13.961 -0.2819 -1.2730 -0.9473
 1768SOL    HW216938   0.301   3.265  14.085  1.3645 -1.0248  1.7605
 1769SOL     OW16939   3.563   3.954   9.079  0.2964 -0.7670  0.6473
 1769SOL    HW116940   3.601   4.009   9.147  1.5628 -1.2235  0.3040
 1769SOL    HW216941   3.493   3.910   9.127  0.6888 -1.4604  0.5879
 1770SOL     OW16942   3.570   1.728   4.125  0.0346  0.4702 -0.4867
 1770SOL    HW116943   3.516   1.649   4.133  0.6513  0.1831  0.8083
 1770SOL    HW216944   3.509   1.783   4.076 -2.1524 -0.2434  1.4480
 1771SOL     OW16945   1.427   1.604   6.122 -0.2420  0.0446 -0.3655
 1771SOL    HW116946   1.435   1.696   6.149  0.8386  0.0398 -0.6783
 1771SOL    HW216947   1.363   1.573   6.186  0.7125 -1.0770  0.0568
 1772SOL     OW16948   2.174   1.214   6.680  0.4856  0.1141 -0.1958
 1772SOL    HW116949   2.116   1.286   6.658 -0.5610 -0.7802 -0.3453
 1772SOL    HW216950   2.158   1.160   6.602 -3.0536  0.3967  0.3707
 1773SOL     OW16951   1.174   4.545  17.525  0.0485  0.3392 -1.0616
 1773SOL    HW116952   1.196   4.466  17.474 -1.4171 -0.4665 -0.4521
 1773SOL    HW216953   1.246   4.600  17.495 -0.9047  0.8998 -2.3139
 1774SOL     OW16954   3.249   2.214   5.903 -0.5310 -0.2319  0.0982
 1774SOL    HW116955   3.185   2.274   5.939  1.6155  1.8344  0.4691
 1774SOL    HW216956   3.285   2.263   5.829  0.0069  0.1873  0.6419
 1775SOL     OW16957   3.888   0.537  11.587  0.4242 -0.5776 -0.7601
 1775SOL    HW116958   3.959   0.600  11.572 -0.0639  0.4092  1.0307
 1775SOL    HW216959   3.824   0.559  11.520  1.3269  1.0054 -1.0945
 1776SOL     OW16960   3.832   2.928   7.955 -0.1148 -0.1371  0.2706
 1776SOL    HW116961   3.852   2.843   7.993  1.5646 -0.3226 -1.0432
 1776SOL    HW216962   3.888   2.983   8.010  1.3576  1.1085 -2.4708
 1777SOL     OW16963   4.716   0.349   3.937  0.4297 -0.2832  0.0917
 1777SOL    HW116964   4.665   0.308   4.006  0.4769  1.5331  1.2035
 1777SOL    HW216965   4.684   0.299   3.862 -1.3750 -0.2924  0.8828
 1778SOL     OW16966   0.608   1.767   8.177  0.0631  0.1671 -0.0324
 1778SOL    HW116967   0.695   1.808   8.184 -0.3567  1.0071  0.2879
 1778SOL    HW216968   0.611   1.722   8.092 -2.3499  1.1650 -0.6317
 1779SOL     OW16969   2.757   1.225   3.474  0.0780 -0.4652  0.2064
 1779SOL    HW116970   2.727   1.270   3.395  1.4233  0.8617  0.4522
 1779SOL    HW216971   2.774   1.295   3.537 -0.9508  1.5035 -1.7119
 1780SOL     OW16972   2.099   3.214  13.895 -0.4014  0.3752  0.0490
 1780SOL    HW116973   2.179   3.222  13.843  0.9303  1.9087  2.3372
 1780SOL    HW216974   2.132   3.153  13.962  1.0668  1.5409  0.3888
 1781SOL     OW16975   3.426   0.753   2.823  0.1249  0.9046  0.3611
 1781SOL    HW116976   3.356   0.769   2.887  0.4353  0.2501  0.8646
 1781SOL    HW216977   3.495   0.805   2.864  1.3247 -1.0999  0.9221
 1782SOL     OW16978   2.729   2.198  11.969 -0.0688  0.5182 -0.0032
 1782SOL    HW116979   2.695   2.216  12.056 -0.2197 -1.7868  0.4162
 1782SOL    HW216980   2.791   2.270  11.956 -0.7362  1.0779 -0.1224
 1783SOL     OW16981   3.318   2.554   3.428 -0.0886 -0.0392  0.2026
 1783SOL    HW116982   3.367   2.622   3.382 -0.0145  0.0034  0.3422
 1783SOL    HW216983   3.324   2.476   3.373  3.4728 -0.2304  0.8593
 1784SOL     OW16984   2.450   3.285  10.212  0.4349 -0.5591 -0.6838
 1784SOL    HW116985   2.391   3.328  10.151 -0.9480  0.2508  1.2415
 1784SOL    HW216986   2.412   3.199  10.229  1.3238 -0.3333  2.5199
 1785SOL     OW16987   2.691   1.425   6.371 -0.0770  0.3401 -0.3739
 1785SOL    HW116988   2.626   1.355   6.376  0.2068  0.2167  1.3019
 1785SOL    HW216989   2.628   1.496   6.376 -1.0226 -0.2993 -3.2071
 1786SOL     OW16990   2.570   3.597  14.095  0.2813  0.3934  0.1113
 1786SOL    HW116991   2.534   3.679  14.062  1.0961  0.4885 -0.5107
 1786SOL    HW216992   2.496   3.535  14.088  1.0730 -0.5172 -0.1629
 1787SOL     OW16993   1.604   3.589  14.683  0.0158  0.0883 -0.1050
 1787SOL    HW116994   1.548   3.665  14.665  2.3378  2.0540  0.9582
 1787SOL    HW216995   1.692   3.627  14.692  0.2591 -0.6855  0.8051
 1788SOL     OW16996   1.994   4.244  11.488  0.6645  0.4955 -0.6827
 1788SOL    HW116997   1.988   4.335  11.460 -2.9704  0.9796  1.6808
 1788SOL    HW216998   1.908   4.234  11.530  0.8262  0.3532 -0.3829
 1789SOL     OW16999   4.604   2.149   4.009 -0.3557 -0.0818 -0.2289
 1789SOL    HW117000   4.536   2.192   4.061  0.5392  2.0516 -0.8227
 1789SOL    HW217001   4.576   2.168   3.919 -2.7541  2.6505  1.0979
 1790SOL     OW17002   4.533   1.026   6.028  0.3410 -0.2528  0.0152
 1790SOL    HW117003   4.521   1.096   5.964 -0.5484  1.0798  1.6436
 1790SOL    HW217004   4.462   0.966   6.005  0.3390  0.3115 -1.4066
 1791SOL     OW17005   0.693   4.156  15.878  0.3895 -0.1021 -0.1872
 1791SOL    HW117006   0.625   4.109  15.828  0.3931  1.6824 -1.9070
 1791SOL    HW217007   0.679   4.129  15.968  2.2714 -3.7640 -1.0065
 1792SOL     OW17008   1.027   3.937   8.612 -0.0809  0.0818 -0.0942
 1792SOL    HW117009   1.027   4.029   8.587 -1.2225  0.5491  1.5987
 1792SOL    HW217010   0.942   3.906   8.580  0.0548 -1.9619  1.4917
 1793SOL     OW17011   3.577   1.937   8.761 -0.6769  0.1156 -0.5171
 1793SOL    HW117012   3.586   1.845   8.787 -1.5345  0.7893  2.1846
 1793SOL    HW217013   3.481   1.941   8.759 -0.6897  0.5120  1.0883
 1794SOL     OW17014   1.601   0.379   0.962  0.1157  0.3187  0.4675
 1794SOL    HW117015   1.685   0.411   0.995 -0.8628  1.5364  1.7789
 1794SOL    HW217016   1.614   0.285   0.951 -0.1339  0.3463 -0.0676
 1795SOL     OW17017   1.915   1.612   1.738  0.2175 -0.4191  0.2493
 1795SOL    HW117018   1.987   1.622   1.801  1.3180 -0.5865 -0.9858
 1795SOL    HW217019   1.856   1.684   1.763 -0.6348 -0.9710 -0.1898
 1796SOL     OW17020   0.498   3.212   7.328  0.4242 -0.0592  0.3530
 1796SOL    HW117021   0.432   3.143   7.320  0.2982  0.0864  0.1385
 1796SOL    HW217022   0.537   3.204   7.415 -0.7295  1.2222  0.9686
 1797SOL     OW17023   2.462   0.160   3.574  0.1536 -0.5271  0.2218
 1797SOL    HW117024   2.374   0.172   3.609  0.5817 -1.3364  1.5931
 1797SOL    HW217025   2.445   0.096   3.505 -1.1456 -2.4132  2.2475
 1798SOL     OW17026   0.382   4.407   9.874 -0.2491  0.5264  0.4137
 1798SOL    HW117027   0.412   4.492   9.904 -3.0971  1.3445  0.8826
 1798SOL    HW217028   0.427   4.358   9.943 -2.0349 -2.6764 -0.6696
 1799SOL     OW17029   4.045   0.112   4.538  0.0792  0.3565  0.9080
 1799SOL    HW117030   4.061   0.018   4.552  0.6735  0.1627 -1.1918
 1799SOL    HW217031   4.041   0.107   4.443  0.0610 -3.0246  1.0618
 1800SOL     OW17032   4.281   1.326  15.311  0.2693 -0.3881 -0.0096
 1800SOL    HW117033   4.308   1.338  15.402 -0.0889  1.6853 -0.1728
 1800SOL    HW217034   4.193   1.288  15.314 -0.2553  0.6261 -2.5278
 1801SOL     OW17035   4.192   0.021   7.026  0.2552  0.6825 -0.1634
 1801SOL    HW117036   4.208   4.727   7.115 -1.1904  2.4383  0.7618
 1801SOL    HW217037   4.229   4.688   6.976  1.7148 -0.9113  3.1510
 1802SOL     OW17038   2.374   0.026   7.362  0.0059  1.2134 -0.3701
 1802SOL    HW117039   2.456   4.722   7.386 -1.6000 -1.2125  0.7464
 1802SOL    HW217040   2.415   0.093   7.308  1.2458  2.1794  1.7402
 1803SOL     OW17041   4.053   3.463   1.540  0.6499 -0.1504  0.1639
 1803SOL    HW117042   4.054   3.482   1.447  2.1116 -0.4679  0.1174
 1803SOL    HW217043   4.030   3.370   1.547  1.5370 -0.3754  0.0453
 1804SOL     OW17044   4.054   3.425   8.741  0.9036 -0.1766 -0.2982
 1804SOL    HW117045   4.023   3.516   8.744  1.4127 -0.0488  1.1234
 1804SOL    HW217046   4.144   3.441   8.769  1.5152 -1.6884 -1.3980
 1805SOL     OW17047   3.355   3.950  16.741 -0.2056 -0.6092  0.1715
 1805SOL    HW117048   3.325   4.040  16.732  0.6072 -0.2588  0.9068
 1805SOL    HW217049   3.332   3.917  16.654  0.7915 -1.6780  0.3051
 1806SOL     OW17050   1.963   0.092  10.367 -0.0747  0.4298 -0.7628
 1806SOL    HW117051   1.912   0.019  10.330  0.8436  0.4479 -2.0594
 1806SOL    HW217052   1.947   0.152  10.295  1.3898  0.4331 -1.0801
 1807SOL     OW17053   4.051   0.484   1.983  0.0079 -0.2758 -0.3445
 1807SOL    HW117054   4.003   0.564   2.007 -1.1354 -0.6002 -1.5427
 1807SOL    HW217055   4.099   0.466   2.063 -2.3006 -0.7793  0.9482
 1808SOL     OW17056   4.141   4.265   2.783 -0.2483  0.2162  0.0757
 1808SOL    HW117057   4.165   4.354   2.811 -0.4240 -0.2436  1.7058
 1808SOL    HW217058   4.051   4.288   2.760 -0.6239 -0.5195  0.8354
 1809SOL     OW17059   3.769   1.903   7.351 -0.2364  0.3039  0.0989
 1809SOL    HW117060   3.704   1.966   7.320 -1.8895 -1.5781 -0.3213
 1809SOL    HW217061   3.719   1.843   7.407 -0.7956  2.1146  1.5214
 1810SOL     OW17062   1.683   0.207  12.470 -0.0585  0.0457 -0.5283
 1810SOL    HW117063   1.652   0.288  12.429  2.4519  0.2798 -1.9374
 1810SOL    HW217064   1.613   0.145  12.445  0.7935 -1.6665  1.3811
 1811SOL     OW17065   1.703   2.355   2.324  0.3204  0.1198 -0.7507
 1811SOL    HW117066   1.759   2.372   2.249  0.5525  1.2095 -0.3273
 1811SOL    HW217067   1.697   2.260   2.331 -1.7651  0.1760 -1.7597
 1812SOL     OW17068   2.021   4.720   4.864 -0.0813 -0.9828  0.4320
 1812SOL    HW117069   2.038   4.626   4.858 -0.2309 -0.8860 -1.5874
 1812SOL    HW217070   2.097   0.023   4.824 -1.0462  1.6407  1.3793
 1813SOL     OW17071   2.150   0.185   3.401  0.6370  0.1226 -0.1906
 1813SOL    HW117072   2.173   0.197   3.309 -1.0245  1.6933 -0.3938
 1813SOL    HW217073   2.124   0.275   3.420 -0.6785 -0.1895 -0.4747
 1814SOL     OW17074   1.336   2.049   8.613  0.4507  0.2207 -0.0533
 1814SOL    HW117075   1.335   1.956   8.633  2.0084 -0.2150 -2.0331
 1814SOL    HW217076   1.260   2.078   8.663 -1.3237 -0.6604 -2.2639
 1815SOL     OW17077   3.833   0.725   4.818  0.0618 -0.2241  0.4581
 1815SOL    HW117078   3.769   0.707   4.749  0.1460 -1.7923  0.7809
 1815SOL    HW217079   3.790   0.670   4.884 -0.5117 -1.5387 -1.0177
 1816SOL     OW17080   2.994   1.223  12.426  0.7671 -0.0653 -0.4566
 1816SOL    HW117081   3.026   1.246  12.514  0.2991 -1.5355  0.0905
 1816SOL    HW217082   2.965   1.309  12.396 -1.3149  0.5338  3.3175
 1817SOL     OW17083   3.853   2.201   7.804  0.6680 -0.0471  0.6176
 1817SOL    HW117084   3.768   2.161   7.823 -0.4540  1.5919 -1.0371
 1817SOL    HW217085   3.828   2.279   7.755  1.4815 -0.7535 -0.9392
 1818SOL     OW17086   2.273   4.436   0.520 -0.0428 -0.1734  0.2319
 1818SOL    HW117087   2.334   4.376   0.562  0.0244 -1.6627 -1.9688
 1818SOL    HW217088   2.339   4.484   0.469  0.2929  0.0171  0.8474
 1819SOL     OW17089   0.088   3.019   8.289 -0.8236  0.1570  0.5586
 1819SOL    HW117090   0.087   3.115   8.287  0.0440  0.2209  3.1549
 1819SOL    HW217091   0.040   3.012   8.207  0.5657  0.3231 -0.2778
 1820SOL     OW17092   2.159   0.614   4.304  0.1799 -0.1090 -0.0814
 1820SOL    HW117093   2.072   0.584   4.281  0.6022 -0.8173 -0.7451
 1820SOL    HW217094   2.208   0.532   4.294 -0.8078 -0.4536 -2.2034
 1821SOL     OW17095   2.846   1.638  16.495  0.4840 -0.5340 -1.1106
 1821SOL    HW117096   2.802   1.579  16.556  4.5113 -0.0752  2.2064
 1821SOL    HW217097   2.810   1.591  16.419 -1.5995  0.0063 -0.4420
 1822SOL     OW17098   0.005   2.800   3.143  0.0423 -0.2737  0.2933
 1822SOL    HW117099   4.692   2.853   3.204  1.2322  1.0907  0.1375
 1822SOL    HW217100   4.690   2.726   3.115 -0.3009  0.7080 -1.6872
 1823SOL     OW17101   2.691   3.600   6.172  0.1665  0.8478 -0.4558
 1823SOL    HW117102   2.726   3.680   6.212  0.5509  1.0083 -1.1151
 1823SOL    HW217103   2.600   3.606   6.201  0.8157  0.6466  1.6442
 1824SOL     OW17104   4.594   2.279  11.445 -0.1789 -0.1952 -0.0818
 1824SOL    HW117105   4.643   2.311  11.521  2.2089 -2.9788 -0.4559
 1824SOL    HW217106   4.650   2.210  11.410  0.9205 -0.0367  1.3342
 1825SOL     OW17107   3.649   0.492   6.680  0.3808 -0.0396 -0.4124
 1825SOL    HW117108   3.663   0.476   6.773 -0.3848 -2.3323 -0.6714
 1825SOL    HW217109   3.711   0.562   6.659 -1.0109  1.3297  0.1058
 1826SOL     OW17110   3.167   3.092  16.964 -0.0442 -0.6484 -0.4348
 1826SOL    HW117111   3.125   3.162  17.015  1.4697 -1.0430  1.3706
 1826SOL    HW217112   3.199   3.045  17.041 -0.1775  0.6551  0.4299
 1827SOL     OW17113   3.230   2.756  14.434  0.1435 -0.9458  0.1275
 1827SOL    HW117114   3.147   2.734  14.393 -0.5603  0.8781  0.5730
 1827SOL    HW217115   3.209   2.771  14.526 -0.0517 -2.1662  0.2807
 1828SOL     OW17116   4.612   4.353   1.887  0.0948  0.5308 -0.1368
 1828SOL    HW117117   4.548   4.296   1.931 -0.6832  1.9128  0.5228
 1828SOL    HW217118   4.691   4.347   1.941  0.7690 -0.8651 -1.2737
 1829SOL     OW17119   3.522   2.753   2.114 -0.3666  0.1673  0.1159
 1829SOL    HW117120   3.513   2.821   2.047 -3.0102 -0.1018  0.2104
 1829SOL    HW217121   3.443   2.705   2.090  0.4433 -1.8822  1.5720
 1830SOL     OW17122   1.636   0.562   1.204 -0.7570  0.2508 -0.4135
 1830SOL    HW117123   1.565   0.498   1.199  0.4096 -1.0896  0.1637
 1830SOL    HW217124   1.601   0.628   1.265  0.4568  0.5935 -0.0921
 1831SOL     OW17125   2.377   0.739   8.094 -0.2594 -0.0056  0.2682
 1831SOL    HW117126   2.327   0.702   8.022 -0.0196  1.8332 -0.8659
 1831SOL    HW217127   2.379   0.832   8.070 -1.3142  0.6508  2.7044
 1832SOL     OW17128   0.717   0.631  17.048 -0.2924 -0.0814  0.5316
 1832SOL    HW117129   0.711   0.727  17.047  0.2534 -0.0486  0.6542
 1832SOL    HW217130   0.651   0.602  16.985  1.7354  1.8646 -2.4768
 1833SOL     OW17131   2.293   4.413   2.448 -0.7017 -0.0651 -0.8763
 1833SOL    HW117132   2.331   4.402   2.361  0.3113 -0.3134 -0.4009
 1833SOL    HW217133   2.204   4.446   2.436 -0.4285  1.1038  0.3877
 1834SOL     OW17134   2.491   0.288   5.970  0.1882  0.3238 -0.3032
 1834SOL    HW117135   2.534   0.212   6.008 -0.4487 -0.1367 -0.5149
 1834SOL    HW217136   2.573   0.329   5.943  3.2007 -4.0740  2.2456
 1835SOL     OW17137   4.662   3.490   3.875  0.9201  0.1281 -0.0871
 1835SOL    HW117138   4.674   3.515   3.967 -0.2939 -1.7217  0.5707
 1835SOL    HW217139   4.673   3.569   3.822  0.4117  0.7728  0.7711
 1836SOL     OW17140   0.501   2.749  11.628  0.6699  0.1547 -0.0590
 1836SOL    HW117141   0.503   2.826  11.685  2.2371  0.0443  0.0299
 1836SOL    HW217142   0.575   2.699  11.663 -0.2541  0.3691  2.2330
 1837SOL     OW17143   2.490   2.918   7.094 -0.4867  0.6732  0.3203
 1837SOL    HW117144   2.547   2.894   7.021 -1.0173 -0.2613  0.2241
 1837SOL    HW217145   2.411   2.884   7.052  1.5085 -1.7049 -1.4969
 1838SOL     OW17146   3.311   1.456   1.854 -0.1800 -0.0111 -0.7667
 1838SOL    HW117147   3.285   1.429   1.942 -2.2235  3.8315 -0.1861
 1838SOL    HW217148   3.342   1.374   1.817  0.4370 -1.2755  2.5817
 1839SOL     OW17149   1.211   0.033   7.084  0.8705 -0.7240 -0.4786
 1839SOL    HW117150   1.290   4.719   7.072  1.0528 -0.7197  0.7443
 1839SOL    HW217151   1.236   0.123   7.064 -0.1055 -0.8956 -2.5006
 1840SOL     OW17152   0.580   2.672   2.854  0.0475 -0.5449 -0.7316
 1840SOL    HW117153   0.519   2.598   2.854  0.5377 -0.9496  2.1472
 1840SOL    HW217154   0.532   2.737   2.803 -2.1604 -0.5020  1.3747
 1841SOL     OW17155   3.103   0.897   7.006 -0.2758 -0.1084 -0.0017
 1841SOL    HW117156   3.061   0.938   6.931  1.5217  0.3058 -0.7715
 1841SOL    HW217157   3.141   0.819   6.966 -1.6148 -1.7673  1.9865
 1842SOL     OW17158   4.536   4.147   2.120  0.4476  0.1894 -0.0537
 1842SOL    HW117159   4.467   4.081   2.110 -1.2420  2.0341 -0.4910
 1842SOL    HW217160   4.489   4.210   2.175 -0.1022 -0.9119  0.7415
 1843SOL     OW17161   1.259   2.974   5.115  0.0141  0.1547  0.4692
 1843SOL    HW117162   1.295   3.052   5.074 -0.1915 -0.2507 -0.4952
 1843SOL    HW217163   1.172   2.977   5.074 -0.3980 -0.1652  1.3133
 1844SOL     OW17164   2.984   0.146   7.635 -0.5617  0.1284  0.1233
 1844SOL    HW117165   3.021   0.139   7.723  0.0090  0.5528 -0.0793
 1844SOL    HW217166   2.965   0.239   7.620  0.6182  0.2698 -0.4749
 1845SOL     OW17167   2.178   2.717   4.182  0.2434 -0.0620 -0.3240
 1845SOL    HW117168   2.152   2.699   4.092  1.2406 -3.0394 -0.0053
 1845SOL    HW217169   2.266   2.745   4.156 -0.0687  0.2796 -1.0179
 1846SOL     OW17170   1.127   0.163   9.027  0.5195 -0.3848  0.2008
 1846SOL    HW117171   1.064   0.227   8.996  0.2963 -0.4896  0.4373
 1846SOL    HW217172   1.069   0.095   9.061  0.3458 -0.7902 -0.9123
 1847SOL     OW17173   4.462   4.272   7.761 -0.0081  0.0826  0.1824
 1847SOL    HW117174   4.517   4.204   7.801 -1.3080 -0.2167  1.4607
 1847SOL    HW217175   4.492   4.266   7.670 -1.6112  0.8256 -0.3819
 1848SOL     OW17176   1.929   0.235   3.027  0.3810  0.3821  0.2426
 1848SOL    HW117177   1.870   0.243   2.952  0.3672  2.6581  0.4936
 1848SOL    HW217178   1.939   0.330   3.033  0.8924  0.3598 -0.2322
 1849SOL     OW17179   3.598   4.185   4.655 -0.0506 -0.2027 -0.2958
 1849SOL    HW117180   3.651   4.261   4.678 -1.2915  0.4753  0.3499
 1849SOL    HW217181   3.620   4.188   4.563  1.3322 -1.5440  0.0020
 1850SOL     OW17182   1.192   3.324   1.180  0.0800  0.3115  0.0671
 1850SOL    HW117183   1.270   3.339   1.127  0.4438 -1.5964  0.0671
 1850SOL    HW217184   1.172   3.232   1.163  1.6658 -0.0075 -0.0428
 1851SOL     OW17185   0.903   1.620   3.927 -0.4539 -0.6180  0.3595
 1851SOL    HW117186   0.881   1.578   4.011 -1.1938  0.8960  0.9187
 1851SOL    HW217187   0.861   1.704   3.943 -1.5971 -0.8544 -1.4254
 1852SOL     OW17188   1.303   0.247  15.485 -0.4665  0.5281 -0.4105
 1852SOL    HW117189   1.261   0.286  15.408 -0.7830  0.9167 -0.0431
 1852SOL    HW217190   1.271   0.157  15.490  0.7956  0.1973  1.6853
 1853SOL     OW17191   2.532   1.193   2.447 -0.2591 -0.0662 -0.2302
 1853SOL    HW117192   2.556   1.109   2.408 -1.2686 -1.6912  2.6420
 1853SOL    HW217193   2.590   1.245   2.392  0.2346 -0.5691 -0.1867
 1854SOL     OW17194   2.908   3.509   1.895  0.1899  0.1761  0.3116
 1854SOL    HW117195   2.867   3.475   1.975 -1.4063  2.1016  0.3184
 1854SOL    HW217196   2.855   3.498   1.816  3.6143 -1.1328 -1.8150
 1855SOL     OW17197   2.118   1.743   9.019  0.7239  1.1088 -0.3458
 1855SOL    HW117198   2.048   1.683   9.042  2.2040 -0.3510  0.3723
 1855SOL    HW217199   2.062   1.804   8.971  1.1834  2.0776  0.3498
 1856SOL     OW17200   0.502   2.181   2.673  0.0868 -0.2695  0.2778
 1856SOL    HW117201   0.588   2.212   2.645 -0.4293  0.3147 -0.6528
 1856SOL    HW217202   0.443   2.206   2.602 -0.3219 -2.2102 -0.0668
 1857SOL     OW17203   1.600   1.722   3.591 -0.5484 -0.2234  0.3317
 1857SOL    HW117204   1.586   1.799   3.536  1.7510 -1.1867 -1.5983
 1857SOL    HW217205   1.694   1.708   3.585 -0.5913 -0.1710 -0.4468
 1858SOL     OW17206   4.599   0.224   9.386 -0.3839  0.7966  1.0606
 1858SOL    HW117207   4.631   0.178   9.464  0.7415 -2.0707 -1.1153
 1858SOL    HW217208   4.525   0.272   9.423  0.0275  1.0499  1.5625
 1859SOL     OW17209   0.857   2.813   4.551  0.5953 -0.1149 -0.7126
 1859SOL    HW117210   0.883   2.870   4.623  2.6878  0.9643 -2.3144
 1859SOL    HW217211   0.762   2.815   4.561  0.6324 -1.8884 -0.0091
 1860SOL     OW17212   0.300   1.095   0.193  0.0253  0.8647  0.4083
 1860SOL    HW117213   0.359   1.168   0.172 -0.1537  0.3744 -1.7418
 1860SOL    HW217214   0.233   1.110   0.127 -1.3488 -0.3857  1.5187
 1861SOL     OW17215   3.399   3.292   4.848  0.4583  0.4177  0.2849
 1861SOL    HW117216   3.468   3.324   4.907 -0.7701  2.4837  0.6101
 1861SOL    HW217217   3.455   3.265   4.776  0.6711 -0.0087  0.6056
 1862SOL     OW17218   2.273   3.532  15.395  0.2468  0.1174  0.3479
 1862SOL    HW117219   2.192   3.486  15.371 -0.5709  1.5499  0.3442
 1862SOL    HW217220   2.244   3.622  15.377  1.6048  0.5314  0.2603
 1863SOL     OW17221   2.995   4.373   6.408  0.1858 -0.1012 -0.1514
 1863SOL    HW117222   2.907   4.369   6.445 -0.8512 -1.7809 -2.7520
 1863SOL    HW217223   2.973   4.327   6.327  1.2659  4.4811 -3.0755
 1864SOL     OW17224   3.426   4.223   0.096  0.0897  0.1244 -0.9293
 1864SOL    HW117225   3.387   4.136   0.096 -1.7052  0.9314 -0.3219
 1864SOL    HW217226   3.426   4.250   0.004  2.1262  2.4328 -0.2476
 1865SOL     OW17227   4.231   4.144   8.604 -0.5530 -0.4274 -0.4994
 1865SOL    HW117228   4.239   4.085   8.530 -0.2840 -2.0256  0.8068
 1865SOL    HW217229   4.244   4.230   8.563  1.1562  0.2342  1.4165
 1866SOL     OW17230   0.031   3.668   2.199 -0.5372 -0.0829 -0.1182
 1866SOL    HW117231   0.082   3.726   2.142 -3.7008  0.5873 -2.2593
 1866SOL    HW217232   4.731   3.606   2.138 -3.4715  0.4348  1.2416
 1867SOL     OW17233   3.967   1.052   8.243  0.0737 -0.2492  0.4208
 1867SOL    HW117234   3.952   1.101   8.162 -0.4530 -1.5748 -0.2956
 1867SOL    HW217235   3.994   1.117   8.308  1.1004  0.4525 -0.6909
 1868SOL     OW17236   4.684   4.624   4.210 -0.1745 -0.0561 -0.1379
 1868SOL    HW117237   4.675   4.647   4.118 -2.3230 -1.4204 -0.2607
 1868SOL    HW217238   4.597   4.593   4.237 -0.0958  0.9823  1.3149
 1869SOL     OW17239   1.798   4.657   7.443  0.2479  0.2879 -0.2536
 1869SOL    HW117240   1.710   4.641   7.409  0.7016 -1.7593 -0.4749
 1869SOL    HW217241   1.794   4.631   7.535  0.4027 -1.8199 -0.8487
 1870SOL     OW17242   0.878   1.103   9.983 -0.2801 -0.2381 -0.1743
 1870SOL    HW117243   0.925   1.183  10.005  0.9092 -1.5438  1.9930
 1870SOL    HW217244   0.951   1.041   9.987  1.6733  2.1083  0.6696
 1871SOL     OW17245   3.546   1.944   3.246  0.2904 -0.2656 -0.0190
 1871SOL    HW117246   3.565   1.976   3.158  0.5495  1.0674  0.5113
 1871SOL    HW217247   3.454   1.969   3.257  0.9941  1.5750  1.6911
 1872SOL     OW17248   4.276   1.573   3.689  0.3061  0.4429 -0.0878
 1872SOL    HW117249   4.223   1.626   3.749  0.2048 -0.1889  0.3794
 1872SOL    HW217250   4.215   1.552   3.619 -0.0883 -2.4673  1.1143
 1873SOL     OW17251   1.498   3.632  10.237  0.3952 -0.0082  0.2601
 1873SOL    HW117252   1.565   3.583  10.285  0.0988  1.5462  2.2620
 1873SOL    HW217253   1.533   3.714  10.270  1.2322 -0.0996 -0.3677
 1874SOL     OW17254   2.098   3.689   3.846  0.6330 -0.0380  0.5435
 1874SOL    HW117255   2.009   3.698   3.810  0.6211  2.9812  1.3564
 1874SOL    HW217256   2.082   3.600   3.878  0.4736 -0.1155  0.2547
 1875SOL     OW17257   1.686   1.318   8.796 -0.4789 -0.3503 -0.0938
 1875SOL    HW117258   1.676   1.260   8.872 -2.2703 -1.0973 -0.8985
 1875SOL    HW217259   1.632   1.281   8.727  0.9180 -0.2364 -1.2479
 1876SOL     OW17260   0.675   2.184   4.855  0.6798  0.0992  0.5374
 1876SOL    HW117261   0.660   2.218   4.944 -2.0840 -1.6426  0.7411
 1876SOL    HW217262   0.588   2.147   4.836  2.3625 -2.5575 -1.8708
 1877SOL     OW17263   3.073   1.479  11.056  0.1904 -0.2555  0.1672
 1877SOL    HW117264   3.107   1.551  11.003  0.7337 -0.0848  0.7436
 1877SOL    HW217265   3.145   1.481  11.119 -1.6552 -0.2265  2.2392
 1878SOL     OW17266   4.507   0.798   2.060 -0.1888 -0.0876 -0.5939
 1878SOL    HW117267   4.469   0.827   2.143 -0.0994 -2.3966  0.2480
 1878SOL    HW217268   4.430   0.784   2.006  0.1390 -0.9651 -0.8347
 1879SOL     OW17269   2.947   2.228   9.080 -0.3902 -0.0885  0.1837
 1879SOL    HW117270   3.020   2.199   9.136 -0.1132  0.4935  0.1252
 1879SOL    HW217271   2.897   2.147   9.072  2.5573 -1.7210 -1.9101
 1880SOL     OW17272   3.035   2.892   2.857  0.0941  0.1662 -0.3359
 1880SOL    HW117273   2.961   2.883   2.917  0.7641  0.7485  0.5776
 1880SOL    HW217274   3.001   2.963   2.802 -0.7783  0.8087  1.0391
 1881SOL     OW17275   3.003   0.122   5.475  0.3759 -0.4325 -0.1926
 1881SOL    HW117276   2.996   0.144   5.568  0.9111 -0.7611 -0.0764
 1881SOL    HW217277   2.953   0.194   5.435  1.2272  0.2214 -0.0845
 1882SOL     OW17278   2.523   0.911   8.522 -0.0980  0.1500  0.2722
 1882SOL    HW117279   2.559   0.902   8.610 -1.0135  0.2004  0.6530
 1882SOL    HW217280   2.583   0.868   8.462  2.6470  2.0777  1.6666
 1883SOL     OW17281   2.245   1.621  11.314  0.0853  0.1592  0.2279
 1883SOL    HW117282   2.310   1.576  11.369 -0.4355  1.7032  2.1370
 1883SOL    HW217283   2.199   1.678  11.376 -3.4867 -0.1894 -2.1186
 1884SOL     OW17284   4.293   0.930   0.457  0.8452 -0.6070  0.0292
 1884SOL    HW117285   4.221   0.980   0.495 -1.4441 -2.8707 -1.3408
 1884SOL    HW217286   4.357   0.995   0.430 -1.3222  1.2264 -0.7113
 1885SOL     OW17287   2.366   1.657   8.100  0.2492  0.1185 -0.1478
 1885SOL    HW117288   2.385   1.748   8.122 -1.8197  0.3316  0.7667
 1885SOL    HW217289   2.433   1.625   8.039  1.5274  1.1598  0.7136
 1886SOL     OW17290   0.366   1.052  13.195  0.6133 -0.3251 -0.5973
 1886SOL    HW117291   0.353   1.004  13.277 -0.6550  0.7863 -0.1476
 1886SOL    HW217292   0.286   1.100  13.178 -0.5248 -2.2661 -0.7744
 1887SOL     OW17293   2.291   3.244   8.862 -0.0442 -0.7691  0.1984
 1887SOL    HW117294   2.255   3.326   8.895  1.7313 -0.2887  0.9367
 1887SOL    HW217295   2.380   3.250   8.896 -0.7905 -0.7871  2.1451
 1888SOL     OW17296   0.142   0.480   6.914 -0.1100 -0.4656 -0.7402
 1888SOL    HW117297   0.134   0.449   6.823 -1.0116  1.6605 -1.3762
 1888SOL    HW217298   0.159   0.574   6.908  3.2909 -0.9580  1.4148
 1889SOL     OW17299   1.996   3.692   6.314 -0.4721 -0.0184 -0.3233
 1889SOL    HW117300   1.945   3.771   6.331  0.1872  0.0791  1.2207
 1889SOL    HW217301   1.919   3.636   6.304 -1.7762  1.4438  1.5381
 1890SOL     OW17302   2.754   0.382   2.943  0.5839 -0.1457 -0.3510
 1890SOL    HW117303   2.770   0.298   2.986  1.7257  0.1322 -0.2359
 1890SOL    HW217304   2.793   0.357   2.859 -1.4500  0.9444 -1.6140
 1891SOL     OW17305   2.344   3.164  11.127  0.3840  0.0158  0.1462
 1891SOL    HW117306   2.373   3.074  11.117  0.8875  0.0350  1.4396
 1891SOL    HW217307   2.424   3.215  11.113  0.7271 -0.1179  1.6461
 1892SOL     OW17308   2.851   1.797   4.205 -0.9200  0.0827 -0.6188
 1892SOL    HW117309   2.771   1.784   4.153 -1.1843  0.0783 -0.2061
 1892SOL    HW217310   2.897   1.716   4.183 -3.0931 -1.0576 -0.9666
 1893SOL     OW17311   2.745   4.718   8.493 -0.1973  0.7979  0.4982
 1893SOL    HW117312   2.678   0.046   8.490  0.0801  1.0217 -0.6385
 1893SOL    HW217313   2.697   4.635   8.489  2.8389 -0.8400 -1.4216
 1894SOL     OW17314   2.810   1.074   7.395 -0.2609  0.0731  0.1212
 1894SOL    HW117315   2.856   1.025   7.463 -0.0273 -2.1058 -1.6128
 1894SOL    HW217316   2.831   1.028   7.314 -0.8636 -0.9404  0.5333
 1895SOL     OW17317   0.871   3.301   2.955  0.1995  0.2338  0.0428
 1895SOL    HW117318   0.840   3.371   2.898 -0.6783 -0.7511 -0.6909
 1895SOL    HW217319   0.816   3.230   2.923  0.9602 -0.0239 -0.6852
 1896SOL     OW17320   1.137   2.268   6.814 -0.2361  0.7524  0.2579
 1896SOL    HW117321   1.044   2.248   6.821 -0.5080  1.4260 -1.2904
 1896SOL    HW217322   1.142   2.336   6.881 -0.2795  2.3988 -1.3980
 1897SOL     OW17323   0.617   0.156   8.104 -1.1368  0.3753 -0.1016
 1897SOL    HW117324   0.558   0.081   8.112 -0.2414 -0.3921 -0.7979
 1897SOL    HW217325   0.590   0.221   8.169 -0.6927 -0.2663  0.7117
 1898SOL     OW17326   2.049   4.076   8.917 -0.0158 -0.0799 -0.7166
 1898SOL    HW117327   2.020   4.113   8.833  2.2133 -1.2811 -2.0092
 1898SOL    HW217328   2.112   4.008   8.892  1.0623  0.7890 -0.3285
 1899SOL     OW17329   3.727   2.432   0.391  0.0949 -1.1380 -0.6977
 1899SOL    HW117330   3.800   2.427   0.329  1.0780  1.2624  0.2630
 1899SOL    HW217331   3.745   2.366   0.458  0.8654 -1.0076 -0.7744
 1900SOL     OW17332   0.457   2.290   6.622 -0.2498  0.0601 -0.1927
 1900SOL    HW117333   0.406   2.209   6.624  0.9154 -0.6246  1.7016
 1900SOL    HW217334   0.466   2.310   6.716 -0.3361 -0.1747 -0.1348
 1901SOL     OW17335   0.307   2.399   4.346  0.2768 -0.3925  0.2054
 1901SOL    HW117336   0.240   2.402   4.415  0.0027  0.0824 -0.0747
 1901SOL    HW217337   0.296   2.481   4.298 -1.3669 -0.8172 -0.1494
 1902SOL     OW17338   1.354   1.894  16.445  0.2298 -0.5119  0.3153
 1902SOL    HW117339   1.279   1.950  16.424  1.3857  0.3236 -1.5778
 1902SOL    HW217340   1.324   1.826  16.506 -2.5816 -0.1673 -0.6475
 1903SOL     OW17341   2.159   1.817   1.642 -0.3649  0.3126  0.0214
 1903SOL    HW117342   2.244   1.810   1.598 -0.1873 -0.3484  0.4683
 1903SOL    HW217343   2.118   1.739   1.605  0.9103 -0.8214  0.9920
 1904SOL     OW17344   1.369   1.064   6.110 -0.1197  0.4827  0.3932
 1904SOL    HW117345   1.443   1.053   6.170 -1.4474  2.2826  2.3444
 1904SOL    HW217346   1.300   1.036   6.170  2.5295 -1.3305  2.5731
 1905SOL     OW17347   2.333   0.189  11.807 -0.0496 -0.3106 -0.1799
 1905SOL    HW117348   2.387   0.266  11.826  0.2220 -0.4610 -0.3387
 1905SOL    HW217349   2.347   0.175  11.714  0.4788  0.9264 -0.2766
 1906SOL     OW17350   2.510   2.106   6.955 -0.1292 -0.1188 -0.2710
 1906SOL    HW117351   2.504   2.047   6.880 -1.6728  1.3369 -1.2888
 1906SOL    HW217352   2.594   2.146   6.932 -0.6632  1.1863  0.0558
 1907SOL     OW17353   0.022   3.223   6.698  0.1350 -0.1914  0.0551
 1907SOL    HW117354   4.736   3.246   6.788 -1.7765  0.3863 -0.6395
 1907SOL    HW217355   0.078   3.299   6.681 -1.4464  0.6886 -1.1572
 1908SOL     OW17356   1.754   3.412  14.452 -0.0433 -0.1272 -0.1180
 1908SOL    HW117357   1.771   3.501  14.421 -1.6577 -0.4007 -1.7533
 1908SOL    HW217358   1.814   3.360  14.399 -0.0656 -1.9137  1.6086
 1909SOL     OW17359   2.908   0.397   6.391 -0.3313  0.0941  0.0114
 1909SOL    HW117360   2.857   0.419   6.468  1.0557  1.3630  0.5729
 1909SOL    HW217361   2.942   0.312   6.419  1.6971 -0.1382 -3.1127
 1910SOL     OW17362   3.568   0.565  12.417  0.0300  0.1028  0.1019
 1910SOL    HW117363   3.600   0.577  12.507 -1.6231 -0.8647  0.8188
 1910SOL    HW217364   3.613   0.482  12.399 -0.7367 -0.6234  1.5193
 1911SOL     OW17365   4.690   1.247   1.505  0.5932 -0.4401 -0.4434
 1911SOL    HW117366   4.705   1.156   1.531 -1.5314 -0.2579  1.5010
 1911SOL    HW217367   4.631   1.281   1.573 -0.6019 -1.4740 -0.9708
 1912SOL     OW17368   3.275   4.368   6.153 -0.0919 -0.5330  0.1718
 1912SOL    HW117369   3.182   4.344   6.155  0.5696 -3.0378  0.3784
 1912SOL    HW217370   3.279   4.420   6.072  0.1547 -0.6369  0.1191
 1913SOL     OW17371   3.858   4.205   7.188  0.0667  0.0740  0.5651
 1913SOL    HW117372   3.951   4.201   7.211  0.5155  1.3327 -1.0515
 1913SOL    HW217373   3.817   4.207   7.275  2.5649 -2.0336  1.8069
 1914SOL     OW17374   0.097   1.267  16.589 -0.6418  0.0405 -0.2340
 1914SOL    HW117375   0.012   1.266  16.544 -1.4660  0.5456  1.3134
 1914SOL    HW217376   0.096   1.352  16.631 -1.9579  0.1641 -0.5051
 1915SOL     OW17377   3.476   3.271   6.023 -0.2238  0.3036  0.3628
 1915SOL    HW117378   3.510   3.184   6.001  0.2895  0.4679  0.4881
 1915SOL    HW217379   3.478   3.318   5.940  1.3014 -0.5253 -0.0808
 1916SOL     OW17380   3.506   3.933   4.202  0.9270 -0.6652  0.3333
 1916SOL    HW117381   3.543   4.017   4.230 -2.8884  1.2851 -0.5111
 1916SOL    HW217382   3.568   3.868   4.235 -0.1825 -1.0999  1.5390
 1917SOL     OW17383   1.045   4.524  15.149  0.0037  0.0435  0.1994
 1917SOL    HW117384   0.991   4.590  15.107  0.0316 -0.5293 -0.7446
 1917SOL    HW217385   1.072   4.568  15.230  0.2619 -2.5106  1.5231
 1918SOL     OW17386   3.619   0.867   4.345  0.0811 -0.4200  0.0986
 1918SOL    HW117387   3.680   0.836   4.413  1.2159 -0.6880 -1.0496
 1918SOL    HW217388   3.668   0.863   4.263 -0.5385 -1.2586 -0.2266
 1919SOL     OW17389   2.853   2.496   4.182  1.5237 -0.0152 -0.5963
 1919SOL    HW117390   2.811   2.472   4.100  0.0728 -0.4879  0.2703
 1919SOL    HW217391   2.900   2.573   4.152 -2.5496  1.5198 -3.1404
 1920SOL     OW17392   3.165   3.683   7.624 -0.3864 -0.0261 -0.4061
 1920SOL    HW117393   3.116   3.762   7.645  0.4318  1.4393 -4.0781
 1920SOL    HW217394   3.101   3.641   7.567 -0.9073 -0.8128  0.7396
 1921SOL     OW17395   2.471   3.582   5.393 -0.3509  0.0095  0.4892
 1921SOL    HW117396   2.451   3.540   5.310 -0.5135  1.7753 -0.3522
 1921SOL    HW217397   2.449   3.513   5.456  1.4979  0.6923  1.8838
 1922SOL     OW17398   3.014   1.533   8.291  0.1370 -0.2904  0.3601
 1922SOL    HW117399   3.063   1.614   8.307  0.7985 -0.3648 -1.2725
 1922SOL    HW217400   2.974   1.545   8.205 -3.1770 -1.6803  1.7018
 1923SOL     OW17401   4.228   3.822   4.931  0.1377 -0.4258  0.5812
 1923SOL    HW117402   4.286   3.811   5.006  1.2895  0.8344 -0.1277
 1923SOL    HW217403   4.138   3.827   4.962  0.2425  0.4898  0.7265
 1924SOL     OW17404   3.257   2.197   8.513 -0.4972  0.0906 -0.0951
 1924SOL    HW117405   3.302   2.131   8.461 -1.5602 -1.5803  1.0978
 1924SOL    HW217406   3.179   2.212   8.460  0.0765  1.6416 -0.5056
 1925SOL     OW17407   0.746   1.411   6.364  0.0613  0.3358 -0.2625
 1925SOL    HW117408   0.756   1.470   6.439 -0.2909  3.1666 -2.4575
 1925SOL    HW217409   0.792   1.449   6.289  1.2884  1.7404  1.1994
 1926SOL     OW17410   3.752   3.978  13.578  0.0695  0.6143  0.3518
 1926SOL    HW117411   3.774   3.891  13.613 -1.2638  0.0713 -0.1412
 1926SOL    HW217412   3.841   4.011  13.581  0.1598  0.2816  1.4235
 1927SOL     OW17413   4.696   3.444   0.024 -0.0322  0.2774  0.4081
 1927SOL    HW117414   4.700   3.424  17.686  1.4071 -0.2776  0.5899
 1927SOL    HW217415   4.729   3.365   0.067  1.6000  0.9074  0.2899
 1928SOL     OW17416   4.224   0.616  15.255 -0.2138  0.0317 -0.0519
 1928SOL    HW117417   4.290   0.557  15.293  0.6228 -0.8420 -2.8872
 1928SOL    HW217418   4.278   0.657  15.188 -2.2115  0.8724 -1.1406
 1929SOL     OW17419   2.681   2.456   9.665  0.3841 -0.6055 -0.1136
 1929SOL    HW117420   2.605   2.441   9.609 -1.4201  3.6250  1.2384
 1929SOL    HW217421   2.729   2.508   9.600 -1.3680  2.1073  0.8091
 1930SOL     OW17422   1.255   3.073   7.821 -0.4373 -0.3625  0.0983
 1930SOL    HW117423   1.345   3.100   7.803 -0.0958 -0.2724  1.9281
 1930SOL    HW217424   1.242   3.048   7.730  0.2262 -0.4975  0.0427
 1931SOL     OW17425   0.468   3.773   6.171 -0.3222 -0.7825  0.3897
 1931SOL    HW117426   0.545   3.745   6.220  0.5671  2.9910  1.1537
 1931SOL    HW217427   0.479   3.720   6.091 -0.7987 -1.3061  0.6762
 1932SOL     OW17428   0.543   1.921   4.618  0.0394 -0.1764 -0.9192
 1932SOL    HW117429   0.500   1.990   4.568 -0.8976  0.7371  1.1300
 1932SOL    HW217430   0.588   1.876   4.546 -2.0075 -1.4394 -1.4195
 1933SOL     OW17431   3.316   3.604   2.634  0.0135  0.6697 -0.1942
 1933SOL    HW117432   3.230   3.569   2.654  0.0796 -0.3311 -1.6356
 1933SOL    HW217433   3.289   3.684   2.590 -0.7916  0.0054 -0.8971
 1934SOL     OW17434   3.757   2.556  15.950  0.6597 -0.1079 -0.6269
 1934SOL    HW117435   3.676   2.601  15.974  0.2280 -0.5203 -1.3298
 1934SOL    HW217436   3.797   2.630  15.904  3.2483 -0.5258  0.9354
 1935SOL     OW17437   4.661   3.813   5.866 -0.1399  0.1820  0.6234
 1935SOL    HW117438   4.651   3.718   5.873 -0.1577  0.0946 -0.4875
 1935SOL    HW217439   4.622   3.854   5.943  1.0700 -0.5995  1.6397
 1936SOL     OW17440   3.764   2.575   8.520 -0.4857  0.4023  0.0572
 1936SOL    HW117441   3.693   2.592   8.581 -1.0294  2.0280 -1.0170
 1936SOL    HW217442   3.843   2.553   8.570 -1.6099  0.4061  1.8214
 1937SOL     OW17443   2.865   0.011   7.110 -0.0750 -0.2595  0.9217
 1937SOL    HW117444   2.903   4.689   7.173  0.2535  0.5491  1.5137
 1937SOL    HW217445   2.823   0.074   7.169 -0.3202  1.0887 -0.7057
 1938SOL     OW17446   2.277   1.968   6.555  0.4627 -0.1422 -0.2086
 1938SOL    HW117447   2.312   2.055   6.576 -1.5527  0.6824 -0.2246
 1938SOL    HW217448   2.323   1.920   6.623 -2.2959  0.0847  1.8106
 1939SOL     OW17449   1.166   2.384   6.418 -0.0499 -0.4578 -0.4954
 1939SOL    HW117450   1.187   2.474   6.442 -2.0088 -0.4468  1.1632
 1939SOL    HW217451   1.079   2.386   6.457 -0.3703 -0.5875 -1.2120
 1940SOL     OW17452   4.340   2.045  12.257 -0.4329  0.2727  1.1774
 1940SOL    HW117453   4.362   2.077  12.344 -2.1760  1.9279  1.0194
 1940SOL    HW217454   4.268   2.107  12.246  0.8123  1.8080  1.6191
 1941SOL     OW17455   4.261   2.438   3.020  0.1621 -0.1057 -0.3113
 1941SOL    HW117456   4.352   2.448   2.992 -0.0440 -0.1961 -1.0119
 1941SOL    HW217457   4.262   2.344   3.037 -2.0881  0.1355  1.1677
 1942SOL     OW17458   0.711   0.077  11.790  0.3988  0.3346  0.0760
 1942SOL    HW117459   0.704   0.079  11.886 -1.3355  0.5846 -0.0640
 1942SOL    HW217460   0.790   0.024  11.777  0.2425 -0.1475  1.0341
 1943SOL     OW17461   4.443   4.231   1.537  0.2098 -0.0062  0.2694
 1943SOL    HW117462   4.408   4.180   1.609  1.0612  0.8075  1.2567
 1943SOL    HW217463   4.479   4.164   1.478  1.8693  3.9400 -3.1847
 1944SOL     OW17464   4.185   0.413   0.039 -0.4980 -0.4565 -0.3300
 1944SOL    HW117465   4.151   0.365  17.719 -0.4651 -1.6917  0.4397
 1944SOL    HW217466   4.267   0.364   0.047  0.3361  1.2659  1.7883
 1945SOL     OW17467   3.692   3.857   2.711  0.5495  0.2549  0.0345
 1945SOL    HW117468   3.739   3.781   2.748  0.8719  1.0869  1.3405
 1945SOL    HW217469   3.772   3.910   2.708 -1.9659  3.9277 -1.9196
 1946SOL     OW17470   2.148   2.793   7.488 -0.2641 -0.1149 -0.7919
 1946SOL    HW117471   2.129   2.758   7.575  1.2678  2.5660  0.6370
 1946SOL    HW217472   2.144   2.887   7.505  0.0268  0.0814 -1.7920
 1947SOL     OW17473   3.902   0.908   5.108 -0.0720 -0.5972 -0.2659
 1947SOL    HW117474   3.945   0.985   5.071 -2.2363  0.6414 -0.2013
 1947SOL    HW217475   3.844   0.893   5.034  0.0047 -2.5573  0.0757
 1948SOL     OW17476   4.387   0.329  15.848  0.9211  0.6764 -0.3806
 1948SOL    HW117477   4.431   0.273  15.784  1.2939  0.5551 -0.0168
 1948SOL    HW217478   4.401   0.283  15.931 -4.5167  0.9892  0.7094
 1949SOL     OW17479   0.933   0.185   9.973 -0.0652 -0.0372 -0.1246
 1949SOL    HW117480   0.966   0.272   9.951 -0.9659  0.5257  0.7561
 1949SOL    HW217481   0.945   0.190  10.068  0.5742  1.7349 -0.3016
 1950SOL     OW17482   2.181   2.413   2.187 -0.4740  0.7138  0.0181
 1950SOL    HW117483   2.164   2.488   2.243 -1.3830  2.0788 -2.1031
 1950SOL    HW217484   2.208   2.458   2.107 -2.6553 -1.2422 -1.8132
 1951SOL     OW17485   3.428   4.300   8.987  0.1211 -0.2491  0.0102
 1951SOL    HW117486   3.480   4.359   9.042 -0.0929  0.7059 -0.8052
 1951SOL    HW217487   3.351   4.278   9.039 -0.6336  0.5609 -0.7527
 1952SOL     OW17488   0.136   1.062   0.575 -0.4149 -0.5909 -0.6897
 1952SOL    HW117489   0.231   1.065   0.564 -0.4242 -1.1704 -0.9229
 1952SOL    HW217490   0.115   1.027   0.489 -0.4060  2.0686 -1.7833
 1953SOL     OW17491   2.131   3.319  11.017  0.3179  0.1694  0.6653
 1953SOL    HW117492   2.096   3.340  11.103 -0.6562 -0.8739  0.5308
 1953SOL    HW217493   2.200   3.255  11.036 -0.2598 -0.7988 -0.4810
 1954SOL     OW17494   4.237   0.388  15.592  0.1143  0.5536  0.2598
 1954SOL    HW117495   4.146   0.391  15.622  0.4041 -0.8876  1.2804
 1954SOL    HW217496   4.279   0.391  15.677  0.9635  0.0726 -0.1447
 1955SOL     OW17497   3.046   3.682   2.237 -0.7948 -0.9622  0.1839
 1955SOL    HW117498   3.098   3.708   2.162 -0.2361 -0.2037  0.8254
 1955SOL    HW217499   3.097   3.721   2.309 -1.6939  1.1160 -0.3068
 1956SOL     OW17500   1.133   0.095   3.006 -0.0944  0.4600  0.4513
 1956SOL    HW117501   1.078   0.069   3.080 -0.9141 -0.6191 -0.5324
 1956SOL    HW217502   1.068   0.071   2.939  0.6295 -0.0327 -0.0649
 1957SOL     OW17503   2.249   3.979  13.524 -0.1739  0.5202  0.6028
 1957SOL    HW117504   2.297   4.015  13.598 -0.0828 -1.0183  1.2888
 1957SOL    HW217505   2.264   4.043  13.455 -0.6348 -0.6527 -0.5947
 1958SOL     OW17506   3.177   2.847   4.253 -0.0086  0.3699 -0.0382
 1958SOL    HW117507   3.129   2.926   4.278  0.5305  0.2056  1.5669
 1958SOL    HW217508   3.204   2.834   4.344  0.7526  2.1196 -0.0170
 1959SOL     OW17509   3.167   3.491   1.934  0.0268  0.2915  0.6115
 1959SOL    HW117510   3.077   3.509   1.907  0.2035  2.4427  1.4365
 1959SOL    HW217511   3.181   3.570   1.986 -1.8988  0.9879  0.0656
 1960SOL     OW17512   0.346   0.734  17.079  0.2944 -0.6065 -0.2412
 1960SOL    HW117513   0.270   0.677  17.067  0.5922 -1.5738  2.5220
 1960SOL    HW217514   0.313   0.815  17.040  0.7351 -0.6508 -0.7048
 1961SOL     OW17515   1.794   2.244  16.947  0.5507  0.2807 -0.6653
 1961SOL    HW117516   1.704   2.273  16.960  0.8461  0.2115  1.4763
 1961SOL    HW217517   1.783   2.185  16.872 -0.7026 -0.4691  0.1214
 1962SOL     OW17518   1.528   3.467  12.245  0.1372 -0.1123 -0.0342
 1962SOL    HW117519   1.463   3.396  12.245  0.5325 -0.4766  0.2972
 1962SOL    HW217520   1.522   3.488  12.338  1.2547  0.1276 -0.0198
 1963SOL     OW17521   2.135   2.864   3.040 -0.0263  0.2715  0.2629
 1963SOL    HW117522   2.217   2.894   3.080  1.1594 -2.0165 -0.4362
 1963SOL    HW217523   2.075   2.933   3.067  1.2632  1.1902  0.7827
 1964SOL     OW17524   0.623   3.113   3.948 -0.2471 -0.5602 -0.2593
 1964SOL    HW117525   0.697   3.107   4.008  0.6285 -0.0477 -1.2883
 1964SOL    HW217526   0.566   3.181   3.984  0.4384  0.6635 -1.4847
 1965SOL     OW17527   3.512   2.580  17.080 -0.0046  0.2628  0.4679
 1965SOL    HW117528   3.554   2.559  17.164  0.5968  1.3732  0.4473
 1965SOL    HW217529   3.590   2.593  17.027 -0.4040 -1.0975 -0.4375
 1966SOL     OW17530   1.748   0.824   0.339  0.3855 -0.3165 -0.6494
 1966SOL    HW117531   1.690   0.813   0.414  1.6811  1.5785  0.6427
 1966SOL    HW217532   1.765   0.918   0.328  1.8566 -0.5024  0.0253
 1967SOL     OW17533   3.265   2.162   4.383 -0.4208  0.6985 -0.4120
 1967SOL    HW117534   3.201   2.227   4.411 -0.8208  0.8524 -1.6684
 1967SOL    HW217535   3.352   2.189   4.413 -0.2616  0.4774 -0.6697
 1968SOL     OW17536   1.653   0.596   4.159  0.6589  0.1190 -0.0698
 1968SOL    HW117537   1.633   0.656   4.231  3.3140 -0.7929  1.4621
 1968SOL    HW217538   1.610   0.640   4.086 -0.0205  0.7031  0.6815
 1969SOL     OW17539   1.737   3.675   5.820 -0.6982 -0.3319 -0.5857
 1969SOL    HW117540   1.696   3.756   5.850 -0.2862 -0.2765 -0.1815
 1969SOL    HW217541   1.696   3.613   5.880 -0.8301 -0.3619 -0.7078
 1970SOL     OW17542   1.247   2.976   6.063  0.0792  0.5174  0.4460
 1970SOL    HW117543   1.314   3.032   6.102  2.3687 -1.4817 -0.6017
 1970SOL    HW217544   1.192   3.028   6.004 -0.5951  0.4057  0.9728
 1971SOL     OW17545   4.320   3.132   8.807 -0.0088 -0.6244 -0.2900
 1971SOL    HW117546   4.316   3.169   8.719  0.4757  0.0674 -0.0171
 1971SOL    HW217547   4.398   3.182   8.830  0.7088 -1.6642 -0.5043
 1972SOL     OW17548   0.663   2.532   4.066 -0.5634  0.7483  0.6288
 1972SOL    HW117549   0.684   2.615   4.107  0.2401  1.6314 -1.5609
 1972SOL    HW217550   0.726   2.529   3.993 -0.7229 -1.8132  0.5656
 1973SOL     OW17551   2.535   2.982  15.036 -0.4746  0.4807  0.2394
 1973SOL    HW117552   2.503   2.892  15.027  1.7806 -0.0381 -2.5131
 1973SOL    HW217553   2.606   2.973  15.099  0.4120 -0.8751 -0.9647
 1974SOL     OW17554   4.042   3.218   6.434 -0.0116  0.3170  0.2503
 1974SOL    HW117555   4.075   3.144   6.383  0.4870  1.4999 -1.1176
 1974SOL    HW217556   3.980   3.268   6.382  2.3386 -1.2053 -4.0591
 1975SOL     OW17557   2.394   1.961   1.959  0.2800 -0.0211  0.2005
 1975SOL    HW117558   2.391   2.022   2.033 -1.7079 -2.0430  1.7925
 1975SOL    HW217559   2.335   1.893   1.993 -1.9290  1.7844 -0.0427
 1976SOL     OW17560   1.229   3.248   4.308 -0.2028  0.1154 -0.4344
 1976SOL    HW117561   1.202   3.169   4.354  1.4990 -0.0698  0.2370
 1976SOL    HW217562   1.325   3.250   4.318 -0.2647 -0.5423  0.2633
 1977SOL     OW17563   2.556   1.407  14.833 -0.5829 -0.2121  0.0401
 1977SOL    HW117564   2.548   1.468  14.759 -0.6831 -0.5396 -0.2215
 1977SOL    HW217565   2.544   1.482  14.891  2.0315 -0.2894  0.6936
 1978SOL     OW17566   4.340   0.233   7.825 -0.3808 -0.1421  0.1971
 1978SOL    HW117567   4.348   0.244   7.920  0.7682  0.7857 -0.0070
 1978SOL    HW217568   4.246   0.234   7.810 -0.4271  0.7108  0.5580
 1979SOL     OW17569   3.665   4.046   5.913 -0.3653  0.0575  0.3241
 1979SOL    HW117570   3.715   4.011   5.839 -0.8462 -0.8929  0.4377
 1979SOL    HW217571   3.638   4.135   5.891  0.1130  0.4310  1.2838
 1980SOL     OW17572   3.875   2.666   6.711  0.3219  0.3030 -0.2024
 1980SOL    HW117573   3.922   2.744   6.742 -0.7470 -0.2659  2.8268
 1980SOL    HW217574   3.874   2.686   6.617  1.6831  0.4737 -0.1915
 1981SOL     OW17575   2.772   0.917   3.289  0.1572 -0.0310  0.3050
 1981SOL    HW117576   2.697   0.887   3.340  0.5874 -0.0709  0.9130
 1981SOL    HW217577   2.838   0.929   3.358  0.2219  1.8049 -0.0599
 1982SOL     OW17578   1.620   3.178  12.636  0.0403  0.0637 -0.9352
 1982SOL    HW117579   1.678   3.112  12.674  0.9689  1.4682  0.1016
 1982SOL    HW217580   1.621   3.252  12.697 -2.2925 -0.2702 -0.4705
 1983SOL     OW17581   2.828   2.242   5.483 -0.3036 -0.3140  0.5138
 1983SOL    HW117582   2.830   2.218   5.575  2.8060  0.5181  0.6593
 1983SOL    HW217583   2.908   2.295   5.483  0.4601 -1.4629 -0.0520
 1984SOL     OW17584   0.094   1.935   4.946  0.1152  0.7258  0.1437
 1984SOL    HW117585   0.105   1.965   4.856 -0.5622  1.5791  0.3481
 1984SOL    HW217586   0.151   1.995   4.994 -2.3006  1.4105  2.1223
 1985SOL     OW17587   2.218   0.861   1.124  0.3738  0.5119  0.1674
 1985SOL    HW117588   2.221   0.853   1.029  3.7678  0.7229  0.2425
 1985SOL    HW217589   2.175   0.779   1.150  1.2396 -0.0552 -0.1777
 1986SOL     OW17590   3.302   2.441   5.114 -0.0893  0.0625 -0.1433
 1986SOL    HW117591   3.308   2.535   5.094 -0.9971  0.2952  0.7320
 1986SOL    HW217592   3.225   2.423   5.060 -0.7952  1.6297  0.3275
 1987SOL     OW17593   0.004   2.529   9.775 -0.6939  0.1182  0.0217
 1987SOL    HW117594   4.709   2.510   9.863 -0.4335  2.6143  0.6741
 1987SOL    HW217595   4.704   2.457   9.727 -2.0317  1.8148 -1.4119
 1988SOL     OW17596   0.947   2.178   8.137  0.2031 -0.3064 -0.2106
 1988SOL    HW117597   1.034   2.172   8.176  1.1346  1.3654 -2.0146
 1988SOL    HW217598   0.906   2.229   8.206  0.0075  2.4464 -2.3678
 1989SOL     OW17599   0.123   1.456   2.263  0.4094 -0.2687  0.1801
 1989SOL    HW117600   0.147   1.377   2.313  0.5021 -0.5554 -0.3170
 1989SOL    HW217601   0.081   1.417   2.186  0.0550  0.6064 -0.0686
 1990SOL     OW17602   1.884   0.117   8.459  0.2167  0.1659 -0.5535
 1990SOL    HW117603   1.926   0.197   8.427 -0.4287  0.1299 -1.4973
 1990SOL    HW217604   1.803   0.160   8.489 -0.4480 -0.8409 -0.8884
 1991SOL     OW17605   2.902   1.239   6.768  0.0768 -0.1129 -0.2539
 1991SOL    HW117606   2.841   1.312   6.758  1.3785  1.3465  2.3098
 1991SOL    HW217607   2.900   1.216   6.675 -0.1111 -0.2333 -0.2208
 1992SOL     OW17608   2.023   2.726  14.751  0.3839  0.1869 -0.0028
 1992SOL    HW117609   2.027   2.630  14.755  1.1371  0.0711 -2.9733
 1992SOL    HW217610   2.104   2.762  14.786  0.3516  0.0364  0.2242
 1993SOL     OW17611   3.916   1.590   4.489 -0.0939 -0.5857  0.1230
 1993SOL    HW117612   3.853   1.625   4.426 -0.4501 -0.6061  0.4761
 1993SOL    HW217613   3.924   1.664   4.549 -2.5814 -0.7817  0.6690
 1994SOL     OW17614   3.382   1.123  10.128  0.1612  0.4149 -0.3529
 1994SOL    HW117615   3.333   1.047  10.096  0.0753 -0.1335  1.0762
 1994SOL    HW217616   3.410   1.104  10.217  1.3181 -1.5896 -1.1427
 1995SOL     OW17617   0.388   2.616   3.648  0.0315  0.4479 -0.1419
 1995SOL    HW117618   0.465   2.615   3.592  0.6953 -2.1240  0.8116
 1995SOL    HW217619   0.420   2.661   3.726  0.2556 -0.2674  0.1839
 1996SOL     OW17620   4.447   3.886   4.316 -1.0880 -0.0164 -0.1948
 1996SOL    HW117621   4.505   3.942   4.265 -1.5915  1.1949  0.5573
 1996SOL    HW217622   4.500   3.808   4.328  1.6671  2.2087  2.1630
 1997SOL     OW17623   4.127   2.697   9.417 -0.1060 -0.0315  0.4412
 1997SOL    HW117624   4.210   2.675   9.375  0.1015  1.2841  0.1565
 1997SOL    HW217625   4.063   2.634   9.384  0.0379 -0.9689  1.9070
 1998SOL     OW17626   2.109   1.480   7.381 -0.6125  0.4055  0.4742
 1998SOL    HW117627   2.088   1.396   7.341  2.0173  0.5742 -1.2777
 1998SOL    HW217628   2.175   1.516   7.321 -1.5005 -0.4214 -1.0031
 1999SOL     OW17629   1.119   3.840  15.950 -0.2569 -0.0845 -0.1768
 1999SOL    HW117630   1.157   3.758  15.980  2.4369  0.4129 -2.2221
 1999SOL    HW217631   1.161   3.828  15.865 -0.6544  0.7777 -0.4996
 2000SOL     OW17632   1.830   2.507  10.058 -0.2773 -0.6396 -0.4248
 2000SOL    HW117633   1.772   2.544  10.124 -1.3541  2.1121 -2.9072
 2000SOL    HW217634   1.811   2.414  10.072  0.6243 -0.4987  1.7854
 2001SOL     OW17635   0.503   4.475   9.560  0.2420  0.2445 -0.2719
 2001SOL    HW117636   0.493   4.536   9.633 -0.4417 -0.8590  0.5489
 2001SOL    HW217637   0.583   4.430   9.587 -1.4337 -3.3962 -1.4831
 2002SOL     OW17638   4.013   2.020   9.908  0.2192 -0.5257 -0.6325
 2002SOL    HW117639   3.966   2.020   9.991 -0.3004 -2.4592 -0.9342
 2002SOL    HW217640   4.103   2.028   9.939  0.3745  1.5405 -1.5827
 2003SOL     OW17641   3.182   2.499   5.995  0.0165 -0.3784 -0.4331
 2003SOL    HW117642   3.154   2.547   6.073 -2.7743  0.1899 -1.7981
 2003SOL    HW217643   3.127   2.525   5.921  0.3418  0.6802 -0.3074
 2004SOL     OW17644   1.491   0.416   8.148 -0.0457 -0.3293 -0.4878
 2004SOL    HW117645   1.504   0.328   8.113  0.2556 -1.7186  3.0774
 2004SOL    HW217646   1.396   0.416   8.157  0.1155 -0.3892  1.2996
 2005SOL     OW17647   0.197   3.460  16.938 -0.2052  0.2606  0.6088
 2005SOL    HW117648   0.177   3.381  16.989 -0.3666  0.2023  0.4521
 2005SOL    HW217649   0.287   3.441  16.911 -0.2177  0.6309  0.3101
 2006SOL     OW17650   0.893   1.493   6.672 -0.3235  0.0891 -0.5144
 2006SOL    HW117651   0.892   1.539   6.756 -1.2318  0.3914 -0.6886
 2006SOL    HW217652   0.849   1.557   6.615  1.5722  1.6549 -0.2086
 2007SOL     OW17653   1.300   4.144   8.631  0.4673 -0.0770  0.1944
 2007SOL    HW117654   1.365   4.196   8.679 -1.1508  1.5913  0.5622
 2007SOL    HW217655   1.251   4.220   8.598  0.4102  0.6882  2.0768
 2008SOL     OW17656   0.412   3.040  12.398 -0.2480  0.2681 -0.4931
 2008SOL    HW117657   0.354   3.089  12.457 -0.9888 -0.1082 -0.9147
 2008SOL    HW217658   0.400   3.102  12.326  1.6138 -2.2265 -2.9023
 2009SOL     OW17659   4.504   2.327  16.116 -0.1881  0.5259  0.2490
 2009SOL    HW117660   4.458   2.374  16.047 -1.4930 -0.5161  0.4036
 2009SOL    HW217661   4.508   2.394  16.184 -0.9148  0.4232  0.3990
 2010SOL     OW17662   0.400   4.399   2.511 -0.1837  0.0837 -0.4035
 2010SOL    HW117663   0.468   4.447   2.556 -2.5720  2.8814  0.2484
 2010SOL    HW217664   0.440   4.316   2.486 -1.0280 -0.5091  0.2135
 2011SOL     OW17665   0.025   4.477  13.253 -0.2395 -0.7947 -0.3093
 2011SOL    HW117666   4.701   4.407  13.236 -1.5146  0.0117  1.0943
 2011SOL    HW217667   0.042   4.479  13.347 -0.1947  0.0454 -0.3331
 2012SOL     OW17668   0.723   0.458   8.712  0.1596  0.4848  0.1345
 2012SOL    HW117669   0.682   0.373   8.694 -2.7096  1.9211 -0.0299
 2012SOL    HW217670   0.701   0.497   8.627 -0.7133  0.8972  0.5553
 2013SOL     OW17671   0.839   3.001   5.144  0.3373 -0.0783 -0.1103
 2013SOL    HW117672   0.890   3.008   5.064  0.5893 -0.3021  0.0301
 2013SOL    HW217673   0.837   3.094   5.165  1.3388  0.1474 -1.0266
 2014SOL     OW17674   4.675   1.681  17.224  0.1054  0.0015  0.3270
 2014SOL    HW117675   4.656   1.775  17.216  2.2960  0.4898  0.9364
 2014SOL    HW217676   4.715   1.691  17.310  1.8070  0.7355 -0.5481
 2015SOL     OW17677   1.094   4.491   1.533  0.0714  0.2978  0.8961
 2015SOL    HW117678   1.164   4.450   1.483 -0.5918 -0.8087  0.8811
 2015SOL    HW217679   1.122   4.582   1.532 -0.4489  0.4589  0.7982
 2016SOL     OW17680   2.564   4.698   5.226  0.2080  0.2649 -0.1560
 2016SOL    HW117681   2.653   4.674   5.250 -0.4515  1.0077  3.0090
 2016SOL    HW217682   2.531   4.719   5.313 -0.7065  0.4607 -0.5419
 2017SOL     OW17683   2.252   2.258   5.040 -0.5786 -0.3805  0.2284
 2017SOL    HW117684   2.297   2.280   5.121  1.1477 -0.8272 -0.6119
 2017SOL    HW217685   2.174   2.216   5.077 -1.5308 -1.1127 -2.6389
 2018SOL     OW17686   3.296   1.661   6.457 -0.1695  0.2795 -0.4085
 2018SOL    HW117687   3.386   1.690   6.442  0.3353 -0.9908  0.2117
 2018SOL    HW217688   3.245   1.721   6.403  0.2303  0.4540 -0.5948
 2019SOL     OW17689   4.414   4.104   7.186 -0.2201  0.2689  0.3562
 2019SOL    HW117690   4.398   4.083   7.094 -0.5106  0.0452  0.4587
 2019SOL    HW217691   4.485   4.041   7.194  2.1107  3.0269  1.2137
 2020SOL     OW17692   1.086   2.368  10.064 -0.9127 -0.0690 -0.1706
 2020SOL    HW117693   1.052   2.294  10.015  0.2861  0.0892 -1.2564
 2020SOL    HW217694   1.179   2.346  10.049 -1.0443 -1.1671  0.6343
 2021SOL     OW17695   3.330   2.218   2.500  0.3418 -0.0012  0.1918
 2021SOL    HW117696   3.250   2.201   2.450  0.3214 -0.1677  0.2791
 2021SOL    HW217697   3.307   2.158   2.571 -0.2828 -0.4852 -0.4244
 2022SOL     OW17698   2.274   1.435   4.107 -0.4087 -0.0341 -0.5795
 2022SOL    HW117699   2.362   1.462   4.078 -0.9220  0.9003 -1.2412
 2022SOL    HW217700   2.228   1.517   4.088 -0.6438 -0.0988 -0.2886
 2023SOL     OW17701   0.594   4.584   3.996 -0.2746  0.2037 -0.0921
 2023SOL    HW117702   0.674   4.634   3.981 -0.0203 -0.3877 -0.6950
 2023SOL    HW217703   0.531   4.629   3.939 -2.0872 -1.8159  0.3343
 2024SOL     OW17704   2.357   2.093  11.944 -0.1476  0.7150 -0.0284
 2024SOL    HW117705   2.397   2.152  12.008 -0.7766  1.2496 -0.1205
 2024SOL    HW217706   2.431   2.064  11.891 -0.3201 -0.7814  0.5331
 2025SOL     OW17707   4.726   2.554  15.109  0.1588 -0.4405 -0.1610
 2025SOL    HW117708   4.737   2.465  15.076  1.4112  0.2353 -1.5533
 2025SOL    HW217709   4.647   2.536  15.160 -1.9177  1.0564 -2.8877
 2026SOL     OW17710   4.701   4.709   3.572  0.0189  0.2303 -0.7890
 2026SOL    HW117711   4.640   4.682   3.504 -1.6383  1.8842  0.0275
 2026SOL    HW217712   4.712   0.063   3.555 -0.0242  0.5726  1.0907
 2027SOL     OW17713   2.073   0.579   9.506 -0.0280  0.0772  0.6722
 2027SOL    HW117714   2.064   0.582   9.411 -0.8015 -1.5973  0.7050
 2027SOL    HW217715   2.159   0.620   9.507  1.5410 -3.2722  1.2783
 2028SOL     OW17716   4.369   0.452  12.254  0.2573 -0.6061 -0.1004
 2028SOL    HW117717   4.451   0.403  12.267  0.0734 -0.4252  1.7841
 2028SOL    HW217718   4.314   0.382  12.218 -2.8292  1.1350  1.2610
 2029SOL     OW17719   3.754   2.758   8.978  0.3160 -0.6711 -0.1873
 2029SOL    HW117720   3.825   2.720   9.030  2.6403  2.1111 -1.2761
 2029SOL    HW217721   3.759   2.846   9.014 -1.5876 -1.3911  1.7731
 2030SOL     OW17722   0.860   3.212  15.769 -0.0720 -0.2022 -0.4135
 2030SOL    HW117723   0.840   3.232  15.677 -1.8075  1.2463  0.2650
 2030SOL    HW217724   0.806   3.134  15.780 -1.5071  0.8645  0.0714
 2031SOL     OW17725   1.156   0.612   2.990 -0.4555 -0.4434  0.0632
 2031SOL    HW117726   1.181   0.524   2.963 -0.3087  0.1364 -1.7107
 2031SOL    HW217727   1.065   0.608   2.959 -0.5643 -0.4794  0.3940
 2032SOL     OW17728   0.932   4.425   2.732 -0.1185  0.3308  0.2214
 2032SOL    HW117729   0.967   4.406   2.644  2.3213  1.3677  0.9548
 2032SOL    HW217730   0.995   4.483   2.775  2.3875 -0.0148 -2.9846
 2033SOL     OW17731   2.008   4.457   0.615  0.2001 -0.0571 -0.3236
 2033SOL    HW117732   1.975   4.531   0.565 -1.0960 -0.1313  0.4116
 2033SOL    HW217733   2.100   4.453   0.589  1.2093 -1.9651  3.4357
 2034SOL     OW17734   2.152   0.235   7.366  0.0158 -0.3353  0.3756
 2034SOL    HW117735   2.148   0.317   7.415  0.7897 -1.6095  2.5628
 2034SOL    HW217736   2.208   0.188   7.427  1.4348 -1.7171 -2.0104
 2035SOL     OW17737   2.514   1.935   7.899 -0.6792 -0.5423 -0.3549
 2035SOL    HW117738   2.467   1.872   7.844 -1.7440  1.6438 -1.9257
 2035SOL    HW217739   2.480   2.018   7.867  1.3860 -0.0515 -1.2294
 2036SOL     OW17740   3.513   4.587   2.684  0.9013  0.7454 -0.3611
 2036SOL    HW117741   3.490   4.507   2.731 -1.9024  1.6010 -0.3273
 2036SOL    HW217742   3.565   4.632   2.751  0.1605 -0.4921  1.0439
 2037SOL     OW17743   4.075   2.472   0.410  0.1673 -0.0151  0.2679
 2037SOL    HW117744   3.997   2.467   0.354  0.6152  0.9817 -0.4460
 2037SOL    HW217745   4.098   2.379   0.415  1.0765  0.2082  0.3305
 2038SOL     OW17746   4.534   2.805  13.049  0.8898 -0.0833 -0.1176
 2038SOL    HW117747   4.511   2.751  12.974  0.8553 -1.0749  0.6126
 2038SOL    HW217748   4.516   2.743  13.119  2.1313 -1.2295 -0.8029
 2039SOL     OW17749   0.914   3.970   1.856 -0.3317 -0.4580  0.1041
 2039SOL    HW117750   0.918   3.884   1.898 -0.9150  0.3560  1.8519
 2039SOL    HW217751   0.900   3.951   1.764  1.3549  1.7350 -0.6071
 2040SOL     OW17752   1.336   1.615   7.900  0.3823  0.0843  0.1292
 2040SOL    HW117753   1.252   1.628   7.854  0.8953  0.4076 -0.7232
 2040SOL    HW217754   1.313   1.634   7.991  2.0373 -0.0962  0.5727
 2041SOL     OW17755   4.380   3.384   5.976  0.3050 -0.8051  0.0802
 2041SOL    HW117756   4.378   3.343   5.889 -0.3678 -1.2235  0.2928
 2041SOL    HW217757   4.363   3.305   6.028 -0.1364 -0.6866  0.1107
 2042SOL     OW17758   0.754   3.307  12.294  0.2808 -0.2120 -0.0642
 2042SOL    HW117759   0.690   3.296  12.364  0.9042 -1.8807  0.2432
 2042SOL    HW217760   0.753   3.403  12.297 -0.0388 -0.1764 -1.3673
 2043SOL     OW17761   1.105   1.401   3.218  0.5867  0.0761 -0.5734
 2043SOL    HW117762   1.054   1.473   3.180  1.5193  1.1999  0.3251
 2043SOL    HW217763   1.064   1.386   3.303 -1.1046 -1.3124 -1.6351
 2044SOL     OW17764   3.117   4.398   2.447  0.0416 -0.5338  0.1785
 2044SOL    HW117765   3.095   4.417   2.538 -1.0828 -1.0810  0.0264
 2044SOL    HW217766   3.155   4.310   2.456 -0.7971 -1.0082 -0.9333
 2045SOL     OW17767   1.076   0.810   7.011 -0.1426 -0.1587 -0.0387
 2045SOL    HW117768   1.105   0.779   6.925 -0.7808 -0.8066 -0.0193
 2045SOL    HW217769   0.999   0.757   7.033 -0.6970  0.2336 -1.0454
 2046SOL     OW17770   0.672   3.960  16.712 -0.3152 -0.5652  0.4719
 2046SOL    HW117771   0.729   3.931  16.641  0.9689 -0.5161  1.4766
 2046SOL    HW217772   0.717   4.031  16.757 -1.4173  0.3965  0.0607
 2047SOL     OW17773   1.539   2.914   8.542  0.1133 -0.2314 -1.2302
 2047SOL    HW117774   1.595   2.861   8.600 -1.0379 -0.5561 -0.4104
 2047SOL    HW217775   1.475   2.855   8.503 -0.9905 -0.0103  0.2596
 2048SOL     OW17776   3.527   0.559   0.829  0.0012  0.4032 -0.1594
 2048SOL    HW117777   3.616   0.585   0.852 -0.1661  1.0784 -0.2699
 2048SOL    HW217778   3.503   0.484   0.882  0.0170  1.1056  0.8423
 2049SOL     OW17779   4.326   0.590   1.689 -0.3318  0.0251  0.5665
 2049SOL    HW117780   4.236   0.559   1.694 -1.2149  2.3838 -0.6413
 2049SOL    HW217781   4.358   0.537   1.616  0.5244  0.2923  0.7466
 2050SOL     OW17782   0.870   2.419   6.257 -0.0189  0.1030 -0.1991
 2050SOL    HW117783   0.894   2.355   6.324 -0.1664 -1.3546 -1.5448
 2050SOL    HW217784   0.952   2.449   6.217  0.8909 -0.1534  1.4510
 2051SOL     OW17785   1.502   1.476  12.703  0.2937 -0.9027 -0.2781
 2051SOL    HW117786   1.456   1.426  12.636  1.0076 -0.7729 -0.8712
 2051SOL    HW217787   1.581   1.427  12.725 -1.1058 -1.9248  2.4517
 2052SOL     OW17788   3.525   2.734   6.160  0.5047 -0.0051 -0.1081
 2052SOL    HW117789   3.589   2.678   6.116  1.3860  0.5966  0.4090
 2052SOL    HW217790   3.579   2.770   6.231  0.6983  0.4546 -0.4926
 2053SOL     OW17791   0.299   4.291   3.767 -0.6287  0.3645 -0.3577
 2053SOL    HW117792   0.262   4.294   3.679  3.3127  0.7942 -2.0218
 2053SOL    HW217793   0.218   4.256   3.804 -1.3276  1.4098 -0.9200
 2054SOL     OW17794   3.503   3.725   2.356  0.0470  0.8775 -0.2722
 2054SOL    HW117795   3.543   3.774   2.285 -0.0073 -0.2570 -1.0763
 2054SOL    HW217796   3.561   3.652   2.376 -1.7426 -1.2498 -2.8531
 2055SOL     OW17797   0.224   1.650   8.229 -0.6280 -0.6331  0.0238
 2055SOL    HW117798   0.293   1.604   8.276  1.0653 -1.6742 -3.4277
 2055SOL    HW217799   0.212   1.604   8.146  0.0652 -0.8660  0.0545
 2056SOL     OW17800   2.006   2.303   7.518  0.7780  0.1002 -0.3670
 2056SOL    HW117801   1.956   2.242   7.464  0.3778  2.0831 -2.2125
 2056SOL    HW217802   1.989   2.257   7.601  2.1763 -1.5913 -1.0251
 2057SOL     OW17803   2.971   2.611  10.174 -0.3011 -0.4212 -0.6262
 2057SOL    HW117804   2.989   2.701  10.201 -0.0203 -0.2757 -1.3173
 2057SOL    HW217805   2.888   2.624  10.128 -0.7748  1.1582  0.6422
 2058SOL     OW17806   1.189   3.440   7.235  0.3739  0.1944  0.4447
 2058SOL    HW117807   1.182   3.477   7.323  1.1542  0.3919  0.4172
 2058SOL    HW217808   1.136   3.363   7.255  3.2477 -2.6800 -2.9327
 2059SOL     OW17809   1.436   3.220   3.494 -0.1365 -0.0624  0.3086
 2059SOL    HW117810   1.437   3.130   3.460  2.0278  0.5635 -1.3283
 2059SOL    HW217811   1.354   3.242   3.449  1.3825  2.1854 -1.3250
 2060SOL     OW17812   4.490   4.020   3.028  0.3369 -0.8618 -0.1766
 2060SOL    HW117813   4.511   4.113   3.016 -1.6001 -0.2584  1.1516
 2060SOL    HW217814   4.412   4.024   2.971 -0.1826  0.8773  0.6696
 2061SOL     OW17815   4.621   3.288   3.192  0.5754  0.0600  0.0285
 2061SOL    HW117816   4.649   3.337   3.270 -2.1461  1.8945 -0.1493
 2061SOL    HW217817   4.674   3.340   3.132 -0.6217 -0.2666 -1.3014
 2062SOL     OW17818   0.090   0.910   4.304  0.0884 -0.3038 -0.5485
 2062SOL    HW117819   0.151   0.911   4.231 -0.2682 -0.6422 -0.8507
 2062SOL    HW217820   0.015   0.961   4.274 -0.9339 -0.9323  0.9420
 2063SOL     OW17821   0.117   4.529   8.052  0.1920 -0.4777 -0.7830
 2063SOL    HW117822   0.065   4.608   8.043  2.0969  0.9730  0.9096
 2063SOL    HW217823   0.148   4.547   8.141  0.7857  0.3258 -1.1544
 2064SOL     OW17824   0.115   3.671  15.327 -0.2078  0.3533 -0.6651
 2064SOL    HW117825   0.172   3.738  15.367 -0.4667  1.0812 -1.5196
 2064SOL    HW217826   0.076   3.633  15.406  1.8423  0.3347  0.3659
 2065SOL     OW17827   3.673   0.050   2.052 -0.2854 -0.2855 -0.0847
 2065SOL    HW117828   3.695   0.049   1.959  2.2150 -0.6892  0.5093
 2065SOL    HW217829   3.642   0.139   2.063  0.0263 -0.1323 -0.4490
 2066SOL     OW17830   1.901   0.528   4.249 -0.4177  0.6264 -0.5484
 2066SOL    HW117831   1.806   0.538   4.239 -0.6037  0.2315  0.8602
 2066SOL    HW217832   1.900   0.446   4.297 -0.2640  0.5243 -0.7185
 2067SOL     OW17833   3.431   0.845   4.113 -0.0625  0.0367  0.3454
 2067SOL    HW117834   3.405   0.796   4.034 -0.5664 -3.5678  2.7495
 2067SOL    HW217835   3.460   0.773   4.169  1.0968 -0.6812 -1.1463
 2068SOL     OW17836   1.252   3.873   2.624 -0.0863  0.3514  0.3143
 2068SOL    HW117837   1.313   3.801   2.612 -0.4808 -0.2442  1.8017
 2068SOL    HW217838   1.174   3.820   2.644  1.7226 -3.2453 -2.2855
 2069SOL     OW17839   3.698   1.772   0.812  0.1518 -0.5086  0.0067
 2069SOL    HW117840   3.764   1.722   0.860  0.8269  1.4692  1.1191
 2069SOL    HW217841   3.745   1.852   0.792  0.3171 -1.1621 -2.2354
 2070SOL     OW17842   0.693   2.168   5.150 -0.0332  0.2013 -0.3060
 2070SOL    HW117843   0.641   2.239   5.187  0.6907 -0.2165  1.4860
 2070SOL    HW217844   0.779   2.210   5.146  0.7272 -1.4607 -1.2967
 2071SOL     OW17845   4.001   3.779   4.218 -0.0937 -1.1640 -0.5997
 2071SOL    HW117846   4.051   3.761   4.139  0.9070 -0.6932 -0.0763
 2071SOL    HW217847   4.002   3.874   4.227  0.5768 -1.2064 -0.2371
 2072SOL     OW17848   2.234   0.723   0.854 -0.1623  0.3081 -0.2020
 2072SOL    HW117849   2.247   0.754   0.764  0.5159  0.5388 -0.0278
 2072SOL    HW217850   2.161   0.662   0.854  0.6948 -0.7245 -0.4547
 2073SOL     OW17851   1.541   0.123  15.049  0.5695  0.0175 -0.0841
 2073SOL    HW117852   1.635   0.113  15.066  0.9184  0.7444 -1.6256
 2073SOL    HW217853   1.525   0.207  15.091  1.5554  0.3994 -0.4734
 2074SOL     OW17854   0.766   0.061   4.066  0.2503  0.3357 -0.4639
 2074SOL    HW117855   0.746   0.155   4.066 -0.9459  0.0764 -0.1594
 2074SOL    HW217856   0.831   0.065   4.136 -2.3307  0.8875  1.8798
 2075SOL     OW17857   3.501   0.042   8.703 -0.6056  0.2631  0.2237
 2075SOL    HW117858   3.543   4.724   8.768  1.6097  0.6606 -0.8434
 2075SOL    HW217859   3.514   4.736   8.619  1.0275 -0.2334  0.7343
 2076SOL     OW17860   1.418   3.716   0.483 -0.8500  0.1095  0.4415
 2076SOL    HW117861   1.421   3.744   0.574  0.8947  2.4194 -0.3290
 2076SOL    HW217862   1.443   3.626   0.504  1.1805  0.3753 -0.8257
 2077SOL     OW17863   1.675   0.568   7.925 -0.1901  1.0711 -0.3854
 2077SOL    HW117864   1.620   0.642   7.899 -3.0962 -0.1222  2.3543
 2077SOL    HW217865   1.627   0.525   7.995 -0.5499 -1.4726 -2.1919
 2078SOL     OW17866   0.673   2.720  15.402  0.2445 -0.2269 -0.1230
 2078SOL    HW117867   0.674   2.694  15.310  2.5680  0.2591 -0.2494
 2078SOL    HW217868   0.592   2.769  15.418  0.1119  0.3977 -2.7481
 2079SOL     OW17869   2.884   1.243   7.716 -0.2090  0.0219  0.0094
 2079SOL    HW117870   2.828   1.205   7.648  1.1837 -2.3151  0.1928
 2079SOL    HW217871   2.933   1.297   7.653 -1.8255  0.5938 -0.7704
 2080SOL     OW17872   2.306   3.061   7.803 -0.1874  0.1429  0.1767
 2080SOL    HW117873   2.332   3.013   7.881 -0.1954  0.9891  0.6996
 2080SOL    HW217874   2.266   3.143   7.834  0.5744 -0.8521  3.7821
 2081SOL     OW17875   1.862   1.558   6.015 -0.9443 -0.8275  0.3125
 2081SOL    HW117876   1.920   1.632   5.999 -2.5919  0.3522 -0.1235
 2081SOL    HW217877   1.823   1.594   6.095  0.6838 -0.9245  1.1503
 2082SOL     OW17878   0.795   2.276   3.213  0.3756 -0.5599 -0.0459
 2082SOL    HW117879   0.730   2.344   3.193  4.0466  2.9160 -0.2777
 2082SOL    HW217880   0.754   2.198   3.177 -1.1657  0.3131 -0.2103
 2083SOL     OW17881   1.762   0.104   8.838 -0.0673 -0.2864  0.3349
 2083SOL    HW117882   1.777   0.193   8.806  0.5854  0.5473  2.9482
 2083SOL    HW217883   1.841   0.061   8.804 -0.9335  0.3112 -2.4259
 2084SOL     OW17884   4.534   3.438   7.511 -0.1771 -0.2334 -0.2717
 2084SOL    HW117885   4.589   3.473   7.581 -0.5972  0.5769 -0.3549
 2084SOL    HW217886   4.471   3.508   7.494 -1.1963 -0.8196  1.0843
 2085SOL     OW17887   4.255   2.322   6.538  0.3180  0.2465  0.8002
 2085SOL    HW117888   4.347   2.318   6.562  0.7101 -2.9555 -1.1851
 2085SOL    HW217889   4.213   2.299   6.621  1.4821  0.9420  1.5741
 2086SOL     OW17890   4.538   0.964  17.126 -0.5386  0.3901 -0.4398
 2086SOL    HW117891   4.467   0.970  17.062 -1.8779 -1.8067  0.8108
 2086SOL    HW217892   4.606   0.931  17.067  0.5226 -1.2238  1.6586
 2087SOL     OW17893   0.183   2.688   2.457 -0.2850  0.5963  0.5241
 2087SOL    HW117894   0.275   2.682   2.480 -0.4556  0.7258  1.2527
 2087SOL    HW217895   0.195   2.624   2.387 -1.0545  0.1886  0.7677
 2088SOL     OW17896   0.326   4.452   6.379  0.2549  0.2556  0.2147
 2088SOL    HW117897   0.290   4.386   6.320 -1.2076  1.2886 -0.0658
 2088SOL    HW217898   0.399   4.485   6.326 -0.3761  0.3110 -0.6246
 2089SOL     OW17899   4.584   2.170   5.365  0.4872 -0.8171  0.2078
 2089SOL    HW117900   4.494   2.204   5.360  1.4976  2.2562  2.5431
 2089SOL    HW217901   4.551   2.081   5.355 -1.5349  0.2117 -2.2876
 2090SOL     OW17902   0.963   0.369   7.117 -0.2389 -0.5276  0.5479
 2090SOL    HW117903   1.031   0.434   7.129  0.2642 -1.0495  0.4926
 2090SOL    HW217904   0.960   0.328   7.204 -0.5781 -1.1279  0.2568
 2091SOL     OW17905   4.671   2.238  12.502  0.1888 -0.3649  0.0788
 2091SOL    HW117906   4.636   2.153  12.476  1.9600 -0.8209 -0.7815
 2091SOL    HW217907   0.013   2.209  12.542 -0.1070 -1.7612 -0.3173
 2092SOL     OW17908   2.234   4.185   4.378 -0.4565  0.8804 -0.6223
 2092SOL    HW117909   2.161   4.189   4.439 -0.3759  0.4546 -0.4921
 2092SOL    HW217910   2.284   4.263   4.401  2.8180 -1.6797  1.0194
 2093SOL     OW17911   2.993   2.789   2.530  0.0602 -0.0020 -0.3463
 2093SOL    HW117912   3.004   2.884   2.539  1.6442 -0.5210  3.3314
 2093SOL    HW217913   3.057   2.765   2.597 -1.3038  0.5021  1.1447
 2094SOL     OW17914   0.543   3.115   5.101 -0.2035  0.0790 -0.6655
 2094SOL    HW117915   0.546   3.211   5.100 -2.4833  0.1747  1.5975
 2094SOL    HW217916   0.567   3.105   5.193  0.3896 -1.1276 -0.9544
 2095SOL     OW17917   0.045   4.275   2.081  0.1551 -0.2503 -0.0623
 2095SOL    HW117918   4.712   4.215   2.100 -0.6911  0.7729 -0.0834
 2095SOL    HW217919   0.115   4.231   2.131  0.0086  0.3440  0.6572
 2096SOL     OW17920   0.422   3.925  16.740  0.0120 -0.1667 -0.5665
 2096SOL    HW117921   0.429   3.942  16.834 -2.6652  0.6825 -0.5509
 2096SOL    HW217922   0.514   3.944  16.719 -0.3730  1.6242 -0.6173
 2097SOL     OW17923   1.719   1.867  10.054 -0.3632 -0.3958 -0.2940
 2097SOL    HW117924   1.813   1.882  10.050 -0.3142 -0.0322  2.6999
 2097SOL    HW217925   1.710   1.791  10.112 -1.0923  0.7367  1.0729
 2098SOL     OW17926   4.652   4.048   1.760 -0.0915 -0.4585 -0.1511
 2098SOL    HW117927   4.563   4.053   1.724  0.6234  1.0827 -1.6938
 2098SOL    HW217928   4.673   4.141   1.756  0.7988 -0.8130 -3.2657
 2099SOL     OW17929   3.161   2.280   9.313  0.7269  0.0487 -0.0452
 2099SOL    HW117930   3.168   2.332   9.393 -1.7978  1.2873 -0.6504
 2099SOL    HW217931   3.251   2.249   9.324  0.9109  0.1224 -1.3435
 2100SOL     OW17932   4.713   1.516   4.759  0.1861  0.1917  0.1900
 2100SOL    HW117933   0.001   1.496   4.848 -0.6305  0.8179  0.5762
 2100SOL    HW217934   0.043   1.475   4.707 -1.0250 -1.1032 -0.4150
 2101SOL     OW17935   0.787   1.161  16.944  0.1705 -0.0523 -0.1613
 2101SOL    HW117936   0.869   1.153  16.992 -0.7415 -0.2978  1.3657
 2101SOL    HW217937   0.764   1.251  16.969 -0.2154 -0.4305  0.8477
 2102SOL     OW17938   0.454   4.136   3.967 -0.0066 -0.6573 -0.2401
 2102SOL    HW117939   0.489   4.210   4.017  2.5241 -1.3306 -1.0112
 2102SOL    HW217940   0.419   4.189   3.896  2.6777  0.5636 -0.6351
 2103SOL     OW17941   2.608   0.353   5.292  0.1718  0.2553 -0.3465
 2103SOL    HW117942   2.550   0.279   5.272  0.0295 -0.0626  1.1893
 2103SOL    HW217943   2.604   0.418   5.222 -1.8869  1.1797  0.6366
 2104SOL     OW17944   3.758   3.236   0.889 -0.1777 -0.5594 -0.3823
 2104SOL    HW117945   3.734   3.318   0.847  0.4686 -0.9477 -1.5139
 2104SOL    HW217946   3.780   3.281   0.971 -1.3197  0.5238 -0.6893
 2105SOL     OW17947   4.428   2.684   0.589  0.5164  0.1575 -0.2978
 2105SOL    HW117948   4.459   2.656   0.675  0.8629  0.2865 -0.3821
 2105SOL    HW217949   4.334   2.684   0.605  0.4577  1.5351 -0.5977
 2106SOL     OW17950   0.815   0.072   0.092 -0.2929 -0.0495 -0.3060
 2106SOL    HW117951   0.874   0.002   0.119  0.9342  0.9867 -0.2670
 2106SOL    HW217952   0.876   0.146   0.092  0.6412 -0.8097  1.2797
 2107SOL     OW17953   4.409   1.922   3.374 -0.3293  0.0552 -0.1342
 2107SOL    HW117954   4.411   1.930   3.469 -1.1650 -2.1493  0.0863
 2107SOL    HW217955   4.497   1.947   3.347  0.3558  0.7343  2.7296
 2108SOL     OW17956   4.328   3.253   2.546 -0.2114  0.6912  0.4282
 2108SOL    HW117957   4.328   3.165   2.582  2.1479 -0.0916 -1.5006
 2108SOL    HW217958   4.242   3.286   2.572  0.1635  1.4653  0.6940
 2109SOL     OW17959   0.968   3.270   8.789 -0.0726  0.0781  0.2505
 2109SOL    HW117960   0.960   3.175   8.799  0.9775  0.0030  0.4048
 2109SOL    HW217961   1.043   3.296   8.844  0.3280 -1.0870  0.2493
 2110SOL     OW17962   2.352   3.861  11.551  0.5078 -0.5756 -0.0842
 2110SOL    HW117963   2.277   3.810  11.582  1.0321 -2.8232 -2.5989
 2110SOL    HW217964   2.308   3.946  11.548  1.0678 -0.2016  2.0656
 2111SOL     OW17965   1.028   2.016   5.252 -0.4455  0.2687  0.0229
 2111SOL    HW117966   0.935   1.997   5.240 -0.1424 -1.3514  0.2956
 2111SOL    HW217967   1.039   2.105   5.219 -1.3332  1.3144  2.5229
 2112SOL     OW17968   3.595   1.694   7.476  0.3318  0.8164  0.1963
 2112SOL    HW117969   3.516   1.695   7.530 -0.0169  0.7113 -0.3108
 2112SOL    HW217970   3.617   1.602   7.485 -0.5674  0.4624 -1.2582
 2113SOL     OW17971   3.236   2.296   8.210  0.1935 -0.1279 -0.1238
 2113SOL    HW117972   3.167   2.243   8.251 -0.1826  1.1759  0.8995
 2113SOL    HW217973   3.223   2.270   8.119  0.4879 -1.0711  0.1017
 2114SOL     OW17974   1.874   3.668  15.942 -0.2545 -0.1920  0.8336
 2114SOL    HW117975   1.884   3.636  15.852  2.2232  1.5972  0.4624
 2114SOL    HW217976   1.955   3.718  15.952  0.0980 -0.5926  0.0558
 2115SOL     OW17977   4.030   2.340   3.314 -0.9732  0.3874 -0.7062
 2115SOL    HW117978   4.104   2.294   3.354 -0.6158 -0.2318 -2.0929
 2115SOL    HW217979   4.009   2.301   3.229 -0.1241  0.5690 -0.9978
 2116SOL     OW17980   3.804   3.220  13.886  0.6479  0.6257 -0.0020
 2116SOL    HW117981   3.740   3.248  13.821 -0.3784 -0.3052  0.5956
 2116SOL    HW217982   3.750   3.231  13.965  1.2346  1.1058  0.3338
 2117SOL     OW17983   2.415   3.272  13.037  0.2633  0.0838  0.5894
 2117SOL    HW117984   2.460   3.348  13.072 -2.0040  1.8015 -0.2120
 2117SOL    HW217985   2.492   3.224  13.008 -0.0939 -0.1649  0.0440
 2118SOL     OW17986   3.046   0.086   9.610  0.3015 -0.0742 -0.1426
 2118SOL    HW117987   3.116   0.134   9.655  0.5229  1.0484 -1.6610
 2118SOL    HW217988   3.002   0.045   9.684  0.6520 -1.2243 -0.5820
 2119SOL     OW17989   0.388   3.079   2.343  0.2374 -0.3643 -0.0398
 2119SOL    HW117990   0.304   3.121   2.362  0.3884 -1.1008  2.2373
 2119SOL    HW217991   0.351   2.997   2.312  1.3631  0.0245 -2.4543
 2120SOL     OW17992   3.516   3.079   7.409 -0.3100  0.0362  0.2718
 2120SOL    HW117993   3.429   3.073   7.369 -0.4372  0.4669  0.4849
 2120SOL    HW217994   3.529   3.171   7.387  1.5499 -0.1465  0.5555
 2121SOL     OW17995   1.055   0.781   2.227  0.6874 -0.1318  0.1581
 2121SOL    HW117996   0.997   0.725   2.174  1.9553 -0.9861 -0.3059
 2121SOL    HW217997   1.131   0.724   2.239  1.1177  0.9660  2.5526
 2122SOL     OW17998   0.020   3.828   6.689  0.1560 -0.4824  0.0748
 2122SOL    HW117999   0.109   3.819   6.653  0.9271  0.5319  1.7137
 2122SOL    HW218000   0.003   3.746   6.736 -0.2200 -0.5196 -0.1247
 2123SOL     OW18001   2.323   1.882   6.094 -0.0595  0.1340 -0.3301
 2123SOL    HW118002   2.352   1.923   6.176 -2.7674  0.4197  0.5029
 2123SOL    HW218003   2.403   1.862   6.046 -0.1167  2.0002 -1.1753
 2124SOL     OW18004   3.587   2.594  12.010 -0.0668 -0.0387 -0.1509
 2124SOL    HW118005   3.631   2.678  12.023 -0.2584  0.0729 -0.2163
 2124SOL    HW218006   3.655   2.527  12.008  0.9299  0.9593  0.4182
 2125SOL     OW18007   1.694   0.988   8.756 -0.0468 -0.2673  0.2245
 2125SOL    HW118008   1.787   0.969   8.744 -0.0406 -0.5489  0.7243
 2125SOL    HW218009   1.654   0.980   8.669  2.6629 -1.2403 -0.9231
 2126SOL     OW18010   2.606   4.720   6.612 -0.2127 -0.3715 -0.1567
 2126SOL    HW118011   2.582   0.035   6.538 -1.8821  0.3107  0.8781
 2126SOL    HW218012   2.661   0.039   6.664 -0.7674 -0.0528  0.0747
 2127SOL     OW18013   2.027   4.258   2.716  0.1050  0.6867  0.2517
 2127SOL    HW118014   1.942   4.232   2.679  0.8881  1.0207 -1.7478
 2127SOL    HW218015   2.085   4.191   2.681 -1.2554  0.4654 -1.5705
 2128SOL     OW18016   1.815   4.678   2.430  0.4632  0.0104 -0.4438
 2128SOL    HW118017   1.741   4.618   2.422  1.0972 -0.7938 -0.2569
 2128SOL    HW218018   1.783   0.024   2.403 -0.2932 -0.1377 -0.0256
 2129SOL     OW18019   4.341   2.866   8.771  0.0041  0.2097 -0.3723
 2129SOL    HW118020   4.388   2.841   8.692  0.6548 -0.0839  0.1056
 2129SOL    HW218021   4.344   2.961   8.761  3.0815  0.3235  1.6779
 2130SOL     OW18022   0.975   0.692   6.183  0.0701 -0.0964  0.3623
 2130SOL    HW118023   0.992   0.625   6.116 -1.3830  0.6865 -0.7698
 2130SOL    HW218024   1.015   0.645   6.257  0.9918 -1.1871 -0.8229
 2131SOL     OW18025   1.590   4.294  12.178 -0.2040 -0.6560  0.4595
 2131SOL    HW118026   1.562   4.214  12.134 -0.9106 -0.6795  0.9545
 2131SOL    HW218027   1.636   4.335  12.105 -2.7843  0.7239 -0.3585
 2132SOL     OW18028   3.717   4.012   6.404  0.2154 -0.3865 -0.4678
 2132SOL    HW118029   3.705   3.998   6.498  0.4056  1.8027 -0.0997
 2132SOL    HW218030   3.684   3.935   6.360  0.0247 -0.2069 -0.6404
 2133SOL     OW18031   2.573   4.017   0.598  0.2571  0.0506  0.0647
 2133SOL    HW118032   2.499   3.995   0.654 -0.7545  1.1692 -0.8505
 2133SOL    HW218033   2.543   4.080   0.533 -0.1101  1.5161  1.6420
 2134SOL     OW18034   2.696   3.718   5.340  0.2479  0.1103 -0.3475
 2134SOL    HW118035   2.674   3.737   5.248 -1.5486 -2.0647 -0.3429
 2134SOL    HW218036   2.618   3.674   5.373 -0.2628  1.8948  0.8496
 2135SOL     OW18037   1.335   2.984   2.982 -0.1006  0.3609  0.6015
 2135SOL    HW118038   1.255   3.030   3.009  0.5806  1.8321  0.1344
 2135SOL    HW218039   1.387   2.991   3.062  1.2663  0.5572 -0.3197
 2136SOL     OW18040   2.794   1.796  15.621 -0.5780  0.1543 -0.5899
 2136SOL    HW118041   2.712   1.756  15.650  0.3636 -0.2374  1.5239
 2136SOL    HW218042   2.801   1.847  15.702  0.4493 -1.5141  0.3614
 2137SOL     OW18043   1.712   1.736   4.871 -0.2385 -0.4276 -0.1102
 2137SOL    HW118044   1.778   1.805   4.861  0.3783 -1.0309 -0.2361
 2137SOL    HW218045   1.663   1.768   4.947 -0.4384 -0.6882 -0.1301
 2138SOL     OW18046   2.757   2.239   6.946 -0.3660 -0.5213  0.2756
 2138SOL    HW118047   2.722   2.307   6.888 -1.4345 -0.5787  0.8361
 2138SOL    HW218048   2.833   2.279   6.988  0.5208 -1.3071 -0.6086
 2139SOL     OW18049   4.706   1.456   5.498  0.0026 -0.1329  0.2863
 2139SOL    HW118050   4.685   1.364   5.511 -0.1816 -0.0349  0.7017
 2139SOL    HW218051   4.627   1.492   5.459  0.9731  0.6573 -0.9789
 2140SOL     OW18052   2.866   3.944   5.106 -0.2681 -0.3148  0.2270
 2140SOL    HW118053   2.919   3.928   5.028  2.2199 -0.2791  1.8813
 2140SOL    HW218054   2.906   3.881   5.167 -2.6228 -2.5575 -0.5869
 2141SOL     OW18055   3.860   1.628   1.005 -0.5447 -0.6532  0.7523
 2141SOL    HW118056   3.931   1.575   1.041  0.2035 -0.7826 -0.8792
 2141SOL    HW218057   3.896   1.711   1.036 -0.3302 -0.0838 -0.9754
 2142SOL     OW18058   3.510   1.449  16.532  0.4220 -0.0938  0.0909
 2142SOL    HW118059   3.510   1.482  16.443  0.8934 -0.3660 -0.0123
 2142SOL    HW218060   3.591   1.479  16.574 -0.5734  0.5281  1.5529
 2143SOL     OW18061   3.790   4.143   7.467 -0.4283 -0.1286 -0.7573
 2143SOL    HW118062   3.783   4.060   7.514  0.7968  0.5633  0.6391
 2143SOL    HW218063   3.796   4.213   7.532  1.0893 -0.2651 -0.7519
 2144SOL     OW18064   0.272   3.305   3.757  0.0563 -0.2396 -0.5189
 2144SOL    HW118065   0.332   3.321   3.684  2.5946  2.2669  2.1214
 2144SOL    HW218066   0.277   3.210   3.771 -0.4421 -0.0089  1.3230
 2145SOL     OW18067   1.339   3.986   7.515  0.6245 -0.3219 -0.1058
 2145SOL    HW118068   1.423   3.993   7.561 -0.6635  0.1263  2.2270
 2145SOL    HW218069   1.331   4.071   7.471 -0.4808 -0.5818 -0.4145
 2146SOL     OW18070   2.807   1.357  14.371  0.3911 -0.1960 -0.3764
 2146SOL    HW118071   2.813   1.402  14.286  0.2786  1.5120  0.5091
 2146SOL    HW218072   2.830   1.431  14.428  1.3993 -1.5701  0.9851
 2147SOL     OW18073   1.408   1.502   5.432  0.5518  0.3647 -0.0126
 2147SOL    HW118074   1.416   1.588   5.471  0.1452 -0.4277  1.8102
 2147SOL    HW218075   1.328   1.477   5.479  0.7493  1.4682  0.8989
 2148SOL     OW18076   0.714   3.305   4.354 -0.7787  0.4556  0.3310
 2148SOL    HW118077   0.764   3.224   4.363 -0.4395  0.6641  0.3512
 2148SOL    HW218078   0.628   3.278   4.323  0.5912 -1.8695 -1.4411
 2149SOL     OW18079   0.290   3.641   3.425 -0.8275 -0.0088  0.2394
 2149SOL    HW118080   0.373   3.633   3.378 -0.0541 -0.9542  1.7769
 2149SOL    HW218081   0.309   3.731   3.453  2.4717 -0.2504 -1.2742
 2150SOL     OW18082   3.844   1.742   2.086  0.7534  0.2514 -0.4471
 2150SOL    HW118083   3.929   1.744   2.041  0.6302 -0.1831 -0.6979
 2150SOL    HW218084   3.797   1.686   2.024 -2.6251  2.1506  0.4294
 2151SOL     OW18085   0.019   0.949  14.490  0.0457  0.0318 -0.3604
 2151SOL    HW118086   4.716   1.028  14.457 -0.9982 -0.0863  0.6918
 2151SOL    HW218087   0.084   0.982  14.552 -2.0353  1.1082  1.2803
 2152SOL     OW18088   4.650   4.421   4.659  0.6706  0.0654 -0.1469
 2152SOL    HW118089   4.597   4.436   4.581 -0.3304  2.7898  1.0454
 2152SOL    HW218090   4.650   4.325   4.665 -2.1136  0.1381  1.3672
 2153SOL     OW18091   4.579   0.583   9.284 -0.0426  0.6313 -0.5691
 2153SOL    HW118092   4.652   0.533   9.319 -0.0539 -0.5074 -2.1711
 2153SOL    HW218093   4.564   0.536   9.202  2.0662  1.3517 -1.3901
 2154SOL     OW18094   4.716   4.027   9.677 -0.2455 -0.6911  0.2921
 2154SOL    HW118095   4.716   3.978   9.594  1.7942  1.4211 -0.9736
 2154SOL    HW218096   0.069   4.051   9.680 -0.2938 -0.3509 -0.9385
 2155SOL     OW18097   0.313   3.919   8.128  0.2386  0.5226  0.1185
 2155SOL    HW118098   0.325   4.011   8.152 -2.4533  0.4409  1.7829
 2155SOL    HW218099   0.395   3.891   8.087 -0.5110 -1.0538 -0.3229
 2156SOL     OW18100   3.818   1.366   4.100 -0.1160  0.2951  0.8636
 2156SOL    HW118101   3.765   1.353   4.179  0.7729 -0.5615  1.3137
 2156SOL    HW218102   3.863   1.448   4.122 -1.2972  1.8873 -2.5401
 2157SOL     OW18103   1.848   0.784   6.332  0.7553 -0.4765 -0.7409
 2157SOL    HW118104   1.823   0.715   6.393  0.1749  2.1177  1.9669
 2157SOL    HW218105   1.794   0.855   6.366  2.9099  0.5343  0.6390
 2158SOL     OW18106   4.017   2.137   8.020  0.5631  0.0027 -0.2569
 2158SOL    HW118107   4.026   2.057   7.968 -1.7320 -0.0913 -0.5100
 2158SOL    HW218108   3.961   2.186   7.960 -0.1810 -1.4529 -0.7644
 2159SOL     OW18109   2.331   2.197   9.326 -0.6038 -0.8445  0.6206
 2159SOL    HW118110   2.277   2.275   9.340  0.6529 -0.1190  1.4656
 2159SOL    HW218111   2.313   2.152   9.409 -0.8670  0.0841  1.0754
 2160SOL     OW18112   4.199   1.630   2.335  0.2286  0.5190 -0.0534
 2160SOL    HW118113   4.138   1.575   2.286  0.7927 -0.3868  0.2446
 2160SOL    HW218114   4.278   1.593   2.296  0.0181 -0.1775  0.1680
 2161SOL     OW18115   3.415   0.295   4.943 -0.2927  0.3486  0.1457
 2161SOL    HW118116   3.381   0.345   4.869 -2.1690 -0.2009  0.6521
 2161SOL    HW218117   3.461   0.224   4.898  0.9627  0.8924  0.5665
 2162SOL     OW18118   2.197   4.036   3.614 -0.1443  0.0204  0.3206
 2162SOL    HW118119   2.183   4.092   3.690 -2.0712 -2.9743  2.1825
 2162SOL    HW218120   2.271   3.982   3.640 -0.0756 -0.4444 -0.8004
 2163SOL     OW18121   3.013   4.140   3.295  0.0009 -0.3160 -0.6202
 2163SOL    HW118122   3.002   4.226   3.335  2.5145  0.7545 -2.2650
 2163SOL    HW218123   2.938   4.085   3.320 -0.1016 -1.8404 -4.3340
 2164SOL     OW18124   3.528   3.079   3.098  0.2692  0.2250  0.1875
 2164SOL    HW118125   3.588   3.105   3.168 -0.8069 -1.5237  1.7732
 2164SOL    HW218126   3.567   2.994   3.075  2.1905  0.8124  1.2601
 2165SOL     OW18127   0.214   0.502   2.995  0.1157  0.0960  0.4729
 2165SOL    HW118128   0.144   0.445   2.965 -0.4844  0.7124  0.7163
 2165SOL    HW218129   0.175   0.578   3.037 -1.8078 -0.5657 -0.1276
 2166SOL     OW18130   1.960   3.968   4.719 -0.2236  0.3240 -0.1991
 2166SOL    HW118131   2.052   3.971   4.744  0.0545 -1.3890 -1.0213
 2166SOL    HW218132   1.963   3.923   4.634 -0.8865  0.5584 -0.3484
 2167SOL     OW18133   1.562   4.548  11.491  0.1337 -0.4351 -0.5116
 2167SOL    HW118134   1.537   4.597  11.570  0.1676  0.0929 -0.8237
 2167SOL    HW218135   1.627   4.607  11.453 -0.9552 -0.6853 -2.7483
 2168SOL     OW18136   4.053   4.739   7.836  0.2343 -0.0502 -0.1829
 2168SOL    HW118137   4.132   4.695   7.866  1.2714  1.7091 -0.3178
 2168SOL    HW218138   4.085   0.089   7.826 -1.6810  1.0362  3.4961
 2169SOL     OW18139   2.757   3.325   3.257  0.7893 -0.0770  0.5098
 2169SOL    HW118140   2.718   3.388   3.317 -0.0254 -0.8212  0.7765
 2169SOL    HW218141   2.849   3.330   3.283  1.0942  1.2893 -0.8298
 2170SOL     OW18142   4.375   1.409  12.644  0.3443  0.5226 -0.0642
 2170SOL    HW118143   4.392   1.482  12.585  2.3351  1.0960  1.2405
 2170SOL    HW218144   4.354   1.451  12.727  0.3359  2.1809 -0.9078
 2171SOL     OW18145   0.771   3.673   3.993  0.2437 -0.3067 -0.0425
 2171SOL    HW118146   0.779   3.580   4.014 -0.8279 -0.0583  1.4872
 2171SOL    HW218147   0.676   3.686   3.986  0.2809 -0.3956 -0.7125
 2172SOL     OW18148   0.846   3.336   8.539 -0.2979 -0.5148 -0.7100
 2172SOL    HW118149   0.913   3.283   8.582  0.8822 -0.2021 -2.1799
 2172SOL    HW218150   0.810   3.377   8.618 -0.5904 -1.0756 -0.5535
 2173SOL     OW18151   2.054   0.925   5.321 -0.2955  0.0961  0.3015
 2173SOL    HW118152   2.002   0.848   5.347 -0.3778  0.8115  2.2530
 2173SOL    HW218153   1.977   0.978   5.303 -0.8684 -0.3882  1.2788
 2174SOL     OW18154   4.241   3.784   5.674  0.2918  0.4034  0.1505
 2174SOL    HW118155   4.230   3.780   5.769  2.4245  0.4259  0.3940
 2174SOL    HW218156   4.152   3.765   5.644  0.1078 -0.6245  1.3454
 2175SOL     OW18157   3.278   4.188   2.456 -0.0111 -0.0884 -0.0014
 2175SOL    HW118158   3.358   4.221   2.416 -1.7907  1.7021 -2.0684
 2175SOL    HW218159   3.248   4.117   2.399 -1.1635  1.4157 -1.2985
 2176SOL     OW18160   3.667   3.283   9.969 -0.3493 -0.5194  0.5901
 2176SOL    HW118161   3.667   3.322  10.057 -1.3623  0.4604  0.1448
 2176SOL    HW218162   3.758   3.254   9.962 -0.2401 -0.2092  0.7260
 2177SOL     OW18163   2.398   3.600   5.974 -0.2657  0.2215  0.5174
 2177SOL    HW118164   2.322   3.631   6.023 -1.1897 -0.4062 -0.4991
 2177SOL    HW218165   2.359   3.522   5.933 -0.1695  0.3706  0.1353
 2178SOL     OW18166   4.691   0.911   5.820  0.1658 -0.3499 -0.1633
 2178SOL    HW118167   0.020   0.965   5.780  0.1451  1.9704  2.9232
 2178SOL    HW218168   4.686   0.956   5.904  0.7255 -0.9914  0.2107
 2179SOL     OW18169   0.794   4.363   7.232  0.3771 -0.3224 -0.3722
 2179SOL    HW118170   0.807   4.307   7.308  2.0663 -0.0091 -0.4409
 2179SOL    HW218171   0.839   4.309   7.167 -0.5524  3.7522 -4.4710
 2180SOL     OW18172   0.655   4.010   6.478  0.4485  0.3116 -0.7329
 2180SOL    HW118173   0.690   4.090   6.439 -0.5415  1.4767  0.8060
 2180SOL    HW218174   0.731   3.974   6.524 -1.3304  1.6867  3.2528
 2181SOL     OW18175   0.536   2.367   3.494 -0.4019 -0.7128 -0.2899
 2181SOL    HW118176   0.611   2.404   3.541  0.3782  0.2871 -2.3165
 2181SOL    HW218177   0.500   2.322   3.570 -1.0801 -0.9233 -0.7363
 2182SOL     OW18178   1.057   2.342  11.019  0.2098  0.5093 -0.4419
 2182SOL    HW118179   1.120   2.276  11.048  0.0795  1.0557  1.0911
 2182SOL    HW218180   1.070   2.414  11.080 -2.1603  2.0541 -1.7778
 2183SOL     OW18181   1.734   3.611  11.851 -0.8180  0.0692 -0.3502
 2183SOL    HW118182   1.672   3.555  11.804 -1.4045 -1.3151  2.0283
 2183SOL    HW218183   1.810   3.558  11.827 -0.6536 -1.2373  2.9573
 2184SOL     OW18184   3.992   4.602   7.489 -0.2602  0.9631 -0.3158
 2184SOL    HW118185   3.979   4.697   7.492  1.0875  1.1498 -0.5076
 2184SOL    HW218186   3.974   4.588   7.396  0.0447  0.9849 -0.3786
 2185SOL     OW18187   3.230   1.930   7.430  0.1219 -0.8863  0.5469
 2185SOL    HW118188   3.137   1.911   7.441  0.1547 -1.1547  0.3552
 2185SOL    HW218189   3.260   1.841   7.410 -0.3965 -0.7307 -0.9235
 2186SOL     OW18190   2.169   0.818  15.368  0.2288  1.0498  0.4257
 2186SOL    HW118191   2.074   0.814  15.369  0.3272 -0.9367  0.8232
 2186SOL    HW218192   2.189   0.892  15.309  2.0940 -0.2801 -0.6375
 2187SOL     OW18193   4.638   4.423   8.297  0.2785 -0.3366 -0.1779
 2187SOL    HW118194   4.687   4.382   8.226 -0.1140 -0.9271 -0.1016
 2187SOL    HW218195   4.694   4.497   8.322  1.2135 -1.5654  1.3909
 2188SOL     OW18196   3.978   2.510   2.283  0.0511  0.0298 -0.1467
 2188SOL    HW118197   3.909   2.545   2.340 -1.3636 -2.6238 -0.2067
 2188SOL    HW218198   4.028   2.589   2.264 -1.3006  1.5466  2.5524
 2189SOL     OW18199   4.594   3.659   8.960  0.2615  0.4368 -0.1124
 2189SOL    HW118200   4.684   3.677   8.987  0.0957 -0.4519  1.0123
 2189SOL    HW218201   4.603   3.585   8.900  2.6668  1.0816 -0.5264
 2190SOL     OW18202   1.868   4.347  15.897 -0.3877 -0.0060  1.1978
 2190SOL    HW118203   1.796   4.351  15.835 -0.3182 -2.9710  0.9314
 2190SOL    HW218204   1.891   4.438  15.916  1.0963 -0.5635  2.1144
 2191SOL     OW18205   0.461   2.835  13.686  0.4487  0.6769 -0.2761
 2191SOL    HW118206   0.440   2.757  13.635  0.3634  1.4820 -1.4780
 2191SOL    HW218207   0.392   2.817  13.751 -1.6601  0.0139 -2.6942
 2192SOL     OW18208   3.561   3.671   3.942  0.1003 -0.0754  0.0081
 2192SOL    HW118209   3.523   3.759   3.946  2.7684  1.0665 -0.0062
 2192SOL    HW218210   3.508   3.634   3.872  1.3077 -1.5187 -0.1339
 2193SOL     OW18211   4.313   2.852  11.906  0.3497 -0.2935 -0.3221
 2193SOL    HW118212   4.295   2.792  11.833  1.4039 -0.5800 -0.3411
 2193SOL    HW218213   4.234   2.822  11.953 -0.0723  1.5096  0.1247
 2194SOL     OW18214   1.259   3.575   6.320 -0.3491 -0.5401 -0.2736
 2194SOL    HW118215   1.218   3.512   6.261 -1.0113  0.8324 -1.2742
 2194SOL    HW218216   1.297   3.506   6.375 -0.0232 -0.7576 -0.7681
 2195SOL     OW18217   1.182   0.547   7.238 -0.6483 -0.0848 -0.6051
 2195SOL    HW118218   1.230   0.550   7.155 -0.1308 -1.9326 -0.3657
 2195SOL    HW218219   1.251   0.511   7.293 -0.0270 -0.0953 -1.4020
 2196SOL     OW18220   0.323   0.625   8.217 -0.2318 -0.2623 -0.0251
 2196SOL    HW118221   0.302   0.558   8.282  1.4742 -0.8044 -0.0229
 2196SOL    HW218222   0.318   0.563   8.144 -2.6013 -0.3095  0.1753
 2197SOL     OW18223   0.209   1.025  14.641 -0.1911 -0.2840 -0.1202
 2197SOL    HW118224   0.200   1.026  14.736  2.0234  2.7962  0.0566
 2197SOL    HW218225   0.302   1.048  14.650 -0.0986 -1.3297  1.7326
 2198SOL     OW18226   0.662   1.219  14.602  0.1715  0.3891  0.1153
 2198SOL    HW118227   0.753   1.201  14.578 -0.1887  2.4817 -2.8108
 2198SOL    HW218228   0.636   1.289  14.543  2.0231 -0.5135 -1.8045
 2199SOL     OW18229   3.956   2.654   8.042  0.3724 -0.3568 -0.1776
 2199SOL    HW118230   3.944   2.687   8.131  1.7673 -0.8873  0.2030
 2199SOL    HW218231   3.964   2.560   8.059 -1.4757 -0.1538  1.7976
 2200SOL     OW18232   1.206   2.117   9.607 -0.2291 -0.3184  0.0757
 2200SOL    HW118233   1.251   2.033   9.616  0.6305  0.1720  0.3593
 2200SOL    HW218234   1.198   2.109   9.512 -1.5897 -0.6863  0.2322
 2201SOL     OW18235   1.268   3.769  16.760 -0.0003  0.6302 -0.1387
 2201SOL    HW118236   1.303   3.726  16.838 -2.0056  1.0003  0.9833
 2201SOL    HW218237   1.317   3.851  16.763 -1.6657  1.6309 -0.2458
 2202SOL     OW18238   0.487   4.678   9.938  0.3982 -0.1316 -0.4540
 2202SOL    HW118239   0.424   4.738   9.979  0.6266  0.5930 -1.1590
 2202SOL    HW218240   0.536   4.736   9.880  0.0646  2.4349  1.8005
 2203SOL     OW18241   1.520   2.472   9.624 -0.1455  0.2183 -0.0893
 2203SOL    HW118242   1.576   2.478   9.702 -1.5955  3.8061  0.6942
 2203SOL    HW218243   1.449   2.415   9.653 -0.6239  0.4631 -0.7765
 2204SOL     OW18244   1.554   2.924   9.263  0.7987  0.5740  0.2304
 2204SOL    HW118245   1.618   2.923   9.334  0.3918  1.5870  0.6044
 2204SOL    HW218246   1.484   2.983   9.291 -0.5146 -1.3528  0.9659
 2205SOL     OW18247   1.988   1.424  15.362  0.4509  0.7831  0.3100
 2205SOL    HW118248   2.069   1.376  15.351 -0.8817 -0.6281 -3.3090
 2205SOL    HW218249   1.935   1.363  15.413 -0.9543  0.5514 -1.3904
 2206SOL     OW18250   2.954   1.274   6.175 -0.2797  0.0086  0.0658
 2206SOL    HW118251   2.940   1.188   6.214  0.0753 -0.5874 -1.1091
 2206SOL    HW218252   2.907   1.271   6.091  1.6429 -1.3253 -0.9865
 2207SOL     OW18253   2.034   2.672   5.903 -0.4669  0.0921  0.5804
 2207SOL    HW118254   2.129   2.674   5.889 -0.5477  0.6972  0.0990
 2207SOL    HW218255   2.026   2.597   5.962 -0.6509  0.6332  1.2415
 2208SOL     OW18256   1.957   4.127   8.399 -0.4816  0.2418 -0.4989
 2208SOL    HW118257   1.990   4.061   8.338  0.3625 -1.0423  1.3767
 2208SOL    HW218258   1.950   4.205   8.344  0.8571 -1.2832 -2.8111
 2209SOL     OW18259   0.168   0.212   3.690 -0.0322  0.0489  0.4170
 2209SOL    HW118260   0.179   0.279   3.758 -0.7911  0.1451  0.4373
 2209SOL    HW218261   0.090   0.238   3.642  1.6717  2.1593 -1.1633
 2210SOL     OW18262   0.175   1.132  12.092 -0.0605 -0.1438  0.3732
 2210SOL    HW118263   0.257   1.163  12.131 -0.2852 -1.0538  1.5544
 2210SOL    HW218264   0.206   1.062  12.036  1.2694 -2.2521  3.7801
 2211SOL     OW18265   0.191   1.487   3.110 -0.4629  0.3820 -0.6147
 2211SOL    HW118266   0.140   1.549   3.162 -1.1530 -0.6417 -0.0475
 2211SOL    HW218267   0.182   1.409   3.165  3.2517  0.9851  0.8461
 2212SOL     OW18268   2.525   3.649  13.345 -0.0543 -0.4159 -0.4801
 2212SOL    HW118269   2.547   3.695  13.426  0.8186 -0.5215 -0.6559
 2212SOL    HW218270   2.430   3.657  13.348 -0.0385 -0.4793  0.3178
 2213SOL     OW18271   4.480   3.420  12.596 -0.4948  0.2653 -0.5227
 2213SOL    HW118272   4.405   3.415  12.655 -1.0113 -2.2246 -1.3696
 2213SOL    HW218273   4.450   3.360  12.528 -0.0032 -0.3333 -0.2156
 2214SOL     OW18274   0.954   0.959   7.917  0.4564  0.0645 -0.8137
 2214SOL    HW118275   1.045   0.933   7.903  0.7619  1.0817 -0.7297
 2214SOL    HW218276   0.959   1.055   7.914 -1.0741  0.1717  0.1128
 2215SOL     OW18277   3.164   0.940   4.176  0.1785 -0.2303  0.0033
 2215SOL    HW118278   3.180   1.035   4.180  0.4838 -0.2316 -1.2787
 2215SOL    HW218279   3.247   0.917   4.217 -0.8215  0.1457  2.2515
 2216SOL     OW18280   2.382   3.543   8.217 -0.2089 -1.0629  0.2720
 2216SOL    HW118281   2.365   3.619   8.273 -1.7111  0.4606 -2.2677
 2216SOL    HW218282   2.463   3.511   8.257  0.7751 -0.3729 -1.1672
 2217SOL     OW18283   3.843   3.840   7.557  0.3178  0.1852  0.5128
 2217SOL    HW118284   3.923   3.813   7.603 -0.0760  0.6322  1.4507
 2217SOL    HW218285   3.782   3.830   7.631 -1.4303 -1.5937 -1.1728
 2218SOL     OW18286   3.575   2.210   0.029 -0.4605 -0.3457  0.0351
 2218SOL    HW118287   3.532   2.126   0.015 -1.4216 -0.0632  1.3137
 2218SOL    HW218288   3.521   2.260  17.722 -1.9643 -2.4501 -0.3668
 2219SOL     OW18289   2.578   4.642   0.567  0.3949 -0.0795  0.7059
 2219SOL    HW118290   2.549   4.658   0.477  0.7016 -1.0387  0.4347
 2219SOL    HW218291   2.624   4.561   0.547  0.5238  0.5058 -1.3620
 2220SOL     OW18292   3.054   3.642   9.915 -0.1372 -0.0316  0.2151
 2220SOL    HW118293   3.036   3.725   9.960 -0.4762  0.8976 -1.6576
 2220SOL    HW218294   3.126   3.609   9.968  0.8612  0.4127 -0.8610
 2221SOL     OW18295   0.213   3.591   4.962  0.0662  0.0585 -0.4997
 2221SOL    HW118296   0.145   3.541   4.918  0.9804 -1.0453 -0.6742
 2221SOL    HW218297   0.291   3.547   4.929  0.4053  1.4884 -1.6151
 2222SOL     OW18298   4.424   0.413  15.409  0.1807 -0.5866  0.2258
 2222SOL    HW118299   4.445   0.320  15.399  0.9406 -0.4264  0.3393
 2222SOL    HW218300   4.364   0.409  15.483  1.4986 -1.1097  1.2703
 2223SOL     OW18301   0.521   2.103  13.562  0.6858 -0.4858 -0.1425
 2223SOL    HW118302   0.553   2.053  13.487  3.0776  1.9527 -0.7601
 2223SOL    HW218303   0.449   2.158  13.532 -0.2037 -2.3693 -1.4847
 2224SOL     OW18304   3.708   0.419   6.260  0.0846 -0.4139 -0.0683
 2224SOL    HW118305   3.803   0.427   6.248  0.3589 -2.2816  1.0106
 2224SOL    HW218306   3.710   0.371   6.342 -0.6105 -0.6260 -0.1834
 2225SOL     OW18307   1.278   1.668   1.969  0.3400  0.3858  0.1031
 2225SOL    HW118308   1.325   1.632   1.893 -0.6460 -1.0575  0.1805
 2225SOL    HW218309   1.196   1.691   1.924  0.0346  2.4398  1.7022
 2226SOL     OW18310   1.602   4.070   3.821  0.0037 -0.6167  0.2867
 2226SOL    HW118311   1.557   4.144   3.863 -1.8194 -2.7961  2.1608
 2226SOL    HW218312   1.680   4.112   3.786  0.5226 -1.8616 -0.0351
 2227SOL     OW18313   0.604   2.817   3.890 -0.2818 -0.2618 -0.0966
 2227SOL    HW118314   0.594   2.908   3.864  2.4249  0.1708  0.3539
 2227SOL    HW218315   0.559   2.815   3.974 -1.3361  2.0125 -0.6047
 2228SOL     OW18316   0.117   2.536   3.375  0.2553 -0.5032  0.3137
 2228SOL    HW118317   0.073   2.542   3.291  0.5435 -0.3749  0.1714
 2228SOL    HW218318   0.058   2.570   3.442 -2.4550 -1.0719 -1.8192
 2229SOL     OW18319   4.196   2.578   4.768 -0.7675 -0.8218 -0.0114
 2229SOL    HW118320   4.138   2.575   4.691  2.3719 -1.1640 -2.3673
 2229SOL    HW218321   4.251   2.648   4.732 -0.2285 -0.5871  1.3022
 2230SOL     OW18322   0.011   3.457   2.754  0.3286 -0.3029 -0.4397
 2230SOL    HW118323   4.709   3.487   2.673 -1.1683  4.8408  2.2330
 2230SOL    HW218324   4.731   3.363   2.744  0.3754 -0.3092 -0.4730
 2231SOL     OW18325   3.568   3.025   9.591  0.3623  0.4425 -0.3432
 2231SOL    HW118326   3.551   3.060   9.503 -0.2575 -0.6829 -0.6669
 2231SOL    HW218327   3.560   2.934   9.562  2.1046 -0.0354  0.7480
 2232SOL     OW18328   3.330   1.434   4.328 -0.1046  0.5546 -0.8974
 2232SOL    HW118329   3.272   1.503   4.296  1.4893  1.3033 -2.1491
 2232SOL    HW218330   3.268   1.361   4.320  1.4580 -1.1884  2.7338
 2233SOL     OW18331   2.860   1.048  11.965 -0.4924  0.2636 -0.0026
 2233SOL    HW118332   2.817   1.127  11.932  0.4722  0.5384 -0.6037
 2233SOL    HW218333   2.900   1.086  12.043  2.0181 -0.7753 -0.7859
 2234SOL     OW18334   0.439   3.715  12.049 -0.1731  0.0919  0.2640
 2234SOL    HW118335   0.385   3.714  11.970 -0.0372  1.9587  0.1552
 2234SOL    HW218336   0.484   3.799  12.048 -2.1168  1.1284 -0.3205
 2235SOL     OW18337   3.790   0.581   5.555 -0.1833 -0.0441 -0.2400
 2235SOL    HW118338   3.708   0.628   5.536  0.5098  2.0743  2.0267
 2235SOL    HW218339   3.758   0.494   5.534  1.0379 -0.5547  0.0322
 2236SOL     OW18340   1.831   0.063   6.403  0.1384 -0.4739 -0.0607
 2236SOL    HW118341   1.788   4.719   6.423  0.2888 -1.0376 -2.0876
 2236SOL    HW218342   1.883   0.043   6.325  0.0850 -1.6358  0.1937
 2237SOL     OW18343   3.628   3.247   8.695  0.0402  0.4453 -0.2317
 2237SOL    HW118344   3.676   3.249   8.778 -1.0995  0.3524  0.4345
 2237SOL    HW218345   3.614   3.155   8.674 -1.7243  0.2015  1.9810
 2238SOL     OW18346   2.695   1.808   6.532 -0.1903  0.7121  0.3597
 2238SOL    HW118347   2.784   1.773   6.524 -0.1702  0.4641  1.8094
 2238SOL    HW218348   2.642   1.730   6.519  2.4608 -0.9737 -0.3733
 2239SOL     OW18349   3.191   3.188  12.552 -0.1156 -0.3797 -0.2795
 2239SOL    HW118350   3.215   3.260  12.494 -2.2341 -0.1691 -0.8969
 2239SOL    HW218351   3.278   3.153  12.570 -0.2548 -0.5062  0.1330
 2240SOL     OW18352   4.635   3.001   8.080  0.6267  0.0605  0.0767
 2240SOL    HW118353   4.604   3.015   7.991  0.7957  0.1299  0.0287
 2240SOL    HW218354   4.580   2.924   8.099  1.4454 -0.6472 -0.4189
 2241SOL     OW18355   0.311   0.133   8.033 -0.2042  0.0211 -0.3363
 2241SOL    HW118356   0.314   0.112   7.940  0.8240 -0.1468 -0.2686
 2241SOL    HW218357   0.295   0.051   8.081 -0.8526 -1.1985 -2.6691
 2242SOL     OW18358   2.885   3.130   4.411  0.4301  0.1282  0.2019
 2242SOL    HW118359   2.966   3.163   4.372  1.2226 -1.4840  0.4988
 2242SOL    HW218360   2.836   3.212   4.420  0.2355  0.0674 -0.3309
 2243SOL     OW18361   1.600   0.352   1.859 -0.3389 -0.2966  0.2513
 2243SOL    HW118362   1.661   0.332   1.788 -0.0876  3.3685 -0.5656
 2243SOL    HW218363   1.628   0.281   1.917  0.7556  1.1525  1.5094
 2244SOL     OW18364   0.399   3.684   5.381 -0.9002 -0.2969  0.1764
 2244SOL    HW118365   0.334   3.639   5.326  0.8722 -0.5960 -1.7141
 2244SOL    HW218366   0.479   3.676   5.330 -1.5946 -1.9605 -0.6589
 2245SOL     OW18367   1.483   4.529  13.604 -0.0591  0.1554 -0.0189
 2245SOL    HW118368   1.459   4.620  13.623 -1.4472  0.1344 -1.7502
 2245SOL    HW218369   1.523   4.510  13.689 -2.2717  1.4931  1.3273
 2246SOL     OW18370   1.393   2.512   4.565 -0.3290 -0.3221  0.1376
 2246SOL    HW118371   1.304   2.545   4.577 -0.4602  0.1869 -2.3323
 2246SOL    HW218372   1.388   2.444   4.632 -0.5583  0.5269  0.9852
 2247SOL     OW18373   3.113   3.302  12.289 -0.0802  0.6472 -0.0141
 2247SOL    HW118374   3.043   3.319  12.225 -1.2973 -1.7942  0.6766
 2247SOL    HW218375   3.189   3.304  12.232  2.6493 -1.1418  3.5933
 2248SOL     OW18376   3.698   2.551   6.895 -0.0944 -0.6260 -0.4199
 2248SOL    HW118377   3.746   2.593   6.824 -0.7857  0.0385 -0.4841
 2248SOL    HW218378   3.693   2.467   6.851 -2.2645 -0.8773  0.2952
 2249SOL     OW18379   3.831   1.023   6.236  0.3110  0.6687  0.1920
 2249SOL    HW118380   3.918   1.057   6.216 -0.0092  1.0712 -0.5054
 2249SOL    HW218381   3.846   0.930   6.253  1.2201  0.6833 -0.5676
 2250SOL     OW18382   1.175   3.736   5.086 -0.2448  0.2719 -0.4006
 2250SOL    HW118383   1.122   3.685   5.147  0.9211  0.1544  0.5231
 2250SOL    HW218384   1.160   3.688   5.005  3.0848  0.9712 -1.4402
 2251SOL     OW18385   0.469   1.441   5.718 -0.0905 -0.0190 -0.2785
 2251SOL    HW118386   0.555   1.429   5.760 -0.0864  2.5479  0.4647
 2251SOL    HW218387   0.473   1.377   5.647 -0.3666 -1.6343  1.1574
 2252SOL     OW18388   2.480   1.450   7.091 -0.5499 -0.3236  0.0457
 2252SOL    HW118389   2.427   1.525   7.117 -1.0495 -0.3350 -0.9481
 2252SOL    HW218390   2.493   1.464   6.997 -4.4038 -2.5992 -0.8220
 2253SOL     OW18391   4.548   0.301   6.380  0.5391 -0.5072 -0.0327
 2253SOL    HW118392   4.519   0.235   6.443  2.7520  0.6956  2.2860
 2253SOL    HW218393   4.479   0.308   6.314  1.1113  2.3444 -0.3356
 2254SOL     OW18394   2.547   1.529   9.778 -0.2127 -0.0082  0.0325
 2254SOL    HW118395   2.500   1.576   9.710 -0.6281 -1.1099 -0.4501
 2254SOL    HW218396   2.570   1.602   9.836 -0.4103 -0.1419  0.2798
 2255SOL     OW18397   2.879   4.265  14.775  0.2658  0.1655  0.4135
 2255SOL    HW118398   2.906   4.328  14.709 -0.4652  0.3553  0.2920
 2255SOL    HW218399   2.864   4.326  14.846  1.5061  0.4218  0.4513
 2256SOL     OW18400   0.254   0.365  11.453  0.3823  0.1093 -1.0869
 2256SOL    HW118401   0.235   0.342  11.544  1.1594 -1.6538 -1.3774
 2256SOL    HW218402   0.201   0.299  11.409  2.3898 -0.7460 -2.2074
 2257SOL     OW18403   1.497   4.084   7.287 -0.1040 -0.4354 -0.8713
 2257SOL    HW118404   1.538   3.998   7.288 -1.0685 -0.8991 -0.9779
 2257SOL    HW218405   1.533   4.126   7.365 -1.3216 -0.4768 -0.2820
 2258SOL     OW18406   0.424   0.977   1.907  0.3958  0.2140 -0.1586
 2258SOL    HW118407   0.440   0.907   1.844 -1.3305 -0.1240 -0.2340
 2258SOL    HW218408   0.508   1.022   1.912  1.4186 -1.6702 -0.4957
 2259SOL     OW18409   0.741   4.502   9.134 -0.1991  0.2294  0.1388
 2259SOL    HW118410   0.705   4.529   9.050  0.3096  2.2143  0.5668
 2259SOL    HW218411   0.725   4.407   9.131  1.3359 -0.0537  1.2414
 2260SOL     OW18412   4.388   0.355   9.513  0.1580 -0.5126  0.5205
 2260SOL    HW118413   4.312   0.307   9.544  1.7298 -4.0540 -1.0648
 2260SOL    HW218414   4.359   0.446   9.517 -0.7659 -0.6227 -3.1877
 2261SOL     OW18415   4.615   3.890   7.162  0.1586  0.0492 -0.1158
 2261SOL    HW118416   4.668   3.872   7.085 -0.5918 -0.2378 -0.5597
 2261SOL    HW218417   4.689   3.908   7.220  1.1497 -0.7953 -1.1555
 2262SOL     OW18418   3.515   0.376  12.675  0.4533 -0.3114 -0.9499
 2262SOL    HW118419   3.591   0.389  12.732  1.1907  1.1643 -2.3028
 2262SOL    HW218420   3.459   0.305  12.708  0.0056 -0.6686 -2.5044
 2263SOL     OW18421   3.271   0.845   4.789 -0.4340  0.1472  0.0813
 2263SOL    HW118422   3.230   0.764   4.758 -0.7834  0.5363 -0.4936
 2263SOL    HW218423   3.201   0.873   4.848  1.0124  0.6182  1.5630
 2264SOL     OW18424   0.321   0.266   1.849 -0.8079 -0.0308  0.2753
 2264SOL    HW118425   0.403   0.219   1.835 -1.5442 -1.3292  0.3151
 2264SOL    HW218426   0.344   0.346   1.802  1.2225 -1.4142 -1.0717
 2265SOL     OW18427   1.333   1.886   6.914 -0.1921  0.5721 -0.0822
 2265SOL    HW118428   1.281   1.929   6.982 -0.1846 -1.8350  1.4392
 2265SOL    HW218429   1.279   1.809   6.898 -0.8928  1.1228 -0.3767
 2266SOL     OW18430   1.841   2.149   8.502  0.0073 -0.1527  0.3405
 2266SOL    HW118431   1.866   2.104   8.583  0.7435 -1.4981 -0.6369
 2266SOL    HW218432   1.750   2.168   8.522 -0.1704 -1.3930  0.6936
 2267SOL     OW18433   3.317   1.818   8.461 -0.6871  0.5607  0.0748
 2267SOL    HW118434   3.364   1.773   8.391 -1.8778  1.2403 -1.1594
 2267SOL    HW218435   3.352   1.906   8.453 -0.7349  0.8992  3.5649
 2268SOL     OW18436   3.893   4.031   2.801 -0.6152  0.2253  0.2248
 2268SOL    HW118437   3.803   4.065   2.797 -0.2236  1.2554  0.2078
 2268SOL    HW218438   3.938   4.101   2.754 -1.7458 -0.5432 -2.0127
 2269SOL     OW18439   0.798   3.981  11.835  0.1245 -0.2252 -0.2085
 2269SOL    HW118440   0.784   3.947  11.747 -1.1985 -0.4935  0.0993
 2269SOL    HW218441   0.831   3.904  11.881 -1.2335  0.6555  2.2373
 2270SOL     OW18442   2.347   4.518   0.818  0.1276 -0.2112 -0.5375
 2270SOL    HW118443   2.402   4.453   0.773  0.6262  1.4974 -2.3781
 2270SOL    HW218444   2.385   4.510   0.905 -0.2110  1.4245 -0.2532
 2271SOL     OW18445   3.880   3.292   1.175  0.4027 -0.0049  0.2456
 2271SOL    HW118446   3.887   3.375   1.223 -0.2789  0.1167  0.1408
 2271SOL    HW218447   3.968   3.256   1.183  0.3049 -0.0883  0.9766
 2272SOL     OW18448   3.795   1.993  12.773 -0.6232 -0.0761 -0.4977
 2272SOL    HW118449   3.768   2.059  12.710  0.1711  1.9119  1.2361
 2272SOL    HW218450   3.781   1.915  12.719 -0.6785 -0.3859 -0.0396
 2273SOL     OW18451   4.616   3.120  13.527 -0.1394  0.5417  0.0726
 2273SOL    HW118452   4.629   3.061  13.453 -0.9216  2.5832 -1.7035
 2273SOL    HW218453   4.638   3.204  13.487  2.0872 -0.1701 -0.1558
 2274SOL     OW18454   0.543   0.000   4.251 -0.2627 -0.2422 -0.1494
 2274SOL    HW118455   0.607   4.688   4.204 -0.0069 -0.4706  0.4478
 2274SOL    HW218456   0.499   4.682   4.314 -0.0751 -1.1298 -0.8471
 2275SOL     OW18457   0.676   2.161   0.903  0.0016  0.1823 -0.5131
 2275SOL    HW118458   0.710   2.142   0.991  2.6234 -0.0817 -1.5846
 2275SOL    HW218459   0.622   2.235   0.933 -1.0287 -0.6412 -0.3194
 2276SOL     OW18460   1.247   0.753   9.545  0.6269  0.0948 -0.6365
 2276SOL    HW118461   1.318   0.814   9.524  2.6297 -1.6486  1.0740
 2276SOL    HW218462   1.284   0.670   9.516 -0.6623 -0.7550  0.1703
 2277SOL     OW18463   1.421   3.767   7.077  0.0307  0.1683  0.2378
 2277SOL    HW118464   1.330   3.796   7.076 -0.4365 -1.3116  0.0940
 2277SOL    HW218465   1.423   3.701   7.146  0.1751 -0.6091 -0.5037
 2278SOL     OW18466   3.799   4.545   1.889 -0.3469 -0.1881  0.3121
 2278SOL    HW118467   3.706   4.559   1.871 -0.5034 -0.0376  1.2635
 2278SOL    HW218468   3.827   4.506   1.806  2.2320  0.4138  0.9045
 2279SOL     OW18469   2.890   0.994  12.354  0.3217 -0.1523 -0.3296
 2279SOL    HW118470   2.924   1.081  12.375 -2.0765  0.7388 -0.0862
 2279SOL    HW218471   2.955   0.972  12.288  0.7562  1.2306 -0.3473
 2280SOL     OW18472   1.057   2.967   3.866 -0.1788  0.1251  0.1681
 2280SOL    HW118473   1.119   2.948   3.936 -1.0683  0.5027  1.0638
 2280SOL    HW218474   1.002   2.889   3.875 -1.7807  0.9252 -2.7082
 2281SOL     OW18475   3.297   3.797   0.373 -1.1826 -0.4072 -0.5073
 2281SOL    HW118476   3.370   3.736   0.373 -0.8087  0.0467  0.4735
 2281SOL    HW218477   3.289   3.825   0.282  0.9025 -0.6010 -0.7444
 2282SOL     OW18478   2.638   1.520   8.541 -0.0181  0.1571 -0.5720
 2282SOL    HW118479   2.581   1.550   8.470 -2.4044 -4.2990 -0.5407
 2282SOL    HW218480   2.627   1.428   8.518  1.0646 -0.0309 -0.3267
 2283SOL     OW18481   2.071   0.689   8.253  0.0643 -0.6256 -0.3903
 2283SOL    HW118482   2.145   0.668   8.311  0.7410 -0.0346 -1.0327
 2283SOL    HW218483   2.098   0.632   8.181  0.5036 -0.4104 -0.4011
 2284SOL     OW18484   3.796   2.746   3.283 -0.3010  0.1998 -0.4998
 2284SOL    HW118485   3.882   2.708   3.268  0.5776  1.8291  0.4817
 2284SOL    HW218486   3.785   2.752   3.377 -0.4751  1.0896 -0.5814
 2285SOL     OW18487   1.764   4.166   2.684 -0.7208 -0.0706 -0.0465
 2285SOL    HW118488   1.748   4.071   2.679 -1.4688  0.1182 -1.1967
 2285SOL    HW218489   1.679   4.202   2.658  0.8455  2.8413 -1.0215
 2286SOL     OW18490   0.056   0.172  11.392  0.2634  0.2763  0.1591
 2286SOL    HW118491   0.069   0.126  11.474  0.6425  1.6356  0.8589
 2286SOL    HW218492   0.037   0.095  11.338  0.3183 -0.0337  0.5833
 2287SOL     OW18493   3.736   4.413   9.544  1.1115 -0.7485 -0.5207
 2287SOL    HW118494   3.817   4.404   9.594  0.3959 -0.9682  0.5955
 2287SOL    HW218495   3.722   4.319   9.528  2.1602 -1.2523  1.6391
 2288SOL     OW18496   3.978   3.504   7.330 -1.0017 -0.1079  0.0643
 2288SOL    HW118497   3.902   3.530   7.381 -0.8380 -1.2342  0.8735
 2288SOL    HW218498   3.956   3.527   7.239 -1.8928  0.6160  0.4671
 2289SOL     OW18499   0.527   4.002  14.366  0.1072 -0.2714 -0.0092
 2289SOL    HW118500   0.496   4.091  14.355  0.1899 -0.2039  0.2905
 2289SOL    HW218501   0.623   4.006  14.362  0.2183 -2.3025  0.2103
 2290SOL     OW18502   2.909   1.317   4.666  0.3845  0.0827 -0.4293
 2290SOL    HW118503   2.987   1.285   4.620  0.3019 -1.4907  0.5143
 2290SOL    HW218504   2.842   1.315   4.598 -0.7592  2.3547  0.6433
 2291SOL     OW18505   3.686   4.287   6.457  0.2507 -0.4649  0.5526
 2291SOL    HW118506   3.632   4.309   6.382 -1.3900  1.0939  2.2185
 2291SOL    HW218507   3.714   4.198   6.436  0.4357 -0.0573 -0.9070
 2292SOL     OW18508   4.341   2.299   4.614  0.3349 -0.2343 -0.7163
 2292SOL    HW118509   4.359   2.246   4.536  0.3853  0.8295 -1.4360
 2292SOL    HW218510   4.315   2.382   4.574 -0.4488 -0.4065 -0.5460
 2293SOL     OW18511   3.836   1.631  12.823  0.3733 -0.5240  0.3386
 2293SOL    HW118512   3.923   1.602  12.796 -0.2510  0.0364 -2.2790
 2293SOL    HW218513   3.803   1.680  12.748  0.6309 -0.8766  0.0020
 2294SOL     OW18514   2.773   4.444  16.867 -0.0764  0.4373 -0.1581
 2294SOL    HW118515   2.756   4.414  16.957  1.6906 -0.8634 -0.2456
 2294SOL    HW218516   2.789   4.366  16.813 -1.3747  0.0528  0.0317
 2295SOL     OW18517   3.074   3.195  11.067 -0.1245 -0.0867 -0.3897
 2295SOL    HW118518   3.023   3.136  11.011  1.6644  0.9114 -3.0661
 2295SOL    HW218519   3.040   3.185  11.156 -0.4877  0.5622 -0.4564
 2296SOL     OW18520   0.298   0.659   0.685  0.5614  0.0820  0.2231
 2296SOL    HW118521   0.239   0.723   0.726 -1.1710 -0.7660 -0.9020
 2296SOL    HW218522   0.240   0.612   0.625 -0.4915  1.0455  0.4709
 2297SOL     OW18523   2.136   3.050   6.439 -0.6424 -0.1699 -0.6821
 2297SOL    HW118524   2.230   3.063   6.428 -0.6600  1.0842  0.5940
 2297SOL    HW218525   2.119   3.029   6.347 -1.3689  0.3080 -0.6574
 2298SOL     OW18526   2.724   3.739   9.556 -0.4145  0.4766 -0.5900
 2298SOL    HW118527   2.687   3.815   9.599  1.0714 -0.0252  1.5728
 2298SOL    HW218528   2.643   3.686   9.554 -0.2974  0.2537  0.3091
 2299SOL     OW18529   2.737   3.661   2.541 -0.5369  0.0662 -0.4771
 2299SOL    HW118530   2.705   3.743   2.578  2.3085  1.2941 -0.7623
 2299SOL    HW218531   2.832   3.673   2.541 -0.2593 -2.1980 -0.8777
 2300SOL     OW18532   0.956   3.614   4.480 -0.1738  0.1363 -0.0137
 2300SOL    HW118533   0.877   3.666   4.467 -0.8607 -0.7042  0.8464
 2300SOL    HW218534   1.018   3.688   4.485  0.1040 -0.1506  0.7429
 2301SOL     OW18535   4.554   3.786   3.412  0.1047 -0.2263 -0.1001
 2301SOL    HW118536   4.588   3.860   3.362  0.6795 -1.2040 -1.1574
 2301SOL    HW218537   4.535   3.720   3.345 -0.5329  0.1100 -0.2407
 2302SOL     OW18538   3.767   0.909   2.606 -0.5858 -0.0099  0.3444
 2302SOL    HW118539   3.820   0.984   2.634  0.7818 -0.0971 -1.9860
 2302SOL    HW218540   3.806   0.884   2.522 -0.1802  1.2972  0.1338
 2303SOL     OW18541   2.778   0.576   6.961 -0.0415  0.4951 -0.3541
 2303SOL    HW118542   2.849   0.545   7.017  0.0146  2.0542  0.4327
 2303SOL    HW218543   2.790   0.671   6.965 -0.4500  0.4796  1.3803
 2304SOL     OW18544   4.544   1.709  13.157 -0.2604  0.4510 -0.4074
 2304SOL    HW118545   4.592   1.631  13.185  0.5863  0.2162 -2.5408
 2304SOL    HW218546   4.563   1.779  13.219  0.8636 -0.8433  0.7181
 2305SOL     OW18547   3.815   2.736   1.698 -0.2337 -0.2762  0.0616
 2305SOL    HW118548   3.833   2.768   1.610 -3.0787  0.5529 -0.2207
 2305SOL    HW218549   3.744   2.675   1.677 -0.2214  0.2408 -1.4868
 2306SOL     OW18550   4.692   3.353   4.413  0.7669 -0.3090  0.2174
 2306SOL    HW118551   4.663   3.407   4.488  2.5261 -1.2860  1.5821
 2306SOL    HW218552   4.688   3.266   4.453 -1.1420 -0.4389 -0.2459
 2307SOL     OW18553   2.215   4.468  15.851  0.6685 -0.2455  0.3647
 2307SOL    HW118554   2.193   4.506  15.937 -2.3635  0.2238 -0.6243
 2307SOL    HW218555   2.293   4.520  15.830  1.0141 -0.9074  0.0307
 2308SOL     OW18556   0.007   3.455   4.790  0.0227 -0.4239  0.5200
 2308SOL    HW118557   0.010   3.360   4.779 -2.1482 -0.4032 -0.2480
 2308SOL    HW218558   4.675   3.469   4.728 -0.2233 -0.6495  0.7513
 2309SOL     OW18559   2.423   0.015   3.354  0.2438  0.2649 -0.0073
 2309SOL    HW118560   2.331   4.726   3.359 -0.8945  3.7233 -0.8317
 2309SOL    HW218561   2.425   0.066   3.273  0.8021  0.5897  0.2133
 2310SOL     OW18562   4.425   4.420   6.295 -0.0987 -0.1786 -0.2417
 2310SOL    HW118563   4.507   4.455   6.330  0.8099 -1.6772 -0.8864
 2310SOL    HW218564   4.365   4.445   6.365 -0.3149 -0.6481 -0.2589
 2311SOL     OW18565   3.255   3.210   8.064 -0.3164 -0.0192 -0.0713
 2311SOL    HW118566   3.314   3.281   8.089 -0.2509  0.5484 -1.8104
 2311SOL    HW218567   3.204   3.254   7.995  0.4272  1.9449  0.6215
 2312SOL     OW18568   1.309   0.612  13.336  0.4787 -0.0623  0.7015
 2312SOL    HW118569   1.355   0.677  13.282  0.9981  0.4795  1.7692
 2312SOL    HW218570   1.374   0.590  13.403 -0.5452 -1.2585  1.3084
 2313SOL     OW18571   4.033   0.558   7.011 -0.1319  0.0701  0.9348
 2313SOL    HW118572   4.028   0.463   7.021  1.0638 -0.1570 -0.6546
 2313SOL    HW218573   4.093   0.574   6.938  2.0843 -0.8676  2.5555
 2314SOL     OW18574   2.092   3.196   0.882  0.2009 -0.0088 -0.2336
 2314SOL    HW118575   2.155   3.153   0.940  1.2151  1.6978 -0.0505
 2314SOL    HW218576   2.053   3.118   0.843  0.5806 -0.8126  0.9869
 2315SOL     OW18577   3.749   1.436   6.185 -0.1722 -0.7319  0.5850
 2315SOL    HW118578   3.686   1.500   6.151  1.2705 -0.8946 -2.4523
 2315SOL    HW218579   3.700   1.356   6.207  2.0871 -2.2531  0.1221
 2316SOL     OW18580   0.619   2.382   2.233  0.1849  0.0160  0.5073
 2316SOL    HW118581   0.597   2.304   2.284  1.0311  0.5748  1.7199
 2316SOL    HW218582   0.557   2.366   2.162  0.1166  0.9061  0.3678
 2317SOL     OW18583   1.286   1.048   8.004 -0.1763  0.1243 -0.2675
 2317SOL    HW118584   1.290   1.076   7.912 -0.2139  0.0579 -0.2891
 2317SOL    HW218585   1.254   0.959   7.994  2.0419 -0.6590 -0.5217
 2318SOL     OW18586   1.915   2.472   4.828  0.0282 -0.0781 -0.6037
 2318SOL    HW118587   1.975   2.419   4.776  2.1071  0.5463  1.1415
 2318SOL    HW218588   1.832   2.431   4.803 -0.9664  1.1961  0.5639
 2319SOL     OW18589   1.493   4.510   7.631  0.0009 -0.4144  0.4952
 2319SOL    HW118590   1.571   4.456   7.620 -0.0967 -0.4224 -0.1392
 2319SOL    HW218591   1.438   4.440   7.667 -0.3940 -0.3337  0.0443
 2320SOL     OW18592   4.136   2.304   8.576  0.9361 -0.0505  0.1479
 2320SOL    HW118593   4.139   2.299   8.672  0.2469  0.2746  0.1888
 2320SOL    HW218594   4.205   2.243   8.549  0.9407  0.8689 -1.9068
 2321SOL     OW18595   2.167   3.924  14.131 -0.5327 -0.6138  0.0296
 2321SOL    HW118596   2.136   4.000  14.180  0.3012  0.1761 -0.6674
 2321SOL    HW218597   2.147   3.852  14.191  1.9431 -0.3531  1.1890
 2322SOL     OW18598   0.859   0.261   3.728  0.1909 -0.8772  0.1275
 2322SOL    HW118599   0.771   0.223   3.728 -1.0914  2.0229  1.1073
 2322SOL    HW218600   0.899   0.180   3.759  0.3011  0.2445  2.9204
 2323SOL     OW18601   0.893   4.519   1.265 -0.4079  0.1247  0.1877
 2323SOL    HW118602   0.836   4.531   1.189 -0.8804  1.6456  0.7812
 2323SOL    HW218603   0.962   4.577   1.233 -1.2899  0.3981 -1.2156
 2324SOL     OW18604   4.356   1.120   9.396  0.5769 -0.2431  0.4272
 2324SOL    HW118605   4.363   1.106   9.491 -1.0000 -0.7007  0.4704
 2324SOL    HW218606   4.442   1.088   9.368 -2.1971 -3.0341 -4.8750
 2325SOL     OW18607   3.262   0.433   7.179  0.0200 -0.6830 -0.0227
 2325SOL    HW118608   3.314   0.492   7.233 -0.4108  0.3482 -0.7284
 2325SOL    HW218609   3.293   0.346   7.205 -0.5899 -1.4266 -1.7774
 2326SOL     OW18610   3.870   2.824   1.428  0.4705  0.0814 -0.3738
 2326SOL    HW118611   3.807   2.797   1.361  1.6546 -2.7651 -0.3600
 2326SOL    HW218612   3.930   2.877   1.376 -0.6235  0.5343 -1.1796
 2327SOL     OW18613   0.167   2.289   8.817  0.8380 -0.6963 -0.2152
 2327SOL    HW118614   0.122   2.373   8.818 -0.7223 -1.5021 -2.5435
 2327SOL    HW218615   0.217   2.303   8.897 -2.1770 -1.4388  1.7676
 2328SOL     OW18616   1.030   1.527   8.266 -0.8249 -0.5072 -0.4432
 2328SOL    HW118617   1.038   1.507   8.172 -3.6198  0.7971 -0.9538
 2328SOL    HW218618   1.004   1.438   8.291  0.1112 -0.5977  0.1923
 2329SOL     OW18619   4.499   2.959   5.224 -0.4850  0.0451  0.2060
 2329SOL    HW118620   4.443   3.032   5.196 -1.5785 -1.4169 -1.4219
 2329SOL    HW218621   4.505   2.978   5.318 -0.8124  0.7713  0.0834
 2330SOL     OW18622   0.433   3.558   0.857 -0.0807  0.0162  0.1194
 2330SOL    HW118623   0.387   3.511   0.787  2.7656  1.0939 -2.4390
 2330SOL    HW218624   0.429   3.651   0.834  1.8219  0.3127  0.9475
 2331SOL     OW18625   4.520   1.062  16.284  0.4416 -0.0752  0.2168
 2331SOL    HW118626   4.526   1.153  16.255  1.0269  0.2466  1.3120
 2331SOL    HW218627   4.438   1.058  16.334 -0.0958 -0.5685 -0.7071
 2332SOL     OW18628   3.224   3.477   8.728 -0.0847 -0.2841  0.0101
 2332SOL    HW118629   3.170   3.533   8.670 -1.6067 -1.2842  0.4732
 2332SOL    HW218630   3.183   3.391   8.724  0.1113 -0.4201  1.0746
 2333SOL     OW18631   0.220   0.301   2.586 -0.1001 -0.0426  0.3564
 2333SOL    HW118632   0.195   0.214   2.617  0.2166 -0.2540  0.0203
 2333SOL    HW218633   0.136   0.346   2.576  0.3439  0.7064 -0.0357
 2334SOL     OW18634   1.027   0.055   5.204 -0.2736  0.6729  0.0155
 2334SOL    HW118635   0.983   0.103   5.133 -1.0673 -2.1016 -1.3338
 2334SOL    HW218636   1.012   4.704   5.176 -1.8541  1.1901 -0.8529
 2335SOL     OW18637   3.995   0.344  12.741  0.3164 -0.5517  0.3570
 2335SOL    HW118638   4.085   0.337  12.711 -0.7938  0.6023 -3.2510
 2335SOL    HW218639   4.001   0.262  12.791 -0.8980 -0.3001  0.9375
 2336SOL     OW18640   0.863   2.161   5.933  0.0003 -0.2433  0.0478
 2336SOL    HW118641   0.787   2.139   5.879  0.0500  0.0038 -0.1244
 2336SOL    HW218642   0.826   2.237   5.977 -0.7782 -1.2296  1.0993
 2337SOL     OW18643   3.839   0.013   5.832 -0.2584 -0.3734 -0.0118
 2337SOL    HW118644   3.890   4.733   5.753  1.2866  0.5074  0.7645
 2337SOL    HW218645   3.905   0.052   5.889 -0.6333  0.9986 -0.5041
 2338SOL     OW18646   4.617   1.220   5.606  0.6287 -0.0464 -0.0783
 2338SOL    HW118647   4.560   1.149   5.578  0.7506 -0.9229  1.8684
 2338SOL    HW218648   4.593   1.232   5.698  2.8169  0.7926  0.4000
 2339SOL     OW18649   3.371   0.676  17.250  0.3408  0.5541  0.5036
 2339SOL    HW118650   3.358   0.620  17.327  1.1003  0.0929  0.2872
 2339SOL    HW218651   3.323   0.620  17.189 -0.8108  0.2033  1.7345
 2340SOL     OW18652   1.683   0.313   7.733 -0.4377  0.0051 -0.5796
 2340SOL    HW118653   1.699   0.365   7.812  2.1366 -1.1005 -0.3478
 2340SOL    HW218654   1.603   0.356   7.704  0.4460 -0.5948 -3.9008
 2341SOL     OW18655   0.627   4.367  11.155  0.0567 -0.0375 -0.3484
 2341SOL    HW118656   0.539   4.396  11.132 -0.3916 -0.3862  0.9352
 2341SOL    HW218657   0.649   4.405  11.240  2.0265  2.6357 -2.0786
 2342SOL     OW18658   3.320   1.804   3.698  0.7388 -0.5069 -0.7494
 2342SOL    HW118659   3.236   1.840   3.670 -0.2232 -0.2754  2.4224
 2342SOL    HW218660   3.384   1.845   3.639  0.4594 -1.1414 -1.4893
 2343SOL     OW18661   1.782   2.738  16.241 -0.6708  0.1533 -0.1441
 2343SOL    HW118662   1.855   2.796  16.221  2.9103 -4.3525 -0.2003
 2343SOL    HW218663   1.745   2.758  16.327 -1.1249  1.9417 -0.7602
 2344SOL     OW18664   3.506   0.429   6.094  0.0038 -0.2448  0.2844
 2344SOL    HW118665   3.442   0.430   6.166 -0.0968 -0.1572  0.1933
 2344SOL    HW218666   3.581   0.441   6.152  1.4857 -1.4966 -1.3611
 2345SOL     OW18667   0.597   4.319  14.675 -0.0694  0.7148  0.0780
 2345SOL    HW118668   0.681   4.352  14.707 -0.8058  0.3590  2.3924
 2345SOL    HW218669   0.591   4.360  14.589 -0.4535  0.5689  0.0359
 2346SOL     OW18670   2.790   1.569   6.144  0.3331  0.8267  0.8653
 2346SOL    HW118671   2.760   1.522   6.221  2.4285 -0.7921  0.6868
 2346SOL    HW218672   2.776   1.501   6.078  1.4803 -0.2823  1.7764
 2347SOL     OW18673   1.366   2.653   5.196  0.6084  0.0716 -0.6322
 2347SOL    HW118674   1.366   2.581   5.133 -1.6010 -1.1739  0.7873
 2347SOL    HW218675   1.344   2.612   5.280  1.5922  0.0514 -0.3809
 2348SOL     OW18676   0.251   0.694   6.083  0.8778 -0.2835  0.2331
 2348SOL    HW118677   0.325   0.721   6.028 -1.7994  1.2430 -2.6419
 2348SOL    HW218678   0.174   0.679   6.027  1.9627 -0.3286 -1.2429
 2349SOL     OW18679   4.679   2.889   1.086  0.6200 -0.1192 -0.2165
 2349SOL    HW118680   4.599   2.940   1.076  0.5398 -0.4473 -1.2660
 2349SOL    HW218681   0.003   2.949   1.124  0.5143 -0.0099 -0.2133
 2350SOL     OW18682   0.638   1.313   3.652  0.4151  0.6013  0.2155
 2350SOL    HW118683   0.616   1.366   3.729 -1.2156  2.2376 -1.3618
 2350SOL    HW218684   0.731   1.298   3.669  0.2502 -2.3895 -1.6043
 2351SOL     OW18685   0.187   1.154  17.500 -0.1991  0.0308  0.5942
 2351SOL    HW118686   0.270   1.157  17.453 -1.8166  1.8120 -2.1008
 2351SOL    HW218687   0.134   1.223  17.462 -0.1611 -0.8894 -1.1500
 2352SOL     OW18688   4.411   0.465   6.649  0.3538  0.6913  0.5111
 2352SOL    HW118689   4.469   0.431   6.718  0.8574  0.7775  0.1280
 2352SOL    HW218690   4.473   0.481   6.578 -0.9893 -0.8551 -1.0051
 2353SOL     OW18691   4.390   0.325   7.400  0.2269  0.3404  0.3895
 2353SOL    HW118692   4.454   0.303   7.468 -1.1071  0.0837  1.5575
 2353SOL    HW218693   4.439   0.301   7.321  0.2028  0.1307  0.4377
 2354SOL     OW18694   2.894   3.841   1.571  0.2796  0.0580 -0.1702
 2354SOL    HW118695   2.855   3.879   1.492  0.5821  1.7226  0.4959
 2354SOL    HW218696   2.817   3.831   1.627  0.6902 -1.1232  0.1891
 2355SOL     OW18697   1.880   0.870  16.722 -0.3998  0.1901  0.6939
 2355SOL    HW118698   1.941   0.938  16.749  3.4184 -0.8514 -5.4088
 2355SOL    HW218699   1.792   0.901  16.744 -0.1044  1.2361  0.4128
 2356SOL     OW18700   3.573   1.175  15.272 -0.2510 -0.3054  0.1949
 2356SOL    HW118701   3.650   1.197  15.221 -0.1362 -1.5501 -0.1629
 2356SOL    HW218702   3.598   1.125  15.350 -0.1595  2.9209  2.2305
 2357SOL     OW18703   0.663   0.805   8.463  0.2632 -0.7486  0.0647
 2357SOL    HW118704   0.634   0.728   8.513 -2.4774  0.6391  0.5614
 2357SOL    HW218705   0.690   0.858   8.538  0.6705  0.9063 -1.2681
 2358SOL     OW18706   0.833   4.444   1.586 -0.0512 -0.1136  0.2464
 2358SOL    HW118707   0.925   4.465   1.570 -0.2393  0.0950 -0.5517
 2358SOL    HW218708   0.831   4.349   1.595 -0.8828 -0.1939 -0.7081
 2359SOL     OW18709   4.242   4.343   5.706  0.1061 -0.2574 -0.2878
 2359SOL    HW118710   4.185   4.298   5.769  1.0692  0.0960  0.8405
 2359SOL    HW218711   4.198   4.331   5.622 -1.2627 -0.7939  0.4990
 2360SOL     OW18712   2.277   0.862   4.305 -0.4825 -0.4555  0.0587
 2360SOL    HW118713   2.363   0.901   4.289  0.2421 -2.1103 -0.1192
 2360SOL    HW218714   2.281   0.770   4.279  0.9421 -0.8139  1.5140
 2361SOL     OW18715   1.146   2.942   6.388  0.3048  0.0845  0.0357
 2361SOL    HW118716   1.080   3.003   6.420  0.4939  1.6141 -2.5109
 2361SOL    HW218717   1.089   2.875   6.350  1.4575 -1.0644  0.3552
 2362SOL     OW18718   4.691   4.476  17.117  0.1201 -0.1909  0.4903
 2362SOL    HW118719   4.699   4.551  17.059 -0.4430 -0.6924 -0.2293
 2362SOL    HW218720   4.605   4.446  17.089  0.2407  0.4572 -0.5632
 2363SOL     OW18721   2.470   1.669  13.506  0.1678 -0.1709  0.2943
 2363SOL    HW118722   2.525   1.687  13.430 -1.5721  0.8821 -0.6986
 2363SOL    HW218723   2.463   1.575  13.521  1.9775 -0.2078  1.0165
 2364SOL     OW18724   2.147   0.505   8.058 -0.2885  0.0205  0.1440
 2364SOL    HW118725   2.160   0.575   7.994  0.6899  0.3129  0.6732
 2364SOL    HW218726   2.190   0.429   8.019 -1.1105  0.3852 -1.5090
 2365SOL     OW18727   0.159   1.609   5.592 -0.0998 -0.8284  0.0336
 2365SOL    HW118728   0.159   1.555   5.670  0.2142 -1.8267 -0.6543
 2365SOL    HW218729   0.085   1.563   5.554  0.5172 -1.6021 -0.2444
 2366SOL     OW18730   2.572   3.696  10.171  0.0574  0.0042 -0.1726
 2366SOL    HW118731   2.538   3.783  10.149  0.7111  0.7428  1.7754
 2366SOL    HW218732   2.538   3.694  10.261 -0.9021  2.5611 -0.4855
 2367SOL     OW18733   0.757   0.117   9.263 -0.3671  0.3677  0.6026
 2367SOL    HW118734   0.666   0.097   9.284 -0.8439  1.2043 -0.6397
 2367SOL    HW218735   0.787   0.153   9.346  1.6084 -2.7505  1.2281
 2368SOL     OW18736   2.531   0.873  14.139 -0.4791  0.1651  0.1596
 2368SOL    HW118737   2.625   0.879  14.155 -0.6833  0.0651  1.3826
 2368SOL    HW218738   2.496   0.852  14.225 -1.9064 -0.1886 -0.5026
 2369SOL     OW18739   2.903   3.029   1.560  0.2325 -0.4252  0.5646
 2369SOL    HW118740   2.910   2.942   1.522 -0.0866 -0.7312  1.1967
 2369SOL    HW218741   2.938   3.012   1.648  0.1908 -1.7093  0.3343
 2370SOL     OW18742   3.403   2.142   2.206 -0.0156  0.0211  0.0584
 2370SOL    HW118743   3.379   2.188   2.287  0.7179 -0.6935  0.6767
 2370SOL    HW218744   3.461   2.199   2.155 -0.1330  0.7786  0.7654
 2371SOL     OW18745   4.494   3.473   8.220  0.1168  0.0498 -0.0149
 2371SOL    HW118746   4.453   3.487   8.135 -4.1917 -1.4148  1.8243
 2371SOL    HW218747   4.558   3.545   8.218  1.4294 -0.9973  3.9293
 2372SOL     OW18748   1.282   1.426   3.628  0.0864  0.6161  0.8120
 2372SOL    HW118749   1.374   1.452   3.615 -0.1925  0.4240 -1.5945
 2372SOL    HW218750   1.251   1.485   3.559  3.0107  0.9172 -0.2480
 2373SOL     OW18751   2.364   3.973  15.259 -0.4178 -0.1241  0.1956
 2373SOL    HW118752   2.436   3.910  15.259 -1.4661 -1.3324 -1.2559
 2373SOL    HW218753   2.417   4.043  15.222  0.8424 -0.3214  1.6462
 2374SOL     OW18754   1.340   1.102   7.370  0.4472  0.0870  0.2815
 2374SOL    HW118755   1.310   1.094   7.279 -0.3570  0.1713  0.5328
 2374SOL    HW218756   1.420   1.051   7.362  0.0655 -0.3863 -0.5697
 2375SOL     OW18757   4.392   4.688  11.510  0.1675 -0.3844  0.0452
 2375SOL    HW118758   4.366   4.603  11.545  1.8614 -0.9871 -0.1545
 2375SOL    HW218759   4.471   4.703  11.563 -0.7662 -3.0669  2.1973
 2376SOL     OW18760   0.407   2.550   4.849  0.3529 -0.6720  0.3366
 2376SOL    HW118761   0.395   2.455   4.845 -0.2345 -0.5796 -0.1196
 2376SOL    HW218762   0.355   2.579   4.774  0.0267 -1.2188  0.3504
 2377SOL     OW18763   3.733   4.091   2.530 -0.0493 -0.2532 -0.4663
 2377SOL    HW118764   3.664   4.025   2.533  2.2005 -2.5069  0.7045
 2377SOL    HW218765   3.681   4.143   2.468  0.3084 -0.3194 -0.8175
 2378SOL     OW18766   3.239   0.145   0.725  0.3275 -0.1590  0.0898
 2378SOL    HW118767   3.230   0.176   0.815  0.3880  0.6104 -0.1740
 2378SOL    HW218768   3.315   0.193   0.693  1.5802 -2.0728  0.1840
 2379SOL     OW18769   4.093   1.253  11.473  0.2756 -0.7367  0.4939
 2379SOL    HW118770   4.187   1.233  11.478  0.0373 -1.9216  0.2379
 2379SOL    HW218771   4.058   1.173  11.436 -1.4298  0.7632 -1.1403
 2380SOL     OW18772   0.297   1.295   9.400 -0.1796 -0.4809 -0.2744
 2380SOL    HW118773   0.205   1.319   9.386  0.2635  1.7922  0.5956
 2380SOL    HW218774   0.339   1.379   9.421 -1.2115 -0.2703  0.9481
 2381SOL     OW18775   4.069   1.923   6.930  1.0615  0.1299 -0.3701
 2381SOL    HW118776   4.143   1.896   6.875 -0.4421 -3.0247 -0.8330
 2381SOL    HW218777   4.059   1.840   6.977  0.8271 -0.7914 -2.0206
 2382SOL     OW18778   1.213   3.214  16.661  0.0651  0.2368  0.3004
 2382SOL    HW118779   1.221   3.296  16.711  1.8702  0.3544 -0.1680
 2382SOL    HW218780   1.305   3.187  16.666  0.1453  0.5296  0.4480
 2383SOL     OW18781   0.562   1.472   6.877  0.4658 -0.3061  0.3095
 2383SOL    HW118782   0.580   1.405   6.811 -1.4565 -0.6148  0.0975
 2383SOL    HW218783   0.555   1.432   6.963  0.3286  1.7481  1.2611
 2384SOL     OW18784   0.508   1.849   9.367 -0.1791  0.6017  0.4846
 2384SOL    HW118785   0.508   1.857   9.272  1.4265  0.2263  0.4556
 2384SOL    HW218786   0.544   1.760   9.372 -1.6899 -0.0248  0.5569
 2385SOL     OW18787   3.682   4.630   3.782 -0.1470 -0.6549 -0.1923
 2385SOL    HW118788   3.689   4.651   3.688 -0.5440  0.2947 -0.0149
 2385SOL    HW218789   3.766   4.665   3.813  0.0341 -2.6088  1.5396
 2386SOL     OW18790   0.255   2.555   3.067 -0.5015  0.1789  0.4965
 2386SOL    HW118791   0.319   2.504   3.019 -0.2757  2.0538 -1.2070
 2386SOL    HW218792   0.317   2.585   3.134  0.4917  1.2685 -0.9204
 2387SOL     OW18793   3.543   0.826  16.228  0.1006  0.2656 -0.0970
 2387SOL    HW118794   3.468   0.861  16.179  1.0148  2.6178  0.1808
 2387SOL    HW218795   3.565   0.910  16.269 -0.2560 -0.1803  1.0197
 2388SOL     OW18796   1.522   1.985   1.721  0.1019 -0.1202 -0.0749
 2388SOL    HW118797   1.435   2.024   1.734 -0.0180 -0.2639 -0.4370
 2388SOL    HW218798   1.506   1.910   1.777  0.7547  1.2368  1.9222
 2389SOL     OW18799   3.603   2.955  11.185 -0.4590  0.4144 -0.0436
 2389SOL    HW118800   3.580   3.030  11.131 -1.2436  0.1027 -0.1454
 2389SOL    HW218801   3.565   2.985  11.268 -1.1064 -0.0360 -0.1822
 2390SOL     OW18802   3.176   3.317   8.309 -0.0298  0.5276 -0.8278
 2390SOL    HW118803   3.263   3.356   8.314 -0.7111  2.0734 -0.9845
 2390SOL    HW218804   3.183   3.222   8.304 -3.4079  0.1670  1.5141
 2391SOL     OW18805   3.213   3.564   5.339 -0.8831 -0.3081 -0.2045
 2391SOL    HW118806   3.128   3.522   5.327  0.3685 -1.8880 -3.5207
 2391SOL    HW218807   3.216   3.590   5.432 -2.7707 -0.9730  0.0479
 2392SOL     OW18808   4.400   3.751   6.918 -0.3267 -0.0897  0.0970
 2392SOL    HW118809   4.436   3.839   6.906  1.1548 -0.6257  0.5252
 2392SOL    HW218810   4.386   3.749   7.012 -0.0514 -0.8016  0.1292
 2393SOL     OW18811   2.816   2.269   2.317 -0.0514  0.9004  0.1644
 2393SOL    HW118812   2.753   2.333   2.350 -1.0452  0.1506 -0.2873
 2393SOL    HW218813   2.772   2.256   2.233  2.5837 -1.2772 -0.8584
 2394SOL     OW18814   0.134   3.749   4.368 -0.3127 -0.1235  0.0636
 2394SOL    HW118815   0.108   3.688   4.436  1.5211 -1.0142 -0.0198
 2394SOL    HW218816   0.100   3.825   4.415  0.1461  0.0658  0.0857
 2395SOL     OW18817   3.946   1.509   7.411  0.2767  0.2895  0.0180
 2395SOL    HW118818   4.031   1.487   7.448  0.9548  0.8853 -1.1879
 2395SOL    HW218819   3.949   1.599   7.379  0.7725  0.1060 -0.4589
 2396SOL     OW18820   3.106   3.748   9.641  0.5023  0.1637  0.0810
 2396SOL    HW118821   3.060   3.667   9.621 -1.0216  0.8076  0.9565
 2396SOL    HW218822   3.132   3.738   9.733  3.8373 -1.6654 -1.0561
 2397SOL     OW18823   1.405   1.613  12.913 -0.1422 -0.2998  0.2407
 2397SOL    HW118824   1.428   1.564  12.834 -0.4132  0.9109 -0.5849
 2397SOL    HW218825   1.385   1.537  12.968 -1.2863  1.2253  1.9422
 2398SOL     OW18826   0.856   1.172   6.414 -0.1704 -0.7375 -0.0900
 2398SOL    HW118827   0.866   1.148   6.322  1.2345  1.4718 -0.5168
 2398SOL    HW218828   0.800   1.249   6.403  1.3671  0.2178 -1.2935
 2399SOL     OW18829   1.247   2.347   8.390 -0.1916  0.5236  0.2484
 2399SOL    HW118830   1.203   2.430   8.369  0.6889  0.5206 -1.6470
 2399SOL    HW218831   1.194   2.322   8.466 -1.1448  0.2386 -0.5074
 2400SOL     OW18832   1.472   0.451   7.660  0.1551 -0.1684  0.4616
 2400SOL    HW118833   1.481   0.543   7.684  2.9283 -0.2347 -0.3787
 2400SOL    HW218834   1.394   0.437   7.714 -2.0222 -0.9146 -2.8508
 2401SOL     OW18835   3.670   1.322   4.337 -0.1191 -0.0172 -0.0229
 2401SOL    HW118836   3.703   1.351   4.422  0.7202 -1.1426  0.0308
 2401SOL    HW218837   3.604   1.258   4.361  2.8746 -2.5236  1.5875
 2402SOL     OW18838   2.244   1.464   3.295  0.1214 -0.0851 -0.2634
 2402SOL    HW118839   2.288   1.528   3.351 -0.0968  1.0955 -1.4508
 2402SOL    HW218840   2.316   1.405   3.272 -1.3960 -1.3346 -1.8058
 2403SOL     OW18841   4.091   0.864   4.815 -0.1143  0.0519 -0.1864
 2403SOL    HW118842   4.003   0.883   4.847  0.5479  1.3211  0.9148
 2403SOL    HW218843   4.086   0.769   4.814 -1.0274  0.1032  0.0208
 2404SOL     OW18844   0.133   2.949   9.485 -0.1173 -0.4378  0.0199
 2404SOL    HW118845   0.113   2.868   9.532 -0.8505 -0.1756  0.1595
 2404SOL    HW218846   0.197   2.924   9.418  0.3983  1.3042 -0.1269
 2405SOL     OW18847   1.627   1.971   0.682  0.0574 -0.2097 -0.0077
 2405SOL    HW118848   1.591   1.962   0.594 -2.2691  1.7883  0.7380
 2405SOL    HW218849   1.689   2.043   0.682  0.7541 -0.8197 -1.5809
 2406SOL     OW18850   3.753   1.008  10.012 -0.6342  0.0130 -0.1892
 2406SOL    HW118851   3.800   0.970  10.085  0.6665 -0.6480 -1.3668
 2406SOL    HW218852   3.684   0.942  10.006  0.1574 -0.6931 -1.3935
 2407SOL     OW18853   1.366   1.876   4.276 -0.0578 -0.0068 -0.3717
 2407SOL    HW118854   1.290   1.831   4.239 -0.7539  0.5250  0.4105
 2407SOL    HW218855   1.439   1.814   4.264 -1.2670 -1.7003  0.8683
 2408SOL     OW18856   1.284   2.741   7.716 -0.0578 -0.1924 -0.0312
 2408SOL    HW118857   1.191   2.759   7.702  0.5565  2.5453 -0.4817
 2408SOL    HW218858   1.286   2.646   7.709 -1.0576 -0.4147  2.6028
 2409SOL     OW18859   3.222   1.906   4.755  0.3296  0.2666 -0.0762
 2409SOL    HW118860   3.224   1.822   4.709 -0.3778 -0.4718  1.2359
 2409SOL    HW218861   3.210   1.877   4.846  0.3785  1.1833  0.2193
 2410SOL     OW18862   2.742   2.512   7.390  0.0736 -1.1406  0.4599
 2410SOL    HW118863   2.785   2.464   7.460  0.0723 -1.1473  0.4561
 2410SOL    HW218864   2.652   2.482   7.406 -0.9625  1.2641 -0.8833
 2411SOL     OW18865   2.580   1.748   8.678  0.2505 -0.2062  0.2874
 2411SOL    HW118866   2.567   1.813   8.609  0.6885  1.3139  1.6359
 2411SOL    HW218867   2.594   1.663   8.636  0.9239 -1.3912  2.9277
 2412SOL     OW18868   3.969   1.483   3.084  0.3269  0.2930 -0.3869
 2412SOL    HW118869   3.915   1.556   3.052 -1.4307 -1.1533 -0.6973
 2412SOL    HW218870   3.959   1.495   3.178 -1.3947  2.3063 -0.8223
 2413SOL     OW18871   2.596   3.493  11.865 -0.5136 -0.4671  0.0243
 2413SOL    HW118872   2.579   3.566  11.805  1.9708  0.9544  1.0246
 2413SOL    HW218873   2.528   3.515  11.929 -0.9623  0.6665 -0.8486
 2414SOL     OW18874   0.693   0.460   4.421  0.0801 -0.1065 -0.1228
 2414SOL    HW118875   0.644   0.380   4.441  0.5761 -0.2809  0.3819
 2414SOL    HW218876   0.616   0.518   4.419 -0.0195 -0.2710 -1.5142
 2415SOL     OW18877   1.837   3.463   8.669 -0.1126 -0.5371  0.7104
 2415SOL    HW118878   1.887   3.417   8.602  0.9179  1.2070  0.2904
 2415SOL    HW218879   1.881   3.414   8.739  0.0462  1.0935  1.7522
 2416SOL     OW18880   0.179   0.497  17.605  0.2447 -0.2141  0.0139
 2416SOL    HW118881   0.171   0.505  17.700  0.2780 -0.3397  0.0262
 2416SOL    HW218882   0.100   0.541  17.573 -0.1482 -1.1112 -0.2397
 2417SOL     OW18883   2.953   3.931   8.741 -0.1775 -0.8180  0.4758
 2417SOL    HW118884   3.001   3.885   8.809  0.3884  0.0146  0.6455
 2417SOL    HW218885   3.035   3.973   8.716 -0.4020 -0.3095  0.5908
 2418SOL     OW18886   4.211   4.462   1.588  0.2051  0.2924 -0.1816
 2418SOL    HW118887   4.176   4.376   1.566  0.6975  0.5501 -1.9756
 2418SOL    HW218888   4.303   4.448   1.610  0.4175 -0.8624 -1.8117
 2419SOL     OW18889   1.316   3.216   7.529 -0.2279  0.6030  0.0966
 2419SOL    HW118890   1.395   3.270   7.535  1.9564 -2.4328 -1.2930
 2419SOL    HW218891   1.344   3.136   7.485 -1.8430 -0.0138  0.1995
 2420SOL     OW18892   0.941   0.565   9.324  0.4683 -0.3471 -0.4284
 2420SOL    HW118893   0.851   0.543   9.302  0.1952 -1.5584  1.9118
 2420SOL    HW218894   0.964   0.504   9.394 -1.0035 -0.3932  0.0009
 2421SOL     OW18895   0.205   0.529   7.199  0.2086  0.0133 -0.0978
 2421SOL    HW118896   0.172   0.492   7.117  0.0886  0.0441 -0.0635
 2421SOL    HW218897   0.120   0.546   7.240  0.4237 -0.1287  0.4020
 2422SOL     OW18898   0.551   0.924   6.381 -0.2253 -0.0409 -0.3304
 2422SOL    HW118899   0.562   0.970   6.298  1.5466 -1.2589 -0.7729
 2422SOL    HW218900   0.472   0.872   6.368  0.5022 -1.5353  1.1473
 2423SOL     OW18901   2.062   0.666   3.058 -0.5832  0.0159  0.6151
 2423SOL    HW118902   2.143   0.617   3.067 -0.3649 -0.1139 -2.0862
 2423SOL    HW218903   2.096   0.754   3.077  0.4476 -0.1224 -0.6389
 2424SOL     OW18904   1.123   1.343   7.233  0.2271 -0.0236  0.4773
 2424SOL    HW118905   1.150   1.357   7.324 -1.7856 -1.2696  1.2658
 2424SOL    HW218906   1.035   1.377   7.253  0.5891  0.0097  2.0588
 2425SOL     OW18907   2.176   1.832   8.544 -0.0347  0.0372  0.2713
 2425SOL    HW118908   2.200   1.758   8.599  0.6658  0.7124  0.8733
 2425SOL    HW218909   2.154   1.790   8.461 -0.3280  1.6525 -0.4888
 2426SOL     OW18910   0.521   0.572   6.418 -0.0365 -0.1262  0.3039
 2426SOL    HW118911   0.459   0.645   6.416 -0.2956 -0.3823 -0.8890
 2426SOL    HW218912   0.456   0.502   6.414 -0.5565  0.4278 -0.8375
 2427SOL     OW18913   1.858   1.350   6.345  0.4849 -0.6147  0.5017
 2427SOL    HW118914   1.903   1.275   6.307 -0.3260 -0.6764 -0.3492
 2427SOL    HW218915   1.801   1.369   6.270  4.3999  1.1324 -2.0144
 2428SOL     OW18916   1.398   0.136   3.098  0.1750 -0.3879  0.0396
 2428SOL    HW118917   1.324   0.096   3.052  0.4024  0.6285 -1.2059
 2428SOL    HW218918   1.364   0.145   3.188  1.5319 -1.1363  0.6283
 2429SOL     OW18919   2.221   3.265   2.830  0.3292 -0.2067 -0.0236
 2429SOL    HW118920   2.261   3.254   2.744 -0.7154  0.4982 -0.5990
 2429SOL    HW218921   2.144   3.208   2.832  1.7826 -2.1392 -0.2172
 2430SOL     OW18922   0.107   0.288   2.220 -0.0087 -0.2426 -0.1305
 2430SOL    HW118923   0.191   0.288   2.267 -0.8134  0.9644  1.3258
 2430SOL    HW218924   0.060   0.322   2.296 -1.3803  1.0338 -1.5503
 2431SOL     OW18925   1.652   2.689   8.202 -0.1027 -0.4353 -0.3762
 2431SOL    HW118926   1.563   2.719   8.184  0.1375  0.0322 -0.8056
 2431SOL    HW218927   1.633   2.596   8.205  1.7771 -0.7813  0.6305
 2432SOL     OW18928   2.544   0.146  14.268 -0.0202 -0.5648 -0.7037
 2432SOL    HW118929   2.533   0.163  14.362 -2.2552 -0.5134 -0.9849
 2432SOL    HW218930   2.459   0.182  14.243  0.1162 -0.1131 -0.5139
 2433SOL     OW18931   1.813   0.702   9.560 -0.3206 -0.2043 -0.1277
 2433SOL    HW118932   1.830   0.760   9.634 -1.7450  0.5667 -0.4070
 2433SOL    HW218933   1.899   0.668   9.536 -0.6086 -1.7416  1.0234
 2434SOL     OW18934   1.852   4.445  17.158 -0.2156  0.0346  0.7026
 2434SOL    HW118935   1.916   4.410  17.095 -0.9070 -1.4417  0.8161
 2434SOL    HW218936   1.880   4.536  17.155  1.3100 -0.3460  3.4983
 2435SOL     OW18937   1.092   3.069   2.773 -0.1134 -0.3305  0.2775
 2435SOL    HW118938   1.161   3.092   2.836  1.0783 -0.7483 -0.8578
 2435SOL    HW218939   1.045   3.151   2.759  0.6717  0.1395  0.3557
 2436SOL     OW18940   0.736   1.999   4.218 -0.7401 -0.0684 -0.3558
 2436SOL    HW118941   0.737   2.087   4.181 -2.5369  0.7430  1.5579
 2436SOL    HW218942   0.785   2.018   4.298 -0.3555 -1.0082 -0.3692
 2437SOL     OW18943   1.217   1.232   4.415 -0.4371  0.2220  0.3603
 2437SOL    HW118944   1.155   1.305   4.401  1.2943  1.4678 -0.7481
 2437SOL    HW218945   1.174   1.196   4.493 -0.3840  1.5138  0.9910
 2438SOL     OW18946   2.676   4.445   8.712  0.2326 -0.0964 -0.3408
 2438SOL    HW118947   2.753   4.419   8.763  0.5216  2.0100  0.3121
 2438SOL    HW218948   2.694   4.395   8.633 -2.9995  0.1755 -1.2538
 2439SOL     OW18949   4.477   3.741  15.078  0.1748  0.6957  0.1356
 2439SOL    HW118950   4.471   3.668  15.140  2.9311  1.7740  1.6628
 2439SOL    HW218951   4.516   3.703  15.000 -0.4303 -0.4210  0.3830
 2440SOL     OW18952   1.334   4.527   2.261  0.2549  0.3183  0.2073
 2440SOL    HW118953   1.278   4.546   2.336  1.0195  1.3707  0.5113
 2440SOL    HW218954   1.289   4.447   2.233 -2.3348  1.7171  0.3466
 2441SOL     OW18955   2.979   3.164   8.525  0.7757 -0.2398 -0.4851
 2441SOL    HW118956   3.023   3.211   8.454  2.5550 -2.2052 -0.6783
 2441SOL    HW218957   3.038   3.177   8.599  1.1791 -0.6901 -0.7278
 2442SOL     OW18958   3.987   0.982   3.716  0.7026 -0.0065  0.4568
 2442SOL    HW118959   4.073   0.972   3.757  0.7238 -1.3102  0.0849
 2442SOL    HW218960   4.001   1.076   3.728 -0.4250  0.1686  0.3384
 2443SOL     OW18961   0.266   1.211  15.445 -0.2968  0.6085 -0.2510
 2443SOL    HW118962   0.244   1.272  15.515  0.5367 -0.5640  1.0361
 2443SOL    HW218963   0.240   1.260  15.367  1.2332  1.0308 -0.5008
 2444SOL     OW18964   1.340   1.078   1.973 -0.0322 -0.1979  0.2042
 2444SOL    HW118965   1.387   0.995   1.986 -1.8938 -1.4473 -1.0217
 2444SOL    HW218966   1.318   1.092   2.066 -1.2605 -1.4605  0.1158
 2445SOL     OW18967   2.924   1.931   8.457  0.2906 -0.1497  0.7688
 2445SOL    HW118968   2.983   1.856   8.458 -2.4573 -2.2645  2.1528
 2445SOL    HW218969   2.920   1.949   8.551 -2.2952 -0.5057  0.7250
 2446SOL     OW18970   3.634   2.268  11.802 -0.4384  0.0608  0.6541
 2446SOL    HW118971   3.635   2.173  11.814  0.5690  0.0869  0.7183
 2446SOL    HW218972   3.591   2.284  11.718  1.8485  2.7207  0.0175
 2447SOL     OW18973   3.420   2.547   2.356  0.0280 -0.3278 -0.5257
 2447SOL    HW118974   3.328   2.530   2.377  0.4513  0.3227  1.9310
 2447SOL    HW218975   3.401   2.638   2.333  1.0791  0.0041 -0.0569
 2448SOL     OW18976   3.900   4.156   0.551 -0.5930  0.3324  0.6897
 2448SOL    HW118977   3.908   4.232   0.493  2.0381 -0.3779  0.1139
 2448SOL    HW218978   3.901   4.085   0.487  2.4069  3.1793 -2.4401
 2449SOL     OW18979   0.691   3.524   9.725  0.2966  0.2249  0.1398
 2449SOL    HW118980   0.729   3.570   9.800  0.2140  0.4235  0.0585
 2449SOL    HW218981   0.607   3.561   9.701 -0.0341  0.7656  2.1056
 2450SOL     OW18982   1.858   2.983   0.428  0.5002 -0.6436 -0.1194
 2450SOL    HW118983   1.882   3.056   0.372 -0.8169 -1.2566 -1.4858
 2450SOL    HW218984   1.846   3.023   0.514 -0.5667  0.7509 -0.9143
 2451SOL     OW18985   0.275   3.020   7.326  0.5795  0.0562 -0.2869
 2451SOL    HW118986   0.350   2.981   7.280  1.2647  1.6834 -0.5389
 2451SOL    HW218987   0.223   2.944   7.353 -0.1193  0.9078  0.7730
 2452SOL     OW18988   2.184   2.441   9.441  0.2341 -0.5138 -0.3072
 2452SOL    HW118989   2.233   2.519   9.414 -0.7915  0.1988 -0.0935
 2452SOL    HW218990   2.194   2.445   9.536 -0.2541  1.5002 -0.3605
 2453SOL     OW18991   2.396   0.731   0.280  0.5450 -0.0757  0.4238
 2453SOL    HW118992   2.306   0.755   0.302  0.4089 -0.6076  0.4535
 2453SOL    HW218993   2.450   0.797   0.323  0.7779  0.4868 -0.7448
 2454SOL     OW18994   0.477   0.778  14.814  0.1327 -0.4831  0.1120
 2454SOL    HW118995   0.417   0.798  14.886 -1.4688  0.0271 -1.3507
 2454SOL    HW218996   0.481   0.867  14.778  1.0923  0.4877  2.6188
 2455SOL     OW18997   4.328   2.802   3.459 -0.4863  0.3536  0.1346
 2455SOL    HW118998   4.418   2.809   3.490 -0.9437  0.4451  1.4854
 2455SOL    HW218999   4.264   2.799   3.530 -1.4572  3.0452 -0.6438
 2456SOL     OW19000   2.806   1.681  10.156  0.6832  0.2722 -0.0337
 2456SOL    HW119001   2.844   1.676  10.068 -0.2089  0.6583 -0.4444
 2456SOL    HW219002   2.894   1.673  10.194 -0.0999 -1.5053  1.3757
 2457SOL     OW19003   3.391   1.865  14.823  0.4934  0.3468  0.5079
 2457SOL    HW119004   3.459   1.846  14.759 -1.6436 -0.5769 -1.4879
 2457SOL    HW219005   3.320   1.887  14.763 -0.0932  1.2577  1.5410
 2458SOL     OW19006   4.354   3.941   7.427 -0.0184 -0.1970  0.4236
 2458SOL    HW119007   4.280   3.973   7.478 -0.9941  1.2838 -1.9342
 2458SOL    HW219008   4.397   4.021   7.396 -2.1561  0.6990 -0.1685
 2459SOL     OW19009   0.814   3.013   4.775 -0.2449 -0.3428  0.2478
 2459SOL    HW119010   0.786   3.100   4.803  0.5260  0.8247 -2.6944
 2459SOL    HW219011   0.741   2.955   4.796 -0.1404 -0.7243 -0.4544
 2460SOL     OW19012   0.378   1.709   4.368  0.0760  0.3974  0.4988
 2460SOL    HW119013   0.443   1.778   4.361 -1.3196  1.7555  0.7416
 2460SOL    HW219014   0.432   1.649   4.418  1.3759  2.3785  1.4908
 2461SOL     OW19015   4.436   2.643   9.937  1.1562  0.0788 -0.2392
 2461SOL    HW119016   4.495   2.711   9.905  0.9294  1.1259  1.5720
 2461SOL    HW219017   4.360   2.648   9.879  2.0522  3.4819 -1.1226
 2462SOL     OW19018   2.259   3.848   9.543 -0.0367 -0.2840 -0.4457
 2462SOL    HW119019   2.217   3.781   9.489 -0.8066 -0.2375  0.0930
 2462SOL    HW219020   2.240   3.931   9.499  3.0139  0.1724 -0.8862
 2463SOL     OW19021   4.311   3.530   1.632  0.0826  0.5217 -0.5347
 2463SOL    HW119022   4.231   3.478   1.620  2.0219 -2.9129  1.4548
 2463SOL    HW219023   4.286   3.605   1.578 -2.2783 -0.5024 -0.8875
 2464SOL     OW19024   0.276   1.339  14.731 -0.3168 -0.7893  0.7236
 2464SOL    HW119025   0.291   1.352  14.637  1.6822 -0.3345  1.1012
 2464SOL    HW219026   0.183   1.318  14.731 -0.4893 -0.0080  3.6237
 2465SOL     OW19027   0.707   4.501  11.374 -0.4157  0.0123  0.5452
 2465SOL    HW119028   0.739   4.448  11.446  1.1807 -1.5005 -1.2831
 2465SOL    HW219029   0.752   4.584  11.389 -1.0616  0.3648  0.5439
 2466SOL     OW19030   3.031   3.189   2.318  0.0783 -0.4062 -0.2647
 2466SOL    HW119031   2.953   3.216   2.367 -0.3077 -0.5176 -0.8069
 2466SOL    HW219032   3.074   3.137   2.385 -0.0413 -0.0263  0.1056
 2467SOL     OW19033   3.127   3.980   4.169  0.0222  0.4936  0.3853
 2467SOL    HW119034   3.059   4.047   4.157 -1.0460 -0.6794 -0.1031
 2467SOL    HW219035   3.117   3.942   4.082  2.9419 -0.3483  0.4113
 2468SOL     OW19036   0.610   0.440   6.887  0.1148 -0.1190 -0.3410
 2468SOL    HW119037   0.515   0.446   6.898  0.2643 -3.0699  2.6346
 2468SOL    HW219038   0.631   0.402   6.972 -3.7445  2.3565  1.7502
 2469SOL     OW19039   2.087   4.289   9.102  0.0914  1.2633  0.1712
 2469SOL    HW119040   2.080   4.197   9.077 -1.9845  1.5673 -0.4110
 2469SOL    HW219041   2.003   4.322   9.069 -0.6973 -1.0570 -0.1649
 2470SOL     OW19042   0.730   0.345   4.148 -0.1525  0.0498 -0.5319
 2470SOL    HW119043   0.744   0.368   4.240 -3.1483  0.9004 -0.3083
 2470SOL    HW219044   0.648   0.387   4.125  0.1808  0.6588 -0.6136
 2471SOL     OW19045   0.895   4.108  15.705 -0.0179 -0.0206 -0.0715
 2471SOL    HW119046   0.828   4.113  15.773 -1.3820  3.9143 -1.7399
 2471SOL    HW219047   0.913   4.014  15.704 -1.7597 -0.3446 -0.3311
 2472SOL     OW19048   3.774   1.115   6.797 -0.0901  0.4820 -0.4473
 2472SOL    HW119049   3.791   1.118   6.891 -1.1892  2.2315 -0.2962
 2472SOL    HW219050   3.754   1.022   6.787  1.6630 -0.0141  0.5726
 2473SOL     OW19051   4.289   3.129   4.889  0.1327  0.7815  0.3518
 2473SOL    HW119052   4.318   3.179   4.965  0.3321 -3.4739  3.0544
 2473SOL    HW219053   4.208   3.091   4.922  0.5266  0.4583  0.9228
 2474SOL     OW19054   2.441   4.111   5.274  0.1568 -0.1964 -0.4256
 2474SOL    HW119055   2.522   4.115   5.224 -0.7444  0.3514 -1.8303
 2474SOL    HW219056   2.394   4.037   5.237  2.1406 -2.1931  1.0114
 2475SOL     OW19057   1.540   1.446   4.763  0.3969  0.3017  0.2163
 2475SOL    HW119058   1.471   1.391   4.799 -0.1779  0.0438 -1.2548
 2475SOL    HW219059   1.509   1.526   4.807  0.7076  0.9069 -0.6552
 2476SOL     OW19060   4.732   0.046   9.551  0.4506  0.5358  0.2768
 2476SOL    HW119061   4.715   4.696   9.581  1.6117  0.4078  0.5621
 2476SOL    HW219062   0.020   0.027   9.461  0.7706  0.1838  0.4475
 2477SOL     OW19063   3.575   3.394   3.203  0.2873 -0.5652 -0.0723
 2477SOL    HW119064   3.494   3.433   3.170  1.1027  0.1807 -1.1935
 2477SOL    HW219065   3.642   3.434   3.147 -0.4755 -1.8284 -1.8936
 2478SOL     OW19066   3.736   1.467   2.104 -0.4365 -0.2913 -0.2025
 2478SOL    HW119067   3.704   1.432   2.187  0.2426 -1.0655 -0.2746
 2478SOL    HW219068   3.737   1.389   2.049  0.6743 -1.8346  2.0253
 2479SOL     OW19069   0.810   0.818   4.410  0.3360 -0.3355  0.0116
 2479SOL    HW119070   0.893   0.861   4.390 -1.1561  1.5985 -1.9413
 2479SOL    HW219071   0.745   0.862   4.354  0.6060  0.4895  0.3458
 2480SOL     OW19072   1.738   0.577  13.042 -0.1753  0.0797 -0.5108
 2480SOL    HW119073   1.706   0.550  13.128 -0.6564 -0.8978 -0.9957
 2480SOL    HW219074   1.831   0.565  13.060 -0.2762  1.0189  0.6392
 2481SOL     OW19075   3.728   2.657   3.599 -0.5256 -0.5366  0.3612
 2481SOL    HW119076   3.729   2.588   3.533  0.7909 -0.5149  0.3606
 2481SOL    HW219077   3.817   2.646   3.633  0.2234  0.8631 -1.1320
 2482SOL     OW19078   3.942   0.179   8.861  0.1483  0.2484  0.4519
 2482SOL    HW119079   3.996   0.241   8.811 -2.4861  1.6764 -0.6220
 2482SOL    HW219080   4.006   0.133   8.915 -0.2181 -0.9003 -0.1026
 2483SOL     OW19081   1.126   3.239   3.774 -0.0029  0.0345 -0.3211
 2483SOL    HW119082   1.086   3.153   3.785  0.1310 -0.1408 -1.2115
 2483SOL    HW219083   1.053   3.300   3.791  0.3259  0.9734 -2.2755
 2484SOL     OW19084   3.899   3.238   3.150  0.2781 -0.2446 -0.0358
 2484SOL    HW119085   3.880   3.324   3.113  2.5076 -0.5145 -1.8425
 2484SOL    HW219086   3.983   3.256   3.193  0.5410 -0.1517 -0.5929
 2485SOL     OW19087   0.022   0.569   3.314  0.7163  0.2960  0.4187
 2485SOL    HW119088   0.034   0.511   3.238 -0.9320 -1.4292  1.4544
 2485SOL    HW219089   4.708   0.514   3.372 -0.9178 -0.1767 -1.4960
 2486SOL     OW19090   2.759   0.066   6.849  0.8281 -0.4640  0.1710
 2486SOL    HW119091   2.828   0.035   6.907  2.9310  1.3813 -1.3517
 2486SOL    HW219092   2.794   0.146   6.810  1.5269  0.2371  2.2361
 2487SOL     OW19093   2.891   4.327   8.827  0.5834  0.4512 -0.1537
 2487SOL    HW119094   2.845   4.262   8.880  0.3396  0.2816 -0.5712
 2487SOL    HW219095   2.944   4.360   8.899 -1.0057  0.1742  1.1248
 2488SOL     OW19096   3.570   1.660   0.045 -0.4878  0.0338  0.0617
 2488SOL    HW119097   3.643   1.648   0.106  0.5294  3.8904 -0.4195
 2488SOL    HW219098   3.541   1.570   0.030 -0.1824  0.0192 -0.4285
 2489SOL     OW19099   0.669   0.064   7.469  0.2059 -0.4435  0.9161
 2489SOL    HW119100   0.741   0.028   7.521  0.6324 -0.1407  0.5319
 2489SOL    HW219101   0.609   4.729   7.468 -0.6350  0.2771 -0.8046
 2490SOL     OW19102   4.314   2.279  13.524  0.2091 -0.0076  0.2552
 2490SOL    HW119103   4.223   2.289  13.552 -1.1087 -2.8710 -2.9461
 2490SOL    HW219104   4.362   2.317  13.597 -1.0019 -2.3194  2.2392
 2491SOL     OW19105   0.035   3.993  15.686  0.9669  0.4694 -0.5758
 2491SOL    HW119106   0.036   4.031  15.598  0.9988 -2.7828 -1.9753
 2491SOL    HW219107   0.027   4.070  15.742  1.1918 -0.8528  1.2743
 2492SOL     OW19108   1.736   1.851   1.910  0.4616  0.0868  0.6548
 2492SOL    HW119109   1.831   1.852   1.916  0.4593 -1.9744  1.0878
 2492SOL    HW219110   1.724   1.945   1.925 -0.1021  0.1317 -0.0567
 2493SOL     OW19111   3.034   0.476   7.796  0.2095 -0.6834 -0.0215
 2493SOL    HW119112   2.964   0.449   7.736  0.6186 -0.1250 -0.7408
 2493SOL    HW219113   3.006   0.566   7.815  0.1265 -0.8686  0.7494
 2494SOL     OW19114   3.394   3.201   2.904  0.0205  0.2586 -0.6459
 2494SOL    HW119115   3.476   3.236   2.868 -0.0540 -0.0763 -1.1385
 2494SOL    HW219116   3.430   3.154   2.979  0.1424  1.2122 -0.1027
 2495SOL     OW19117   1.970   2.959   0.797 -0.0598 -0.0508  0.0495
 2495SOL    HW119118   1.914   3.004   0.734  1.8228 -0.1966 -1.7237
 2495SOL    HW219119   1.911   2.902   0.846  1.6486 -1.1958  0.7725
 2496SOL     OW19120   0.151   4.596   8.334  0.0466  0.0351 -0.1394
 2496SOL    HW119121   0.181   4.533   8.400  0.4686  2.1458  1.7174
 2496SOL    HW219122   0.234   4.643   8.321  0.5327 -0.5497  0.8605
 2497SOL     OW19123   2.800   0.213   4.368 -0.0764 -0.5487  0.1333
 2497SOL    HW119124   2.833   0.282   4.426 -0.3007 -1.6765  1.5820
 2497SOL    HW219125   2.875   0.155   4.364 -1.3794 -2.2834  0.7847
 2498SOL     OW19126   4.324   2.643   7.492  0.0260 -0.1242  0.0110
 2498SOL    HW119127   4.338   2.637   7.587 -0.0819 -1.0808 -0.0350
 2498SOL    HW219128   4.303   2.550   7.482 -2.2083  0.1930  1.5005
 2499SOL     OW19129   0.537   4.457   7.158 -0.7078 -0.3582  0.0459
 2499SOL    HW119130   0.616   4.418   7.196 -1.5063  0.3547  2.4904
 2499SOL    HW219131   0.579   4.507   7.089  0.6278  0.1662  1.2437
 2500SOL     OW19132   1.584   4.029   3.404 -0.4893 -0.1711 -0.1956
 2500SOL    HW119133   1.578   4.116   3.444  2.6568 -0.6275  1.2290
 2500SOL    HW219134   1.494   4.024   3.371 -0.0714  1.7750 -1.6409
 2501SOL     OW19135   2.378   3.454   6.972 -0.4429  0.0702 -0.2465
 2501SOL    HW119136   2.305   3.411   6.928  0.3946  0.4806 -2.0475
 2501SOL    HW219137   2.428   3.477   6.893 -2.6315  0.5247 -1.5233
 2502SOL     OW19138   3.463   3.668  11.702 -0.7647  0.0947  0.6646
 2502SOL    HW119139   3.372   3.647  11.681 -1.0962 -0.2253  2.4009
 2502SOL    HW219140   3.457   3.752  11.747  2.1494  0.7656 -0.1947
 2503SOL     OW19141   2.268   0.084   1.825 -0.8485  0.0421  0.5353
 2503SOL    HW119142   2.306   0.145   1.887 -2.0711  1.4692 -0.1329
 2503SOL    HW219143   2.304   0.000   1.855  2.1911  0.5688 -1.6270
 2504SOL     OW19144   1.485   2.759   6.986  0.1327  0.4122  0.3789
 2504SOL    HW119145   1.574   2.785   7.007  0.4981  0.3161 -0.9958
 2504SOL    HW219146   1.487   2.752   6.890 -0.6664  0.0892  0.3833
 2505SOL     OW19147   2.260   3.658  10.984  0.0846 -0.2299  0.1896
 2505SOL    HW119148   2.261   3.754  10.977 -1.3309 -0.2217  0.0135
 2505SOL    HW219149   2.292   3.629  10.899 -2.6696 -0.7954 -0.6541
 2506SOL     OW19150   4.598   3.122   2.470  0.4007  0.5878 -0.6638
 2506SOL    HW119151   4.624   3.154   2.557 -1.1660 -2.1318  0.8135
 2506SOL    HW219152   4.515   3.165   2.451 -1.1329 -1.3691  1.5460
 2507SOL     OW19153   0.009   2.619   3.628  0.0043  0.0198  0.1447
 2507SOL    HW119154   4.658   2.619   3.661 -0.6759 -2.7995 -1.7018
 2507SOL    HW219155   0.051   2.545   3.672 -0.3561  0.5122  1.3310
 2508SOL     OW19156   4.549   2.391   7.081 -0.3480 -0.3422  0.0599
 2508SOL    HW119157   4.520   2.327   7.146 -1.9856  1.8674  1.5036
 2508SOL    HW219158   4.462   2.426   7.061  0.1206  1.2930  0.8927
 2509SOL     OW19159   4.655   2.782  13.964  0.0769  0.3755  0.4758
 2509SOL    HW119160   4.702   2.862  13.986 -2.2431  1.3635  1.7910
 2509SOL    HW219161   4.636   2.798  13.872 -2.2011 -0.8589  0.7229
 2510SOL     OW19162   2.381   1.851   4.473  1.1285 -0.0045  0.2104
 2510SOL    HW119163   2.342   1.871   4.388  1.3559  2.7410  0.7429
 2510SOL    HW219164   2.303   1.833   4.525  1.5480 -0.6020  0.6319
 2511SOL     OW19165   2.118   2.158   4.144  0.3666  0.0716  0.3787
 2511SOL    HW119166   2.064   2.219   4.193 -0.8690 -2.3703  2.0850
 2511SOL    HW219167   2.092   2.172   4.054 -1.0836 -2.2207  0.4467
 2512SOL     OW19168   2.330   3.639   1.761 -0.4360 -0.1311  0.2894
 2512SOL    HW119169   2.360   3.549   1.774  2.8779  0.8302 -0.8420
 2512SOL    HW219170   2.404   3.685   1.722  1.4860 -1.8689  1.8850
 2513SOL     OW19171   3.148   3.308   7.843 -0.3233 -0.4761  0.1055
 2513SOL    HW119172   3.204   3.385   7.847 -2.1754  0.8843  0.2211
 2513SOL    HW219173   3.203   3.243   7.800  0.9292 -0.1971  1.3041
 2514SOL     OW19174   4.384   1.190   8.750  0.0851 -0.1041  0.0904
 2514SOL    HW119175   4.459   1.154   8.702 -0.1628 -0.0075 -0.3682
 2514SOL    HW219176   4.340   1.237   8.679 -1.9161 -1.3539  0.4872
 2515SOL     OW19177   1.381   4.113   2.661 -0.4609 -0.0164  0.6899
 2515SOL    HW119178   1.342   4.026   2.654 -0.6026  0.1639 -0.9238
 2515SOL    HW219179   1.361   4.132   2.752 -1.7032 -0.4091  0.5073
 2516SOL     OW19180   0.376   1.215   6.420  0.0546  0.2100  0.1564
 2516SOL    HW119181   0.399   1.125   6.395  0.9802  0.1610  1.1816
 2516SOL    HW219182   0.460   1.261   6.416  0.2266  0.0005  1.5276
 2517SOL     OW19183   1.071   1.942   9.382 -0.3069 -0.0964  0.4348
 2517SOL    HW119184   1.166   1.934   9.381 -0.4351 -1.2838 -2.0235
 2517SOL    HW219185   1.053   1.864   9.434 -0.1680 -1.4962 -1.6071
 2518SOL     OW19186   1.799   3.921   6.256 -0.7357  0.1281 -0.3416
 2518SOL    HW119187   1.726   3.867   6.227  0.0943 -1.1621 -0.0336
 2518SOL    HW219188   1.808   3.981   6.182 -0.4260 -0.5660 -0.8655
 2519SOL     OW19189   3.792   2.913  13.103 -0.0874  0.5239  0.1451
 2519SOL    HW119190   3.715   2.950  13.145 -0.8309  1.5480 -2.1302
 2519SOL    HW219191   3.836   2.887  13.184 -1.3373  1.2339  1.0374
 2520SOL     OW19192   0.424   0.467   4.692  0.4176  0.6495 -0.3287
 2520SOL    HW119193   0.417   0.556   4.655  1.9509 -0.3004 -2.9059
 2520SOL    HW219194   0.422   0.473   4.787  0.9723 -0.1584 -0.2663
 2521SOL     OW19195   4.524   2.996   7.834 -0.2327  0.1692  0.3212
 2521SOL    HW119196   4.430   2.998   7.817 -0.0573  0.9768 -0.5606
 2521SOL    HW219197   4.548   2.911   7.798 -0.1534  0.1192  0.4949
 2522SOL     OW19198   4.242   0.457   7.594  0.2823 -0.4854  0.0433
 2522SOL    HW119199   4.322   0.502   7.620 -1.4936  1.9670  1.1683
 2522SOL    HW219200   4.275   0.396   7.527  1.0780  0.0792 -0.0845
 2523SOL     OW19201   2.912   3.000  10.957  0.2451  0.1034 -0.0174
 2523SOL    HW119202   2.951   2.946  10.889 -0.8196  0.7339 -1.1273
 2523SOL    HW219203   2.853   2.935  10.996 -1.2732  0.3587 -1.8937
 2524SOL     OW19204   3.526   0.858   5.802 -0.5676  0.1924  0.0687
 2524SOL    HW119205   3.548   0.950   5.814  2.0496 -0.6394  1.6193
 2524SOL    HW219206   3.465   0.873   5.729  0.5425 -2.5409 -1.4346
 2525SOL     OW19207   3.128   4.631   6.456 -0.2758 -0.1255  0.4157
 2525SOL    HW119208   3.175   4.604   6.534  2.1787 -0.0926 -1.0567
 2525SOL    HW219209   3.078   4.552   6.434  2.0709 -1.4701 -0.0753
 2526SOL     OW19210   3.006   0.438   0.588  0.8382  0.9610 -0.0332
 2526SOL    HW119211   3.007   0.475   0.500 -1.3309  3.1145  0.8821
 2526SOL    HW219212   2.959   0.503   0.640 -1.4733  1.0158 -2.1985
 2527SOL     OW19213   3.004   0.383   3.567 -0.4455  0.0937  0.0269
 2527SOL    HW119214   3.076   0.339   3.522  1.7688  3.2354  0.5159
 2527SOL    HW219215   2.958   0.303   3.596 -0.4754  0.3540  0.6873
 2528SOL     OW19216   2.783   0.586  13.785  0.2260 -0.2226 -0.5005
 2528SOL    HW119217   2.717   0.615  13.848  0.0959  1.1255 -1.2568
 2528SOL    HW219218   2.834   0.667  13.785  1.0931 -0.7850 -2.3550
 2529SOL     OW19219   4.138   2.238   6.776  0.0572  0.0776  0.0497
 2529SOL    HW119220   4.068   2.185   6.739 -1.0883  0.8248  1.1646
 2529SOL    HW219221   4.208   2.174   6.761  1.2901  0.8557  2.5609
 2530SOL     OW19222   1.956   4.686   1.719 -0.4673 -0.3678  0.3026
 2530SOL    HW119223   1.915   4.724   1.796 -2.4004 -1.6113 -0.1150
 2530SOL    HW219224   1.905   4.726   1.648 -0.3182  2.9483  2.0857
 2531SOL     OW19225   1.693   4.618  14.473 -0.1120  0.2054  0.5716
 2531SOL    HW119226   1.779   4.655  14.455 -0.1439 -1.5822 -3.1909
 2531SOL    HW219227   1.644   4.693  14.438  0.2211  0.3775  0.4779
 2532SOL     OW19228   0.332   2.718   7.593  0.2869 -0.3947  0.0611
 2532SOL    HW119229   0.334   2.668   7.675  0.8611 -1.7295 -0.7703
 2532SOL    HW219230   0.245   2.753   7.611  0.4545 -0.4247  0.9107
 2533SOL     OW19231   0.988   2.974  13.515 -0.1444 -0.8394  0.1495
 2533SOL    HW119232   0.903   2.945  13.548  0.2336 -1.6965  0.3680
 2533SOL    HW219233   1.035   2.897  13.547  2.4326  0.4450 -0.5211
 2534SOL     OW19234   0.788   2.534   2.634  0.0443 -0.1984  0.0113
 2534SOL    HW119235   0.870   2.531   2.684  0.1313 -1.2708 -0.1948
 2534SOL    HW219236   0.723   2.574   2.692 -0.7862 -1.9945  0.3378
 2535SOL     OW19237   4.440   3.192   7.559 -0.0002 -0.1274 -0.0390
 2535SOL    HW119238   4.505   3.148   7.504  0.3062  0.1755  0.0815
 2535SOL    HW219239   4.439   3.284   7.533  0.9985  0.3850  1.7266
 2536SOL     OW19240   2.004   3.094   8.831  0.5559 -0.3241  0.2672
 2536SOL    HW119241   2.085   3.136   8.861  1.1137 -2.1492  1.3204
 2536SOL    HW219242   1.945   3.104   8.906  1.4362  0.4943  0.8608
 2537SOL     OW19243   0.638   4.249  10.896 -0.4899  0.7711 -0.2306
 2537SOL    HW119244   0.623   4.322  10.957 -0.3374  2.1882 -1.8806
 2537SOL    HW219245   0.589   4.290  10.825  1.3703  1.7576 -0.9451
 2538SOL     OW19246   3.461   3.090   3.838 -0.4463  0.0994 -0.1269
 2538SOL    HW119247   3.473   3.026   3.909  2.0111 -1.7996 -2.2273
 2538SOL    HW219248   3.540   3.143   3.848 -0.9630  1.0560 -1.2508
 2539SOL     OW19249   0.170   2.416   3.737  0.3011 -0.0965  0.5848
 2539SOL    HW119250   0.246   2.472   3.719  0.4087 -1.1138 -2.0800
 2539SOL    HW219251   0.191   2.329   3.705 -0.5544  0.2035 -0.7776
 2540SOL     OW19252   0.222   4.080   5.733  0.1549  0.0059 -0.0663
 2540SOL    HW119253   0.203   4.166   5.771  0.9564 -1.1628  2.9202
 2540SOL    HW219254   0.191   4.096   5.643  3.5246  1.5224 -0.9574
 2541SOL     OW19255   1.304   1.973   3.461 -0.8253 -0.6467 -0.5045
 2541SOL    HW119256   1.283   1.884   3.433 -0.9511 -1.1019  0.9993
 2541SOL    HW219257   1.287   2.019   3.379 -0.3029  0.5669  0.0644
 2542SOL     OW19258   0.266   1.398  12.559 -0.2117 -0.0863 -0.0055
 2542SOL    HW119259   0.252   1.423  12.650 -0.7125  2.3793 -0.7390
 2542SOL    HW219260   0.362   1.395  12.550 -0.4973 -1.5498 -2.6655
 2543SOL     OW19261   3.190   0.924   1.042  0.6550 -0.2883 -0.0791
 2543SOL    HW119262   3.146   0.920   0.958  1.3834  0.8740 -0.5127
 2543SOL    HW219263   3.184   0.837   1.083 -2.1608 -0.4802 -0.8875
 2544SOL     OW19264   1.925   3.273   4.245 -0.2707  0.7038  0.0092
 2544SOL    HW119265   1.904   3.347   4.301 -1.4036 -0.0821  0.6283
 2544SOL    HW219266   1.858   3.212   4.277  0.4133 -1.2482 -2.2588
 2545SOL     OW19267   2.502   0.016  16.083  0.1582  0.2961 -0.0659
 2545SOL    HW119268   2.448   4.682  16.111  0.3968 -0.4015 -1.4567
 2545SOL    HW219269   2.592   4.736  16.109  0.5182  1.6953 -0.2595
 2546SOL     OW19270   4.436   0.865   5.635 -0.9811 -0.3629  0.1851
 2546SOL    HW119271   4.399   0.953   5.640 -2.2412 -0.8935  0.1971
 2546SOL    HW219272   4.511   0.863   5.695 -0.5472 -1.0823 -0.3816
 2547SOL     OW19273   0.971   1.213  17.714 -0.4050 -0.3675 -0.3446
 2547SOL    HW119274   1.000   1.195  17.624  0.1818 -0.8135 -0.0633
 2547SOL    HW219275   1.047   1.264  17.742  0.4484 -2.2089  0.6797
 2548SOL     OW19276   2.222   4.444   6.780  0.5107  0.3583  0.2849
 2548SOL    HW119277   2.144   4.498   6.780 -2.0822 -3.3563  1.4776
 2548SOL    HW219278   2.215   4.409   6.869  1.5296 -1.0815 -0.1938
 2549SOL     OW19279   1.940   2.321   6.675  0.7061  1.0488 -0.1455
 2549SOL    HW119280   1.880   2.394   6.659  1.0971  0.9124 -2.2254
 2549SOL    HW219281   1.940   2.286   6.586  1.3496  0.2603  0.1675
 2550SOL     OW19282   4.352   3.258   8.307  0.7744 -0.5392  0.3115
 2550SOL    HW119283   4.392   3.345   8.302  0.8016 -0.4512  1.9085
 2550SOL    HW219284   4.310   3.245   8.222 -0.9486 -1.1829  1.2537
 2551SOL     OW19285   0.465   0.427   2.922 -0.3347  0.0156  0.2976
 2551SOL    HW119286   0.381   0.453   2.959 -0.9387 -0.8870 -0.4317
 2551SOL    HW219287   0.515   0.509   2.919 -0.1364 -0.0773  1.1981
 2552SOL     OW19288   2.464   4.303   0.666  0.6751 -0.4155  0.2085
 2552SOL    HW119289   2.470   4.239   0.596  3.4162 -0.2699  0.3118
 2552SOL    HW219290   2.558   4.324   0.669  0.7667 -0.9075  0.7839
 2553SOL     OW19291   0.656   2.235   8.046 -0.2015  0.5927 -0.1168
 2553SOL    HW119292   0.644   2.204   8.135 -0.7002  1.4109  0.1038
 2553SOL    HW219293   0.573   2.237   7.998 -0.0746  0.2166 -0.3517
 2554SOL     OW19294   1.835   3.736   1.271 -0.0819  1.0314  0.1657
 2554SOL    HW119295   1.904   3.702   1.215 -2.6292 -2.1521 -1.0357
 2554SOL    HW219296   1.795   3.797   1.210  2.0319  1.2412 -1.0051
 2555SOL     OW19297   3.792   1.744   5.382  0.4234  0.2377  0.5492
 2555SOL    HW119298   3.699   1.730   5.367  0.5122  2.1819 -1.8993
 2555SOL    HW219299   3.810   1.683   5.453 -0.7277 -1.4105 -0.5822
 2556SOL     OW19300   1.159   2.040  14.953 -0.8595  0.8851  0.0923
 2556SOL    HW119301   1.168   1.944  14.952 -1.8745  0.8374 -3.7538
 2556SOL    HW219302   1.200   2.068  14.872 -1.7930 -0.4605 -0.8426
 2557SOL     OW19303   1.346   3.408   7.027 -0.5147  0.2543  0.2724
 2557SOL    HW119304   1.284   3.431   7.096 -2.0892 -0.8197 -0.7908
 2557SOL    HW219305   1.317   3.320   7.005 -0.3368  0.2079  0.2276
 2558SOL     OW19306   1.709   0.161   9.339 -0.1121 -0.3590  0.8016
 2558SOL    HW119307   1.686   0.245   9.297  3.1749 -1.1046 -2.5291
 2558SOL    HW219308   1.774   0.130   9.275  0.3665  1.0118  0.6131
 2559SOL     OW19309   3.421   3.226  11.608 -0.1951  0.4186  0.2640
 2559SOL    HW119310   3.459   3.170  11.676 -1.9739 -0.8842  0.2062
 2559SOL    HW219311   3.442   3.183  11.525 -0.4110  2.6450 -0.9424
 2560SOL     OW19312   3.428   3.866   1.996  0.0059 -0.0062  0.0840
 2560SOL    HW119313   3.409   3.811   1.920 -0.5665  0.7531 -0.3277
 2560SOL    HW219314   3.504   3.821   2.033  0.1063 -0.3163 -0.5073
 2561SOL     OW19315   2.319   2.588  12.846 -0.5516 -0.3353 -0.3850
 2561SOL    HW119316   2.234   2.602  12.888 -0.3236 -0.8906  0.2727
 2561SOL    HW219317   2.373   2.646  12.899 -0.4040 -0.3411 -0.5270
 2562SOL     OW19318   3.850   2.931  13.552  0.8033  0.1048 -0.7264
 2562SOL    HW119319   3.872   2.875  13.477  1.8707  1.3163 -1.2996
 2562SOL    HW219320   3.815   2.860  13.607  1.5850  1.8969  2.0685
 2563SOL     OW19321   3.014   2.606   3.462 -1.0133  0.1127 -0.9121
 2563SOL    HW119322   2.992   2.532   3.406  1.2073 -2.5060  1.6868
 2563SOL    HW219323   3.066   2.651   3.396 -1.5349  0.7311 -0.9013
 2564SOL     OW19324   4.198   2.008   5.372  0.4258 -0.0463  0.1618
 2564SOL    HW119325   4.209   2.083   5.313 -3.0077  1.2566  1.1842
 2564SOL    HW219326   4.138   1.959   5.316  0.9791  0.2963 -0.7366
 2565SOL     OW19327   3.723   1.051   7.294 -0.1623  0.0153 -0.1023
 2565SOL    HW119328   3.649   1.093   7.337 -0.8745 -1.1093 -0.2405
 2565SOL    HW219329   3.802   1.089   7.332 -0.0217 -0.5411  0.1578
 2566SOL     OW19330   3.231   0.175  11.891 -0.2197  0.1151 -0.2962
 2566SOL    HW119331   3.163   0.109  11.877  0.8918 -1.2336  0.7122
 2566SOL    HW219332   3.246   0.212  11.803  0.7293 -2.7451 -1.3251
 2567SOL     OW19333   4.570   2.991   5.803 -0.1481 -0.2923  0.0567
 2567SOL    HW119334   4.510   3.009   5.875  1.9436 -0.1846  1.7879
 2567SOL    HW219335   4.637   2.961   5.865  0.4598 -0.3297 -0.6254
 2568SOL     OW19336   4.227   1.794   6.756 -0.4158  0.3030 -0.2548
 2568SOL    HW119337   4.309   1.744   6.757 -0.2917  0.5376  1.8527
 2568SOL    HW219338   4.160   1.737   6.719  2.1348 -2.8159 -0.1263
 2569SOL     OW19339   2.761   3.142   7.185  0.5557  0.2039 -0.4552
 2569SOL    HW119340   2.714   3.071   7.228 -0.1898 -0.7589 -2.8277
 2569SOL    HW219341   2.688   3.201   7.169  0.2107 -0.2295 -0.4823
 2570SOL     OW19342   2.486   3.401   1.791  0.5666 -0.8421  0.4076
 2570SOL    HW119343   2.571   3.372   1.759  1.6689  2.8826 -0.0545
 2570SOL    HW219344   2.440   3.320   1.812  0.4826 -0.5369  1.4198
 2571SOL     OW19345   2.549   3.523   6.727  0.3468  0.2219 -0.7980
 2571SOL    HW119346   2.476   3.585   6.730  0.3647  0.2385 -0.7153
 2571SOL    HW219347   2.586   3.539   6.640  2.5011  1.5975  0.3630
 2572SOL     OW19348   2.103   0.145   4.097  0.4931 -0.0548 -0.1042
 2572SOL    HW119349   2.059   0.123   4.015  0.1501  2.5775 -0.6437
 2572SOL    HW219350   2.163   0.214   4.068  0.5844 -1.0912 -2.4604
 2573SOL     OW19351   3.273   3.552   6.053 -0.1361 -0.4030 -0.6089
 2573SOL    HW119352   3.285   3.497   6.130  2.9520 -0.1807 -0.9121
 2573SOL    HW219353   3.311   3.627   6.099  0.7013  0.2386 -2.3575
 2574SOL     OW19354   2.542   3.709   9.142  0.2278 -0.1358 -0.3871
 2574SOL    HW119355   2.636   3.711   9.159 -0.0118  2.0616  0.6926
 2574SOL    HW219356   2.518   3.796   9.109 -1.2556 -0.9634 -1.5380
 2575SOL     OW19357   1.243   4.617   9.896  0.2274 -0.0045  0.0998
 2575SOL    HW119358   1.290   4.700   9.892  0.4804 -0.1240  0.5790
 2575SOL    HW219359   1.155   4.646   9.916 -0.1731 -1.6367  0.7628
 2576SOL     OW19360   4.173   3.214  16.053  0.3219  0.0507  0.3601
 2576SOL    HW119361   4.173   3.122  16.080  2.3223  0.1858  0.7969
 2576SOL    HW219362   4.186   3.204  15.958  2.2332  2.2732  0.3956
 2577SOL     OW19363   4.364   0.318   6.154 -0.2774  0.6427  0.5874
 2577SOL    HW119364   4.336   0.257   6.086 -0.3066  2.8641 -1.4016
 2577SOL    HW219365   4.297   0.386   6.161  0.1439  1.5787 -4.1381
 2578SOL     OW19366   0.283   1.424   1.935  0.1416 -0.3861 -1.1932
 2578SOL    HW119367   0.288   1.330   1.945  0.8901 -0.1568  0.4500
 2578SOL    HW219368   0.370   1.461   1.947 -0.2441  0.2897 -0.4589
 2579SOL     OW19369   0.352   4.033   6.698  0.1869 -0.4779 -0.7257
 2579SOL    HW119370   0.291   4.106   6.691  0.9434  0.2811  0.5162
 2579SOL    HW219371   0.408   4.059   6.772 -0.0856  0.6323 -0.9075
 2580SOL     OW19372   1.146   1.696   4.208 -0.0890 -0.3823 -0.3392
 2580SOL    HW119373   1.070   1.748   4.186  0.7897  0.9222 -0.2876
 2580SOL    HW219374   1.145   1.624   4.146 -1.9711  0.5535 -1.3583
 2581SOL     OW19375   4.095   3.638   1.877 -0.6236  0.8457  0.2888
 2581SOL    HW119376   4.173   3.684   1.910 -1.0018  2.1553 -0.6570
 2581SOL    HW219377   4.119   3.546   1.870 -0.8821  0.8693 -0.8716
 2582SOL     OW19378   1.821   1.458   7.164  0.4007  0.2448 -0.1622
 2582SOL    HW119379   1.866   1.414   7.237 -2.7121 -2.4155  0.1247
 2582SOL    HW219380   1.772   1.386   7.125  0.8079  1.0126 -2.0949
 2583SOL     OW19381   3.863   1.064   3.196  0.2838  0.1127  0.0262
 2583SOL    HW119382   3.954   1.092   3.189  0.4253 -0.3365  0.0299
 2583SOL    HW219383   3.879   0.975   3.227 -1.8280 -0.2966 -0.0966
 2584SOL     OW19384   0.290   0.291   4.323  0.1492 -0.2716  0.5079
 2584SOL    HW119385   0.237   0.307   4.245  2.1637 -1.7516 -1.1450
 2584SOL    HW219386   0.259   0.371   4.366  1.0607 -0.9403  2.4044
 2585SOL     OW19387   4.021   0.290   5.399  0.0913 -0.0220  0.1943
 2585SOL    HW119388   4.029   0.384   5.381 -2.2191  0.4479  1.6096
 2585SOL    HW219389   4.104   0.266   5.358  0.9270  1.8351  0.8010
 2586SOL     OW19390   2.106   3.863   2.829 -0.3123 -0.5701 -0.0678
 2586SOL    HW119391   2.065   3.939   2.870 -0.3968 -0.7051  0.1021
 2586SOL    HW219392   2.047   3.789   2.845  0.4435 -0.3458  3.7674
 2587SOL     OW19393   1.176   2.443   7.028 -0.4025 -0.4875  0.2077
 2587SOL    HW119394   1.216   2.499   6.961 -1.2705 -1.2056 -0.9146
 2587SOL    HW219395   1.131   2.509   7.081 -1.0970 -1.6299  1.0309
 2588SOL     OW19396   4.206   3.564   2.282 -0.5245  0.3453  0.0749
 2588SOL    HW119397   4.232   3.521   2.200  2.1620  1.9071  0.1028
 2588SOL    HW219398   4.122   3.523   2.298 -0.5478  0.3609 -0.0055
 2589SOL     OW19399   2.541   3.311   4.690 -0.0404 -0.1731  0.4340
 2589SOL    HW119400   2.475   3.379   4.677 -2.9456 -3.0148  0.1342
 2589SOL    HW219401   2.578   3.338   4.774  0.9474 -2.7707  0.8436
 2590SOL     OW19402   0.909   0.544   2.896 -0.1410  0.1673 -0.2349
 2590SOL    HW119403   0.870   0.482   2.835  0.2953  1.1042 -1.4581
 2590SOL    HW219404   0.894   0.508   2.984  0.5522  2.6880  0.9332
 2591SOL     OW19405   1.370   3.482   2.866  0.3253  0.0814  0.0741
 2591SOL    HW119406   1.282   3.447   2.876  0.8798 -1.7347 -1.5437
 2591SOL    HW219407   1.423   3.444   2.936 -1.8295 -1.9939  0.5526
 2592SOL     OW19408   3.753   1.229   4.613 -0.2861 -0.3797  0.3455
 2592SOL    HW119409   3.839   1.264   4.590 -0.5666 -0.6738 -1.1451
 2592SOL    HW219410   3.739   1.239   4.708  0.4306  1.2531  0.2706
 2593SOL     OW19411   1.802   2.910  10.123  0.5225 -0.6749  0.0963
 2593SOL    HW119412   1.780   2.885  10.213  1.1032 -1.6362 -0.0341
 2593SOL    HW219413   1.850   2.988  10.151  0.9748 -0.7812 -0.4010
 2594SOL     OW19414   2.871   2.412   4.846 -0.3142 -0.5728 -0.6110
 2594SOL    HW119415   2.886   2.483   4.783  0.2282  0.9786  1.2837
 2594SOL    HW219416   2.789   2.379   4.809  0.0109 -0.3989 -1.4912
 2595SOL     OW19417   0.336   0.136   3.020  0.1676  0.1095  0.3952
 2595SOL    HW119418   0.375   0.218   3.050 -1.9453  0.9614  0.7685
 2595SOL    HW219419   0.384   0.072   3.073 -1.0748  0.1656  1.5760
 2596SOL     OW19420   0.312   0.900   8.152 -0.2235 -0.5396 -0.1390
 2596SOL    HW119421   0.261   0.911   8.072 -1.4684 -0.8046  0.6110
 2596SOL    HW219422   0.296   0.806   8.156 -0.8088 -0.4891 -1.1038
 2597SOL     OW19423   2.670   1.896  12.276 -0.0275 -0.1481  0.3692
 2597SOL    HW119424   2.639   1.895  12.366 -0.1080  0.6817  0.3481
 2597SOL    HW219425   2.659   1.990  12.260  2.8959  0.3660  1.2539
 2598SOL     OW19426   1.498   4.475   6.790 -0.5739  0.1003  0.1863
 2598SOL    HW119427   1.550   4.394   6.793 -1.8484 -0.7209  0.1834
 2598SOL    HW219428   1.408   4.444   6.781 -0.8412  0.8295  0.3441
 2599SOL     OW19429   2.174   1.685   4.036 -0.1616 -0.1943  0.1966
 2599SOL    HW119430   2.135   1.770   4.017 -0.2455 -0.4605 -0.8100
 2599SOL    HW219431   2.220   1.664   3.955 -0.5617  0.0131 -0.0793
 2600SOL     OW19432   4.017   3.053   5.956  0.6811  0.6867 -0.2437
 2600SOL    HW119433   3.987   3.040   5.866 -0.5781 -0.3049  0.3170
 2600SOL    HW219434   3.955   3.000   6.008  1.5180 -2.7542 -2.7460
 2601SOL     OW19435   1.648   0.019   2.007  0.6404 -0.3464 -0.8532
 2601SOL    HW119436   1.581   4.704   2.048  0.2428  2.4092  2.1413
 2601SOL    HW219437   1.723   4.699   2.016 -0.2593 -1.7035 -2.3387
 2602SOL     OW19438   3.174   2.846   8.157 -0.3833  0.3091  0.3985
 2602SOL    HW119439   3.175   2.808   8.069 -3.0612  2.0930 -0.3871
 2602SOL    HW219440   3.196   2.766   8.205 -2.1490 -0.8553 -0.7417
 2603SOL     OW19441   2.668   0.082   7.419 -0.8482 -0.0110  0.2216
 2603SOL    HW119442   2.605   0.152   7.439  1.6167  2.1019  0.5907
 2603SOL    HW219443   2.738   0.132   7.377 -0.8443 -2.7397 -2.9752
 2604SOL     OW19444   4.020   0.856   4.247  0.2024 -0.9197 -0.1989
 2604SOL    HW119445   3.942   0.882   4.198  1.2148  1.6187 -0.4752
 2604SOL    HW219446   3.997   0.888   4.335  0.6196  0.0892 -0.4520
 2605SOL     OW19447   0.151   3.298  14.841 -0.2056  0.3392  0.8032
 2605SOL    HW119448   0.238   3.262  14.821 -1.4622 -1.7091 -0.9984
 2605SOL    HW219449   0.158   3.386  14.878  0.6000  0.4223  0.4608
 2606SOL     OW19450   1.028   1.652   3.084  0.3996 -0.0780  0.1974
 2606SOL    HW119451   0.958   1.697   3.131 -0.8755 -2.9012  0.9675
 2606SOL    HW219452   1.050   1.730   3.033  0.1756 -1.0520 -1.3917
 2607SOL     OW19453   4.573   1.301  16.496  0.0256  0.1828  0.0912
 2607SOL    HW119454   4.487   1.312  16.455 -0.0989  1.5654  0.7313
 2607SOL    HW219455   4.567   1.349  16.579  3.5548 -0.1175  0.5004
 2608SOL     OW19456   2.755   2.270  14.868  0.0397 -0.3217  0.2694
 2608SOL    HW119457   2.770   2.312  14.952 -1.4434  3.1655 -1.2133
 2608SOL    HW219458   2.759   2.181  14.901  1.2892 -0.9161 -1.4608
 2609SOL     OW19459   1.773   3.866   4.263 -0.8153  0.1196  0.5170
 2609SOL    HW119460   1.734   3.781   4.244 -1.0389 -0.3267  2.9704
 2609SOL    HW219461   1.822   3.898   4.187 -3.0753  0.5631 -0.7463
 2610SOL     OW19462   3.535   1.087   2.489  0.3210  0.1106  0.5796
 2610SOL    HW119463   3.590   1.009   2.500 -1.6950 -1.3928  0.0811
 2610SOL    HW219464   3.454   1.045   2.461  1.0223  0.9029 -2.6164
 2611SOL     OW19465   3.416   0.374   7.990 -0.6242 -0.0367  0.3191
 2611SOL    HW119466   3.507   0.349   7.972 -0.2152  0.6208  1.5000
 2611SOL    HW219467   3.392   0.308   8.056 -0.3739 -1.3611 -0.9157
 2612SOL     OW19468   1.185   0.120   9.429  0.4023  0.9235  0.5887
 2612SOL    HW119469   1.275   0.107   9.400  0.9659  2.8966  1.4873
 2612SOL    HW219470   1.154   0.029   9.419 -1.3376  1.3629  1.8240
 2613SOL     OW19471   3.617   3.530   5.303  0.5174  0.1074  0.6398
 2613SOL    HW119472   3.701   3.502   5.266  2.4589  2.6228  3.1725
 2613SOL    HW219473   3.638   3.611   5.349 -0.3098  1.2227 -0.9425
 2614SOL     OW19474   3.637   4.283   4.397 -0.2869  0.0131  0.0671
 2614SOL    HW119475   3.620   4.368   4.436  0.2899  0.4988 -0.7480
 2614SOL    HW219476   3.593   4.301   4.314 -1.1970  1.3032  0.8347
 2615SOL     OW19477   0.717   0.031  15.334  0.2763  0.1066  0.3080
 2615SOL    HW119478   0.791   0.088  15.354  1.2442  0.0743 -3.1732
 2615SOL    HW219479   0.734   0.014  15.242  0.9321 -0.1067  0.4654
 2616SOL     OW19480   2.925   4.509  10.431  0.0275  0.0113  0.1560
 2616SOL    HW119481   2.858   4.570  10.460 -0.5580 -1.1266  1.1724
 2616SOL    HW219482   2.872   4.444  10.384  2.2754 -1.0812 -0.8836
 2617SOL     OW19483   2.145   2.292   9.026 -0.0752 -0.5083  0.0170
 2617SOL    HW119484   2.224   2.340   9.049  2.0670 -3.9746 -0.1623
 2617SOL    HW219485   2.175   2.202   9.026 -0.0539 -0.5050  2.6659
 2618SOL     OW19486   1.856   0.809   2.242 -0.1114  0.3068  0.1630
 2618SOL    HW119487   1.823   0.802   2.331  1.6344  0.4066  0.8214
 2618SOL    HW219488   1.856   0.904   2.238  0.6998  0.3161  0.4306
 2619SOL     OW19489   1.836   0.332  12.101 -0.3226 -0.1768  0.0183
 2619SOL    HW119490   1.880   0.353  12.019 -1.7509  1.9813 -0.2018
 2619SOL    HW219491   1.745   0.340  12.069 -0.1538  2.0486  0.0735
 2620SOL     OW19492   0.666   3.039  13.331 -0.5115  0.0106  0.3383
 2620SOL    HW119493   0.623   3.048  13.246 -0.5496 -4.8452 -0.1575
 2620SOL    HW219494   0.690   3.130  13.352 -0.7646  0.7962 -2.8252
 2621SOL     OW19495   1.894   3.653   6.739 -0.7259  0.7137  0.3734
 2621SOL    HW119496   1.842   3.704   6.802  0.0638 -0.9014  2.3186
 2621SOL    HW219497   1.966   3.715   6.723  1.4594 -2.2796 -1.3054
 2622SOL     OW19498   0.307   1.241   8.005  0.1168  0.0229 -0.1576
 2622SOL    HW119499   0.378   1.289   7.963 -0.5952  0.8886 -0.3729
 2622SOL    HW219500   0.350   1.156   7.995 -1.8913 -0.7418 -2.2740
 2623SOL     OW19501   3.187   1.141   7.382 -0.2879 -0.0626 -0.0428
 2623SOL    HW119502   3.210   1.130   7.290  1.7809  2.6356  0.1256
 2623SOL    HW219503   3.199   1.050   7.408  0.0510 -0.3623 -1.2648
 2624SOL     OW19504   0.222   0.173   9.632  0.1485  0.2616 -0.2332
 2624SOL    HW119505   0.135   0.138   9.616  0.1170  0.8648 -1.3610
 2624SOL    HW219506   0.200   0.222   9.712  0.6959  1.6948 -0.9595
 2625SOL     OW19507   3.754   2.099   6.234 -0.0205  0.5669  0.0800
 2625SOL    HW119508   3.671   2.088   6.280  0.1621 -0.5621  0.1497
 2625SOL    HW219509   3.738   2.174   6.176  0.7432  1.6070  1.2253
 2626SOL     OW19510   4.715   0.955  15.543  0.1304  0.6333 -0.1880
 2626SOL    HW119511   4.699   1.017  15.472  1.2358  1.0602 -0.0644
 2626SOL    HW219512   4.630   0.953  15.588  0.9681 -0.9409  1.3617
 2627SOL     OW19513   4.525   3.642   5.175  0.2325 -0.4269 -0.2306
 2627SOL    HW119514   4.543   3.558   5.132  0.1411  0.7523 -2.5454
 2627SOL    HW219515   4.595   3.648   5.240  1.4378 -1.2922 -1.4406
 2628SOL     OW19516   3.815   0.367   9.204 -0.2805 -0.4212 -0.0060
 2628SOL    HW119517   3.821   0.447   9.152  0.1293 -0.5533 -0.1591
 2628SOL    HW219518   3.759   0.393   9.277  1.5634  1.1350  0.8661
 2629SOL     OW19519   2.558   3.816   3.538 -0.4714  0.0529  0.1164
 2629SOL    HW119520   2.513   3.789   3.618  0.2204 -2.8206 -0.4781
 2629SOL    HW219521   2.501   3.889   3.514 -0.1175  0.8805  1.7599
 2630SOL     OW19522   3.742   0.126   9.053 -0.0238 -0.0269 -0.5374
 2630SOL    HW119523   3.814   0.134   8.991  1.2255  0.8748  1.0151
 2630SOL    HW219524   3.755   0.211   9.096 -0.2260  0.0941 -0.7130
 2631SOL     OW19525   3.669   2.863   6.352  0.1277  0.2474 -0.5990
 2631SOL    HW119526   3.727   2.792   6.381 -0.8829 -0.5911 -0.6546
 2631SOL    HW219527   3.636   2.885   6.440  2.8518 -0.2406  0.5612
 2632SOL     OW19528   2.878   0.464   2.198  0.5568  0.0577 -0.1750
 2632SOL    HW119529   2.973   0.476   2.194  0.3091  2.0574 -0.0507
 2632SOL    HW219530   2.860   0.484   2.289 -0.6425  0.1942 -0.4434
 2633SOL     OW19531   3.437   3.043   2.237  0.4890  0.1849  0.3478
 2633SOL    HW119532   3.500   3.105   2.273 -0.2496  0.7046  0.7447
 2633SOL    HW219533   3.376   3.107   2.201  1.6368  0.4108 -1.2003
 2634SOL     OW19534   4.732   2.189   4.453  0.4291  0.5141 -0.3182
 2634SOL    HW119535   0.000   2.234   4.369 -0.5846  1.0126 -0.1481
 2634SOL    HW219536   4.658   2.131   4.442  0.1964  0.5235  1.1127
 2635SOL     OW19537   0.339   4.566   3.177  0.6231  0.4772  0.6850
 2635SOL    HW119538   0.247   4.561   3.149  0.9465  0.8951 -0.4413
 2635SOL    HW219539   0.327   4.548   3.271  0.2983  1.5715  0.8602
 2636SOL     OW19540   4.168   0.399  11.015  0.0133  0.2720 -0.3154
 2636SOL    HW119541   4.255   0.376  10.983 -1.1382 -1.3360 -2.2947
 2636SOL    HW219542   4.186   0.482  11.058  1.8002  0.3268 -1.1796
 2637SOL     OW19543   4.227   2.154   3.017 -0.2150 -0.0376  0.1456
 2637SOL    HW119544   4.138   2.179   2.993 -0.3092 -1.9372 -1.4207
 2637SOL    HW219545   4.249   2.078   2.963 -1.7770 -0.0999 -0.4069
 2638SOL     OW19546   4.077   0.754   1.192 -0.5125  0.0229 -0.0785
 2638SOL    HW119547   4.125   0.673   1.208  0.9597  1.5728  3.3085
 2638SOL    HW219548   4.146   0.784   1.132 -1.1595  1.2767 -0.1894
 2639SOL     OW19549   2.103   1.984  14.488 -0.2806  0.1840  0.1739
 2639SOL    HW119550   2.084   1.963  14.579 -0.5756 -1.4942 -0.2829
 2639SOL    HW219551   2.194   2.011  14.501  0.1141  0.0980 -2.4494
 2640SOL     OW19552   3.894   4.221  16.564  0.0603 -0.4790  0.1235
 2640SOL    HW119553   3.955   4.187  16.498  2.1592 -0.9235  2.3135
 2640SOL    HW219554   3.952   4.245  16.636  2.3617 -2.8520 -0.9052
 2641SOL     OW19555   2.207   3.387   2.023 -0.4545 -0.2614 -0.0441
 2641SOL    HW119556   2.197   3.472   1.979 -0.7227 -0.5217 -0.4767
 2641SOL    HW219557   2.167   3.333   1.956 -0.0543 -0.5100 -0.0797
 2642SOL     OW19558   3.255   4.658   6.920 -0.7803 -0.2778  0.3079
 2642SOL    HW119559   3.348   4.668   6.902 -1.3044  3.9286 -0.0093
 2642SOL    HW219560   3.232   0.005   6.954 -1.7488 -0.5771  0.4229
 2643SOL     OW19561   1.806   4.329   3.479 -0.2982 -0.1370 -0.2393
 2643SOL    HW119562   1.798   4.273   3.402  0.1094 -0.8794  0.2441
 2643SOL    HW219563   1.715   4.328   3.508  0.3426 -0.1325  1.7705
 2644SOL     OW19564   0.295   3.394  12.565  0.0423 -0.1985  0.2101
 2644SOL    HW119565   0.200   3.385  12.565  0.0790 -0.5731 -1.2463
 2644SOL    HW219566   0.326   3.317  12.613 -0.1773 -0.7516 -0.5364
 2645SOL     OW19567   3.605   2.492   7.160 -0.3619 -0.0583  0.6272
 2645SOL    HW119568   3.566   2.406   7.147 -1.6118  0.7964 -1.1344
 2645SOL    HW219569   3.628   2.507   7.069  1.6717 -0.7650  1.0178
 2646SOL     OW19570   0.186   4.224   3.511 -0.0607  0.2826  0.2070
 2646SOL    HW119571   0.147   4.144   3.473 -2.3570  1.7136 -0.4469
 2646SOL    HW219572   0.158   4.294   3.452 -1.9617 -1.3416 -0.8754
 2647SOL     OW19573   4.188   2.248  12.262  0.0629  0.4729 -0.4775
 2647SOL    HW119574   4.162   2.310  12.194 -1.2681 -1.3116 -1.5861
 2647SOL    HW219575   4.207   2.303  12.338 -0.7410  1.0940 -0.7341
 2648SOL     OW19576   0.741   4.446  17.195 -1.1283 -0.1101 -0.4857
 2648SOL    HW119577   0.793   4.504  17.139  0.9247 -1.0061  0.5176
 2648SOL    HW219578   0.664   4.423  17.142 -1.2040  0.2181 -0.5148
 2649SOL     OW19579   3.897   1.927   4.969 -0.3298  0.0885 -0.1240
 2649SOL    HW119580   3.978   1.929   4.918 -0.7526 -1.3776 -0.8693
 2649SOL    HW219581   3.839   1.982   4.916 -2.1023 -1.0494  0.6305
 2650SOL     OW19582   1.924   3.837   1.987 -0.6997 -0.5476  0.0663
 2650SOL    HW119583   1.905   3.930   1.981 -1.5627 -0.7734 -0.7508
 2650SOL    HW219584   1.882   3.806   1.907 -0.1767 -1.0881 -0.0018
 2651SOL     OW19585   0.514   0.650   4.438 -0.7108 -0.1719 -0.1032
 2651SOL    HW119586   0.550   0.737   4.456 -1.1316  0.1264 -0.7080
 2651SOL    HW219587   0.422   0.672   4.429 -0.6734  0.1318  0.2493
 2652SOL     OW19588   2.028   1.084   5.800  0.0729  0.0182  0.0329
 2652SOL    HW119589   2.045   0.990   5.790 -1.9555 -0.4674  1.1435
 2652SOL    HW219590   2.120   1.108   5.801  0.7840 -2.6333 -1.7083
 2653SOL     OW19591   2.966   1.349   3.748  0.1259  0.5876 -0.4127
 2653SOL    HW119592   3.029   1.285   3.714  0.4787  0.9351 -0.4110
 2653SOL    HW219593   3.031   1.419   3.752  0.6184  0.0532  1.4408
 2654SOL     OW19594   0.089   2.384   8.355 -0.1653 -0.3004 -0.2425
 2654SOL    HW119595   4.739   2.406   8.379  0.1112  1.8763 -1.1975
 2654SOL    HW219596   0.104   2.336   8.436  2.1326  0.9718  0.1149
 2655SOL     OW19597   3.687   0.282   5.948 -0.6942  0.5093  0.1547
 2655SOL    HW119598   3.622   0.337   5.991  0.5216  1.6118  0.5723
 2655SOL    HW219599   3.733   0.345   5.893 -4.6362  1.7161 -1.7075
 2656SOL     OW19600   1.153   2.995   4.361 -0.0273  0.2986  0.1150
 2656SOL    HW119601   1.090   3.043   4.415  2.8406  2.0902  1.8545
 2656SOL    HW219602   1.163   2.910   4.405  1.1442 -0.6598 -1.9929
 2657SOL     OW19603   2.965   3.120  16.724  0.5848  0.3290 -0.3347
 2657SOL    HW119604   2.924   3.207  16.722  0.3772  0.2561  0.6359
 2657SOL    HW219605   2.906   3.073  16.664  0.6130  0.3027 -0.3416
 2658SOL     OW19606   4.600   3.908  10.360  0.4279 -0.0267 -0.1184
 2658SOL    HW119607   4.684   3.869  10.336 -0.3767 -1.6190 -0.3104
 2658SOL    HW219608   4.576   3.841  10.424 -2.2305  1.0969  0.0576
 2659SOL     OW19609   3.859   4.551   2.592  0.1136  0.3458  0.4885
 2659SOL    HW119610   3.864   4.609   2.516 -0.7249 -0.1908  0.0177
 2659SOL    HW219611   3.882   4.612   2.661 -2.0504  1.1179  0.5192
 2660SOL     OW19612   4.033   0.823   8.654  0.2453  0.4842  0.2080
 2660SOL    HW119613   4.036   0.794   8.745  1.5200 -1.3846 -0.4445
 2660SOL    HW219614   3.965   0.890   8.664 -3.6066 -3.1401 -1.7359
 2661SOL     OW19615   2.867   3.492   9.125  0.5033 -0.6535  0.1317
 2661SOL    HW119616   2.937   3.463   9.183  0.2527 -0.3931  0.5705
 2661SOL    HW219617   2.813   3.545   9.184  0.0815  1.2169 -1.9142
 2662SOL     OW19618   0.703   1.402   7.550 -0.8180 -0.0904 -0.0657
 2662SOL    HW119619   0.646   1.411   7.474 -3.7672 -0.7037  2.1039
 2662SOL    HW219620   0.655   1.342   7.607 -1.7999  0.1890 -0.5989
 2663SOL     OW19621   3.974   3.804  15.324 -0.2526 -0.5564  0.1741
 2663SOL    HW119622   3.881   3.801  15.301 -0.8792 -1.9368  2.8711
 2663SOL    HW219623   4.006   3.741  15.259 -2.5949 -2.5721  0.9431
 2664SOL     OW19624   2.562   1.033   5.733 -0.0854  0.1053  0.1640
 2664SOL    HW119625   2.517   1.094   5.791  1.7167  0.0209  1.6752
 2664SOL    HW219626   2.498   1.033   5.663 -1.7606  0.2196  1.6866
 2665SOL     OW19627   0.236   4.203   6.293  0.0377  0.0826  0.0857
 2665SOL    HW119628   0.306   4.142   6.270 -0.5396 -0.8768  0.8555
 2665SOL    HW219629   0.173   4.139   6.326  2.3529 -1.3251  1.8020
 2666SOL     OW19630   1.665   2.273   9.440 -0.2069  0.0751 -0.2749
 2666SOL    HW119631   1.609   2.337   9.484 -2.1248 -0.6094 -1.7589
 2666SOL    HW219632   1.739   2.331   9.422  0.7737 -0.9425  0.4408
 2667SOL     OW19633   2.655   1.760   3.261 -0.0659  0.2627  0.6483
 2667SOL    HW119634   2.743   1.741   3.228 -0.8169  0.0115 -1.1684
 2667SOL    HW219635   2.625   1.834   3.209  0.0427  0.1387  0.4076
 2668SOL     OW19636   3.335   1.128   1.780  0.1461  0.2168  0.1764
 2668SOL    HW119637   3.359   1.053   1.725  1.9186 -0.6326  2.0993
 2668SOL    HW219638   3.255   1.153   1.734  1.5198  0.9293 -1.8008
 2669SOL     OW19639   3.430   2.719  16.747  0.1584 -0.4324 -0.2175
 2669SOL    HW119640   3.429   2.812  16.770 -1.6748 -0.7205  0.8180
 2669SOL    HW219641   3.525   2.712  16.760  0.4062  0.5410 -1.4409
 2670SOL     OW19642   2.294   0.985   2.339  0.2348  0.3363  0.2694
 2670SOL    HW119643   2.372   0.930   2.331 -0.5095 -0.4652 -1.5094
 2670SOL    HW219644   2.296   1.019   2.250 -0.0324 -0.9728 -0.2386
 2671SOL     OW19645   0.235   4.585  12.609  0.1612  0.3688 -0.4201
 2671SOL    HW119646   0.329   4.603  12.603  0.2011  0.2166 -0.2682
 2671SOL    HW219647   0.243   4.494  12.580 -0.6166 -0.5376  2.1337
 2672SOL     OW19648   0.839   1.682   8.813 -0.6304  0.2507  0.2409
 2672SOL    HW119649   0.764   1.637   8.775 -2.2695 -0.6508  4.5348
 2672SOL    HW219650   0.918   1.656   8.765  0.1204  0.7146  1.2294
 2673SOL     OW19651   3.620   1.550   4.674  0.1186 -0.3730  0.2242
 2673SOL    HW119652   3.596   1.633   4.716 -2.3600  0.0178 -1.9996
 2673SOL    HW219653   3.676   1.524   4.748 -1.3459 -1.6274  0.8944
 2674SOL     OW19654   2.139   3.354  11.323  0.0334  0.0040 -0.2150
 2674SOL    HW119655   2.107   3.322  11.408  0.3669  1.0587  0.3104
 2674SOL    HW219656   2.233   3.340  11.335  0.0295  0.9821  1.0722
 2675SOL     OW19657   0.358   1.831   3.512  0.3246 -0.4466  0.0140
 2675SOL    HW119658   0.270   1.845   3.546 -0.1015 -1.7908 -0.5203
 2675SOL    HW219659   0.378   1.920   3.483 -0.8989 -0.4603 -0.8506
 2676SOL     OW19660   0.936   1.227   7.844 -0.4418 -0.1449 -0.0022
 2676SOL    HW119661   0.845   1.206   7.822 -0.5126  1.7593 -1.5447
 2676SOL    HW219662   0.971   1.223   7.755  1.4596 -3.5826  0.9501
 2677SOL     OW19663   2.423   0.916   1.858 -0.2622 -0.3004  0.3475
 2677SOL    HW119664   2.427   0.859   1.781  1.2476 -0.4210  0.5151
 2677SOL    HW219665   2.499   0.971   1.835 -0.0312 -1.0384 -0.6540
 2678SOL     OW19666   4.225   0.617   5.025 -0.3407 -0.4282 -0.3404
 2678SOL    HW119667   4.242   0.534   5.071  2.7234  1.1213  1.3063
 2678SOL    HW219668   4.164   0.581   4.960  0.0229  0.7637 -1.3309
 2679SOL     OW19669   3.691   0.992   8.907 -0.1528 -0.4729  0.1423
 2679SOL    HW119670   3.781   0.964   8.890 -0.0383 -0.6614  1.0560
 2679SOL    HW219671   3.674   0.940   8.986  0.0969  0.3140  0.7112
 2680SOL     OW19672   1.286   2.381   3.977  0.0667  0.2057  0.2142
 2680SOL    HW119673   1.311   2.384   3.885  1.2913  0.6346  0.5621
 2680SOL    HW219674   1.197   2.347   3.982  0.3865 -0.9243 -1.7549
 2681SOL     OW19675   3.640   2.028   9.128 -0.1955 -0.2683  0.2384
 2681SOL    HW119676   3.706   2.046   9.195  0.8521 -0.9528 -0.6211
 2681SOL    HW219677   3.655   1.934   9.114 -2.9916 -0.5601 -0.9695
 2682SOL     OW19678   1.307   0.355   8.904 -0.7269 -0.6286  0.0558
 2682SOL    HW119679   1.243   0.295   8.943 -0.4320 -1.3267 -0.5382
 2682SOL    HW219680   1.359   0.371   8.982  1.5479 -1.4784 -1.2907
 2683SOL     OW19681   1.981   0.413   3.401 -0.2172  0.3262 -0.2964
 2683SOL    HW119682   1.937   0.463   3.470  0.6341  1.6963 -0.7468
 2683SOL    HW219683   1.943   0.448   3.321  1.8236  0.7673 -1.0786
 2684SOL     OW19684   0.937   1.846   4.091  0.2546 -0.3559  0.6158
 2684SOL    HW119685   0.848   1.879   4.102  0.2065 -0.0304 -0.8377
 2684SOL    HW219686   0.979   1.918   4.045 -1.8728 -0.3982 -1.4052
 2685SOL     OW19687   3.692   1.408   7.528 -0.0436  0.0015 -0.4217
 2685SOL    HW119688   3.735   1.334   7.571  2.0325  0.8108 -1.0691
 2685SOL    HW219689   3.772   1.447   7.492  0.2788  2.9539  3.5201
 2686SOL     OW19690   4.130   1.448   9.123 -0.3054  0.0779 -0.1185
 2686SOL    HW119691   4.109   1.540   9.142  1.1138  0.3566  0.1514
 2686SOL    HW219692   4.042   1.410   9.126 -0.6787  1.1282  2.3606
 2687SOL     OW19693   4.520   3.448   9.342  0.1034  0.0853 -0.6434
 2687SOL    HW119694   4.514   3.363   9.297  3.3921 -0.8828  0.7372
 2687SOL    HW219695   4.498   3.506   9.269 -0.3947  1.6071  0.7329
 2688SOL     OW19696   3.948   2.340  16.501  0.5522 -0.2204 -0.2189
 2688SOL    HW119697   3.953   2.432  16.528 -1.0552 -1.0285  2.8063
 2688SOL    HW219698   3.871   2.307  16.547  1.1581  0.5279  1.3249
 2689SOL     OW19699   3.981   4.567   4.408 -0.1558 -0.0997 -0.0190
 2689SOL    HW119700   3.994   4.587   4.500 -4.0067  0.6893  0.3542
 2689SOL    HW219701   3.954   4.475   4.412  1.3935 -0.6337 -1.6397
 2690SOL     OW19702   4.030   0.274   7.053 -0.1837 -0.0178 -0.0763
 2690SOL    HW119703   4.095   0.205   7.044  0.0142 -0.2722  3.2313
 2690SOL    HW219704   3.964   0.214   7.089  0.8780  0.4016  2.6267
 2691SOL     OW19705   0.321   3.645   8.239 -0.2395 -0.5388  0.1467
 2691SOL    HW119706   0.370   3.662   8.159 -2.6110  0.2705 -1.1522
 2691SOL    HW219707   0.312   3.729   8.283  0.3268 -0.6960  0.5564
 2692SOL     OW19708   3.928   0.293   4.976  0.1271  0.1637 -0.3283
 2692SOL    HW119709   3.844   0.340   4.975  1.2740  2.2247  0.7638
 2692SOL    HW219710   3.947   0.277   4.884 -1.7106  0.3253 -0.7507
 2693SOL     OW19711   1.051   4.448  10.457 -0.2268  0.4725 -0.0403
 2693SOL    HW119712   1.009   4.410  10.534  2.0008 -0.0884  0.9066
 2693SOL    HW219713   0.981   4.484  10.403  1.6246  1.6643 -1.6516
 2694SOL     OW19714   3.735   1.884   3.700  0.3297  0.6065  0.2564
 2694SOL    HW119715   3.812   1.857   3.651  0.8264 -1.2667  2.0760
 2694SOL    HW219716   3.755   1.970   3.736 -0.9747  0.6342  0.9346
 2695SOL     OW19717   0.112   2.088   7.223  0.1645  0.3199 -1.0350
 2695SOL    HW119718   0.034   2.099   7.277 -0.7053 -2.6247 -1.6955
 2695SOL    HW219719   0.104   2.170   7.173  0.6635  0.8355 -0.2684
 2696SOL     OW19720   4.108   2.649   2.667 -0.4130 -0.2232  0.2819
 2696SOL    HW119721   4.177   2.621   2.607 -1.1146  0.6670 -0.9549
 2696SOL    HW219722   4.152   2.643   2.752  2.1471  0.7000 -0.9813
 2697SOL     OW19723   2.700   3.741  12.831 -0.3944  0.3765 -0.2376
 2697SOL    HW119724   2.725   3.832  12.848  1.0321 -0.3795  1.7218
 2697SOL    HW219725   2.615   3.752  12.788  0.0610  0.7850 -1.0256
 2698SOL     OW19726   0.015   2.272   7.634 -0.1261  0.1995  0.0341
 2698SOL    HW119727   0.075   2.251   7.705 -0.8944  2.6041  1.4131
 2698SOL    HW219728   4.726   2.360   7.658  1.1088  0.7249 -0.4391
 2699SOL     OW19729   1.630   1.951   0.402  0.0989 -0.1549 -0.0849
 2699SOL    HW119730   1.569   2.009   0.356  2.0833  1.1783 -0.9916
 2699SOL    HW219731   1.632   1.875   0.343  0.9571  0.4515 -0.8227
 2700SOL     OW19732   0.981   3.858  13.902 -0.2764  0.3572  0.0974
 2700SOL    HW119733   1.034   3.928  13.863  0.2848 -1.0645 -1.6462
 2700SOL    HW219734   0.932   3.823  13.827 -2.2884 -1.4051  2.2359
 2701SOL     OW19735   4.243   0.138  11.172  0.6830  0.1451 -0.0364
 2701SOL    HW119736   4.277   0.181  11.093 -1.2111 -2.7646 -2.4273
 2701SOL    HW219737   4.192   0.070  11.129 -0.3930 -1.3941  3.7090
 2702SOL     OW19738   1.561   2.228  16.443 -0.6059  0.3227 -0.8639
 2702SOL    HW119739   1.485   2.280  16.469 -1.1132 -0.3653 -0.9711
 2702SOL    HW219740   1.532   2.215  16.353  0.3836 -0.4774 -1.0728
 2703SOL     OW19741   1.413   4.720   7.792  0.0778  0.5100 -0.1661
 2703SOL    HW119742   1.454   4.648   7.743  1.1668  1.5749 -0.8181
 2703SOL    HW219743   1.401   0.038   7.716  2.3748  1.1606 -0.0288
 2704SOL     OW19744   0.613   1.370  12.150 -0.2717 -0.2192  0.1123
 2704SOL    HW119745   0.614   1.397  12.058 -1.4906 -2.0308 -0.4488
 2704SOL    HW219746   0.588   1.450  12.195  2.7098 -0.8087  2.8774
 2705SOL     OW19747   1.269   0.328  17.714  0.2397  0.1214  0.3293
 2705SOL    HW119748   1.267   0.292  17.626  1.6286  0.1147  0.3013
 2705SOL    HW219749   1.238   0.417  17.698 -0.4263 -0.4193 -1.2976
 2706SOL     OW19750   0.834   1.520   5.518 -0.4679 -0.6130  0.2831
 2706SOL    HW119751   0.819   1.614   5.504 -0.8674 -0.7856 -0.4288
 2706SOL    HW219752   0.928   1.504   5.509 -1.0601 -2.1646 -3.1459
 2707SOL     OW19753   3.462   3.185   6.816  0.2601 -0.0599  0.6827
 2707SOL    HW119754   3.483   3.267   6.770 -0.2035  0.5714  1.6099
 2707SOL    HW219755   3.551   3.159   6.842  0.2756 -1.0387 -0.3341
 2708SOL     OW19756   2.875   0.157   3.718  0.0082 -0.2916  0.1592
 2708SOL    HW119757   2.794   0.176   3.765 -0.9727  0.3324 -1.7432
 2708SOL    HW219758   2.929   0.187   3.790  1.4502 -0.5836 -0.8013
 2709SOL     OW19759   1.294   2.714   3.963 -0.6884  0.0930 -0.0148
 2709SOL    HW119760   1.281   2.657   4.038 -1.1351 -1.1918 -1.0847
 2709SOL    HW219761   1.279   2.796   4.010 -0.5093  0.4304 -0.5415
 2710SOL     OW19762   4.067   2.462   6.382 -0.0024 -0.0995 -0.1554
 2710SOL    HW119763   4.116   2.483   6.303 -0.2701  0.1544 -0.2546
 2710SOL    HW219764   4.124   2.413   6.440 -0.7751  0.4190  1.0385
 2711SOL     OW19765   1.294   1.351  13.597 -0.1975 -0.1709  0.4620
 2711SOL    HW119766   1.380   1.318  13.621 -0.2377  1.0523  2.2665
 2711SOL    HW219767   1.305   1.376  13.505  0.7447 -3.1450 -0.2339
 2712SOL     OW19768   0.650   0.145  14.207 -0.0574 -0.2270  1.0671
 2712SOL    HW119769   0.589   0.181  14.271 -0.5991  1.1575 -0.2126
 2712SOL    HW219770   0.660   0.052  14.226  3.0951 -0.2035 -0.4347
 2713SOL     OW19771   3.112   3.050   2.565  0.3017 -0.2992  0.8223
 2713SOL    HW119772   3.121   3.123   2.626 -2.4297  2.2136 -1.7901
 2713SOL    HW219773   3.205   3.026   2.564  0.4306  0.4696 -3.1340
 2714SOL     OW19774   0.174   4.227  17.689 -0.3697  0.2012 -0.0284
 2714SOL    HW119775   0.211   4.152  17.642  0.1209 -0.0540  0.7657
 2714SOL    HW219776   0.237   4.297  17.671  1.9100 -2.0798 -0.8361
 2715SOL     OW19777   4.331   0.791   7.220 -0.2348  0.6674  0.3333
 2715SOL    HW119778   4.336   0.698   7.242 -2.3064  0.8502  1.5693
 2715SOL    HW219779   4.307   0.830   7.304 -0.9039 -0.1280  0.5068
 2716SOL     OW19780   0.033   3.374   9.428 -0.6601  0.4857 -0.0112
 2716SOL    HW119781   0.082   3.371   9.510  2.1120 -2.7691 -1.8082
 2716SOL    HW219782   4.696   3.324   9.454 -0.0804 -0.1774  0.4093
 2717SOL     OW19783   4.061   3.763   7.103  0.1736 -0.1520 -0.7555
 2717SOL    HW119784   3.992   3.773   7.169  1.0427  1.6736 -0.1264
 2717SOL    HW219785   4.018   3.688   7.062  1.6678 -1.2968 -0.2203
 2718SOL     OW19786   1.359   4.482   1.411 -0.3419 -0.3516 -0.4727
 2718SOL    HW119787   1.397   4.396   1.393  2.4664  0.5514  1.0767
 2718SOL    HW219788   1.407   4.546   1.359  1.6699 -0.7379  0.8862
 2719SOL     OW19789   1.430   3.715   5.163  0.4205  0.1643  0.1286
 2719SOL    HW119790   1.464   3.660   5.092 -2.0587 -0.1954 -0.7792
 2719SOL    HW219791   1.339   3.724   5.135  0.3939 -0.8069 -0.1098
 2720SOL     OW19792   2.828   4.511   3.327  0.5308 -0.2324  0.3960
 2720SOL    HW119793   2.804   4.593   3.368 -0.5770 -1.2803  1.8423
 2720SOL    HW219794   2.737   4.479   3.322  0.4118  0.3962 -1.6892
 2721SOL     OW19795   4.189   1.634   4.427 -0.2293 -0.0195  0.1623
 2721SOL    HW119796   4.226   1.595   4.506 -0.2468 -1.6022 -0.5893
 2721SOL    HW219797   4.097   1.622   4.450 -0.0286  0.0888  1.0026
 2722SOL     OW19798   1.733   1.485   9.443 -0.1239 -0.6979  0.1871
 2722SOL    HW119799   1.737   1.470   9.537  1.1316  0.7078  0.3619
 2722SOL    HW219800   1.708   1.399   9.411 -3.1952 -0.2179  1.2802
 2723SOL     OW19801   1.132   2.564   8.312 -0.2405 -1.0845  0.0046
 2723SOL    HW119802   1.051   2.537   8.268  0.0414 -0.4537 -0.9105
 2723SOL    HW219803   1.106   2.655   8.330 -0.2488 -1.3826  1.5095
 2724SOL     OW19804   2.243   2.893  12.915  0.2189 -0.6499  0.5893
 2724SOL    HW119805   2.208   2.970  12.960 -2.4222 -2.2097  1.2013
 2724SOL    HW219806   2.333   2.921  12.895 -0.2094  0.3307  0.0428
 2725SOL     OW19807   0.050   0.508  13.958 -0.5089 -0.2898  0.5178
 2725SOL    HW119808   0.022   0.440  14.019 -3.0211 -2.2431 -2.7573
 2725SOL    HW219809   0.079   0.460  13.880  1.2613  0.3971  0.7683
 2726SOL     OW19810   0.377   1.786   5.303 -0.4775  0.5028  0.2716
 2726SOL    HW119811   0.298   1.837   5.319  0.3895  1.4299  1.5898
 2726SOL    HW219812   0.395   1.743   5.386 -1.2234  0.0866  0.2128
 2727SOL     OW19813   2.749   3.528   1.613  0.1507  0.2200  0.2651
 2727SOL    HW119814   2.827   3.549   1.561  0.3603 -1.2036  0.0162
 2727SOL    HW219815   2.767   3.439   1.641  1.7495  0.3547 -0.3458
 2728SOL     OW19816   1.186   2.116  12.713  0.0820  0.3396  0.0303
 2728SOL    HW119817   1.105   2.071  12.690  0.9881 -1.1109 -0.2868
 2728SOL    HW219818   1.232   2.043  12.756  3.1887  1.2788 -1.7178
 2729SOL     OW19819   3.912   0.777   3.200 -0.3843 -0.2882  0.0183
 2729SOL    HW119820   4.005   0.799   3.200 -0.1664 -1.2310 -0.5078
 2729SOL    HW219821   3.903   0.749   3.291 -2.2801  0.7969  0.1782
 2730SOL     OW19822   1.500   0.949   8.931 -0.0400 -0.1052 -0.1221
 2730SOL    HW119823   1.556   0.952   8.854  1.0060 -0.3002  0.6334
 2730SOL    HW219824   1.564   0.942   9.003  1.2074  0.3003 -1.2079
 2731SOL     OW19825   1.432   1.652  11.701 -0.6651  0.0889  0.4765
 2731SOL    HW119826   1.470   1.572  11.738 -2.4530 -1.6032 -1.3293
 2731SOL    HW219827   1.492   1.658  11.627 -1.2777  0.4426  0.0063
 2732SOL     OW19828   1.477   2.901   2.295  0.1072  0.2126  0.4471
 2732SOL    HW119829   1.394   2.942   2.272 -0.6463 -1.5414  0.0007
 2732SOL    HW219830   1.470   2.822   2.241 -1.1406  0.5658  0.1099
 2733SOL     OW19831   3.864   0.806   8.180  0.3347 -0.1708  0.1691
 2733SOL    HW119832   3.788   0.794   8.238 -1.4013  1.4985 -1.7348
 2733SOL    HW219833   3.902   0.888   8.211 -2.6890  0.4911  2.1701
 2734SOL     OW19834   4.591   4.718   7.490  0.1934 -0.5689  0.2981
 2734SOL    HW119835   4.617   4.645   7.547 -1.5133 -0.7371  0.8556
 2734SOL    HW219836   4.552   4.672   7.416  0.0819  0.7308 -0.4441
 2735SOL     OW19837   1.198   1.995   7.768  0.9345 -0.0607  0.3304
 2735SOL    HW119838   1.147   2.075   7.777  0.9664 -0.1683  1.4876
 2735SOL    HW219839   1.141   1.937   7.716 -0.0994  0.9694  0.3139
 2736SOL     OW19840   0.845   3.489   2.755  0.5949  0.2368 -0.3793
 2736SOL    HW119841   0.874   3.506   2.666 -1.4366 -0.2159 -1.1238
 2736SOL    HW219842   0.777   3.554   2.770  0.0113 -0.1701 -1.2547
 2737SOL     OW19843   1.643   0.230   8.522  0.6754  0.1168 -0.0245
 2737SOL    HW119844   1.596   0.152   8.493  1.0899 -1.2927  3.1123
 2737SOL    HW219845   1.573   0.263   8.579 -0.7177 -1.9190 -0.5575
 2738SOL     OW19846   0.460   3.222   9.625  0.0156 -0.1230  0.1923
 2738SOL    HW119847   0.462   3.314   9.597  0.5375  0.3794  1.8959
 2738SOL    HW219848   0.546   3.226   9.668  0.0484 -0.5618  0.1637
 2739SOL     OW19849   4.058   1.440   9.404  0.2382 -0.9704 -0.1654
 2739SOL    HW119850   4.111   1.519   9.414 -0.6897 -0.1350 -1.9151
 2739SOL    HW219851   4.025   1.428   9.493 -2.0909  0.6592 -0.8055
 2740SOL     OW19852   0.657   4.577  17.394 -0.2314  0.0876  0.0827
 2740SOL    HW119853   0.696   4.528  17.321  0.7797  2.5986 -1.0443
 2740SOL    HW219854   0.573   4.593  17.350  0.1029 -2.3496 -1.5063
 2741SOL     OW19855   0.537   4.736   3.109 -0.4477  0.3421 -0.2488
 2741SOL    HW119856   0.468   4.674   3.128  0.1411 -0.2501 -0.0536
 2741SOL    HW219857   0.604   4.672   3.086  0.5266  1.0470  0.6470
 2742SOL     OW19858   1.849   2.729   9.721 -0.5379  0.0793  0.1915
 2742SOL    HW119859   1.780   2.790   9.746 -0.6974  0.5668 -1.4296
 2742SOL    HW219860   1.929   2.781   9.731 -0.4414  0.1962 -1.1280
 2743SOL     OW19861   0.907   3.958   3.010  0.8968 -0.0177 -0.0280
 2743SOL    HW119862   0.845   3.962   2.937 -0.4039  2.4685  1.2229
 2743SOL    HW219863   0.947   4.044   3.001  1.4122 -0.5189 -2.3374
 2744SOL     OW19864   2.012   4.046   5.301  0.0854 -0.5183 -0.1505
 2744SOL    HW119865   1.934   4.060   5.248  0.0474 -1.7797 -0.4390
 2744SOL    HW219866   2.073   4.103   5.254 -1.6119  0.0196 -1.6704
 2745SOL     OW19867   4.525   4.692   1.599 -0.2435  0.2848  0.1353
 2745SOL    HW119868   4.463   4.662   1.533  0.3755  0.2232 -0.4137
 2745SOL    HW219869   4.464   0.017   1.634  0.0451  0.7628 -0.2450
 2746SOL     OW19870   0.196   2.146   1.814  0.6795 -0.3728  0.4215
 2746SOL    HW119871   0.167   2.236   1.797 -2.5757 -1.1731  1.7253
 2746SOL    HW219872   0.126   2.105   1.762  0.1903 -2.3689  2.6716
 2747SOL     OW19873   4.040   2.571   3.003  1.0164  0.5817  0.0186
 2747SOL    HW119874   3.979   2.499   2.987 -0.8355  2.6944 -2.3890
 2747SOL    HW219875   4.120   2.519   2.997  1.4662  1.0924  1.7247
 2748SOL     OW19876   2.194   2.122   0.620 -0.2905 -0.3717  0.1315
 2748SOL    HW119877   2.279   2.163   0.605 -1.1928  0.7728 -1.8972
 2748SOL    HW219878   2.149   2.127   0.536  1.2456 -2.2523 -0.8100
 2749SOL     OW19879   0.005   4.545   8.805 -0.1462  0.8105 -0.0256
 2749SOL    HW119880   0.077   4.559   8.743 -0.7768  0.9391 -0.7440
 2749SOL    HW219881   4.680   4.601   8.761  0.0918  0.2387 -1.1241
 2750SOL     OW19882   1.733   1.140   6.147  0.8176 -0.6627 -0.8398
 2750SOL    HW119883   1.703   1.136   6.057  1.0445 -1.3701 -0.8846
 2750SOL    HW219884   1.675   1.077   6.188  1.1651  0.4245  1.3882
 2751SOL     OW19885   2.702   1.470  16.686 -0.5577 -0.4408 -0.3012
 2751SOL    HW119886   2.724   1.471  16.780 -1.3424 -2.5912 -0.0937
 2751SOL    HW219887   2.690   1.376  16.677 -0.3426 -0.2276 -2.7811
 2752SOL     OW19888   1.967   1.442   4.420 -0.4740 -0.1255 -0.4201
 2752SOL    HW119889   1.877   1.411   4.407 -0.4000 -0.2002 -0.7364
 2752SOL    HW219890   1.968   1.499   4.343  1.9910 -1.3164 -1.2702
 2753SOL     OW19891   0.091   2.799   4.942  0.2391  0.4312  0.2789
 2753SOL    HW119892   0.167   2.767   4.991 -0.9644 -3.1053 -0.1024
 2753SOL    HW219893   0.019   2.736   4.951 -1.8258  2.8033  0.2347
 2754SOL     OW19894   2.284   2.878  10.098  0.3141 -0.4842  0.0259
 2754SOL    HW119895   2.328   2.795  10.082 -2.6077 -1.4306 -3.0803
 2754SOL    HW219896   2.195   2.845  10.084  0.1982 -0.4839  0.7407
 2755SOL     OW19897   4.092   1.309   7.549 -0.0542 -0.0459  0.4082
 2755SOL    HW119898   4.084   1.397   7.587 -1.2486 -0.1839  0.4797
 2755SOL    HW219899   4.157   1.270   7.608  1.1971  4.0886  1.7695
 2756SOL     OW19900   1.621   1.708  16.844 -0.5086  0.3205 -0.0800
 2756SOL    HW119901   1.660   1.632  16.801 -0.4079 -1.4806  3.1439
 2756SOL    HW219902   1.594   1.769  16.776  0.4384  2.2207  1.2372
 2757SOL     OW19903   0.789   4.453   6.300  0.3394 -0.1440 -0.2069
 2757SOL    HW119904   0.860   4.439   6.362 -0.6899 -1.7082  0.6068
 2757SOL    HW219905   0.751   4.367   6.285  0.6185 -0.1632 -0.8442
 2758SOL     OW19906   1.747   0.345   1.640  0.4109  0.0847 -0.4179
 2758SOL    HW119907   1.747   0.256   1.605 -1.5229  0.2891 -0.9358
 2758SOL    HW219908   1.837   0.370   1.617  0.4425  0.8594  0.5764
 2759SOL     OW19909   1.758   0.455   4.635  0.4170  0.0545  0.5196
 2759SOL    HW119910   1.815   0.379   4.638 -0.3296 -0.5899 -1.8218
 2759SOL    HW219911   1.823   0.519   4.607 -2.5666  2.4589 -0.9371
 2760SOL     OW19912   0.785   4.564  10.014  0.3767  0.6030 -0.7832
 2760SOL    HW119913   0.760   4.536  10.102  0.3207  0.7145 -0.7623
 2760SOL    HW219914   0.699   4.594   9.983 -0.3314  2.5351  2.9511
 2761SOL     OW19915   0.057   4.228   5.900  0.4582 -0.1348  0.5693
 2761SOL    HW119916   0.042   4.135   5.884 -0.0076  0.2062 -0.9442
 2761SOL    HW219917   4.704   4.250   5.912  0.4164 -0.0090 -0.0141
 2762SOL     OW19918   1.426   4.369  17.511 -0.8724 -0.3848 -0.0948
 2762SOL    HW119919   1.347   4.360  17.460 -2.8330 -0.0982  2.8736
 2762SOL    HW219920   1.487   4.400  17.444  0.2898  1.0400  1.6121
 2763SOL     OW19921   4.118   4.287   5.475 -0.1439 -0.0058  0.8686
 2763SOL    HW119922   4.171   4.254   5.403 -1.7612 -1.6080  0.4151
 2763SOL    HW219923   4.032   4.294   5.434 -0.2157 -2.6479  0.6150
 2764SOL     OW19924   3.982   3.744   4.776  0.0416 -0.5594 -0.5011
 2764SOL    HW119925   4.074   3.737   4.754 -0.3207 -0.5720 -2.0141
 2764SOL    HW219926   3.971   3.839   4.772 -0.3521 -0.3961  3.9416
 2765SOL     OW19927   1.925   0.266  10.156  0.2642 -0.3412  0.0053
 2765SOL    HW119928   2.009   0.309  10.139  0.9239 -2.1724 -1.3052
 2765SOL    HW219929   1.883   0.295  10.076 -1.8304 -0.3513  1.1183
 2766SOL     OW19930   3.933   4.511   5.613  0.0952  0.2451 -0.0322
 2766SOL    HW119931   3.924   4.545   5.524  0.3950 -1.2334 -0.6264
 2766SOL    HW219932   4.007   4.451   5.607  0.0316  0.2271 -0.6415
 2767SOL     OW19933   0.157   3.708   7.697 -0.1616  0.4365 -0.4908
 2767SOL    HW119934   0.122   3.656   7.625 -2.4098  1.6242 -0.2314
 2767SOL    HW219935   0.146   3.641   7.764  1.1450  1.1936  0.5126
 2768SOL     OW19936   0.144   1.218   5.987  0.0130 -0.6474  0.3124
 2768SOL    HW119937   0.236   1.225   6.013 -0.6167  0.1066  2.2879
 2768SOL    HW219938   0.120   1.137   6.032 -0.3716 -0.3271  0.6692
 2769SOL     OW19939   1.477   3.394   3.114 -0.0344 -0.0033 -0.0194
 2769SOL    HW119940   1.437   3.330   3.172 -2.0359  0.9350 -0.3965
 2769SOL    HW219941   1.472   3.469   3.173  2.1129  1.1558 -1.2769
 2770SOL     OW19942   4.408   0.602   8.009 -0.1692 -0.5975 -0.6555
 2770SOL    HW119943   4.363   0.542   8.069  1.1969 -1.3373 -0.3731
 2770SOL    HW219944   4.434   0.672   8.069  1.6277 -0.3170 -1.7610
 2771SOL     OW19945   0.808   1.212  12.198  0.1834 -0.6101 -0.0389
 2771SOL    HW119946   0.746   1.273  12.157 -0.6493  0.2568  2.4931
 2771SOL    HW219947   0.829   1.159  12.121  1.0846  1.3447 -1.1528
 2772SOL     OW19948   4.443   4.596   4.014  0.0247  0.0151 -0.1187
 2772SOL    HW119949   4.421   4.585   3.922  1.7622 -0.6082 -0.4572
 2772SOL    HW219950   4.357   4.579   4.053  0.0789 -0.7915 -0.3710
 2773SOL     OW19951   1.539   3.150   7.762 -0.6533  0.4600  0.4417
 2773SOL    HW119952   1.549   3.218   7.695  0.9144  0.8632  1.0627
 2773SOL    HW219953   1.605   3.174   7.827 -2.5354  3.1688  1.3239
 2774SOL     OW19954   1.977   0.616  16.682 -0.2011  0.3444  0.1989
 2774SOL    HW119955   1.923   0.561  16.625  1.4954 -0.6280 -0.4746
 2774SOL    HW219956   1.939   0.702  16.664  0.8097  1.2563  2.4097
 2775SOL     OW19957   1.669   1.966   5.557  0.0968  0.1074  0.0523
 2775SOL    HW119958   1.686   2.060   5.564 -0.0771  0.1536 -0.1531
 2775SOL    HW219959   1.650   1.939   5.647  2.1160  0.5150  0.6030
 2776SOL     OW19960   1.298   1.622  10.940  0.0477  0.6219  0.5067
 2776SOL    HW119961   1.326   1.704  10.900  0.0003  1.2802  1.8131
 2776SOL    HW219962   1.321   1.559  10.872  1.5211  2.2466 -0.4885
 2777SOL     OW19963   1.915   3.972   4.058 -0.7206 -0.0645  1.3281
 2777SOL    HW119964   1.871   3.916   3.995  0.9171  0.8981 -0.6511
 2777SOL    HW219965   1.997   3.925   4.072  0.9940  3.1746  2.1716
 2778SOL     OW19966   0.237   2.089  10.879 -0.8799 -0.6261  0.1760
 2778SOL    HW119967   0.175   2.156  10.907  1.3662  1.4712  0.1074
 2778SOL    HW219968   0.286   2.136  10.811 -0.2187 -0.4999  0.7446
 2779SOL     OW19969   0.940   1.949   0.334  0.3424 -0.4091 -0.3116
 2779SOL    HW119970   0.953   2.042   0.315  0.1873 -0.1217  0.9770
 2779SOL    HW219971   1.029   1.926   0.359  0.9667 -0.8752 -2.9591
 2780SOL     OW19972   1.799   2.624   5.212 -0.0459  0.0921 -0.2517
 2780SOL    HW119973   1.732   2.626   5.280 -0.6249  1.7529 -0.8663
 2780SOL    HW219974   1.814   2.530   5.202 -2.0203 -0.2044 -0.3479
 2781SOL     OW19975   0.136   0.731  14.751 -0.3820 -0.6671 -0.4747
 2781SOL    HW119976   0.210   0.787  14.730 -0.3155 -2.3091 -4.5473
 2781SOL    HW219977   0.142   0.712  14.845 -0.2087 -0.2710 -0.4054
 2782SOL     OW19978   0.675   0.693   4.890  0.4511 -0.2432 -0.2120
 2782SOL    HW119979   0.713   0.780   4.898 -1.2134  0.6247 -1.6977
 2782SOL    HW219980   0.723   0.673   4.809  0.7290 -2.2284  0.4403
 2783SOL     OW19981   3.748   0.758   6.290  0.5551 -0.0801  0.4114
 2783SOL    HW119982   3.784   0.671   6.278 -0.7856 -0.1166 -3.1679
 2783SOL    HW219983   3.698   0.760   6.209  0.7087 -4.8434  0.2517
 2784SOL     OW19984   2.274   3.377   5.454  0.7406  0.3472 -0.4842
 2784SOL    HW119985   2.236   3.441   5.515  3.2766  1.1021  0.2754
 2784SOL    HW219986   2.218   3.300   5.461  0.9510  0.1156 -1.3775
 2785SOL     OW19987   0.857   3.494   1.849 -0.0719 -0.7173 -0.4301
 2785SOL    HW119988   0.856   3.546   1.929  0.1925 -0.6922 -0.4429
 2785SOL    HW219989   0.836   3.559   1.782 -0.7104 -0.2148  0.2562
 2786SOL     OW19990   2.884   1.260  13.546 -0.2942  0.1686  0.1453
 2786SOL    HW119991   2.807   1.258  13.602 -1.3957  0.5368 -1.3433
 2786SOL    HW219992   2.929   1.179  13.568 -1.9626  0.0755  3.1489
 2787SOL     OW19993   2.251   1.935  10.021 -0.6074 -0.0755  0.1925
 2787SOL    HW119994   2.157   1.917  10.027 -0.1838 -2.3674 -0.0793
 2787SOL    HW219995   2.278   1.845  10.009 -2.1273 -0.6638  1.1668
 2788SOL     OW19996   1.968   0.490   1.940 -0.2091 -0.0477  0.1606
 2788SOL    HW119997   2.008   0.520   2.022  0.8214  2.6836 -1.3483
 2788SOL    HW219998   1.880   0.526   1.951  0.0960  0.4324  0.9989
 2789SOL     OW19999   1.783   3.736   2.475 -0.3135  0.1377 -0.2456
 2789SOL    HW120000   1.808   3.710   2.387 -0.3242  0.1658 -0.2570
 2789SOL    HW220001   1.861   3.787   2.497  0.1641  0.3976 -2.5414
 2790SOL     OW20002   3.365   4.285   6.437  0.8343 -0.1203  1.1203
 2790SOL    HW120003   3.306   4.351   6.401 -0.6759 -2.3611 -0.4608
 2790SOL    HW220004   3.408   4.249   6.360  0.1611  1.0909  0.1818
 2791SOL     OW20005   1.740   0.219   4.331 -0.0116 -0.4021 -0.4088
 2791SOL    HW120006   1.815   0.160   4.323  0.2082 -0.2927  0.8077
 2791SOL    HW220007   1.685   0.167   4.390 -0.0150  2.4712  2.1246
 2792SOL     OW20008   2.244   1.587   7.136  0.4667 -0.9412 -0.2915
 2792SOL    HW120009   2.169   1.587   7.078 -0.8357  0.1226  1.3791
 2792SOL    HW220010   2.272   1.679   7.133  2.0749 -1.3876  0.6379
 2793SOL     OW20011   2.582   0.928   1.387 -0.4290  0.2563  0.3055
 2793SOL    HW120012   2.624   0.942   1.472  1.9075  3.6354 -1.4214
 2793SOL    HW220013   2.512   0.866   1.409  0.7587 -1.2031  0.0074
 2794SOL     OW20014   3.642   0.028   0.132  0.1284 -0.2199 -0.4125
 2794SOL    HW120015   3.663   4.676   0.152  1.4239  0.0434 -0.5280
 2794SOL    HW220016   3.569   0.034   0.071  0.3328 -0.4438 -0.6783
 2795SOL     OW20017   2.195   3.654   7.382 -0.3636  0.5664  0.8504
 2795SOL    HW120018   2.241   3.652   7.298 -2.4847 -0.6936 -0.2819
 2795SOL    HW220019   2.112   3.611   7.361  0.3318 -0.8425  1.0020
 2796SOL     OW20020   4.304   1.360  17.065  0.0917 -0.1198 -0.3228
 2796SOL    HW120021   4.281   1.289  17.005 -0.5055  0.9081 -1.2912
 2796SOL    HW220022   4.311   1.312  17.148 -1.9335 -0.3585 -0.2795
 2797SOL     OW20023   3.116   1.807  11.380  0.0431  0.1407 -0.5273
 2797SOL    HW120024   3.207   1.799  11.350 -0.0282 -0.0265 -0.7028
 2797SOL    HW220025   3.121   1.816  11.475 -3.8381  1.6229 -0.4589
 2798SOL     OW20026   4.620   0.339  12.237 -0.6588  0.1811  0.4177
 2798SOL    HW120027   4.597   0.247  12.228  0.8969 -0.1768  0.1056
 2798SOL    HW220028   4.711   0.320  12.262  0.0408 -0.0410 -2.3083
 2799SOL     OW20029   1.957   1.184   4.930 -0.6108  0.1055  0.5966
 2799SOL    HW120030   1.896   1.241   4.884  0.1412  0.5647  0.1689
 2799SOL    HW220031   1.963   1.111   4.868  2.2315  0.1802  0.7892
 2800SOL     OW20032   0.199   4.340  10.886 -0.5498 -0.6034 -0.2069
 2800SOL    HW120033   0.175   4.397  10.813  1.6447  0.4110 -0.1263
 2800SOL    HW220034   0.148   4.262  10.862 -0.2441 -1.0932  0.7269
 2801SOL     OW20035   0.868   2.199   7.101  0.7959 -0.5946  0.5491
 2801SOL    HW120036   0.959   2.191   7.130  1.6005  2.1746 -1.1860
 2801SOL    HW220037   0.821   2.215   7.183  0.1641  0.2955  0.0155
 2802SOL     OW20038   3.324   0.606   9.179  0.4819 -0.3275  0.7139
 2802SOL    HW120039   3.367   0.561   9.106 -0.3085 -0.5019  0.3487
 2802SOL    HW220040   3.246   0.645   9.138 -0.5177 -0.2744  2.6312
 2803SOL     OW20041   2.806   2.285   6.423 -0.1344 -0.1705  0.9220
 2803SOL    HW120042   2.890   2.298   6.467 -0.4800  3.2576  0.5527
 2803SOL    HW220043   2.745   2.316   6.489 -1.4231 -2.0204  0.6208
 2804SOL     OW20044   4.731   2.749   3.993 -0.3742 -0.3339 -0.1237
 2804SOL    HW120045   0.068   2.795   3.960 -0.7538  2.3898  2.7382
 2804SOL    HW220046   0.031   2.688   4.055  0.3603 -0.1825 -0.4419
 2805SOL     OW20047   4.249   1.956   7.850  0.4471 -0.2266 -0.3601
 2805SOL    HW120048   4.180   1.992   7.794  0.9556 -1.5967 -1.8876
 2805SOL    HW220049   4.327   2.007   7.829  1.4376 -0.8587  1.7785
 2806SOL     OW20050   4.631   1.964  17.302 -1.0779  0.2131 -0.2009
 2806SOL    HW120051   4.636   1.999  17.213 -2.6195  0.1132 -0.3251
 2806SOL    HW220052   4.626   2.043  17.355 -0.2428 -0.2453  0.5627
 2807SOL     OW20053   4.210   2.802   9.019 -0.2837  0.6276  0.8392
 2807SOL    HW120054   4.212   2.781   8.926 -0.6584  1.8030  0.5623
 2807SOL    HW220055   4.304   2.806   9.036  0.0938  1.6822 -1.5353
 2808SOL     OW20056   4.168   0.910   3.208 -0.0066 -0.2341 -0.1061
 2808SOL    HW120057   4.157   0.874   3.295  0.2984 -0.3243 -0.1045
 2808SOL    HW220058   4.141   1.002   3.212 -0.4051 -0.2830 -1.6041
 2809SOL     OW20059   0.185   3.400   7.680  0.0042 -0.4983 -0.6312
 2809SOL    HW120060   0.267   3.441   7.710  1.6281 -1.7885 -3.2837
 2809SOL    HW220061   0.212   3.351   7.603  0.1517 -2.4539  0.6587
 2810SOL     OW20062   4.528   0.088   5.323 -0.2707 -0.1426 -0.0155
 2810SOL    HW120063   4.619   0.110   5.303 -0.7087  1.9352  0.2438
 2810SOL    HW220064   4.535   0.040   5.405  0.4179  0.3277  0.2036
 2811SOL     OW20065   1.477   0.350   6.883 -0.1021 -0.4100  0.0881
 2811SOL    HW120066   1.551   0.319   6.935 -0.1369  0.0011  0.3799
 2811SOL    HW220067   1.524   0.404   6.819  0.2355 -0.6444  0.1335
 2812SOL     OW20068   4.185   1.344  17.705  0.0650 -0.0060  1.1769
 2812SOL    HW120069   4.149   1.367  17.619  0.0783 -0.0842  1.1500
 2812SOL    HW220070   4.111   1.304  17.751 -0.5772 -1.8439 -1.4484
 2813SOL     OW20071   4.506   3.767   8.154  0.0300 -0.2230  0.7404
 2813SOL    HW120072   4.509   3.727   8.067 -0.3868  0.7156  0.2923
 2813SOL    HW220073   4.421   3.811   8.148  0.0628 -0.0931  1.2583
 2814SOL     OW20074   1.390   0.634   1.617 -0.0215  0.5042 -0.2517
 2814SOL    HW120075   1.432   0.702   1.670  2.0180 -0.0020 -1.2023
 2814SOL    HW220076   1.311   0.633   1.670 -0.7687 -0.6987 -1.4053
 2815SOL     OW20077   3.020   2.884   1.770 -0.0386  0.1006 -0.4452
 2815SOL    HW120078   3.070   2.888   1.851  0.0625  0.5879 -0.5312
 2815SOL    HW220079   3.035   2.792   1.748  1.3667  0.5559 -1.3734
 2816SOL     OW20080   3.037   4.164   4.473 -0.5962  0.8008 -0.7354
 2816SOL    HW120081   2.973   4.107   4.429 -1.2581  0.3704  0.7333
 2816SOL    HW220082   3.117   4.166   4.422  1.6139  1.8768  2.7411
 2817SOL     OW20083   1.457   4.608   4.109 -0.5255 -0.1857  0.2978
 2817SOL    HW120084   1.409   4.690   4.100  1.4908  0.8461 -1.0156
 2817SOL    HW220085   1.508   4.613   4.029  0.0442 -2.1247  0.5497
 2818SOL     OW20086   4.086   3.963   1.487  0.0955  0.4489  0.0137
 2818SOL    HW120087   4.063   3.890   1.545  0.2311 -0.2839 -0.8448
 2818SOL    HW220088   4.172   3.941   1.450  0.5493  0.7408  0.8976
 2819SOL     OW20089   0.194   4.384   7.814  0.5507  0.1483  0.3016
 2819SOL    HW120090   0.171   4.413   7.902 -0.1320 -0.4160  0.3153
 2819SOL    HW220091   0.195   4.473   7.779 -2.4603 -0.3965 -1.1771
 2820SOL     OW20092   0.015   0.352  14.454 -0.0570  0.2138  0.0108
 2820SOL    HW120093   0.086   0.415  14.469  0.2532 -0.1148 -0.0854
 2820SOL    HW220094   0.036   0.288  14.521  0.6354  0.3667 -0.0545
 2821SOL     OW20095   1.055   2.241   4.010  0.0284  0.0353  0.1008
 2821SOL    HW120096   1.063   2.162   3.957  1.8675  1.9002 -2.3929
 2821SOL    HW220097   1.056   2.213   4.102  1.1998  3.4217  1.1232
 2822SOL     OW20098   3.363   0.193   8.267  0.1231  0.4514 -0.8489
 2822SOL    HW120099   3.280   0.219   8.309 -0.8929 -2.5237 -1.0285
 2822SOL    HW220100   3.412   0.274   8.279 -0.5830  0.7564 -0.0055
 2823SOL     OW20101   0.733   2.291   2.561  0.1973  0.3693  0.5136
 2823SOL    HW120102   0.767   2.273   2.649  2.0832  1.8357  0.0713
 2823SOL    HW220103   0.745   2.386   2.564 -0.0724  0.4342 -0.6012
 2824SOL     OW20104   4.390   4.265   4.529  0.2827 -0.8903 -0.6447
 2824SOL    HW120105   4.312   4.220   4.564  0.0155  0.5303  0.6330
 2824SOL    HW220106   4.464   4.231   4.578  1.1210  2.4447  0.4340
 2825SOL     OW20107   2.342   1.732   5.543 -0.6966  0.0320  0.3958
 2825SOL    HW120108   2.399   1.809   5.552 -0.8957  0.0224  1.6688
 2825SOL    HW220109   2.256   1.773   5.553 -0.0686  1.6769 -0.8546
 2826SOL     OW20110   1.349   3.284   3.915  0.0601 -0.1041  0.0677
 2826SOL    HW120111   1.264   3.259   3.878  0.7953 -0.8598 -1.1232
 2826SOL    HW220112   1.401   3.219   3.866  3.2431  1.3488  1.5164
 2827SOL     OW20113   0.107   2.128  15.201  0.5813  0.2758  0.0105
 2827SOL    HW120114   0.180   2.188  15.208  0.9823 -0.2239  0.0934
 2827SOL    HW220115   0.049   2.166  15.135  0.5539  0.7018  0.2804
 2828SOL     OW20116   0.577   3.604  16.620  0.7484  0.6774 -0.4313
 2828SOL    HW120117   0.562   3.548  16.544  3.0009 -1.3606  0.6082
 2828SOL    HW220118   0.490   3.640  16.636  0.2453 -0.5557 -0.4231
 2829SOL     OW20119   0.966   4.061  12.059 -0.0185  0.3109 -0.2483
 2829SOL    HW120120   1.013   4.142  12.081 -0.3847  0.3761  0.3031
 2829SOL    HW220121   0.900   4.097  12.000  0.8545 -1.8433 -2.5342
 2830SOL     OW20122   2.229   2.171   4.500 -0.3259 -0.2716  0.0847
 2830SOL    HW120123   2.275   2.168   4.584  0.5910 -2.1896 -0.4850
 2830SOL    HW220124   2.284   2.237   4.457 -1.4278 -0.5124 -1.6870
 2831SOL     OW20125   3.799   3.265  12.951 -0.1536 -0.1373  0.6896
 2831SOL    HW120126   3.797   3.314  13.033 -0.2601  0.6166  0.2265
 2831SOL    HW220127   3.737   3.311  12.896  0.6091 -0.6585 -0.6054
 2832SOL     OW20128   4.321   2.119   1.647 -0.3497  0.1187  0.1133
 2832SOL    HW120129   4.311   2.024   1.654 -0.4114  0.0203 -1.4233
 2832SOL    HW220130   4.291   2.145   1.735  1.7953 -1.2454  1.2278
 2833SOL     OW20131   3.741   1.929   6.549 -0.4246 -0.0340  0.1108
 2833SOL    HW120132   3.700   1.978   6.478  0.0181  2.4427  1.5737
 2833SOL    HW220133   3.784   1.861   6.496 -0.3227  1.0847 -1.2507
 2834SOL     OW20134   0.637   3.148   6.408 -0.1735 -0.5938 -0.0696
 2834SOL    HW120135   0.649   3.225   6.462 -0.3028 -1.4687  1.2031
 2834SOL    HW220136   0.631   3.082   6.477  1.3985  2.0282  2.5538
 2835SOL     OW20137   1.833   1.463   4.859 -0.5600 -0.1880 -0.7784
 2835SOL    HW120138   1.877   1.476   4.943 -1.3038  0.9686 -0.5562
 2835SOL    HW220139   1.773   1.537   4.869  2.3483  1.8270  1.5825
 2836SOL     OW20140   2.197   1.331   1.988 -0.4685  0.1946 -0.0527
 2836SOL    HW120141   2.217   1.377   2.069  1.7247 -0.2720 -0.3070
 2836SOL    HW220142   2.102   1.339   1.998  0.0178  2.4575  2.6049
 2837SOL     OW20143   0.254   4.664  17.059 -0.2703  0.1473  0.2282
 2837SOL    HW120144   0.245   0.019  17.055 -0.1256  0.1223 -0.7434
 2837SOL    HW220145   0.171   4.645  17.016 -0.3017 -1.0258  0.7899
 2838SOL     OW20146   1.295   1.823  17.190  0.2124 -0.5018 -0.0133
 2838SOL    HW120147   1.223   1.812  17.128 -0.7713  1.4372  0.7972
 2838SOL    HW220148   1.377   1.818  17.141  0.0817 -0.7763 -0.2054
 2839SOL     OW20149   3.883   3.294   8.345  0.0768 -0.4786 -0.2510
 2839SOL    HW120150   3.813   3.318   8.284 -0.7376 -0.8549  0.5366
 2839SOL    HW220151   3.939   3.242   8.286 -0.4556 -0.3488 -0.8711
 2840SOL     OW20152   4.321   1.026   8.057 -0.6034 -0.2672 -0.5097
 2840SOL    HW120153   4.226   1.034   8.047 -0.7771  0.8163  1.9919
 2840SOL    HW220154   4.352   1.094   7.998 -1.5558  1.9306  1.5204
 2841SOL     OW20155   1.238   1.488   6.297 -0.1965 -0.3891  0.7265
 2841SOL    HW120156   1.160   1.453   6.341 -0.4104 -0.4314  0.3149
 2841SOL    HW220157   1.301   1.448   6.357 -0.5830  1.0503  2.1096
 2842SOL     OW20158   3.076   1.006  12.162 -0.0704  0.6526 -0.1157
 2842SOL    HW120159   3.089   0.966  12.076 -0.4821 -0.1397  0.1882
 2842SOL    HW220160   3.141   1.075  12.164  0.5170  0.1242 -1.2027
 2843SOL     OW20161   2.809   2.909  11.315 -0.4926 -0.0824  0.2450
 2843SOL    HW120162   2.733   2.868  11.357 -3.2081  5.4077  0.6542
 2843SOL    HW220163   2.791   2.904  11.221  0.5840 -1.6948  0.1296
 2844SOL     OW20164   0.278   0.745  17.471  0.0092  0.3421  0.6199
 2844SOL    HW120165   0.227   0.780  17.544 -0.4696  1.3031 -0.1734
 2844SOL    HW220166   0.237   0.659  17.476 -0.7111  0.5471 -1.4896
 2845SOL     OW20167   3.175   4.021   6.344 -0.2791  0.3237 -0.1513
 2845SOL    HW120168   3.266   4.011   6.316 -0.1177 -0.0096  0.4950
 2845SOL    HW220169   3.126   3.967   6.282  0.8763  0.0056 -0.7820
 2846SOL     OW20170   3.758   3.058   4.270  0.5959  0.3581  0.2524
 2846SOL    HW120171   3.683   3.037   4.325  0.8394  1.3893  0.9821
 2846SOL    HW220172   3.737   3.004   4.194 -3.2008  2.7500 -0.4256
 2847SOL     OW20173   3.517   2.635   6.573  0.2991 -0.5424  0.3635
 2847SOL    HW120174   3.587   2.672   6.628  1.2202 -0.6932 -0.7185
 2847SOL    HW220175   3.437   2.684   6.595  1.0548  0.6287  0.5279
 2848SOL     OW20176   2.084   3.073   3.868  0.0725 -0.2205  0.5821
 2848SOL    HW120177   2.102   3.090   3.776  0.4907 -0.5597  0.6009
 2848SOL    HW220178   2.162   3.021   3.889 -1.1150 -1.8855  0.8859
 2849SOL     OW20179   2.665   0.715   5.484 -0.4241  0.4700  0.1642
 2849SOL    HW120180   2.628   0.648   5.541 -2.3606  1.1877 -0.2455
 2849SOL    HW220181   2.664   0.676   5.396  0.6225 -0.8098  0.7181
 2850SOL     OW20182   2.065   1.081   8.971  0.4396 -0.0616  0.2983
 2850SOL    HW120183   2.022   1.062   8.887  2.9525  0.2185 -1.0409
 2850SOL    HW220184   1.992   1.142   8.985 -1.1844 -1.1519 -3.2866
 2851SOL     OW20185   3.772   4.529  11.786 -0.3369 -0.5875 -0.0744
 2851SOL    HW120186   3.860   4.544  11.822 -0.1956 -0.9999 -0.2440
 2851SOL    HW220187   3.737   4.617  11.782 -0.2504 -0.4497  2.0665
 2852SOL     OW20188   1.447   0.760   3.263  0.3985 -0.2423  0.5100
 2852SOL    HW120189   1.431   0.718   3.348 -2.9181  0.8232  0.4258
 2852SOL    HW220190   1.414   0.849   3.272  0.1973 -0.2899  0.2521
 2853SOL     OW20191   1.839   2.723   3.826  0.5353  0.3219 -0.3003
 2853SOL    HW120192   1.878   2.797   3.779  1.7110 -0.2771 -0.2674
 2853SOL    HW220193   1.774   2.763   3.883  0.1605  1.9710 -1.8985
 2854SOL     OW20194   3.270   1.562   0.825  0.1980  0.0276 -0.3912
 2854SOL    HW120195   3.290   1.530   0.913 -3.0951  1.4255  0.8605
 2854SOL    HW220196   3.344   1.539   0.769  2.1052  0.7958  1.8276
 2855SOL     OW20197   0.633   3.775   1.880  0.1694 -0.1652 -0.2225
 2855SOL    HW120198   0.604   3.785   1.789  0.2966  2.8872  0.0936
 2855SOL    HW220199   0.579   3.702   1.912  0.1463  0.0252  0.1593
 2856SOL     OW20200   1.905   0.012   4.286 -0.1595  0.1596 -0.2121
 2856SOL    HW120201   1.946   0.025   4.201  1.8370  1.5369  0.9717
 2856SOL    HW220202   1.826   4.699   4.270 -1.7892  3.1136 -1.7649
 2857SOL     OW20203   2.023   2.114   2.689  0.1928 -0.6900  0.5651
 2857SOL    HW120204   1.986   2.202   2.677 -0.8237 -0.9033  2.0693
 2857SOL    HW220205   2.074   2.132   2.768  1.5260 -0.4514 -0.3493
 2858SOL     OW20206   1.138   1.886   6.043  0.0673 -0.4190 -0.3135
 2858SOL    HW120207   1.132   1.884   5.947  0.4618 -1.5996 -0.3081
 2858SOL    HW220208   1.059   1.934   6.069 -0.7241 -2.1140  0.3617
 2859SOL     OW20209   3.326   0.410  14.130  0.1597 -0.2949  0.6515
 2859SOL    HW120210   3.341   0.478  14.197 -2.5430  0.8624  0.0650
 2859SOL    HW220211   3.384   0.339  14.159  1.7152 -0.1785 -2.2460
 2860SOL     OW20212   4.362   0.753   8.277  0.3072 -0.4661  0.1246
 2860SOL    HW120213   4.359   0.669   8.322 -0.0763 -0.3343  0.3548
 2860SOL    HW220214   4.280   0.795   8.306  0.0957 -1.0403  0.3586
 2861SOL     OW20215   1.149   1.175  17.487 -0.5325  0.0995  0.5885
 2861SOL    HW120216   1.222   1.169  17.549 -0.0502 -0.6298 -0.0545
 2861SOL    HW220217   1.195   1.150  17.407 -1.5774 -1.3370  0.4502
 2862SOL     OW20218   0.768   3.819   8.201 -0.2452  0.2754 -0.1771
 2862SOL    HW120219   0.800   3.739   8.242 -0.1814  0.2521 -0.2728
 2862SOL    HW220220   0.843   3.877   8.214  0.7450 -1.5553  2.3006
 2863SOL     OW20221   1.233   0.739   5.620  0.4068  0.5730  0.0546
 2863SOL    HW120222   1.152   0.757   5.572 -0.7143 -0.6339  1.5017
 2863SOL    HW220223   1.257   0.650   5.594  0.0865  0.2132  1.0067
 2864SOL     OW20224   2.086   2.489   2.584  0.1926  0.2186 -0.0328
 2864SOL    HW120225   2.113   2.421   2.522  0.2403 -0.8293  1.1312
 2864SOL    HW220226   2.011   2.448   2.627  0.2130 -0.7205 -0.8902
 2865SOL     OW20227   3.063   1.634  10.262 -0.2667 -0.0730 -0.2855
 2865SOL    HW120228   3.150   1.674  10.271  0.4093 -1.2286 -1.5537
 2865SOL    HW220229   3.084   1.542  10.245  1.9698  0.1350  1.2819
 2866SOL     OW20230   1.196   1.242   6.998 -0.6986 -0.6575  0.2336
 2866SOL    HW120231   1.111   1.239   6.955 -1.1118  1.6026  0.9036
 2866SOL    HW220232   1.169   1.273   7.085  1.4011 -0.3290  0.7739
 2867SOL     OW20233   3.557   2.647   0.929  0.0214  0.1086  0.0327
 2867SOL    HW120234   3.492   2.717   0.938 -0.5842 -0.5559  0.8786
 2867SOL    HW220235   3.614   2.694   0.869  1.3818 -0.6790  0.7123
 2868SOL     OW20236   0.987   1.027   2.125  0.3003  0.2578 -0.2848
 2868SOL    HW120237   1.021   0.949   2.170  0.7792  0.4282 -0.3548
 2868SOL    HW220238   0.901   1.037   2.167  0.4081 -0.4816  0.1186
 2869SOL     OW20239   1.052   0.230  17.469 -0.0330 -0.2710 -0.2530
 2869SOL    HW120240   1.001   0.311  17.475  0.5376  0.0275  0.4294
 2869SOL    HW220241   0.980   0.184  17.424 -0.5790  2.8383 -2.5604
 2870SOL     OW20242   2.316   2.277   3.222  0.2941 -0.6312  0.7653
 2870SOL    HW120243   2.342   2.306   3.134 -0.6715  1.3367  1.1526
 2870SOL    HW220244   2.335   2.352   3.277 -2.1191  0.2057  0.4507
 2871SOL     OW20245   2.459   2.066   2.613  0.4798 -0.0940 -0.1273
 2871SOL    HW120246   2.452   2.149   2.567  1.6942  1.0944  1.8171
 2871SOL    HW220247   2.490   2.089   2.701 -1.7591  1.1783  0.3386
 2872SOL     OW20248   2.920   3.581  12.741 -0.6541 -0.5406  0.0048
 2872SOL    HW120249   2.931   3.614  12.652  0.1831 -1.2921 -0.1726
 2872SOL    HW220250   2.850   3.639  12.770 -0.1559 -0.9130  1.9591
 2873SOL     OW20251   0.883   4.355  10.657 -0.6669  0.3586  0.2660
 2873SOL    HW120252   0.787   4.352  10.651 -0.6200  0.7844 -0.6888
 2873SOL    HW220253   0.895   4.262  10.676  0.3221 -0.1548 -3.0412
 2874SOL     OW20254   4.146   4.209   6.561 -0.3699  0.2197 -0.6510
 2874SOL    HW120255   4.097   4.153   6.500  0.2685  0.2574 -1.2012
 2874SOL    HW220256   4.175   4.282   6.507 -0.8064  0.6467 -0.3008
 2875SOL     OW20257   1.679   1.563   3.291 -0.4608 -0.0556 -0.1854
 2875SOL    HW120258   1.705   1.579   3.382  0.7523 -0.1703 -0.5072
 2875SOL    HW220259   1.598   1.515   3.307  0.3330 -1.3806 -0.1534
 2876SOL     OW20260   0.747   1.253   4.041 -0.7080 -0.3218  0.4829
 2876SOL    HW120261   0.773   1.321   4.103 -0.6820  0.9257 -0.8961
 2876SOL    HW220262   0.801   1.178   4.068 -1.4895 -1.4307 -0.9853
 2877SOL     OW20263   4.574   0.653   8.553  0.1167 -0.4012 -0.2287
 2877SOL    HW120264   4.527   0.734   8.577 -1.2006 -1.0656 -0.5607
 2877SOL    HW220265   4.643   0.691   8.500 -1.2766  0.7899 -1.1825
 2878SOL     OW20266   4.732   1.298   4.140  0.4164  0.3342  0.0925
 2878SOL    HW120267   4.663   1.315   4.077  0.7514 -1.6949 -0.8207
 2878SOL    HW220268   4.671   1.298   4.214  0.4273  1.6780  0.1049
 2879SOL     OW20269   0.442   3.521   7.680  0.0400 -0.1035 -0.1416
 2879SOL    HW120270   0.490   3.603   7.695  1.9175 -1.3272  0.5382
 2879SOL    HW220271   0.443   3.492   7.771 -0.1583  1.5442  0.3885
 2880SOL     OW20272   3.735   0.850  15.179 -0.3524 -0.2673  0.0238
 2880SOL    HW120273   3.650   0.883  15.148  0.1580 -0.9142 -2.0177
 2880SOL    HW220274   3.751   0.918  15.245  2.0578  1.9171 -2.8255
 2881SOL     OW20275   2.295   4.473   9.602  0.4892 -0.0283  0.2280
 2881SOL    HW120276   2.276   4.566   9.585 -0.9287 -0.5979 -1.3601
 2881SOL    HW220277   2.233   4.433   9.541 -0.8835 -1.0962  2.3353
 2882SOL     OW20278   3.144   0.322   8.637  0.2559 -0.2822  0.4132
 2882SOL    HW120279   3.147   0.229   8.658  3.1053 -0.1156  0.7706
 2882SOL    HW220280   3.128   0.318   8.542  0.9321  2.5139  0.1728
 2883SOL     OW20281   3.798   4.618   4.857  0.1291  0.2031 -0.5920
 2883SOL    HW120282   3.879   4.659   4.888  0.3693 -0.7684  0.0674
 2883SOL    HW220283   3.738   4.631   4.931 -0.3352  0.6952 -1.0536
 2884SOL     OW20284   2.575   0.674  13.950 -0.2077 -0.3866  0.4343
 2884SOL    HW120285   2.558   0.757  13.994  0.6909  0.2043 -0.3451
 2884SOL    HW220286   2.520   0.688  13.873 -0.9963 -0.3495  1.0077
 2885SOL     OW20287   2.558   3.978   8.277 -0.6694 -0.3129 -0.5938
 2885SOL    HW120288   2.527   3.900   8.324  0.2808  0.3015  1.0677
 2885SOL    HW220289   2.547   4.043   8.347  0.5328 -0.4006 -0.3235
 2886SOL     OW20290   3.629   0.153   0.671 -0.1345 -0.4191 -0.2699
 2886SOL    HW120291   3.579   0.094   0.615 -0.5262 -0.5170  0.1762
 2886SOL    HW220292   3.704   0.104   0.704 -0.3423 -1.0513 -0.7412
 2887SOL     OW20293   3.600   1.595  10.615  0.1768  0.0205 -0.7591
 2887SOL    HW120294   3.540   1.560  10.680  1.2362 -2.0768 -0.9232
 2887SOL    HW220295   3.621   1.685  10.643  1.6685 -0.1649 -1.2558
 2888SOL     OW20296   0.584   0.535   8.227 -0.9015  0.0357  0.1316
 2888SOL    HW120297   0.577   0.461   8.287  1.2193 -0.4837 -0.2625
 2888SOL    HW220298   0.496   0.569   8.237 -0.5562  0.8705  0.3377
 2889SOL     OW20299   1.649   1.568   5.814 -0.2951  0.2106  0.6656
 2889SOL    HW120300   1.706   1.561   5.891  0.1377  2.3185  0.5422
 2889SOL    HW220301   1.628   1.476   5.799 -1.8491  0.7831 -0.7042
 2890SOL     OW20302   3.026   4.267  10.537  0.4888 -0.2833 -0.6863
 2890SOL    HW120303   3.059   4.301  10.619  0.3693 -0.8614 -0.3973
 2890SOL    HW220304   3.018   4.347  10.485  0.4126  1.0732  1.4090
 2891SOL     OW20305   3.736   0.664   5.129 -0.0750  0.3542  0.1612
 2891SOL    HW120306   3.662   0.725   5.130  1.2653  1.9503  3.7293
 2891SOL    HW220307   3.771   0.671   5.218  2.1154 -1.8956 -0.5353
 2892SOL     OW20308   0.580   1.853   2.855 -0.0417  0.1126  0.3950
 2892SOL    HW120309   0.589   1.769   2.901  0.5389  0.0669  0.1944
 2892SOL    HW220310   0.536   1.909   2.919 -2.6246 -0.1499 -1.1456
 2893SOL     OW20311   1.509   2.761   6.702  0.2212  0.4757  0.0580
 2893SOL    HW120312   1.580   2.825   6.697 -0.1129  0.7998 -0.5886
 2893SOL    HW220313   1.501   2.729   6.612 -1.9288  3.3640 -0.7907
 2894SOL     OW20314   1.270   4.641   7.381 -0.5818  0.1424 -0.1028
 2894SOL    HW120315   1.339   4.708   7.386 -1.3026  1.0416 -1.9914
 2894SOL    HW220316   1.255   4.645   7.475 -1.9502 -2.2607 -0.2385
 2895SOL     OW20317   2.536   4.138   9.956 -0.4586  0.5090 -0.0942
 2895SOL    HW120318   2.517   4.124   9.863  1.9459  0.5551 -0.5867
 2895SOL    HW220319   2.454   4.128  10.005  0.3543  0.2902  1.2318
 2896SOL     OW20320   0.551   3.616   5.938 -0.5052 -0.7432 -0.3316
 2896SOL    HW120321   0.532   3.522   5.934 -2.8494 -0.2551 -0.7173
 2896SOL    HW220322   0.500   3.636   5.859  0.3491 -0.7068 -0.8663
 2897SOL     OW20323   3.997   0.226  14.017  0.2449 -0.0373  0.2434
 2897SOL    HW120324   4.083   0.258  14.042  0.1257 -0.3821  1.1086
 2897SOL    HW220325   3.940   0.273  14.079  0.2739 -1.7545  1.5976
 2898SOL     OW20326   3.295   3.959   0.123 -0.0886 -0.2130  0.2985
 2898SOL    HW120327   3.204   3.951   0.153  0.3235  1.0095  1.8733
 2898SOL    HW220328   3.295   3.934   0.031  0.0446  0.0389  0.2313
 2899SOL     OW20329   0.596   3.766  15.978  0.0569  0.0514 -0.4391
 2899SOL    HW120330   0.589   3.787  16.072 -0.5836 -1.6721 -0.1121
 2899SOL    HW220331   0.688   3.788  15.961 -0.2973  1.2488 -0.8013
 2900SOL     OW20332   4.560   1.749  17.652 -0.0085 -0.1182 -0.5920
 2900SOL    HW120333   4.586   1.787  17.736 -1.2625  0.0420 -0.2817
 2900SOL    HW220334   4.499   1.679  17.675  0.3129 -0.7970 -1.7812
 2901SOL     OW20335   2.940   4.353   6.897 -0.7588  0.3443 -0.6145
 2901SOL    HW120336   2.860   4.324   6.855 -1.4484 -0.5162  1.2842
 2901SOL    HW220337   2.960   4.429   6.843 -0.0136  0.8353  0.3337
 2902SOL     OW20338   1.825   1.877   6.888  0.3045  0.1473 -0.4983
 2902SOL    HW120339   1.840   1.903   6.979 -0.1516  2.1375 -0.9940
 2902SOL    HW220340   1.740   1.919   6.875  0.1989 -0.3493 -1.3824
 2903SOL     OW20341   3.418   0.155  16.737 -0.0988 -0.1456 -0.4918
 2903SOL    HW120342   3.329   0.138  16.707 -0.1773 -1.9967  0.7485
 2903SOL    HW220343   3.464   0.181  16.657  0.7875 -2.6204 -0.7909
 2904SOL     OW20344   3.502   3.932   2.526 -0.0755  0.3859 -0.6268
 2904SOL    HW120345   3.541   3.888   2.601 -2.2710 -0.5167 -0.0320
 2904SOL    HW220346   3.473   3.861   2.469 -0.0752  0.0428 -0.1975
 2905SOL     OW20347   3.376   4.023  12.205  0.3070 -0.2103 -0.3451
 2905SOL    HW120348   3.408   4.053  12.120 -0.4385 -2.1899 -1.3436
 2905SOL    HW220349   3.447   4.053  12.261 -2.5661  1.6756  2.2094
 2906SOL     OW20350   0.074   4.640   5.993 -0.0135  0.0967  0.3057
 2906SOL    HW120351   0.140   4.621   5.926 -0.5041  0.7970 -0.3677
 2906SOL    HW220352   0.096   4.560   6.042  1.4151  0.7872  0.7909
 2907SOL     OW20353   0.513   0.017   2.375 -0.3834  0.3063 -0.3919
 2907SOL    HW120354   0.602   4.734   2.346 -0.2873  0.5869 -0.3096
 2907SOL    HW220355   0.530   0.052   2.462 -1.1484 -0.1771 -0.0502
 2908SOL     OW20356   0.871   4.262   9.887 -0.6202  0.2820  0.1425
 2908SOL    HW120357   0.858   4.338   9.944 -1.6488  2.2082 -2.6878
 2908SOL    HW220358   0.917   4.208   9.951 -2.6956 -1.1534  0.4324
 2909SOL     OW20359   2.700   1.701   1.502 -0.5595  0.3859  0.0653
 2909SOL    HW120360   2.636   1.632   1.486 -0.0607 -0.0222 -0.1929
 2909SOL    HW220361   2.762   1.654   1.558 -0.8905 -0.2184 -0.0775
 2910SOL     OW20362   2.866   1.180   1.021 -0.0332 -0.3912 -0.7280
 2910SOL    HW120363   2.888   1.094   1.057  0.1548 -0.1617 -0.2903
 2910SOL    HW220364   2.771   1.191   1.032  0.2022 -0.7240  1.6468
 2911SOL     OW20365   1.347   1.028   3.242 -0.5250 -0.5807  0.6157
 2911SOL    HW120366   1.286   1.082   3.193  2.5580  2.0279 -0.3637
 2911SOL    HW220367   1.367   1.079   3.321  0.4061  0.1331 -0.0821
 2912SOL     OW20368   0.863   2.745   2.161 -0.0739  0.2099  0.4155
 2912SOL    HW120369   0.858   2.729   2.255 -1.9306  0.5534  0.3811
 2912SOL    HW220370   0.789   2.803   2.143  0.7368  0.8891 -0.7115
 2913SOL     OW20371   3.882   2.074   2.385  0.3749  0.0038 -0.0801
 2913SOL    HW120372   3.820   2.024   2.332 -1.9599  0.8301  1.8497
 2913SOL    HW220373   3.903   2.151   2.333  0.2128 -1.5924 -2.5100
 2914SOL     OW20374   1.789   2.028   1.316  0.8169 -0.4289 -0.2626
 2914SOL    HW120375   1.775   2.083   1.392  1.0105 -0.2338 -0.3689
 2914SOL    HW220376   1.701   2.018   1.280  1.3499 -2.4198 -1.0213
 2915SOL     OW20377   0.038   2.409  10.127  0.3110 -0.5004 -0.2993
 2915SOL    HW120378   0.129   2.403  10.100  0.5494 -0.1857  0.4166
 2915SOL    HW220379   0.035   2.501  10.156 -0.8726 -0.8048  0.5480
 2916SOL     OW20380   1.039   3.590  16.813 -0.4282 -0.0205 -0.5269
 2916SOL    HW120381   0.995   3.664  16.855  0.2909  0.0428  0.0990
 2916SOL    HW220382   1.126   3.628  16.799 -0.6220  0.7391  0.3245
 2917SOL     OW20383   3.216   1.232  12.258  0.2542 -0.5515  0.1892
 2917SOL    HW120384   3.156   1.242  12.332  0.5569  0.3544  0.3159
 2917SOL    HW220385   3.297   1.218  12.308  1.0624 -0.3428 -1.0625
 2918SOL     OW20386   2.081   2.160   0.378  0.2723  0.0898  0.4416
 2918SOL    HW120387   1.996   2.121   0.355  0.2793  1.0085 -1.1042
 2918SOL    HW220388   2.107   2.202   0.297 -0.3261  2.9565  1.7232
 2919SOL     OW20389   4.107   1.248   8.414 -0.2877 -0.0459 -0.4792
 2919SOL    HW120390   4.192   1.230   8.454  0.1895  0.9372 -1.0418
 2919SOL    HW220391   4.069   1.278   8.497  0.4791  1.1389 -0.5560
 2920SOL     OW20392   3.895   0.502   0.121  0.3470  0.6289 -0.2343
 2920SOL    HW120393   3.938   0.553   0.053 -0.6002  0.0647 -1.2442
 2920SOL    HW220394   3.826   0.564   0.142  1.7936  1.1562  3.0452
 2921SOL     OW20395   2.625   2.041  15.572 -0.1131 -0.3625 -0.1773
 2921SOL    HW120396   2.647   2.128  15.540 -2.0047  0.2785  0.2842
 2921SOL    HW220397   2.709   1.995  15.562 -0.2570 -1.0785  2.0175
 2922SOL     OW20398   3.493   3.485   8.685 -0.1385  0.1117  0.1830
 2922SOL    HW120399   3.398   3.492   8.697  0.4156  3.0848  2.6660
 2922SOL    HW220400   3.489   3.389   8.685 -3.0421  0.2028 -1.9029
 2923SOL     OW20401   3.054   0.469   1.583  0.2510  0.2964 -0.0478
 2923SOL    HW120402   3.087   0.521   1.510  3.6848 -2.0890 -0.2008
 2923SOL    HW220403   2.983   0.525   1.614  0.8435  0.7640  0.4512
 2924SOL     OW20404   3.576   2.723   8.733 -0.5660  0.4746  0.1452
 2924SOL    HW120405   3.550   2.632   8.742 -3.5338  1.5247  2.1924
 2924SOL    HW220406   3.637   2.731   8.806 -0.7349  1.2211  0.2112
 2925SOL     OW20407   4.328   3.672   2.622  0.3249  0.3284 -0.0007
 2925SOL    HW120408   4.238   3.691   2.596  0.4907 -0.2421 -1.0050
 2925SOL    HW220409   4.356   3.760   2.598 -0.5630  0.4923 -0.4370
 2926SOL     OW20410   1.624   3.891   5.920 -0.2103  0.8182 -0.1000
 2926SOL    HW120411   1.665   3.972   5.951 -1.2913  1.2933  0.1130
 2926SOL    HW220412   1.566   3.873   5.994  2.1108  0.0622  1.5501
 2927SOL     OW20413   4.105   0.285  11.827  0.2647 -0.0789 -0.0583
 2927SOL    HW120414   4.197   0.285  11.853  0.5491  0.1933 -1.0717
 2927SOL    HW220415   4.082   0.194  11.848  0.8508 -0.1002  0.4883
 2928SOL     OW20416   1.547   1.464  14.574 -0.5396 -0.4785 -0.0323
 2928SOL    HW120417   1.462   1.499  14.599 -0.1817  0.1396  0.3158
 2928SOL    HW220418   1.610   1.536  14.563  0.2481 -1.1056  0.3646
 2929SOL     OW20419   3.962   2.042   3.363 -0.4322  0.1269 -0.7110
 2929SOL    HW120420   4.024   2.020   3.432 -1.0216 -3.6731 -1.4111
 2929SOL    HW220421   3.927   2.118   3.408  0.2586  0.1866 -0.2821
 2930SOL     OW20422   1.036   3.385  14.477  0.1890  0.0411 -0.5624
 2930SOL    HW120423   1.108   3.403  14.417  1.5387  1.1979  1.4213
 2930SOL    HW220424   1.074   3.409  14.562 -0.6956  0.4061 -0.2588
 2931SOL     OW20425   3.621   2.104   4.367  0.1092 -0.0714  0.0852
 2931SOL    HW120426   3.577   2.045   4.429 -2.0683 -0.9543 -2.2926
 2931SOL    HW220427   3.574   2.082   4.286  1.6657  0.8726 -1.0677
 2932SOL     OW20428   3.916   0.484   2.943 -0.5551 -0.3576 -0.6574
 2932SOL    HW120429   3.838   0.429   2.954 -2.5941  2.7085  0.1570
 2932SOL    HW220430   3.971   0.446   3.011 -1.3948  1.6960  1.1376
 2933SOL     OW20431   0.410   2.956  14.120 -0.4694 -0.1075 -0.3244
 2933SOL    HW120432   0.383   3.045  14.098 -1.2438 -0.3251 -0.2646
 2933SOL    HW220433   0.390   2.910  14.038  0.2875 -1.1740  0.0888
 2934SOL     OW20434   2.722   4.382   6.495  0.0656 -0.1468 -0.5107
 2934SOL    HW120435   2.699   4.337   6.414 -0.1739 -2.0809  0.6454
 2934SOL    HW220436   2.661   4.456   6.492 -0.0844 -0.2288  0.5454
 2935SOL     OW20437   1.103   2.548   9.088 -0.2654  0.0974 -0.2613
 2935SOL    HW120438   1.080   2.606   9.161  1.6108  0.3994  0.0923
 2935SOL    HW220439   1.167   2.609   9.049  0.3192  0.8240  1.8294
 2936SOL     OW20440   2.444   3.407   2.940  0.0604 -0.1546 -0.5523
 2936SOL    HW120441   2.370   3.360   2.902 -0.3730  0.9786 -1.1134
 2936SOL    HW220442   2.505   3.335   2.925  0.2954 -0.3411  1.2844
 2937SOL     OW20443   1.509   3.821   8.221 -0.5457  1.2698 -0.0019
 2937SOL    HW120444   1.507   3.807   8.316 -1.1896 -1.1006 -0.3518
 2937SOL    HW220445   1.428   3.772   8.208 -0.3983  0.7847  0.8982
 2938SOL     OW20446   2.109   0.516   1.366  0.2937  0.2162 -0.1674
 2938SOL    HW120447   2.159   0.448   1.320 -0.6851  0.4342 -1.5201
 2938SOL    HW220448   2.080   0.572   1.294 -2.1144 -0.3642  0.3613
 2939SOL     OW20449   3.780   2.089   4.794  0.8294 -0.2392 -0.2523
 2939SOL    HW120450   3.782   2.180   4.762 -1.2447 -0.0557  0.1398
 2939SOL    HW220451   3.799   2.042   4.713 -1.2441 -1.3463 -0.0824
 2940SOL     OW20452   0.536   0.347  14.343 -0.2097 -0.4138 -0.0163
 2940SOL    HW120453   0.490   0.386  14.269  1.7318  3.0814  0.6310
 2940SOL    HW220454   0.475   0.341  14.417 -0.0126  0.3374  0.2074
 2941SOL     OW20455   3.044   4.141   7.949  0.1222  0.4234  0.3065
 2941SOL    HW120456   3.017   4.126   8.040  0.9052 -0.3587  0.3982
 2941SOL    HW220457   2.985   4.213   7.926  0.4833  0.7458  0.3863
 2942SOL     OW20458   1.578   3.117  12.090 -0.1445  0.2727  0.6520
 2942SOL    HW120459   1.544   3.074  12.169 -1.8068  0.3034 -0.0358
 2942SOL    HW220460   1.535   3.077  12.015  2.2546 -3.1934  1.1189
 2943SOL     OW20461   0.577   3.552   9.194 -0.2246 -0.6609  0.1012
 2943SOL    HW120462   0.601   3.527   9.283  2.1805 -4.6929 -1.6580
 2943SOL    HW220463   0.593   3.477   9.136 -0.5804 -0.4709 -0.2428
 2944SOL     OW20464   0.699   3.976   4.296 -0.0941  0.1123 -0.5184
 2944SOL    HW120465   0.621   3.944   4.251 -1.4212  2.4643  0.1193
 2944SOL    HW220466   0.677   4.067   4.316  0.5886  0.2544 -0.4138
 2945SOL     OW20467   0.980   2.879  15.929 -0.4390  0.6732 -0.0971
 2945SOL    HW120468   1.012   2.910  16.013  0.1328  1.5235 -0.6244
 2945SOL    HW220469   1.014   2.945  15.869  0.8194 -2.4243 -2.7853
 2946SOL     OW20470   0.645   3.726  13.316 -0.2921 -0.3555 -0.5315
 2946SOL    HW120471   0.657   3.817  13.291 -0.9575 -0.2736 -0.5445
 2946SOL    HW220472   0.675   3.689  13.233  2.3322  1.3130 -0.3158
 2947SOL     OW20473   1.576   3.320  14.115 -0.0463  0.0322 -0.2810
 2947SOL    HW120474   1.496   3.269  14.100 -0.4211  0.1865  1.1969
 2947SOL    HW220475   1.634   3.278  14.052 -0.8192  1.0519 -1.6871
 2948SOL     OW20476   4.600   1.981   6.183 -0.1429  0.5967  0.1264
 2948SOL    HW120477   4.597   1.897   6.228 -1.8776  1.2389  1.2090
 2948SOL    HW220478   4.549   1.959   6.105  0.9625 -1.0187 -0.1425
 2949SOL     OW20479   3.871   4.458   2.947 -0.4469 -0.6447 -0.2160
 2949SOL    HW120480   3.890   4.541   2.905  1.0998 -1.3293 -0.8463
 2949SOL    HW220481   3.828   4.412   2.875  0.1907 -0.6428 -0.5993
 2950SOL     OW20482   0.777   2.764   7.364 -0.1753 -0.0563  0.4999
 2950SOL    HW120483   0.778   2.726   7.276 -1.5663 -2.0740  1.3483
 2950SOL    HW220484   0.721   2.712   7.421 -1.8000  2.0931  0.8681
 2951SOL     OW20485   2.335   1.355   6.336  0.5345  0.0163 -0.5364
 2951SOL    HW120486   2.405   1.302   6.299  0.2501  0.6783 -2.0540
 2951SOL    HW220487   2.319   1.308   6.418 -1.3741  1.8824  0.1743
 2952SOL     OW20488   2.577   0.373   4.414  0.4466 -0.6172  0.4809
 2952SOL    HW120489   2.640   0.312   4.375 -0.4403  0.2421 -2.2297
 2952SOL    HW220490   2.590   0.367   4.509 -2.2428 -1.9450  0.7621
 2953SOL     OW20491   2.119   4.112   3.087 -0.5603 -0.2458 -0.3403
 2953SOL    HW120492   2.212   4.091   3.091 -0.7599 -0.9288  0.5495
 2953SOL    HW220493   2.099   4.132   3.178  0.3751  2.9557 -0.8049
 2954SOL     OW20494   4.129   3.462   1.065  0.7067  0.3743 -0.7978
 2954SOL    HW120495   4.064   3.396   1.039  2.2316 -1.2156 -0.5520
 2954SOL    HW220496   4.087   3.548   1.063  1.6264  0.8176 -0.9632
 2955SOL     OW20497   2.022   2.960   5.881 -0.3126  0.1274 -0.2094
 2955SOL    HW120498   2.014   2.870   5.915 -0.2831  0.1324 -0.1899
 2955SOL    HW220499   2.093   2.944   5.819 -1.3069 -0.6842 -1.1485
 2956SOL     OW20500   1.720   0.554   3.790 -0.0275 -0.2023  0.8534
 2956SOL    HW120501   1.806   0.528   3.824  0.7895 -0.4119 -1.3647
 2956SOL    HW220502   1.694   0.618   3.856 -1.5553 -0.9568  0.9815
 2957SOL     OW20503   2.260   0.101   3.786  0.9013  0.2534  0.6175
 2957SOL    HW120504   2.258   0.181   3.839  0.5912 -0.2451  1.3533
 2957SOL    HW220505   2.168   0.074   3.791  1.0290 -0.7186 -2.3018
 2958SOL     OW20506   2.196   3.397   9.287  0.3448 -0.0052 -0.5005
 2958SOL    HW120507   2.239   3.482   9.278 -2.7167  1.4288 -1.3132
 2958SOL    HW220508   2.275   3.346   9.268  1.2975  0.6802  1.5930
 2959SOL     OW20509   1.851   3.296  15.954  0.1934  0.8873 -0.0514
 2959SOL    HW120510   1.758   3.274  15.955  0.2460  0.6835  0.5496
 2959SOL    HW220511   1.898   3.215  15.934  1.2516  2.8280 -5.6408
 2960SOL     OW20512   3.549   1.353   8.791 -0.4252  0.1873  0.4558
 2960SOL    HW120513   3.471   1.337   8.738 -0.1141  1.5452 -0.4278
 2960SOL    HW220514   3.550   1.289   8.861 -1.3952  0.0661  0.3636
 2961SOL     OW20515   1.286   3.450   4.118 -0.6120  0.0191  0.4435
 2961SOL    HW120516   1.266   3.382   4.182  1.5736 -0.5787  0.4881
 2961SOL    HW220517   1.305   3.399   4.039  1.5716 -3.2128  3.0368
 2962SOL     OW20518   2.303   0.037   9.784 -0.6509  0.6559 -0.5440
 2962SOL    HW120519   2.290   0.028   9.690 -0.3429 -3.2964 -0.2264
 2962SOL    HW220520   2.392   0.001   9.788 -1.0290 -0.4091 -1.5846
 2963SOL     OW20521   2.416   1.315   3.790 -0.0230 -0.0566 -0.3781
 2963SOL    HW120522   2.502   1.332   3.751 -1.5818  3.8099 -2.1914
 2963SOL    HW220523   2.435   1.259   3.865  2.5978  0.8184 -0.3919
 2964SOL     OW20524   1.458   4.235   2.121 -0.5123 -0.2004  0.0256
 2964SOL    HW120525   1.515   4.167   2.158  0.5193  0.4213 -0.4463
 2964SOL    HW220526   1.380   4.240   2.177 -1.5630 -0.2462 -1.4600
 2965SOL     OW20527   1.509   2.780   3.499  0.0328  0.2113  0.0388
 2965SOL    HW120528   1.593   2.755   3.538 -0.9321 -2.2636  0.5182
 2965SOL    HW220529   1.444   2.740   3.556 -0.8626 -0.2583 -1.3066
 2966SOL     OW20530   0.619   3.939  13.152  0.1213  0.5765 -0.1090
 2966SOL    HW120531   0.600   3.998  13.079  4.3545  0.5815 -1.2046
 2966SOL    HW220532   0.578   3.981  13.228  0.3818 -1.9389  1.4278
 2967SOL     OW20533   1.747   0.128   6.791  0.8378  0.2271 -0.4136
 2967SOL    HW120534   1.739   0.189   6.864 -0.8766  0.8238 -1.1006
 2967SOL    HW220535   1.668   0.076   6.808  0.9448  0.7884  1.8161
 2968SOL     OW20536   2.694   1.379   5.696 -0.1543 -0.5279  0.2838
 2968SOL    HW120537   2.609   1.402   5.661 -1.0771 -2.8593  0.9391
 2968SOL    HW220538   2.733   1.325   5.627 -0.5123 -0.9802  0.4369
 2969SOL     OW20539   0.314   1.863   6.098  0.4562 -0.0355 -0.5089
 2969SOL    HW120540   0.235   1.859   6.152 -0.2289  3.3441 -1.2346
 2969SOL    HW220541   0.341   1.953   6.114 -0.4322  0.0436  0.5274
 2970SOL     OW20542   0.534   1.092  15.389  0.5828  0.7220  0.6141
 2970SOL    HW120543   0.550   1.003  15.356 -1.5921  0.9641 -1.0862
 2970SOL    HW220544   0.439   1.102  15.393  0.2954 -1.9122  0.7304
 2971SOL     OW20545   0.148   1.048   8.464  0.2385 -0.9271 -0.1358
 2971SOL    HW120546   0.216   1.009   8.409 -0.2015 -3.2536  0.9963
 2971SOL    HW220547   0.193   1.097   8.533 -0.3862 -1.3447  0.5612
 2972SOL     OW20548   0.985   4.581  16.283  0.7274  0.1663 -0.0647
 2972SOL    HW120549   1.036   4.544  16.211  1.6144 -0.3911  0.8558
 2972SOL    HW220550   0.997   4.515  16.351 -2.2758  1.0269  1.3024
 2973SOL     OW20551   4.570   2.483   4.368 -0.0573 -0.0651  0.8387
 2973SOL    HW120552   4.533   2.497   4.281  1.5953  1.8423  0.4392
 2973SOL    HW220553   4.560   2.389   4.377 -0.2891  0.0789  2.1740
 2974SOL     OW20554   4.306   4.443  11.601 -0.1536 -0.4569 -0.1016
 2974SOL    HW120555   4.296   4.415  11.692 -1.4336  0.1502 -0.0500
 2974SOL    HW220556   4.237   4.400  11.551 -0.0745  0.5299 -1.0573
 2975SOL     OW20557   1.112   3.548   3.178 -0.1499  0.2354 -0.0685
 2975SOL    HW120558   1.052   3.593   3.119  0.2795 -1.6130 -1.9189
 2975SOL    HW220559   1.196   3.593   3.164  1.0621 -1.7604  0.8036
 2976SOL     OW20560   3.308   2.610   8.548  0.1393  0.7449  0.2197
 2976SOL    HW120561   3.222   2.589   8.584  0.4616  0.8222  1.0580
 2976SOL    HW220562   3.361   2.531   8.561 -0.3299  0.5147  0.7487
 2977SOL     OW20563   1.330   1.924   9.299  0.3007  0.4296  0.1478
 2977SOL    HW120564   1.367   1.857   9.242 -2.0379 -0.3915 -0.3896
 2977SOL    HW220565   1.377   2.005   9.277  0.1514  0.1476 -1.2028
 2978SOL     OW20566   3.608   4.680   0.485 -0.2745 -0.1659  0.1279
 2978SOL    HW120567   3.655   4.645   0.561  0.2943 -0.3321 -0.3014
 2978SOL    HW220568   3.682   4.722   0.442  0.5598 -2.3899 -0.6019
 2979SOL     OW20569   0.069   3.327   8.916  0.0495 -0.1626 -0.6037
 2979SOL    HW120570   0.165   3.331   8.921  0.0826 -0.0203 -1.3877
 2979SOL    HW220571   0.048   3.386   8.843 -1.3089 -0.5100 -0.4987
 2980SOL     OW20572   0.668   2.544   6.686  0.0221 -0.3475 -0.4336
 2980SOL    HW120573   0.630   2.508   6.605  0.2547 -1.1092 -0.2002
 2980SOL    HW220574   0.646   2.478   6.751  0.6121  0.0967  0.2138
 2981SOL     OW20575   2.469   2.425   7.469 -0.1828 -0.6825 -0.4220
 2981SOL    HW120576   2.416   2.477   7.528 -0.2715 -0.4596 -0.6960
 2981SOL    HW220577   2.406   2.413   7.398  1.0743  0.3374 -1.7227
 2982SOL     OW20578   3.965   3.921   3.199  0.0502 -0.2292 -0.1320
 2982SOL    HW120579   3.951   3.838   3.152 -0.2531 -1.2232  1.7195
 2982SOL    HW220580   4.054   3.941   3.168 -0.6942  1.9485 -0.8704
 2983SOL     OW20581   4.380   3.233   7.242  0.2070  0.5690  0.0910
 2983SOL    HW120582   4.337   3.305   7.288 -0.1273 -0.3656  1.2365
 2983SOL    HW220583   4.308   3.170   7.251 -0.7934  2.2973  3.9736
 2984SOL     OW20584   3.322   1.152   5.449 -0.5090 -0.4446 -0.8649
 2984SOL    HW120585   3.258   1.213   5.413  0.3829  0.4261 -0.9897
 2984SOL    HW220586   3.394   1.155   5.386  0.7961  1.0820  0.6942
 2985SOL     OW20587   3.594   2.860  15.746 -0.1302 -0.1347  0.0143
 2985SOL    HW120588   3.551   2.946  15.744  1.1194  0.4823 -0.2551
 2985SOL    HW220589   3.684   2.883  15.724 -0.8038  0.8537 -1.7462
 2986SOL     OW20590   4.302   3.052   4.470  0.3436  0.9777 -0.2334
 2986SOL    HW120591   4.302   3.055   4.375  1.2394 -1.9300 -0.3176
 2986SOL    HW220592   4.246   3.128   4.487  1.1860  1.9619 -1.9462
 2987SOL     OW20593   2.045   3.637   4.372 -0.2964 -0.4129  0.6185
 2987SOL    HW120594   1.963   3.588   4.375 -1.7194  1.9098 -0.2201
 2987SOL    HW220595   2.098   3.567   4.409  1.9694  0.3345 -1.2145
 2988SOL     OW20596   0.454   4.647   3.744 -0.1496 -0.0993  0.4654
 2988SOL    HW120597   0.367   4.610   3.757  0.0950 -0.2049  1.7215
 2988SOL    HW220598   0.509   4.571   3.724  2.1775  1.8246 -0.4205
 2989SOL     OW20599   2.561   0.471  14.169  0.2944 -0.1494 -0.3800
 2989SOL    HW120600   2.650   0.442  14.151  0.2678 -0.2149 -0.4053
 2989SOL    HW220601   2.541   0.524  14.091 -0.8028 -0.6088 -0.4090
 2990SOL     OW20602   1.196   0.682   3.408  0.2415  0.1777  0.0400
 2990SOL    HW120603   1.266   0.717   3.463  0.3253  1.5589 -0.9212
 2990SOL    HW220604   1.189   0.597   3.450 -2.8350  1.2760  1.7752
 2991SOL     OW20605   2.126   2.369  17.085  0.2763 -0.3457  0.4493
 2991SOL    HW120606   2.082   2.454  17.094  0.7430  0.1248 -1.6434
 2991SOL    HW220607   2.216   2.390  17.060  0.0798  1.9032  1.6634
 2992SOL     OW20608   1.290   2.348   9.675  0.2296  0.1226 -0.0274
 2992SOL    HW120609   1.258   2.260   9.653 -2.5313  1.6232 -1.8721
 2992SOL    HW220610   1.223   2.408   9.643  0.9605  1.7527  1.4803
 2993SOL     OW20611   4.562   2.429   8.382 -0.4139  0.0249 -0.9052
 2993SOL    HW120612   4.505   2.485   8.435 -0.0895 -0.1890 -0.3306
 2993SOL    HW220613   4.544   2.346   8.426 -0.0695 -0.1982 -1.1915
 2994SOL     OW20614   0.177   4.321   5.033 -0.5361  0.0185  0.7046
 2994SOL    HW120615   0.249   4.257   5.038 -0.0009  0.4519 -1.4521
 2994SOL    HW220616   0.212   4.375   4.962 -0.2177 -3.7434 -2.0251
 2995SOL     OW20617   0.343   0.421   8.047 -0.4310  0.1727  0.0122
 2995SOL    HW120618   0.283   0.425   7.973  0.3418  0.5757 -0.5883
 2995SOL    HW220619   0.351   0.328   8.066  1.0919  0.5146  1.0753
 2996SOL     OW20620   4.385   2.539   3.410 -0.2868 -0.2696  0.3884
 2996SOL    HW120621   4.416   2.628   3.428  1.3660 -1.3768  3.0807
 2996SOL    HW220622   4.319   2.548   3.342  1.4536  1.0510 -1.1440
 2997SOL     OW20623   3.375   4.705   2.156 -0.8363 -0.3994  0.3652
 2997SOL    HW120624   3.454   4.709   2.103 -2.6319  1.8192 -2.0769
 2997SOL    HW220625   3.411   4.721   2.244 -1.1868 -0.3641  0.5016
 2998SOL     OW20626   4.627   2.209   6.383  0.0739 -0.1880 -0.5824
 2998SOL    HW120627   4.689   2.138   6.397 -1.9373 -1.3468  2.4174
 2998SOL    HW220628   4.635   2.217   6.288 -3.1600  2.7672 -0.6157
 2999SOL     OW20629   3.496   0.648   8.555 -0.4610  0.2089 -0.1580
 2999SOL    HW120630   3.427   0.595   8.596 -1.0281  1.6106  0.6956
 2999SOL    HW220631   3.460   0.734   8.576  1.3710  0.7641  0.5961
 3000SOL     OW20632   1.988   0.802   1.720  0.3650 -0.0834 -0.5569
 3000SOL    HW120633   1.896   0.773   1.715  0.3547 -0.2416  0.7660
 3000SOL    HW220634   2.031   0.726   1.681  0.4272 -0.0009 -0.6497
 3001SOL     OW20635   1.584   2.252   6.414  0.1730 -0.3795 -0.1116
 3001SOL    HW120636   1.568   2.158   6.407  0.2683 -0.1006 -3.9816
 3001SOL    HW220637   1.508   2.281   6.364 -0.4896  0.2531  1.2642
 3002SOL     OW20638   2.808   1.941   1.379 -0.4499  0.2959 -0.7054
 3002SOL    HW120639   2.882   1.944   1.440 -1.3837  1.1356  0.4006
 3002SOL    HW220640   2.777   1.853   1.398 -2.0812  0.9753 -0.1567
 3003SOL     OW20641   0.568   2.799  12.368  0.9569  0.0012  0.5272
 3003SOL    HW120642   0.528   2.883  12.389  0.1087 -0.0612 -0.8357
 3003SOL    HW220643   0.488   2.748  12.377  1.6023 -1.0536  0.3132
 3004SOL     OW20644   3.529   1.820   9.468  0.5891  0.0211  0.1617
 3004SOL    HW120645   3.565   1.738   9.433 -0.6970 -0.6004  0.2837
 3004SOL    HW220646   3.593   1.855   9.530  0.8495  0.6407 -0.4566
 3005SOL     OW20647   1.065   1.662   7.165  0.1002 -0.5409  0.4909
 3005SOL    HW120648   1.144   1.620   7.198  1.3892  2.5028  1.2865
 3005SOL    HW220649   0.997   1.594   7.166 -0.9094  0.4601  0.2266
 3006SOL     OW20650   2.265   3.773  12.573 -0.2914 -0.5888  0.2578
 3006SOL    HW120651   2.336   3.726  12.616 -0.7721 -2.3759 -0.8790
 3006SOL    HW220652   2.192   3.713  12.591  0.1694 -1.1041  0.3975
 3007SOL     OW20653   1.679   0.573   5.742 -0.1824 -0.0006  0.2144
 3007SOL    HW120654   1.695   0.532   5.827  0.3884 -0.1510  0.0362
 3007SOL    HW220655   1.623   0.506   5.704 -0.8234  0.6360  0.0417
 3008SOL     OW20656   2.424   3.217  10.708  0.3859  0.4194 -0.2845
 3008SOL    HW120657   2.463   3.269  10.638 -0.7196 -0.6060 -1.6746
 3008SOL    HW220658   2.330   3.233  10.702  0.7654  3.5248  2.5689
 3009SOL     OW20659   1.950   2.852   5.469 -0.4824  0.0207  0.7164
 3009SOL    HW120660   2.003   2.882   5.395  0.4132  2.3756  2.3075
 3009SOL    HW220661   1.993   2.768   5.485 -0.5807  0.1976  1.9320
 3010SOL     OW20662   3.625   3.878  16.679 -0.1904  0.7134  0.3812
 3010SOL    HW120663   3.694   3.901  16.741  1.8682 -2.5006 -0.6859
 3010SOL    HW220664   3.542   3.887  16.726  0.1125 -0.1318  1.0671
 3011SOL     OW20665   4.325   3.049   2.716 -0.3928 -0.1773  0.5658
 3011SOL    HW120666   4.339   3.044   2.811 -1.5741 -0.5306  0.7136
 3011SOL    HW220667   4.234   3.023   2.705 -0.4119  0.9606 -1.8979
 3012SOL     OW20668   3.079   4.052  16.260 -0.4827  0.2257  0.3884
 3012SOL    HW120669   3.046   3.962  16.268  0.6693 -0.2838 -0.6129
 3012SOL    HW220670   3.009   4.093  16.210  1.1498 -0.0314 -2.1085
 3013SOL     OW20671   0.550   1.452   8.688 -0.1146  0.2521  0.2425
 3013SOL    HW120672   0.593   1.456   8.603  1.9321  0.2503  1.2752
 3013SOL    HW220673   0.614   1.404   8.741  1.6555  1.0238 -1.2169
 3014SOL     OW20674   2.931   0.393   5.057  0.0245 -0.3135  0.2057
 3014SOL    HW120675   3.019   0.360   5.070 -0.2963 -1.5136 -0.7491
 3014SOL    HW220676   2.887   0.313   5.029  0.3884 -0.8582  1.2309
 3015SOL     OW20677   3.956   3.356   5.485 -0.0327  0.0641  0.4236
 3015SOL    HW120678   4.033   3.371   5.541 -0.6015  1.4801  0.8263
 3015SOL    HW220679   3.892   3.406   5.534 -1.4536 -1.6316  0.2910
 3016SOL     OW20680   3.507   0.408   2.558  0.1553 -0.1215  0.2986
 3016SOL    HW120681   3.418   0.410   2.523 -0.0471  1.4181  0.9111
 3016SOL    HW220682   3.501   0.334   2.618  1.9301  0.1521  0.8237
 3017SOL     OW20683   0.793   4.507   3.647  0.3975 -0.5520 -0.3916
 3017SOL    HW120684   0.722   4.453   3.612  1.0311 -1.1540 -0.7650
 3017SOL    HW220685   0.876   4.463   3.626  1.1065  0.3022  0.6503
 3018SOL     OW20686   3.258   2.370   7.423 -0.0485 -0.0560 -0.1407
 3018SOL    HW120687   3.343   2.338   7.455  0.5490  2.2619  0.6201
 3018SOL    HW220688   3.272   2.464   7.440 -0.7979 -0.0642  0.4883
 3019SOL     OW20689   3.858   3.009   3.872 -0.7732 -0.1672 -0.5496
 3019SOL    HW120690   3.829   2.965   3.953  2.8003 -1.6012 -0.0300
 3019SOL    HW220691   3.783   2.989   3.817 -0.6544 -0.3152 -0.6558
 3020SOL     OW20692   2.666   0.663  14.694  0.3193 -0.3740  0.2762
 3020SOL    HW120693   2.597   0.603  14.664  0.2323  0.4932 -1.2955
 3020SOL    HW220694   2.622   0.707  14.766 -1.2833 -1.5069 -0.0290
 3021SOL     OW20695   4.116   3.841   4.509  0.0284  0.1662 -0.3355
 3021SOL    HW120696   4.088   3.808   4.424  2.2012 -0.5879 -0.7330
 3021SOL    HW220697   4.049   3.909   4.519  0.9431  0.7775  1.7577
 3022SOL     OW20698   2.044   3.988   5.958  0.2018 -0.1322 -0.6004
 3022SOL    HW120699   2.073   4.011   5.869 -2.1411  2.6414 -0.6301
 3022SOL    HW220700   2.103   4.044   6.009  0.0429  0.3935 -0.9963
 3023SOL     OW20701   1.581   3.148   5.320 -0.3308 -0.1665 -1.0087
 3023SOL    HW120702   1.628   3.207   5.379 -1.5251  1.6765 -1.9079
 3023SOL    HW220703   1.594   3.064   5.364 -0.2111  0.4449  0.1086
 3024SOL     OW20704   2.229   1.245   5.207  0.4174  0.5246  0.8916
 3024SOL    HW120705   2.319   1.224   5.184  0.1795 -0.9282  1.2905
 3024SOL    HW220706   2.234   1.338   5.230  0.3496  1.0975 -1.4312
 3025SOL     OW20707   1.388   3.529   5.707 -0.1542  0.0315 -0.0830
 3025SOL    HW120708   1.303   3.553   5.670  0.2184  0.8459 -0.4121
 3025SOL    HW220709   1.427   3.508   5.622  1.4661 -0.0767  0.6853
 3026SOL     OW20710   0.846   1.077  17.229 -0.4391  0.0965  0.2624
 3026SOL    HW120711   0.883   1.162  17.202  0.1627 -0.0989  0.4756
 3026SOL    HW220712   0.791   1.098  17.305  2.1846  3.4704  1.2460
 3027SOL     OW20713   2.362   4.516   5.803 -0.3319 -0.3569  0.4582
 3027SOL    HW120714   2.342   4.610   5.801 -1.6762 -0.6442  0.2735
 3027SOL    HW220715   2.296   4.476   5.859  0.0823 -0.1466  1.0906
 3028SOL     OW20716   3.903   0.798   0.228  0.0493  0.0603  0.2333
 3028SOL    HW120717   3.822   0.752   0.251  2.1470 -3.9705 -0.3445
 3028SOL    HW220718   3.951   0.782   0.309 -0.4392  1.8111  0.8646
 3029SOL     OW20719   3.147   2.459   2.345 -0.7702 -0.1430  0.5000
 3029SOL    HW120720   3.117   2.368   2.334  0.9787 -0.8678  1.7367
 3029SOL    HW220721   3.111   2.489   2.428  0.2207  0.7412  0.5981
 3030SOL     OW20722   2.169   2.818   6.645 -0.0126  0.0270 -0.0924
 3030SOL    HW120723   2.116   2.897   6.640 -1.9313 -1.5853 -4.4192
 3030SOL    HW220724   2.206   2.809   6.733 -0.1200  0.4379 -0.0047
 3031SOL     OW20725   2.386   3.156   3.416  0.0593  0.8413 -0.1349
 3031SOL    HW120726   2.419   3.128   3.330 -1.1915  1.0707 -0.6922
 3031SOL    HW220727   2.391   3.252   3.410 -2.0732  0.8455 -2.0583
 3032SOL     OW20728   4.119   0.455   0.518 -0.1625 -0.1353 -0.0868
 3032SOL    HW120729   4.154   0.483   0.434  0.0566  0.3369  0.1624
 3032SOL    HW220730   4.033   0.433   0.482 -0.3636  0.8286 -0.1755
 3033SOL     OW20731   0.510   3.967  11.306  0.4370 -0.3915 -0.0112
 3033SOL    HW120732   0.546   3.976  11.218  2.4988 -0.2034  0.8421
 3033SOL    HW220733   0.418   3.978  11.283  0.4599  0.5517  0.3124
 3034SOL     OW20734   2.862   0.612   0.717  0.0646 -0.2565 -0.3394
 3034SOL    HW120735   2.914   0.691   0.731 -1.2708  0.6292 -0.3782
 3034SOL    HW220736   2.773   0.630   0.748  0.3700  0.3032  0.2278
 3035SOL     OW20737   1.236   0.297  14.986 -0.6413  0.4910  0.3857
 3035SOL    HW120738   1.190   0.374  15.019 -2.0924 -0.2578  0.1308
 3035SOL    HW220739   1.214   0.289  14.893  1.4579  0.6846 -0.1221
 3036SOL     OW20740   4.555   3.697   3.701  0.2561  0.0589  0.3069
 3036SOL    HW120741   4.463   3.708   3.677  0.5440 -0.9202 -1.2629
 3036SOL    HW220742   4.598   3.669   3.619 -1.6071 -3.0645  0.3889
 3037SOL     OW20743   1.569   4.476  13.194  0.5182 -0.5814 -0.2674
 3037SOL    HW120744   1.498   4.428  13.236 -2.1790  2.8872 -0.8921
 3037SOL    HW220745   1.645   4.431  13.231  0.1862 -0.9977 -0.0972
 3038SOL     OW20746   3.653   2.383   8.365 -0.5162  0.1450 -0.1218
 3038SOL    HW120747   3.700   2.449   8.417 -1.5480 -1.4324  2.8255
 3038SOL    HW220748   3.708   2.308   8.388 -1.6442  0.1345  2.6661
 3039SOL     OW20749   2.722   0.860   6.969 -0.5926 -0.4160  0.2518
 3039SOL    HW120750   2.748   0.952   6.971  1.0004 -0.8375 -1.1429
 3039SOL    HW220751   2.706   0.852   6.875 -0.9481 -2.2173  0.4596
 3040SOL     OW20752   1.015   1.786  16.568  0.1341 -0.0180  0.5416
 3040SOL    HW120753   1.036   1.876  16.592 -0.1847  0.0630  0.5251
 3040SOL    HW220754   0.988   1.747  16.651 -0.7432  0.3853  0.4493
 3041SOL     OW20755   3.265   3.682   3.846  0.2646 -0.8417  0.2204
 3041SOL    HW120756   3.259   3.707   3.754 -1.2545  0.1278  0.5859
 3041SOL    HW220757   3.299   3.761   3.887 -1.0438 -0.5593  0.7490
 3042SOL     OW20758   2.041   2.977  17.414 -0.5427 -0.3880  1.0738
 3042SOL    HW120759   2.110   3.012  17.470  2.0452 -1.8918 -1.1944
 3042SOL    HW220760   2.031   3.058  17.363  0.2616 -0.9693 -0.0199
 3043SOL     OW20761   2.648   3.543   3.446  1.0065  0.2175 -0.1139
 3043SOL    HW120762   2.556   3.516   3.440  0.6581  1.5633 -0.7370
 3043SOL    HW220763   2.631   3.636   3.438 -2.0036 -0.3394 -0.2523
 3044SOL     OW20764   1.348   3.098   4.749 -0.5104 -0.2811  0.1713
 3044SOL    HW120765   1.338   3.003   4.758  1.9951 -0.7096 -1.4910
 3044SOL    HW220766   1.358   3.105   4.655  0.6697 -0.3614  0.2820
 3045SOL     OW20767   3.311   2.620   4.613 -0.5219 -0.5904  0.2722
 3045SOL    HW120768   3.275   2.574   4.537 -1.0189  2.0432 -1.0672
 3045SOL    HW220769   3.311   2.708   4.577  0.2735 -0.9935 -0.7141
 3046SOL     OW20770   3.329   3.491   3.111  0.3875  0.5278  1.1151
 3046SOL    HW120771   3.307   3.559   3.047 -2.8815 -0.2140  1.4585
 3046SOL    HW220772   3.250   3.438   3.107  1.6583 -1.3265  1.0185
 3047SOL     OW20773   1.082   2.229   6.111  0.6474 -0.3814  0.2070
 3047SOL    HW120774   1.037   2.176   6.044  1.0363 -0.2402 -0.1650
 3047SOL    HW220775   1.012   2.231   6.176  1.6022  1.2597  1.1682
 3048SOL     OW20776   0.570   1.506   4.430  0.2481  0.4090  0.0637
 3048SOL    HW120777   0.611   1.432   4.385 -1.1321  0.4755 -1.3023
 3048SOL    HW220778   0.560   1.473   4.519  3.2673 -0.4520  0.0897
 3049SOL     OW20779   2.870   1.809   8.751  0.1801 -0.2762 -0.0338
 3049SOL    HW120780   2.910   1.738   8.700  0.8554  0.6690 -0.8256
 3049SOL    HW220781   2.778   1.789   8.765 -0.8441  3.4631 -1.3408
 3050SOL     OW20782   4.533   0.810  12.790  0.6282  0.4277 -0.2401
 3050SOL    HW120783   4.579   0.845  12.714  0.4220 -0.4385 -0.7627
 3050SOL    HW220784   4.581   0.853  12.861 -1.7987  3.3999 -0.3529
 3051SOL     OW20785   0.806   3.437  10.584 -0.2910 -0.1513  0.7154
 3051SOL    HW120786   0.871   3.379  10.544  0.4282  2.4707 -1.9291
 3051SOL    HW220787   0.729   3.379  10.590  0.1215 -0.6446  1.3016
 3052SOL     OW20788   2.788   0.702   8.563  0.1522  0.2845  0.0768
 3052SOL    HW120789   2.810   0.609   8.558  3.5934  1.0385  1.6195
 3052SOL    HW220790   2.790   0.713   8.658 -1.6405  2.5495 -0.1338
 3053SOL     OW20791   1.849   1.040   2.416 -0.7845  0.3962 -0.2537
 3053SOL    HW120792   1.850   1.136   2.416  1.4765  0.3764  0.4106
 3053SOL    HW220793   1.941   1.015   2.415 -0.6592  0.8947 -1.0818
 3054SOL     OW20794   0.812   3.800   6.618 -0.1725 -0.1551 -0.6073
 3054SOL    HW120795   0.761   3.790   6.698 -0.5511 -1.6437 -1.0383
 3054SOL    HW220796   0.895   3.838   6.648 -2.0218 -0.1853  4.4888
 3055SOL     OW20797   2.983   2.891   3.836  0.3334  0.0442 -0.3360
 3055SOL    HW120798   3.056   2.830   3.840  1.2464  1.2476  1.0967
 3055SOL    HW220799   3.015   2.977   3.862  0.5613 -0.3781  0.7501
 3056SOL     OW20800   2.900   0.368   4.588  0.0768 -0.2600  0.2152
 3056SOL    HW120801   2.968   0.329   4.642 -0.6569  0.4741  1.6897
 3056SOL    HW220802   2.947   0.434   4.536  0.7730  0.4775  1.7699
 3057SOL     OW20803   0.582   0.645   3.502  0.3303  0.0138  0.6218
 3057SOL    HW120804   0.515   0.621   3.437  0.4816  0.7735  0.1899
 3057SOL    HW220805   0.632   0.563   3.501 -0.6903 -0.6009 -0.3033
 3058SOL     OW20806   1.761   2.114   1.562 -0.4461 -0.2153 -0.2223
 3058SOL    HW120807   1.700   2.066   1.617  0.6283 -0.8011  0.4658
 3058SOL    HW220808   1.726   2.203   1.568 -0.6666 -0.1250 -2.8680
 3059SOL     OW20809   3.243   0.458  10.021 -0.2338  0.4066  0.0785
 3059SOL    HW120810   3.280   0.379  10.060 -3.9142 -1.2476  0.2023
 3059SOL    HW220811   3.184   0.479  10.093 -0.4377  1.5807 -0.4311
 3060SOL     OW20812   2.999   3.463   8.154 -0.7713  0.7553 -0.5404
 3060SOL    HW120813   3.061   3.414   8.207 -2.2076 -0.7294 -0.2016
 3060SOL    HW220814   2.953   3.392   8.108  0.1560 -0.5873  0.6193
 3061SOL     OW20815   2.057   2.723   4.923 -0.3333 -0.1930  0.1198
 3061SOL    HW120816   1.970   2.762   4.935 -0.7215 -0.9656 -0.1968
 3061SOL    HW220817   2.042   2.635   4.889 -1.2976  1.1515 -2.9730
 3062SOL     OW20818   3.164   4.157   6.618  0.0893  0.0436  0.0521
 3062SOL    HW120819   3.194   4.106   6.543  0.9587  0.4575  0.1260
 3062SOL    HW220820   3.163   4.246   6.583 -0.4819 -0.3352 -0.9117
 3063SOL     OW20821   3.026   3.906  10.883  0.4950  0.3820 -0.3758
 3063SOL    HW120822   3.014   3.996  10.852 -0.3795  0.7331  1.0018
 3063SOL    HW220823   2.955   3.896  10.946 -0.1379 -0.3718 -1.2060
 3064SOL     OW20824   1.116   3.017  15.741  0.0881  0.2651  0.1412
 3064SOL    HW120825   1.067   3.002  15.660  1.7856 -3.6946 -0.1639
 3064SOL    HW220826   1.109   3.112  15.751 -0.1287  0.3380 -0.6966
 3065SOL     OW20827   2.363   1.814   9.113 -0.0780  0.1626  0.5183
 3065SOL    HW120828   2.387   1.831   9.022  2.1429 -0.1875  1.0169
 3065SOL    HW220829   2.272   1.791   9.098 -0.2925  1.1615  0.3611
 3066SOL     OW20830   0.316   1.669   2.126  0.0036 -0.6831 -0.4104
 3066SOL    HW120831   0.267   1.620   2.192  0.4562  0.0159  0.4548
 3066SOL    HW220832   0.355   1.598   2.076 -0.5197  1.6785 -4.1649
 3067SOL     OW20833   3.958   4.385   3.557  0.0412  0.2588  0.2824
 3067SOL    HW120834   3.926   4.297   3.579 -1.2417  0.5562 -0.3664
 3067SOL    HW220835   3.885   4.419   3.504  0.0684 -1.8154 -1.1099
 3068SOL     OW20836   4.530   0.144   4.913  0.4150  0.5237  0.0170
 3068SOL    HW120837   4.444   0.164   4.877  0.0411  1.7803  1.5867
 3068SOL    HW220838   4.524   0.049   4.907 -0.1203  0.6780 -1.8080
 3069SOL     OW20839   1.636   0.642  12.067  0.5822  0.2753  0.0100
 3069SOL    HW120840   1.649   0.559  12.021  1.8775 -0.1372  1.1177
 3069SOL    HW220841   1.571   0.687  12.012  1.6156 -0.9860 -2.2522
 3070SOL     OW20842   3.531   0.985  15.028 -0.0372 -0.5661 -0.8147
 3070SOL    HW120843   3.617   1.028  15.028 -0.9464  1.2532  0.7348
 3070SOL    HW220844   3.485   1.059  14.988 -1.4355 -0.8945  0.1707
 3071SOL     OW20845   3.270   0.518   0.322 -0.1082  0.1032 -0.2420
 3071SOL    HW120846   3.189   0.561   0.349  2.0077  3.1332  1.3700
 3071SOL    HW220847   3.335   0.546   0.387 -0.7394  2.3354 -0.5623
 3072SOL     OW20848   4.326   3.658   5.964 -0.1194  0.0514 -0.1716
 3072SOL    HW120849   4.363   3.662   6.052  1.1715 -2.8436 -0.5725
 3072SOL    HW220850   4.341   3.566   5.941 -1.4555  0.1766 -1.5618
 3073SOL     OW20851   0.055   1.215   2.411  0.1062 -0.2165 -0.6303
 3073SOL    HW120852   0.116   1.207   2.484 -0.0734 -2.9990 -0.7855
 3073SOL    HW220853   4.708   1.211   2.452  1.2509  0.2159  1.8189
 3074SOL     OW20854   0.115   3.005   2.848  0.2055  0.5065  0.4095
 3074SOL    HW120855   0.136   2.912   2.841 -1.4003  0.2069 -0.4917
 3074SOL    HW220856   0.118   3.007   2.943 -1.0015  0.2145  0.4583
 3075SOL     OW20857   2.797   2.738  13.119  0.7617  0.8552  0.5578
 3075SOL    HW120858   2.816   2.827  13.148  1.8823 -0.1174  2.8414
 3075SOL    HW220859   2.836   2.747  13.032 -0.2400  1.7516  0.2056
 3076SOL     OW20860   1.020   1.140   6.655 -0.5115  0.3376 -0.1147
 3076SOL    HW120861   1.015   1.190   6.573 -0.7140 -0.8821 -0.8454
 3076SOL    HW220862   0.924   1.134   6.659 -0.4453 -2.4677 -2.1958
 3077SOL     OW20863   1.711   2.937   6.768  0.3240  0.1101 -0.0784
 3077SOL    HW120864   1.788   2.988   6.745  0.6653 -1.0833 -1.5522
 3077SOL    HW220865   1.721   2.931   6.863  0.1034 -1.7509 -0.1657
 3078SOL     OW20866   3.838   1.923   5.906  0.0139 -0.1298  0.6116
 3078SOL    HW120867   3.922   1.963   5.883  0.3180 -1.7162 -1.0050
 3078SOL    HW220868   3.771   1.990   5.891  0.9097  0.8273  0.8512
 3079SOL     OW20869   3.363   2.932   4.056  0.2715 -0.0291  0.7241
 3079SOL    HW120870   3.398   2.850   4.089 -3.8669 -1.5765  1.3404
 3079SOL    HW220871   3.284   2.948   4.108  0.7057 -0.9999  1.6673
 3080SOL     OW20872   2.977   1.921   3.324 -0.0062  0.6486 -0.4947
 3080SOL    HW120873   2.959   1.964   3.240 -0.8258 -0.7998 -1.0453
 3080SOL    HW220874   2.979   1.829   3.298 -3.4736  0.1467  0.9891
 3081SOL     OW20875   1.171   3.004  14.953  0.1576  0.1726 -0.2054
 3081SOL    HW120876   1.080   3.032  14.961  0.1692 -0.2517  1.4765
 3081SOL    HW220877   1.194   3.062  14.881 -0.9854  0.9027  0.0105
 3082SOL     OW20878   4.299   2.056   6.676  0.3456  0.6384  0.2053
 3082SOL    HW120879   4.328   2.045   6.586  0.6619 -0.9937  0.5148
 3082SOL    HW220880   4.241   1.980   6.679  1.1336  0.0884  1.2469
 3083SOL     OW20881   1.945   4.173   7.573  0.1317  0.1251  0.1454
 3083SOL    HW120882   1.959   4.146   7.482  0.8421  1.0001 -0.0099
 3083SOL    HW220883   1.910   4.090   7.605  1.1852  0.2629  1.6481
 3084SOL     OW20884   1.399   3.883   2.368 -0.1460  0.1060  0.0907
 3084SOL    HW120885   1.348   3.926   2.437 -3.0523 -1.1730 -1.2447
 3084SOL    HW220886   1.359   3.796   2.360 -0.1565  0.1886 -0.6952
 3085SOL     OW20887   2.615   3.107   8.022 -0.0315  0.1341  0.2405
 3085SOL    HW120888   2.564   3.066   8.092 -0.7421 -0.1490 -0.4406
 3085SOL    HW220889   2.550   3.164   7.982 -2.1572 -0.4401  2.9380
 3086SOL     OW20890   0.594   4.525   2.649  0.4495  0.8654  0.0558
 3086SOL    HW120891   0.531   4.593   2.675  0.2289  0.8389 -0.4159
 3086SOL    HW220892   0.678   4.570   2.655  0.8474 -0.1122  1.9890
 3087SOL     OW20893   1.864   1.307   7.377  0.1104 -0.0661  0.1055
 3087SOL    HW120894   1.837   1.215   7.371  0.2528 -0.2298  1.9997
 3087SOL    HW220895   1.906   1.305   7.463 -2.9716  0.8359  1.6147
 3088SOL     OW20896   2.954   3.900   9.341  0.1417  0.1066  0.1346
 3088SOL    HW120897   3.043   3.915   9.308  0.5732 -0.1966  1.1788
 3088SOL    HW220898   2.922   3.989   9.353  0.3673  0.1041  0.7185
 3089SOL     OW20899   1.942   1.886   4.822  0.0779 -0.2038 -0.3492
 3089SOL    HW120900   1.989   1.813   4.781  1.5340  0.8092 -0.5062
 3089SOL    HW220901   1.957   1.875   4.916  1.3317  0.9187 -0.4197
 3090SOL     OW20902   0.747   4.668   9.597 -0.1211  0.6670 -0.1548
 3090SOL    HW120903   0.725   4.736   9.662  0.1456  1.4998 -0.9366
 3090SOL    HW220904   0.707   4.707   9.519 -0.5651  0.4430 -0.0388
 3091SOL     OW20905   3.824   2.026   8.789  0.7888 -0.0230 -0.2828
 3091SOL    HW120906   3.803   2.119   8.782 -0.4114 -0.3333 -0.9816
 3091SOL    HW220907   3.732   2.000   8.786  0.7540  0.0786 -0.1034
 3092SOL     OW20908   0.217   2.140  12.360  0.2060 -0.0707 -0.6925
 3092SOL    HW120909   0.275   2.065  12.373  1.2357  0.9932  0.7114
 3092SOL    HW220910   0.208   2.140  12.264 -0.9012  0.0761 -0.5963
 3093SOL     OW20911   4.563   1.828   6.948 -0.5443  0.0841  0.1368
 3093SOL    HW120912   4.496   1.873   6.895  1.2903  0.3003 -2.0043
 3093SOL    HW220913   4.645   1.861   6.913  0.0847 -1.9263 -0.2943
 3094SOL     OW20914   2.122   4.416   5.365  0.0752  0.4765 -0.2969
 3094SOL    HW120915   2.041   4.426   5.314 -0.4514 -1.0459  0.2382
 3094SOL    HW220916   2.159   4.504   5.361 -0.8972  1.0295  2.5066
 3095SOL     OW20917   4.504   4.508   1.379 -0.3929 -1.0563  0.1363
 3095SOL    HW120918   4.599   4.513   1.387 -0.7227  2.3001  1.5092
 3095SOL    HW220919   4.488   4.424   1.423  1.1409 -0.6383  1.4842
 3096SOL     OW20920   0.769   1.646  12.363 -0.2507 -0.5306 -0.3860
 3096SOL    HW120921   0.799   1.557  12.384 -1.1382 -1.0686 -1.4025
 3096SOL    HW220922   0.704   1.642  12.293  0.0974 -0.7906 -0.6935
 3097SOL     OW20923   4.299   3.192   3.559 -0.4480 -0.3262  0.3209
 3097SOL    HW120924   4.315   3.267   3.502  2.6549 -2.5315 -1.7316
 3097SOL    HW220925   4.203   3.196   3.557 -0.4436  1.5922  3.8626
 3098SOL     OW20926   4.425   0.400   1.023  0.4276  0.3986  0.2423
 3098SOL    HW120927   4.468   0.335   0.967 -1.0211 -0.5349  0.2056
 3098SOL    HW220928   4.334   0.379   1.000  0.6115 -0.6393  0.4557
 3099SOL     OW20929   3.938   2.164  16.281 -0.2412  0.0844 -1.3281
 3099SOL    HW120930   3.988   2.238  16.315  2.5190 -1.2615 -2.4191
 3099SOL    HW220931   3.856   2.209  16.260 -1.0876 -0.5795  0.5723
 3100SOL     OW20932   3.975   3.149   9.209 -0.3574 -0.3022 -0.2565
 3100SOL    HW120933   3.984   3.081   9.276 -0.4420  0.6718  0.7516
 3100SOL    HW220934   4.036   3.123   9.141 -0.0728  0.4376 -0.2877
 3101SOL     OW20935   4.638   0.877  14.147  0.1236  0.1385  0.0342
 3101SOL    HW120936   4.553   0.848  14.182  0.0545  0.9686  0.5465
 3101SOL    HW220937   4.606   0.958  14.105  1.4645  2.0826  2.8019
 3102SOL     OW20938   4.403   3.402   3.767 -0.2653 -1.1104  0.3885
 3102SOL    HW120939   4.494   3.387   3.791 -0.2349  0.7683  1.4822
 3102SOL    HW220940   4.361   3.324   3.801  2.4242 -2.5494  0.3631
 3103SOL     OW20941   4.185   2.147   1.906 -0.3398 -0.6863  0.2707
 3103SOL    HW120942   4.091   2.159   1.919 -0.3422 -2.1255  1.5141
 3103SOL    HW220943   4.214   2.151   1.997 -0.9594  0.0277  0.4364
 3104SOL     OW20944   4.404   2.696   7.157 -0.0209  0.6877  0.6614
 3104SOL    HW120945   4.397   2.603   7.135 -0.1183  0.6622  0.8008
 3104SOL    HW220946   4.348   2.708   7.234  2.3565  0.1957  2.4402
 3105SOL     OW20947   3.651   2.433   3.440  0.0825  0.2776  0.0020
 3105SOL    HW120948   3.659   2.455   3.347  0.4438 -0.8873 -0.2339
 3105SOL    HW220949   3.559   2.451   3.457  0.0655  2.0209 -1.9472
 3106SOL     OW20950   0.175   0.887   7.138 -0.2137  0.1491 -0.1043
 3106SOL    HW120951   0.218   0.825   7.197  2.5362  0.1499 -2.0797
 3106SOL    HW220952   0.238   0.958   7.123 -2.0234  1.3387 -1.9540
 3107SOL     OW20953   2.728   2.385   8.982 -0.1522  0.7149 -0.7788
 3107SOL    HW120954   2.791   2.343   9.040 -1.0078  0.3955 -0.0631
 3107SOL    HW220955   2.749   2.350   8.896 -1.1252  2.4469 -1.7182
 3108SOL     OW20956   4.628   2.606   5.031  0.1081  0.1419  0.6131
 3108SOL    HW120957   4.560   2.659   5.073 -1.9065 -1.1169 -1.0595
 3108SOL    HW220958   4.582   2.569   4.956  2.6679  0.8851 -1.3235
 3109SOL     OW20959   0.391   1.207  12.281 -0.1008 -0.5481  0.4385
 3109SOL    HW120960   0.381   1.219  12.376 -0.4935 -2.2967  0.6253
 3109SOL    HW220961   0.483   1.192  12.261 -0.7336 -0.5932 -2.4166
 3110SOL     OW20962   3.956   0.566   9.035  0.2969  0.0460  0.8206
 3110SOL    HW120963   4.026   0.606   8.983  0.6260 -0.9816  0.4751
 3110SOL    HW220964   4.004   0.562   9.118  1.2006 -2.0592  0.1860
 3111SOL     OW20965   4.427   1.806   0.830  0.3697  0.2236  0.0635
 3111SOL    HW120966   4.367   1.881   0.830  0.6588  0.4402  1.9925
 3111SOL    HW220967   4.499   1.838   0.775  1.3807  1.4240  2.0963
 3112SOL     OW20968   0.113   0.838   3.524 -0.2141 -0.6408 -0.2064
 3112SOL    HW120969   0.170   0.912   3.504  2.2707 -2.5724 -0.3702
 3112SOL    HW220970   0.065   0.823   3.443  0.0047 -1.3666 -0.2068
 3113SOL     OW20971   3.628   1.910   2.732  0.2427 -0.8218 -0.3111
 3113SOL    HW120972   3.722   1.921   2.727  0.2662  0.4590  3.2730
 3113SOL    HW220973   3.606   1.922   2.640 -1.5462 -2.4371 -0.0998
 3114SOL     OW20974   0.519   3.723  13.549 -0.3362 -0.2731  0.2907
 3114SOL    HW120975   0.570   3.773  13.613  1.0734  0.5227 -1.4506
 3114SOL    HW220976   0.576   3.713  13.473 -0.8873 -3.2421  0.2356
 3115SOL     OW20977   2.957   4.616   8.640 -0.1591 -0.1568  0.6017
 3115SOL    HW120978   2.877   4.656   8.605 -0.0910  0.1404  0.7883
 3115SOL    HW220979   2.983   4.578   8.556  0.3229  0.8969  0.2831
 3116SOL     OW20980   0.706   2.218   3.768 -0.2683  0.1851 -0.7024
 3116SOL    HW120981   0.724   2.222   3.862  2.6258 -0.8912 -1.2315
 3116SOL    HW220982   0.761   2.149   3.733 -0.6124 -1.3668  1.7967
 3117SOL     OW20983   0.680   1.301   1.689  0.0642  0.4270 -0.5694
 3117SOL    HW120984   0.603   1.327   1.639 -0.0237  0.4870 -0.4032
 3117SOL    HW220985   0.711   1.228   1.636 -0.1830  0.0144 -0.1417
 3118SOL     OW20986   2.028   2.762   0.476  0.2569  0.3197 -0.2570
 3118SOL    HW120987   1.983   2.708   0.541 -1.4356  2.7129  0.5672
 3118SOL    HW220988   1.963   2.831   0.463 -1.4290 -1.1301  0.4920
 3119SOL     OW20989   3.350   4.700  10.049 -0.3294  0.5408  0.1892
 3119SOL    HW120990   3.392   4.675  10.131 -2.4049 -1.0458  0.7667
 3119SOL    HW220991   3.317   4.615  10.021 -0.4498  0.4357  0.6486
 3120SOL     OW20992   1.880   2.276   4.174 -0.6375  0.1278  0.6550
 3120SOL    HW120993   1.867   2.187   4.140 -2.2042  1.1509 -1.4388
 3120SOL    HW220994   1.872   2.328   4.093  2.8989  0.9825  0.8935
 3121SOL     OW20995   0.658   1.239   4.807 -0.5657 -0.2704 -0.2503
 3121SOL    HW120996   0.688   1.188   4.731  0.8711 -0.3775  0.3900
 3121SOL    HW220997   0.597   1.177   4.846 -0.0224 -0.6690 -0.0232
 3122SOL     OW20998   0.803   2.408   7.869 -0.1042  0.3476 -0.1622
 3122SOL    HW120999   0.760   2.492   7.889  1.4823  1.0474  0.3318
 3122SOL    HW221000   0.754   2.347   7.924  0.8699  0.7213  1.1040
 3123SOL     OW21001   4.646   4.314   3.495 -0.1851 -0.6627  0.4664
 3123SOL    HW121002   4.677   4.257   3.565  2.0529  0.2935  0.2371
 3123SOL    HW221003   4.591   4.255   3.444  1.8332 -0.4626 -1.9090
 3124SOL     OW21004   2.385   1.099   5.540 -0.1422 -0.6641 -0.3663
 3124SOL    HW121005   2.326   1.174   5.548 -0.1251 -0.4487 -2.3061
 3124SOL    HW221006   2.324   1.034   5.506  0.6261 -3.4108  3.4722
 3125SOL     OW21007   3.163   3.397  14.383  0.0877 -0.1094  0.1877
 3125SOL    HW121008   3.208   3.434  14.307 -0.3647  0.0768  0.0142
 3125SOL    HW221009   3.095   3.459  14.406 -0.0322 -0.2743  0.2772
 3126SOL     OW21010   3.093   2.934   3.243 -0.4309  0.3824 -0.0496
 3126SOL    HW121011   3.153   2.933   3.318 -2.6514 -2.7095  1.7131
 3126SOL    HW221012   3.119   3.019   3.207  1.3423  0.7112  1.9996
 3127SOL     OW21013   0.910   2.267  14.051  0.1235  0.3765  0.0720
 3127SOL    HW121014   0.868   2.283  13.966  0.3776 -0.9143 -0.3072
 3127SOL    HW221015   0.844   2.307  14.108 -0.5776  0.8995 -1.1081
 3128SOL     OW21016   0.945   4.261  17.274  0.0608 -0.9277 -0.6950
 3128SOL    HW121017   0.917   4.345  17.237  0.3016 -0.1997  0.7746
 3128SOL    HW221018   0.895   4.198  17.221 -0.4023 -0.3443 -0.9504
 3129SOL     OW21019   3.383   1.994   5.505 -0.3474  0.0445  0.0390
 3129SOL    HW121020   3.379   1.956   5.418 -2.0755 -3.2825  1.5845
 3129SOL    HW221021   3.327   2.071   5.495  0.7912  0.8450 -0.1141
 3130SOL     OW21022   3.697   3.812   7.095 -0.0951  0.9080  0.2936
 3130SOL    HW121023   3.699   3.905   7.072  1.1815  0.7596 -0.2245
 3130SOL    HW221024   3.761   3.812   7.166  1.7702  0.0923 -1.4107
 3131SOL     OW21025   2.701   1.687  17.552  0.1586  0.1723 -0.2193
 3131SOL    HW121026   2.761   1.749  17.592  1.2492 -0.7296 -0.4351
 3131SOL    HW221027   2.693   1.734  17.468 -0.8116 -0.6452 -0.5898
 3132SOL     OW21028   0.394   2.548   3.309  0.0203  0.0112  0.1213
 3132SOL    HW121029   0.433   2.475   3.357 -1.2528  0.1111  1.3188
 3132SOL    HW221030   0.316   2.574   3.359 -0.1089 -0.0214 -0.0606
 3133SOL     OW21031   2.655   2.508   7.093 -0.4871  0.1425 -0.1255
 3133SOL    HW121032   2.564   2.504   7.121 -0.4601 -0.3629 -0.1228
 3133SOL    HW221033   2.705   2.510   7.174 -0.0375  0.3520 -0.4040
 3134SOL     OW21034   2.446   1.791   2.702 -0.4735 -0.1367  0.6131
 3134SOL    HW121035   2.416   1.851   2.771  0.6257 -0.1482  1.1009
 3134SOL    HW221036   2.481   1.850   2.635 -0.1680 -1.9088 -0.7767
 3135SOL     OW21037   3.357   3.372   7.577  0.1112  0.0274 -0.2643
 3135SOL    HW121038   3.339   3.457   7.615  1.5430 -0.8012  2.2416
 3135SOL    HW221039   3.343   3.371   7.482 -2.0772  2.1040  0.0523
 3136SOL     OW21040   1.435   4.538   2.617 -0.1921 -0.3402 -0.5678
 3136SOL    HW121041   1.354   4.559   2.571  0.9809  0.7598 -2.1293
 3136SOL    HW221042   1.430   4.585   2.700  0.9837  0.3033 -0.8643
 3137SOL     OW21043   1.520   3.459  15.249 -0.8576  0.6863  0.2264
 3137SOL    HW121044   1.473   3.477  15.168 -0.2790  1.5956  0.0809
 3137SOL    HW221045   1.602   3.421  15.215 -0.3188 -0.2381  2.5794
 3138SOL     OW21046   4.715   4.631   6.994 -0.6797  0.6644 -0.4226
 3138SOL    HW121047   0.033   4.666   6.925  0.7273 -1.6132 -0.4246
 3138SOL    HW221048   4.658   4.570   6.948 -0.8948 -0.7098  1.6773
 3139SOL     OW21049   4.421   1.531   5.374 -0.2115  0.2089  0.4217
 3139SOL    HW121050   4.346   1.473   5.390  0.2856 -0.1488  1.5024
 3139SOL    HW221051   4.378   1.611   5.405  1.1752  0.8032  0.7694
 3140SOL     OW21052   0.391   1.910  12.313 -0.3524  0.6201  0.1298
 3140SOL    HW121053   0.469   1.944  12.270  0.4770  0.8056  1.7915
 3140SOL    HW221054   0.402   1.816  12.329 -0.1080  1.0729  2.7026
 3141SOL     OW21055   2.759   1.460   9.623  0.3698 -0.3369 -0.1047
 3141SOL    HW121056   2.748   1.528   9.557 -0.0904 -0.3000  0.0085
 3141SOL    HW221057   2.694   1.491   9.686  1.1010  0.6214  0.1813
 3142SOL     OW21058   2.308   4.540  16.201  0.0586 -0.2066  0.2334
 3142SOL    HW121059   2.350   4.551  16.286  0.6509 -0.5729 -0.0101
 3142SOL    HW221060   2.215   4.547  16.225  0.4659 -1.3242  2.1500
 3143SOL     OW21061   2.109   1.819   6.767  0.2266 -0.1671  0.2624
 3143SOL    HW121062   2.017   1.821   6.793 -0.1057 -1.0444 -0.8248
 3143SOL    HW221063   2.120   1.912   6.747 -0.0116 -0.2466 -0.2280
 3144SOL     OW21064   1.042   1.892  11.669  0.4229  0.8577  0.6986
 3144SOL    HW121065   1.131   1.886  11.702  1.9126  1.1738 -3.2817
 3144SOL    HW221066   1.002   1.965  11.718 -2.1608 -1.9497  2.8364
 3145SOL     OW21067   2.460   2.640  13.883 -0.1986 -0.1072  0.3245
 3145SOL    HW121068   2.368   2.666  13.879 -0.2142 -0.3598 -1.0076
 3145SOL    HW221069   2.458   2.584  13.805 -1.0793  1.1711 -0.5831
 3146SOL     OW21070   1.854   2.078   3.725  0.0608  0.1605  0.1371
 3146SOL    HW121071   1.875   2.107   3.636  0.0694  0.8199  0.3538
 3146SOL    HW221072   1.758   2.083   3.724  0.0678  0.4854  1.3649
 3147SOL     OW21073   2.838   0.370   7.624  0.4317 -0.2614  0.4398
 3147SOL    HW121074   2.802   0.383   7.536 -2.3760  0.1778  1.6473
 3147SOL    HW221075   2.756   0.384   7.672  1.6699  0.2744  2.3895
 3148SOL     OW21076   4.591   0.065   0.017  0.2220  0.0234  1.1782
 3148SOL    HW121077   4.604   0.129  17.703 -0.2627  1.1952  2.1476
 3148SOL    HW221078   4.563   4.730  17.720  2.0904  1.4512 -1.7941
 3149SOL     OW21079   3.577   4.475  17.372 -0.0832  0.1898  0.1107
 3149SOL    HW121080   3.648   4.428  17.328  0.5040  0.4594  0.7575
 3149SOL    HW221081   3.604   4.566  17.359  1.0835 -0.0758  0.6435
 3150SOL     OW21082   0.625   0.893   7.498  0.1294  0.6999 -0.9264
 3150SOL    HW121083   0.652   0.899   7.590  1.1040 -2.2541 -1.0153
 3150SOL    HW221084   0.704   0.859   7.456  0.0176 -1.4658  0.6241
 3151SOL     OW21085   4.564   4.367  17.458  0.6788 -0.3081  0.1018
 3151SOL    HW121086   4.602   4.366  17.546  1.6107  1.9079 -0.2829
 3151SOL    HW221087   4.563   4.271  17.448  0.0227 -0.2844 -0.0144
 3152SOL     OW21088   1.061   0.565  13.243  0.1004  0.1638 -0.4073
 3152SOL    HW121089   1.153   0.546  13.261 -0.0061 -1.0508 -1.0823
 3152SOL    HW221090   1.019   0.484  13.274  1.0200 -0.5185 -0.9382
 3153SOL     OW21091   1.674   3.702   6.934  0.2219  0.3132 -0.4385
 3153SOL    HW121092   1.657   3.610   6.953  1.4185  0.2464  0.2778
 3153SOL    HW221093   1.605   3.739   6.989 -0.6456 -0.8760 -0.7223
 3154SOL     OW21094   3.501   4.242   6.913 -0.0869 -0.8287  0.2492
 3154SOL    HW121095   3.417   4.273   6.948  0.8486  1.2955  0.6182
 3154SOL    HW221096   3.497   4.275   6.823  0.3850  0.4203  0.6861
 3155SOL     OW21097   4.408   0.668  15.037 -0.0294  0.1010  0.1217
 3155SOL    HW121098   4.451   0.584  15.051  0.4341  0.2614 -0.3487
 3155SOL    HW221099   4.474   0.728  15.072 -0.3170  0.7984 -0.5190
 3156SOL     OW21100   3.104   3.606   6.393  0.1148  0.0438  0.1808
 3156SOL    HW121101   3.097   3.660   6.315 -1.9512 -1.2786 -0.5299
 3156SOL    HW221102   3.034   3.639   6.448  0.6079  0.6322  0.4593
 3157SOL     OW21103   3.708   0.358  11.730 -0.5478  0.2125  0.3818
 3157SOL    HW121104   3.659   0.325  11.655  0.4472  2.5157 -1.2866
 3157SOL    HW221105   3.750   0.436  11.694  1.2426 -1.0342 -0.2239
 3158SOL     OW21106   0.504   1.794  13.597  0.1675 -0.4646 -0.5647
 3158SOL    HW121107   0.546   1.849  13.531 -0.5253 -1.2928 -1.7106
 3158SOL    HW221108   0.461   1.846  13.665 -0.7263 -1.7994 -0.0854
 3159SOL     OW21109   1.655   4.344  16.304 -0.1843 -0.2593  0.9463
 3159SOL    HW121110   1.692   4.256  16.310  1.0004  0.1373 -0.3608
 3159SOL    HW221111   1.608   4.345  16.220  0.4950  0.2641  0.5752
 3160SOL     OW21112   2.746   0.441  11.097 -0.2319 -0.3781  0.0582
 3160SOL    HW121113   2.786   0.526  11.074 -1.5167  0.3683  0.6030
 3160SOL    HW221114   2.733   0.403  11.010 -0.2405  1.2477 -0.6666
 3161SOL     OW21115   0.757   3.331   9.055  0.1388  0.2304 -0.7674
 3161SOL    HW121116   0.675   3.283   9.044  0.4366 -0.4713  0.0287
 3161SOL    HW221117   0.815   3.254   9.054 -2.2481 -1.6422  2.2620
 3162SOL     OW21118   3.630   2.088   6.760 -0.0363 -0.2000 -0.2026
 3162SOL    HW121119   3.666   2.027   6.696  0.0398 -1.0794  0.6838
 3162SOL    HW221120   3.546   2.043   6.774 -1.6099  2.3563 -1.3753
 3163SOL     OW21121   0.586   0.773   8.926 -0.8890 -0.1370 -0.1981
 3163SOL    HW121122   0.545   0.703   8.975  0.4344 -1.2570 -0.6869
 3163SOL    HW221123   0.583   0.852   8.980  0.5839 -1.4709  1.8562
 3164SOL     OW21124   3.198   2.881   8.631  0.8024  0.1504 -0.0400
 3164SOL    HW121125   3.111   2.893   8.593  1.3266  1.8189 -0.7068
 3164SOL    HW221126   3.252   2.910   8.558 -0.4049  1.4664 -0.3981
 3165SOL     OW21127   3.984   3.693   8.667  0.1813 -0.3523  0.1307
 3165SOL    HW121128   3.919   3.740   8.719 -0.0253  0.3018 -0.7142
 3165SOL    HW221129   4.044   3.764   8.644  1.4153 -1.5395 -0.3162
 3166SOL     OW21130   3.073   4.358   5.793  0.7743  0.2139  0.2472
 3166SOL    HW121131   3.032   4.435   5.753  1.2197 -0.7070 -2.0007
 3166SOL    HW221132   3.043   4.372   5.882  1.0237  0.6188  0.2683
 3167SOL     OW21133   0.770   1.656   6.493 -0.1818 -0.2054  0.1953
 3167SOL    HW121134   0.846   1.710   6.469  0.8356 -2.1738 -1.0408
 3167SOL    HW221135   0.714   1.676   6.418 -0.2738  0.8517  0.5429
 3168SOL     OW21136   1.318   3.657   8.887 -0.0744  0.1187 -0.4659
 3168SOL    HW121137   1.305   3.570   8.851 -0.6425 -0.0602  0.1752
 3168SOL    HW221138   1.353   3.710   8.816  2.8878  0.5079  1.2677
 3169SOL     OW21139   1.681   3.832  10.336  0.8735  0.1809  0.1544
 3169SOL    HW121140   1.739   3.864  10.266  1.3119  1.8397  1.2617
 3169SOL    HW221141   1.662   3.904  10.396 -0.2870 -1.2798  1.4977
 3170SOL     OW21142   3.506   2.086  13.327 -0.0828  0.8627 -0.3995
 3170SOL    HW121143   3.436   2.132  13.280 -0.2502  1.6561  0.6348
 3170SOL    HW221144   3.447   2.032  13.380 -0.3702  1.4545 -0.1164
 3171SOL     OW21145   0.527   2.292   7.325  0.1733 -0.6369  0.5250
 3171SOL    HW121146   0.550   2.209   7.367  2.2082 -0.2891  0.0681
 3171SOL    HW221147   0.614   2.331   7.319 -0.8370  1.8108  1.4509
 3172SOL     OW21148   0.916   3.580   8.722  0.3661 -0.1940 -0.3857
 3172SOL    HW121149   0.980   3.625   8.667  1.8096  1.0806  2.3252
 3172SOL    HW221150   0.966   3.502   8.744 -0.3322 -0.2699  0.9440
 3173SOL     OW21151   1.293   2.897  14.672  0.1158 -0.5919 -0.4349
 3173SOL    HW121152   1.235   2.946  14.731  1.7195 -0.5060  1.0798
 3173SOL    HW221153   1.308   2.967  14.609  2.8876 -1.0421 -0.2445
 3174SOL     OW21154   4.429   0.848   3.144  0.3712 -0.2423 -0.0534
 3174SOL    HW121155   4.360   0.883   3.200 -0.3842  0.7712 -1.6029
 3174SOL    HW221156   4.392   0.777   3.091 -2.1475  1.3764 -0.4728
 3175SOL     OW21157   3.093   3.730   6.939  0.1532 -0.2530 -0.7768
 3175SOL    HW121158   3.008   3.747   6.979 -0.0031 -1.0193 -0.7959
 3175SOL    HW221159   3.095   3.810   6.885 -0.7730 -0.4826 -1.1500
 3176SOL     OW21160   1.621   4.404  14.328  0.2841  0.5616  0.5158
 3176SOL    HW121161   1.648   4.483  14.376 -0.0039  0.7174  0.4201
 3176SOL    HW221162   1.529   4.393  14.350  1.0402 -0.8935  2.9091
 3177SOL     OW21163   0.165   2.429   3.999  0.0356 -0.7089  0.1674
 3177SOL    HW121164   0.118   2.425   3.916  1.7774  1.0469 -0.9040
 3177SOL    HW221165   0.255   2.419   3.966  0.1662  0.6026  0.1198
 3178SOL     OW21166   3.549   2.496   2.636 -0.4168 -0.7024 -0.4696
 3178SOL    HW121167   3.521   2.514   2.546  0.6280  0.9272 -0.4682
 3178SOL    HW221168   3.607   2.421   2.625  0.6325  0.0911 -0.3149
 3179SOL     OW21169   1.154   4.351  14.962  0.3364  0.1407 -0.3090
 3179SOL    HW121170   1.192   4.428  14.919  0.4704  1.3055  1.8847
 3179SOL    HW221171   1.122   4.397  15.040 -0.7454 -2.0662  0.5738
 3180SOL     OW21172   3.944   1.102   8.718  0.2370 -0.5738  0.4251
 3180SOL    HW121173   3.960   1.196   8.708 -1.0726 -0.1236  2.5564
 3180SOL    HW221174   4.003   1.083   8.791 -0.9538 -1.7397  1.0856
 3181SOL     OW21175   4.200   4.597   8.711 -0.0737  0.1290 -0.4331
 3181SOL    HW121176   4.117   4.591   8.758 -1.0703  0.6177 -2.0948
 3181SOL    HW221177   4.252   4.642   8.777 -0.2830  0.4071 -0.4574
 3182SOL     OW21178   3.147   0.424   3.854  0.0178 -0.5746 -0.8055
 3182SOL    HW121179   3.106   0.450   3.772 -1.4726  3.0493  1.0941
 3182SOL    HW221180   3.212   0.363   3.820  0.1613  0.3802 -2.2372
 3183SOL     OW21181   0.544   0.802   2.258  0.5356 -0.1051 -0.0561
 3183SOL    HW121182   0.477   0.749   2.215  0.6862 -0.5749  0.2834
 3183SOL    HW221183   0.604   0.730   2.277  0.4559 -0.2010 -0.1694
 3184SOL     OW21184   2.149   1.445   2.224 -0.1600  0.6084  0.2567
 3184SOL    HW121185   2.148   1.386   2.300  2.4109  0.6140  0.3185
 3184SOL    HW221186   2.126   1.525   2.272 -0.0791 -0.0084  1.3374
 3185SOL     OW21187   2.118   0.803   5.735 -0.3766  0.3751 -0.0640
 3185SOL    HW121188   2.052   0.758   5.682 -0.5812  1.6174 -0.8624
 3185SOL    HW221189   2.193   0.743   5.730  1.5979  2.7069  1.3397
 3186SOL     OW21190   2.806   2.901   8.359 -0.1198 -0.6869 -0.2635
 3186SOL    HW121191   2.730   2.845   8.377 -0.6563 -0.0896 -0.6817
 3186SOL    HW221192   2.880   2.840   8.357 -0.9113 -1.6656  0.5570
 3187SOL     OW21193   2.858   3.663   8.883 -0.8071  0.0668 -0.1513
 3187SOL    HW121194   2.914   3.600   8.930  0.6839  2.3351  1.0980
 3187SOL    HW221195   2.899   3.664   8.796  0.8124 -2.1565  0.5516
 3188SOL     OW21196   0.201   1.387   5.353  0.5549  0.0917 -0.3901
 3188SOL    HW121197   0.151   1.385   5.435  0.8486 -2.0300 -0.2773
 3188SOL    HW221198   0.203   1.483   5.343  1.6534 -0.0323 -1.4004
 3189SOL     OW21199   4.520   0.233   1.511  0.0406  0.0084  0.0946
 3189SOL    HW121200   4.478   0.317   1.490  0.5701  0.0274 -0.8852
 3189SOL    HW221201   4.454   0.183   1.558 -3.5835  0.9926 -3.9290
 3190SOL     OW21202   0.532   1.629   7.717  1.3452  0.2575 -0.0802
 3190SOL    HW121203   0.612   1.583   7.742  2.2535  2.0808  0.3240
 3190SOL    HW221204   0.496   1.644   7.804 -1.5196 -0.4875 -1.1205
 3191SOL     OW21205   3.171   2.823   9.415  0.3513 -0.1873 -0.0683
 3191SOL    HW121206   3.215   2.749   9.373 -0.1343 -1.2953  1.3699
 3191SOL    HW221207   3.091   2.775   9.434  1.1625 -1.9713 -1.2243
 3192SOL     OW21208   4.050   3.902  17.376  0.0375  0.0429  0.6242
 3192SOL    HW121209   4.129   3.908  17.430  0.6734  2.3561 -0.5329
 3192SOL    HW221210   4.070   3.980  17.324 -2.5296 -0.1002 -0.5857
 3193SOL     OW21211   1.568   3.684   2.241  0.0864  0.5476  0.6106
 3193SOL    HW121212   1.599   3.738   2.168  0.0805 -0.0162  0.1913
 3193SOL    HW221213   1.532   3.754   2.295 -4.8844 -0.2586 -1.6764
 3194SOL     OW21214   4.017   3.020   5.040  0.1703 -0.4604  0.4427
 3194SOL    HW121215   3.990   3.055   5.125  0.0843 -1.2138  0.7229
 3194SOL    HW221216   3.944   3.053   4.987 -0.1861  0.2307  1.3598
 3195SOL     OW21217   2.084   3.692   5.140  0.0035 -0.6187 -0.5904
 3195SOL    HW121218   2.013   3.739   5.097 -0.0359  0.9283  1.1427
 3195SOL    HW221219   2.117   3.628   5.077 -0.0787  0.5729 -1.8232
 3196SOL     OW21220   1.385   2.463  16.630 -0.4926  0.0373  0.1193
 3196SOL    HW121221   1.476   2.444  16.651 -0.6004 -1.6215 -0.9719
 3196SOL    HW221222   1.398   2.486  16.538 -2.4684  0.5115 -0.0393
 3197SOL     OW21223   3.301   4.606   9.035 -0.1262 -0.3356 -0.1444
 3197SOL    HW121224   3.304   4.693   8.995  1.9310 -0.3681 -0.0964
 3197SOL    HW221225   3.394   4.605   9.059  0.1152  0.3308 -1.0559
 3198SOL     OW21226   2.380   4.529   7.121  0.0816  0.4420  0.5570
 3198SOL    HW121227   2.473   4.515   7.103 -0.1164  0.7608 -0.7190
 3198SOL    HW221228   2.386   4.612   7.169  1.1761  0.3849  0.5186
 3199SOL     OW21229   3.634   4.352   3.714  0.6701 -0.4728  0.1507
 3199SOL    HW121230   3.541   4.336   3.726  0.0928  1.2542 -2.0014
 3199SOL    HW221231   3.638   4.447   3.716 -0.8356 -0.4627  2.3370
 3200SOL     OW21232   3.927   2.437   0.186 -0.3994  0.1623 -0.3483
 3200SOL    HW121233   3.963   2.361   0.141  1.2806  0.4235  0.5441
 3200SOL    HW221234   3.849   2.466   0.138 -0.8657 -0.0288  0.3037
 3201SOL     OW21235   0.164   0.355   6.199  0.3411 -0.7292  0.4071
 3201SOL    HW121236   0.084   0.316   6.164  0.2298 -1.0838  1.0580
 3201SOL    HW221237   0.185   0.420   6.132 -1.8928  1.1179  1.5169
 3202SOL     OW21238   3.946   2.738   7.722 -0.0996 -0.0508  0.1455
 3202SOL    HW121239   3.893   2.798   7.774  1.5048  0.6485  0.9808
 3202SOL    HW221240   3.942   2.660   7.778  1.1010 -0.1946  0.0418
 3203SOL     OW21241   1.031   2.035   9.101  0.2046  0.3513 -0.0626
 3203SOL    HW121242   1.126   2.027   9.094  0.1495  0.0531 -0.4659
 3203SOL    HW221243   1.019   2.040   9.196  1.9415 -0.8301  0.2157
 3204SOL     OW21244   1.358   0.477   3.201 -0.1942 -0.6624  0.3524
 3204SOL    HW121245   1.305   0.484   3.122  2.4579  2.3799 -1.1519
 3204SOL    HW221246   1.372   0.570   3.216  0.7326 -1.0452  1.8876
 3205SOL     OW21247   4.526   2.977   6.757  0.1996 -1.0804 -0.4208
 3205SOL    HW121248   4.520   2.890   6.796  0.9702 -0.7321  0.4860
 3205SOL    HW221249   4.541   2.956   6.665 -1.6337  1.5252 -1.3049
 3206SOL     OW21250   2.600   3.566   6.449 -0.2860  0.1565  0.0266
 3206SOL    HW121251   2.549   3.634   6.406  0.7873  0.1477 -1.2484
 3206SOL    HW221252   2.552   3.485   6.431  0.8164 -0.0656 -1.9410
 3207SOL     OW21253   1.191   2.789   9.800  0.1450 -0.5295 -0.1067
 3207SOL    HW121254   1.267   2.840   9.774 -0.3836  1.1357  1.5944
 3207SOL    HW221255   1.197   2.782   9.895 -0.5332  1.0089  0.0584
 3208SOL     OW21256   2.872   0.332   5.358  0.0369 -0.1387  0.2769
 3208SOL    HW121257   2.875   0.340   5.262  0.8472  1.9708  0.4849
 3208SOL    HW221258   2.785   0.368   5.373 -0.3485 -0.8585 -0.2215
 3209SOL     OW21259   4.041   2.909   2.620 -0.0738  0.1734 -0.4471
 3209SOL    HW121260   3.987   2.949   2.688  0.9161 -0.3958  0.6646
 3209SOL    HW221261   4.041   2.819   2.651  1.6367  0.5221  0.5734
 3210SOL     OW21262   2.418   2.909   6.136  0.0618 -0.7503 -0.3240
 3210SOL    HW121263   2.376   2.823   6.144  0.5299 -0.8132  1.4951
 3210SOL    HW221264   2.437   2.925   6.043 -2.6736  1.4709 -0.4978
 3211SOL     OW21265   4.612   2.523   9.445  0.7590 -0.3437 -0.5243
 3211SOL    HW121266   4.646   2.439   9.475 -0.1606 -0.8249 -0.8245
 3211SOL    HW221267   4.686   2.580   9.423  2.7294 -2.8398 -0.3930
 3212SOL     OW21268   1.723   3.944  10.047  0.4841  0.2589 -0.1887
 3212SOL    HW121269   1.691   4.021   9.999  1.1373  1.4022  1.2397
 3212SOL    HW221270   1.808   3.949  10.003 -0.6594 -0.2164 -2.4999
 3213SOL     OW21271   3.844   3.794  16.896 -0.0936  0.4146 -0.4651
 3213SOL    HW121272   3.896   3.807  16.817 -1.4195 -0.6979 -1.5157
 3213SOL    HW221273   3.876   3.707  16.922  0.3817 -0.2938 -3.4071
 3214SOL     OW21274   3.989   1.378   4.644 -0.2311  0.5240  0.6182
 3214SOL    HW121275   4.079   1.408   4.630 -1.7595  3.6385 -2.6020
 3214SOL    HW221276   3.943   1.439   4.586  0.7027  0.1190 -0.5579
 3215SOL     OW21277   1.439   2.223  15.293  0.4148 -0.0642  0.1983
 3215SOL    HW121278   1.442   2.130  15.270 -1.6530 -0.3609  1.0915
 3215SOL    HW221279   1.350   2.236  15.260  0.6125 -1.9010 -1.0848
 3216SOL     OW21280   4.509   4.685   7.213  0.4209 -0.3467  0.7462
 3216SOL    HW121281   4.589   4.659   7.168  1.5037  1.6828  1.5137
 3216SOL    HW221282   4.516   0.041   7.206  2.6002 -0.7436 -2.2191
 3217SOL     OW21283   0.576   4.270  12.154 -0.5241  0.3102 -0.8658
 3217SOL    HW121284   0.481   4.260  12.161 -0.5344 -0.1351 -1.7231
 3217SOL    HW221285   0.582   4.366  12.158 -1.2692  0.2643  1.1808
 3218SOL     OW21286   4.231   3.760   3.645  0.3019 -0.0099  0.4703
 3218SOL    HW121287   4.181   3.802   3.714  1.1937 -0.3716  1.3352
 3218SOL    HW221288   4.215   3.814   3.567  0.6619 -1.1926 -0.4248
 3219SOL     OW21289   4.441   2.623   5.921 -0.2873 -0.1735  0.8063
 3219SOL    HW121290   4.513   2.641   5.861 -1.1403 -1.0432 -0.4522
 3219SOL    HW221291   4.420   2.540   5.879 -1.6608  1.2418 -1.2718
 3220SOL     OW21292   4.105   1.165  13.384  0.2567  0.3941  0.0627
 3220SOL    HW121293   4.074   1.079  13.357  1.9998  0.0146 -0.6897
 3220SOL    HW221294   4.033   1.228  13.375 -1.4403 -1.6010 -0.2149
 3221SOL     OW21295   0.822   1.065  15.430 -0.4775  0.0097  0.3865
 3221SOL    HW121296   0.735   1.026  15.429 -0.9002  1.0004 -0.8211
 3221SOL    HW221297   0.878   0.991  15.455  0.1552 -0.2970 -1.9288
 3222SOL     OW21298   2.559   3.325   7.134 -0.4436 -0.4977  0.7929
 3222SOL    HW121299   2.502   3.364   7.067  1.0371  1.7026  0.8321
 3222SOL    HW221300   2.495   3.272   7.181 -2.3600  0.7618 -0.3568
 3223SOL     OW21301   0.239   1.913   8.283 -0.1853 -0.2998 -0.3320
 3223SOL    HW121302   0.236   1.819   8.267  1.8395  0.3259 -4.2868
 3223SOL    HW221303   0.287   1.921   8.366 -0.5412 -1.8365  0.0223
 3224SOL     OW21304   3.672   1.556  11.458 -0.4802  0.6145 -0.0413
 3224SOL    HW121305   3.691   1.541  11.550 -2.1187 -2.7206 -0.2590
 3224SOL    HW221306   3.752   1.512  11.427  0.6650  1.4950  1.6554
 3225SOL     OW21307   1.782   2.937   3.284  0.4480  0.3351  0.0400
 3225SOL    HW121308   1.874   2.946   3.260  0.8241 -1.7239  0.7590
 3225SOL    HW221309   1.763   3.004   3.350  1.1754  1.5216 -0.9629
 3226SOL     OW21310   3.785   0.147   6.140 -0.0255 -0.6852 -0.8729
 3226SOL    HW121311   3.744   0.200   6.072 -0.0760 -0.5244 -0.7206
 3226SOL    HW221312   3.867   0.134   6.092 -1.2389 -0.9824 -2.8462
 3227SOL     OW21313   1.981   2.273   5.674 -0.0593 -0.1742  0.1312
 3227SOL    HW121314   1.984   2.341   5.741 -0.0788  1.7063 -1.7638
 3227SOL    HW221315   2.000   2.200   5.732  0.8965 -0.0892 -0.0710
 3228SOL     OW21316   4.197   2.506   4.278  0.3424  0.6807 -0.2321
 3228SOL    HW121317   4.234   2.496   4.366 -0.8884  2.5129  0.4917
 3228SOL    HW221318   4.139   2.582   4.284  0.8356  1.1487 -1.4575
 3229SOL     OW21319   4.156   1.466  11.661  0.1033 -0.1486 -0.2058
 3229SOL    HW121320   4.136   1.388  11.609  2.0800 -1.0461  0.3733
 3229SOL    HW221321   4.187   1.429  11.744 -2.0630 -0.2932  0.5334
 3230SOL     OW21322   3.344   0.476  12.165  0.5262 -0.4222 -0.1481
 3230SOL    HW121323   3.316   0.535  12.095 -0.8393 -1.7688 -0.7439
 3230SOL    HW221324   3.259   0.433  12.168  0.3268  0.0442  0.8836
 3231SOL     OW21325   3.044   4.692   7.452 -0.2363  0.2777 -0.1718
 3231SOL    HW121326   3.040   0.033   7.504  0.4395  1.2515 -1.6274
 3231SOL    HW221327   3.115   4.646   7.497  1.2392  2.5897 -0.1027
 3232SOL     OW21328   2.437   0.176  15.875 -0.6046 -0.0450 -0.4413
 3232SOL    HW121329   2.449   0.122  15.953 -1.4389  0.9087  0.3516
 3232SOL    HW221330   2.344   0.195  15.862 -0.7703 -0.4047  0.2418
 3233SOL     OW21331   4.581   1.250   2.133  0.2874  0.1397 -0.6438
 3233SOL    HW121332   4.638   1.231   2.208  1.4440  0.2848 -1.4831
 3233SOL    HW221333   4.628   1.319   2.085  2.1174  0.5199  1.6935
 3234SOL     OW21334   4.246   3.111   1.843  0.1231  0.0785  0.1863
 3234SOL    HW121335   4.200   3.028   1.853  1.0585 -0.7268 -2.0952
 3234SOL    HW221336   4.336   3.082   1.862  0.3435 -0.5525 -1.7652
 3235SOL     OW21337   3.979   4.718   2.831 -0.2248  0.0168  0.4837
 3235SOL    HW121338   4.067   4.702   2.864 -0.4566 -2.0319  0.1123
 3235SOL    HW221339   3.983   0.067   2.793 -1.6476  0.0926  0.4933
 3236SOL     OW21340   1.454   4.426   6.338  0.3516 -0.0669  0.5385
 3236SOL    HW121341   1.491   4.354   6.287  1.2295  0.5664  0.2728
 3236SOL    HW221342   1.398   4.374   6.396  1.3513 -1.3481  0.3629
 3237SOL     OW21343   4.716   0.408   7.588 -0.2624  0.2745 -0.3822
 3237SOL    HW121344   4.693   0.460   7.665  0.7597 -1.3299  1.0023
 3237SOL    HW221345   4.643   0.347   7.590 -0.7101  0.8412  0.4407
 3238SOL     OW21346   2.609   3.994   4.927  0.1069  0.1499 -0.1268
 3238SOL    HW121347   2.622   4.026   5.016  3.5621 -2.0578  0.1652
 3238SOL    HW221348   2.654   3.911   4.947  2.0869  1.5734  1.3538
 3239SOL     OW21349   0.265   3.945   3.839 -0.6535 -0.5550  0.4269
 3239SOL    HW121350   0.338   3.906   3.789 -4.0264 -1.8142 -3.5491
 3239SOL    HW221351   0.315   3.976   3.915 -2.1212  2.2223  0.2250
 3240SOL     OW21352   1.553   3.914   6.608 -0.0608 -0.1785 -0.2432
 3240SOL    HW121353   1.528   3.900   6.516  1.2821 -1.3566 -0.4393
 3240SOL    HW221354   1.472   3.925   6.657 -0.5825 -1.7241 -0.7455
 3241SOL     OW21355   1.643   2.811   7.303 -0.1228 -0.0067 -0.3298
 3241SOL    HW121356   1.731   2.823   7.339  1.1268  2.4807 -4.1941
 3241SOL    HW221357   1.605   2.735   7.346 -1.9176  0.4774 -1.0747
 3242SOL     OW21358   4.320   0.138   8.186 -0.1749  0.4337  0.1946
 3242SOL    HW121359   4.370   0.112   8.264 -0.1814 -1.9296 -0.5893
 3242SOL    HW221360   4.274   0.056   8.168 -0.1191 -0.0167  2.0594
 3243SOL     OW21361   1.560   0.639   2.796  0.9398  0.1372  0.0280
 3243SOL    HW121362   1.502   0.707   2.761 -0.2097 -0.7042  0.2868
 3243SOL    HW221363   1.587   0.593   2.716 -1.8087 -0.5657 -0.4962
 3244SOL     OW21364   2.821   1.254   1.583 -0.0257  0.4319  0.3858
 3244SOL    HW121365   2.820   1.277   1.490 -0.6550  0.7554  0.4758
 3244SOL    HW221366   2.742   1.301   1.606 -1.3126 -1.7830  0.5491
 3245SOL     OW21367   0.498   4.182   8.383 -0.5359  0.3029  0.2843
 3245SOL    HW121368   0.533   4.180   8.473 -1.4642 -1.3925  0.6036
 3245SOL    HW221369   0.512   4.087   8.381  3.1556  0.8495  1.0022
 3246SOL     OW21370   0.809   3.042   4.385 -0.9915  0.4930 -0.3737
 3246SOL    HW121371   0.839   3.055   4.295  0.8944 -2.7096 -0.2290
 3246SOL    HW221372   0.841   2.954   4.407  0.3821  1.5263  1.7299
 3247SOL     OW21373   1.012   0.029   1.878  0.0295 -0.1546 -0.7721
 3247SOL    HW121374   1.035   4.676   1.868  0.8356  0.0231 -0.5191
 3247SOL    HW221375   0.960   0.035   1.798  0.1022  1.9988 -0.6428
 3248SOL     OW21376   0.553   4.581  17.022 -0.5508 -0.4015  0.0499
 3248SOL    HW121377   0.533   4.624  17.105 -1.3921  0.4883 -0.6138
 3248SOL    HW221378   0.487   4.616  16.961  0.2157 -0.5606 -0.8784
 3249SOL     OW21379   1.058   1.826   1.833  0.1313  0.4371  0.7411
 3249SOL    HW121380   0.985   1.887   1.827 -0.5059 -0.5108 -0.9197
 3249SOL    HW221381   1.050   1.793   1.923 -0.0558 -1.3944  0.0404
 3250SOL     OW21382   4.217   4.597   8.179 -0.7953  0.0950  0.3299
 3250SOL    HW121383   4.282   4.536   8.214  0.7743  0.5978 -1.6758
 3250SOL    HW221384   4.177   4.537   8.117  0.6388  0.2395 -0.7317
 3251SOL     OW21385   3.857   4.359  13.458  0.0743 -0.3646 -0.2757
 3251SOL    HW121386   3.765   4.349  13.481  0.2316 -2.5375 -0.6397
 3251SOL    HW221387   3.904   4.314  13.529  1.0980  1.3565  0.1404
 3252SOL     OW21388   3.698   2.734   1.249 -0.9155  0.0343  0.3681
 3252SOL    HW121389   3.709   2.639   1.245  0.6779  0.2933 -1.3155
 3252SOL    HW221390   3.734   2.757   1.163  0.5383  2.2401  1.5699
 3253SOL     OW21391   4.578   4.164  12.020 -0.0808  0.3282 -0.1069
 3253SOL    HW121392   4.557   4.114  11.941 -0.9724  2.0458 -0.9412
 3253SOL    HW221393   4.526   4.120  12.087 -1.6385  0.6080 -1.1400
 3254SOL     OW21394   3.569   4.161   9.310 -0.4769  0.0031 -0.6693
 3254SOL    HW121395   3.523   4.081   9.331 -0.0885  0.0445  0.3160
 3254SOL    HW221396   3.530   4.229   9.364  1.3525 -0.5153  1.2915
 3255SOL     OW21397   2.318   2.904   3.868 -0.1633 -0.2675  0.1991
 3255SOL    HW121398   2.335   2.992   3.834  1.5217 -0.6830 -0.0218
 3255SOL    HW221399   2.349   2.849   3.796 -2.1134 -0.3784 -0.5709
 3256SOL     OW21400   3.255   3.887   4.545 -0.3421  0.1124  0.0225
 3256SOL    HW121401   3.184   3.835   4.507  1.0734 -1.3573 -0.6176
 3256SOL    HW221402   3.320   3.817   4.545 -0.1167  0.3214 -0.2356
 3257SOL     OW21403   0.840   2.358  17.525  0.1208  0.4829 -0.4665
 3257SOL    HW121404   0.751   2.322  17.515 -0.2553  0.9865  1.1905
 3257SOL    HW221405   0.846   2.432  17.465 -0.4445 -0.7168 -2.0043
 3258SOL     OW21406   4.585   3.979   8.443 -0.0970  0.0041 -0.0006
 3258SOL    HW121407   4.590   3.893   8.486 -2.3911  0.0746  0.4358
 3258SOL    HW221408   4.491   3.983   8.428  0.4009  2.8495 -2.3903
 3259SOL     OW21409   1.955   4.726   3.445  0.3953 -0.3960  0.3803
 3259SOL    HW121410   2.015   0.060   3.461  1.3042 -1.4197  1.7041
 3259SOL    HW221411   1.879   0.035   3.413  1.3059 -1.0030 -2.7374
 3260SOL     OW21412   2.710   4.367   9.335 -0.6181  0.3196  0.4635
 3260SOL    HW121413   2.746   4.428   9.271  2.1118  0.2652  1.9103
 3260SOL    HW221414   2.726   4.428   9.407  0.1761 -0.6015  1.0676
 3261SOL     OW21415   3.707   1.396   5.262  0.2339  0.1496  0.6437
 3261SOL    HW121416   3.621   1.370   5.295 -1.7298  2.3326 -2.6885
 3261SOL    HW221417   3.696   1.488   5.238 -2.2293 -0.1159  0.6980
 3262SOL     OW21418   2.196   0.336   2.376 -0.0337  0.0624 -0.1047
 3262SOL    HW121419   2.175   0.376   2.460 -0.9411 -1.1315  0.2508
 3262SOL    HW221420   2.175   0.242   2.377 -2.1598  0.5614  1.5320
 3263SOL     OW21421   3.337   3.652   8.914  0.0247  0.2201  0.1910
 3263SOL    HW121422   3.371   3.599   8.986  0.6561  2.2343  1.3449
 3263SOL    HW221423   3.319   3.580   8.852  0.4777  0.4282 -0.1806
 3264SOL     OW21424   0.339   3.825   8.478  0.4704  0.0810 -0.2115
 3264SOL    HW121425   0.430   3.796   8.474  0.8842  1.4433 -0.6313
 3264SOL    HW221426   0.345   3.907   8.527  0.2106 -0.3387  0.5187
 3265SOL     OW21427   0.801   1.287   8.357 -0.5066  0.5235 -0.5055
 3265SOL    HW121428   0.754   1.205   8.371 -0.6016  1.0797  2.5364
 3265SOL    HW221429   0.892   1.263   8.375 -0.4689 -0.1989 -1.6707
 3266SOL     OW21430   1.590   3.854   5.543  0.6469  0.6768 -0.2525
 3266SOL    HW121431   1.675   3.810   5.543  0.3441  0.0967 -2.0945
 3266SOL    HW221432   1.537   3.776   5.558  0.5740  0.0836 -3.6540
 3267SOL     OW21433   2.211   1.807   2.083  0.0086  0.0506  0.0175
 3267SOL    HW121434   2.197   1.741   2.151  1.2018  0.0410  0.2505
 3267SOL    HW221435   2.121   1.834   2.064 -0.1204  0.6378  1.4450
 3268SOL     OW21436   0.023   1.268  15.661 -0.0505  0.0698  0.1468
 3268SOL    HW121437   0.056   1.207  15.727 -1.2579 -0.6821  0.0523
 3268SOL    HW221438   0.104   1.316  15.639  0.3563 -0.6379  0.0980
 3269SOL     OW21439   3.799   2.896  12.274 -0.3612  0.2578 -0.0415
 3269SOL    HW121440   3.784   2.848  12.356 -0.1048  2.5736  1.3591
 3269SOL    HW221441   3.879   2.942  12.299 -0.2509  1.0727 -1.8865
 3270SOL     OW21442   2.571   0.941   0.877  0.5521 -0.0197  0.1012
 3270SOL    HW121443   2.552   0.982   0.792 -0.2055  1.2620  0.8924
 3270SOL    HW221444   2.519   0.995   0.936  0.6000 -0.6138  0.6876
 3271SOL     OW21445   2.483   3.502   1.522  0.6162 -0.3339  0.4670
 3271SOL    HW121446   2.544   3.446   1.474 -0.1005 -0.2506 -0.5565
 3271SOL    HW221447   2.458   3.453   1.600 -0.8213  2.3546  1.6673
 3272SOL     OW21448   4.084   0.278   9.270 -0.1753 -0.4259  0.7259
 3272SOL    HW121449   4.092   0.240   9.358  0.6301  2.6644  2.0208
 3272SOL    HW221450   3.994   0.308   9.280 -0.6317 -1.5649 -0.0876
 3273SOL     OW21451   0.333   4.585   4.377 -1.0522 -0.3162 -0.4908
 3273SOL    HW121452   0.312   4.547   4.291  0.0491 -0.7786 -0.5672
 3273SOL    HW221453   0.316   4.508   4.431 -0.1280  0.3546  0.7452
 3274SOL     OW21454   3.931   0.285   4.717  0.4561 -0.1132  0.0812
 3274SOL    HW121455   3.986   0.233   4.660 -1.6726 -2.0459 -0.2197
 3274SOL    HW221456   3.846   0.243   4.707 -0.0475  1.1275 -1.0028
 3275SOL     OW21457   4.167   4.288   7.746 -0.0581  0.3067 -0.0921
 3275SOL    HW121458   4.257   4.306   7.719 -0.0258 -1.4924 -1.1920
 3275SOL    HW221459   4.126   4.360   7.698 -0.4086 -0.5573 -1.1062
 3276SOL     OW21460   3.244   2.254   5.440  0.2030  0.7716  0.4820
 3276SOL    HW121461   3.207   2.313   5.375  0.5201  1.7367  1.1664
 3276SOL    HW221462   3.269   2.317   5.508 -0.2052  0.5940  0.7981
 3277SOL     OW21463   3.925   3.560   1.273 -0.0855  0.4336 -0.2476
 3277SOL    HW121464   3.857   3.593   1.332 -0.1525  1.7739 -1.0867
 3277SOL    HW221465   3.943   3.634   1.215 -0.2674  0.6554 -0.0223
 3278SOL     OW21466   2.371   4.282   9.073 -0.2385 -0.1137  0.4314
 3278SOL    HW121467   2.298   4.264   9.015 -0.8817  1.2454  0.8228
 3278SOL    HW221468   2.447   4.267   9.017 -0.4339 -1.1297  0.4364
 3279SOL     OW21469   1.364   3.486  15.505  0.1621 -0.2723  0.1806
 3279SOL    HW121470   1.294   3.519  15.448 -1.0577 -0.5610  1.5127
 3279SOL    HW221471   1.413   3.444  15.435  0.3748 -1.4356  1.0433
 3280SOL     OW21472   2.061   2.113   5.213 -0.3421  0.4893 -0.2360
 3280SOL    HW121473   2.015   2.186   5.254 -0.2802  0.7207 -0.5756
 3280SOL    HW221474   2.101   2.062   5.283  1.9953  1.2636 -1.0054
 3281SOL     OW21475   1.829   1.629   6.786 -0.2430  0.2437 -0.2979
 3281SOL    HW121476   1.845   1.724   6.779  0.3915  0.2711  1.5467
 3281SOL    HW221477   1.741   1.636   6.823 -0.8185  2.4000 -2.0705
 3282SOL     OW21478   2.083   4.051  15.255 -0.4939 -0.0556 -0.2247
 3282SOL    HW121479   2.177   4.044  15.267 -0.2820 -1.2823 -2.5492
 3282SOL    HW221480   2.059   4.141  15.277  1.0930  0.0346  1.1312
 3283SOL     OW21481   3.118   2.182   7.310 -0.4557 -0.5479  0.4141
 3283SOL    HW121482   3.159   2.103   7.345 -1.0227 -0.4624  1.2629
 3283SOL    HW221483   3.189   2.245   7.323  0.9857 -2.6557  2.6624
 3284SOL     OW21484   4.599   1.115  11.924 -0.6335 -0.5666 -0.6432
 3284SOL    HW121485   4.627   1.150  12.009 -2.2333 -0.7798 -0.0382
 3284SOL    HW221486   4.578   1.027  11.954  1.5890 -0.9545 -0.2312
 3285SOL     OW21487   3.194   4.630   2.856  0.0274  0.1977  0.1119
 3285SOL    HW121488   3.123   4.662   2.911  0.7207 -0.4655  1.3981
 3285SOL    HW221489   3.269   4.667   2.902 -0.5009  2.4543 -0.8475
 3286SOL     OW21490   4.391   2.798  14.330 -0.3128  0.2016 -0.0703
 3286SOL    HW121491   4.397   2.830  14.420 -0.2258 -0.1972  0.0689
 3286SOL    HW221492   4.305   2.757  14.339 -0.5913  0.6770 -0.6137
 3287SOL     OW21493   3.506   2.094   4.117  0.2825 -0.1991 -0.2884
 3287SOL    HW121494   3.484   2.171   4.066 -0.6112  0.4244  1.0384
 3287SOL    HW221495   3.475   2.025   4.058  0.7026 -0.4244 -0.2465
 3288SOL     OW21496   0.022   0.489   1.314  0.9496 -0.0344 -0.6354
 3288SOL    HW121497   0.040   0.413   1.258 -1.1594 -0.7504 -0.3389
 3288SOL    HW221498   4.674   0.513   1.284  0.3561  0.5215  1.4906
 3289SOL     OW21499   1.107   3.320   6.711 -0.7252  0.0012  0.0039
 3289SOL    HW121500   1.124   3.250   6.774  0.9753  1.0780  0.7244
 3289SOL    HW221501   1.092   3.395   6.768 -0.9260  1.1753 -1.5776
 3290SOL     OW21502   3.615   4.374  11.990 -0.4495 -0.0175 -0.5705
 3290SOL    HW121503   3.668   4.421  11.925  3.4930 -0.7468  2.1214
 3290SOL    HW221504   3.604   4.438  12.060  0.2235 -2.4244  1.7417
 3291SOL     OW21505   3.901   3.280  10.681 -0.1886 -0.5274 -0.2704
 3291SOL    HW121506   3.919   3.336  10.757  1.6313 -1.3347 -0.1154
 3291SOL    HW221507   3.982   3.229  10.686 -0.5365 -1.1746 -1.4436
 3292SOL     OW21508   0.076   2.995  14.027 -0.0092  0.2036  0.3225
 3292SOL    HW121509   0.119   3.079  14.040 -3.2266  2.0275 -0.9130
 3292SOL    HW221510   0.057   2.964  14.116 -0.6212  1.4801  0.6338
 3293SOL     OW21511   2.891   4.702   8.895 -0.2702 -0.9820 -0.4202
 3293SOL    HW121512   2.912   4.652   8.816  0.2959 -0.9297 -0.2982
 3293SOL    HW221513   2.859   4.627   8.945  0.9823 -1.2546 -0.0350
 3294SOL     OW21514   3.158   3.332   5.170  0.0568 -0.0111 -0.4949
 3294SOL    HW121515   3.209   3.412   5.186 -1.9785  1.0560  0.6973
 3294SOL    HW221516   3.144   3.329   5.075  2.2448 -0.3233 -0.8015
 3295SOL     OW21517   0.861   2.861   8.198 -0.6113 -1.0623 -0.0031
 3295SOL    HW121518   0.852   2.938   8.142  1.3467 -1.1491 -0.4264
 3295SOL    HW221519   0.771   2.864   8.229 -0.7196  1.9081 -0.5340
 3296SOL     OW21520   0.992   2.790   6.242  0.2571 -0.6309  0.7647
 3296SOL    HW121521   1.031   2.704   6.229  1.0508 -0.2557  0.6637
 3296SOL    HW221522   0.903   2.771   6.212  0.3103  1.8503 -1.0070
 3297SOL     OW21523   2.590   1.251   2.117  0.1778  0.5485 -0.6950
 3297SOL    HW121524   2.585   1.328   2.060 -0.2263  0.3337 -0.9492
 3297SOL    HW221525   2.500   1.231   2.145  1.7980 -0.9809  3.4579
 3298SOL     OW21526   4.451   1.646   6.764 -0.6525  1.1276 -0.2369
 3298SOL    HW121527   4.521   1.663   6.700 -0.6061  0.4888 -0.3517
 3298SOL    HW221528   4.501   1.584   6.817  0.1091 -0.1359 -2.4065
 3299SOL     OW21529   1.561   0.429  12.344  0.1067 -0.3212 -0.1229
 3299SOL    HW121530   1.590   0.510  12.301 -2.8250  0.1167 -1.2146
 3299SOL    HW221531   1.506   0.476  12.407 -1.1454 -2.0577  0.0578
 3300SOL     OW21532   0.291   3.021   5.148  0.4646  0.3757  0.0657
 3300SOL    HW121533   0.381   3.053   5.146 -0.0847  2.1283  2.5526
 3300SOL    HW221534   0.289   2.943   5.092 -2.2142  1.4387 -1.3400
 3301SOL     OW21535   1.590   2.097   7.362  0.0799 -0.0542 -0.0356
 3301SOL    HW121536   1.679   2.107   7.327 -0.1735  0.9632 -0.4112
 3301SOL    HW221537   1.554   2.185   7.348  0.6734 -0.0811 -1.6973
 3302SOL     OW21538   0.260   2.829   3.043 -0.0212 -0.6064  0.1703
 3302SOL    HW121539   0.189   2.840   3.106  1.0615 -0.1116  1.3048
 3302SOL    HW221540   0.267   2.737   3.020  1.3853 -0.5798  0.5024
 3303SOL     OW21541   4.583   3.902   2.417  0.5610  0.4412 -0.4500
 3303SOL    HW121542   4.490   3.908   2.394 -0.2057 -2.7355  1.7984
 3303SOL    HW221543   4.597   3.884   2.510 -1.3926  0.5040 -0.1254
 3304SOL     OW21544   0.112   4.014  10.021 -0.5735 -0.1820  0.5046
 3304SOL    HW121545   0.208   4.018  10.025 -0.4548 -0.8066 -1.7657
 3304SOL    HW221546   0.098   3.944   9.958 -1.7466  0.0237  0.5413
 3305SOL     OW21547   1.640   2.495  16.253  0.4020  0.5572  0.4637
 3305SOL    HW121548   1.640   2.440  16.175 -1.0110 -1.4916  1.9053
 3305SOL    HW221549   1.698   2.565  16.225 -1.1309  1.3909 -0.6443
 3306SOL     OW21550   0.816   1.785   5.483  0.3060 -0.5756  0.3197
 3306SOL    HW121551   0.843   1.876   5.497 -1.5106  0.0578 -0.3211
 3306SOL    HW221552   0.758   1.798   5.408 -1.8270 -1.3268  1.8356
 3307SOL     OW21553   0.073   0.917  17.004  0.3759  0.5965  0.1333
 3307SOL    HW121554   0.117   0.888  16.924 -0.3992 -0.0123 -0.0715
 3307SOL    HW221555   0.054   1.009  16.986 -0.9395  0.3299  0.1633
 3308SOL     OW21556   3.654   0.246   1.785 -0.5556  0.3792 -0.4245
 3308SOL    HW121557   3.629   0.163   1.745 -1.7553  0.3647  0.3545
 3308SOL    HW221558   3.704   0.291   1.716  1.0315  2.1752  1.8808
 3309SOL     OW21559   0.766   1.417   5.759  0.2389  0.0426 -0.4749
 3309SOL    HW121560   0.825   1.468   5.816 -1.6303 -1.2662  2.6137
 3309SOL    HW221561   0.783   1.459   5.675  1.2739  0.5658 -0.0112
 3310SOL     OW21562   1.134   0.059  15.422 -0.4581 -0.1266  0.2751
 3310SOL    HW121563   1.050   0.099  15.401  1.2821  2.4458 -1.9046
 3310SOL    HW221564   1.111   4.738  15.492  2.2929 -0.0955  1.2117
 3311SOL     OW21565   1.101   3.139  12.276  0.1647  0.1986  0.2885
 3311SOL    HW121566   1.059   3.125  12.192 -1.5745 -0.4916  1.2801
 3311SOL    HW221567   1.035   3.145  12.345 -0.3565  0.8009 -0.2562
 3312SOL     OW21568   3.100   0.283   8.367 -0.6971 -0.4662  0.1267
 3312SOL    HW121569   3.076   0.190   8.366 -1.6725 -0.2214  0.6551
 3312SOL    HW221570   3.033   0.329   8.316 -0.6659 -1.1695 -0.5532
 3313SOL     OW21571   3.680   2.575  16.255  0.4253  0.4090 -0.0112
 3313SOL    HW121572   3.701   2.563  16.348 -0.9184 -0.4570  0.1847
 3313SOL    HW221573   3.737   2.647  16.227  3.2156 -1.4505  0.9940
 3314SOL     OW21574   3.903   2.591   4.728 -0.3604 -0.0530 -0.1233
 3314SOL    HW121575   3.820   2.634   4.749  0.7549  1.3784  1.4638
 3314SOL    HW221576   3.937   2.584   4.818  0.0624 -0.0863 -0.2854
 3315SOL     OW21577   3.485   2.736   5.026  0.0078  0.0285 -0.3868
 3315SOL    HW121578   3.539   2.698   5.095 -0.2605  1.2292  0.4688
 3315SOL    HW221579   3.419   2.776   5.082 -0.9565 -1.7920 -0.1921
 3316SOL     OW21580   1.253   2.831   7.114  0.7539  0.0325 -0.0336
 3316SOL    HW121581   1.274   2.856   7.204  1.2227  1.1733 -0.4653
 3316SOL    HW221582   1.331   2.847   7.062  0.6962  1.1529  0.2356
 3317SOL     OW21583   2.350   2.765   8.814  0.2801 -0.1865 -0.0738
 3317SOL    HW121584   2.279   2.725   8.864 -0.6682  1.3166 -0.2132
 3317SOL    HW221585   2.317   2.743   8.727 -1.3898 -1.9777  0.9962
 3318SOL     OW21586   1.543   2.897   5.051 -0.6291 -0.6408 -0.5431
 3318SOL    HW121587   1.534   2.808   5.016 -0.3584 -0.3267 -1.4104
 3318SOL    HW221588   1.469   2.897   5.112 -0.0051  1.4483  0.2158
 3319SOL     OW21589   4.035   0.280  13.727  0.1491  0.0543 -0.8505
 3319SOL    HW121590   4.129   0.280  13.748  0.5670  1.3551 -2.6389
 3319SOL    HW221591   4.006   0.254  13.814  2.3927 -0.2006 -0.1687
 3320SOL     OW21592   1.161   0.656   4.810 -0.2945  0.1030 -0.3330
 3320SOL    HW121593   1.110   0.575   4.801  0.4682 -0.4264  0.1830
 3320SOL    HW221594   1.220   0.653   4.735 -0.3200  0.3570 -0.3637
 3321SOL     OW21595   4.026   1.452   1.136  0.3854  0.5434 -0.1387
 3321SOL    HW121596   4.101   1.394   1.137 -0.9721 -1.2066  0.3434
 3321SOL    HW221597   4.062   1.513   1.201  0.1121 -0.8611  1.3234
 3322SOL     OW21598   2.837   2.135   1.885 -0.0051  0.5659 -0.6275
 3322SOL    HW121599   2.837   2.040   1.897  2.2826  0.4887 -1.3423
 3322SOL    HW221600   2.788   2.141   1.803  0.7594  1.0529 -1.0421
 3323SOL     OW21601   1.837   4.626  15.934  0.0106 -0.7110 -0.2073
 3323SOL    HW121602   1.853   4.719  15.919  2.3700 -0.9684  0.7065
 3323SOL    HW221603   1.759   4.635  15.988  1.4287 -1.8782  2.0374
 3324SOL     OW21604   3.754   4.241   5.168  0.2067  0.1941 -0.1525
 3324SOL    HW121605   3.816   4.189   5.219  0.4413  0.2175 -0.4163
 3324SOL    HW221606   3.691   4.176   5.136  0.8676 -0.6491  0.2594
 3325SOL     OW21607   4.669   3.185   2.716  0.5221 -0.0725 -0.4416
 3325SOL    HW121608   4.715   3.113   2.760 -0.6695 -1.8468 -2.1506
 3325SOL    HW221609   4.606   3.201   2.787  0.9657 -1.7926  0.3555
 3326SOL     OW21610   0.927   4.184   5.774 -0.3000 -0.0071  0.5894
 3326SOL    HW121611   0.964   4.187   5.686 -1.8588 -0.0215 -0.0820
 3326SOL    HW221612   0.886   4.098   5.773 -0.8018  0.2186  2.9302
 3327SOL     OW21613   4.636   2.340   4.739  0.5556 -0.2644  0.3437
 3327SOL    HW121614   4.604   2.429   4.751  0.3477 -0.4486  1.1381
 3327SOL    HW221615   4.574   2.299   4.679  0.7840 -0.9677  0.5853
 3328SOL     OW21616   4.615   1.709   3.869  0.2496  0.3513 -0.6347
 3328SOL    HW121617   4.591   1.692   3.778  0.3410 -1.1239 -0.3782
 3328SOL    HW221618   4.689   1.649   3.876 -1.9852 -2.6564 -2.7313
 3329SOL     OW21619   2.508   2.716   0.518  0.1242 -0.5369 -0.1128
 3329SOL    HW121620   2.494   2.706   0.612 -1.2768  1.0184 -0.1406
 3329SOL    HW221621   2.517   2.811   0.516  0.5685 -0.5908 -0.7102
 3330SOL     OW21622   4.276   2.148   2.178 -0.1924  0.0501 -0.5510
 3330SOL    HW121623   4.358   2.101   2.189  0.2571  1.1725  0.8923
 3330SOL    HW221624   4.216   2.079   2.208  0.8064 -0.1712  0.9495
 3331SOL     OW21625   3.849   2.247   8.503  0.2204 -0.1505 -0.2322
 3331SOL    HW121626   3.944   2.261   8.497  0.3278 -0.6631  0.2416
 3331SOL    HW221627   3.832   2.272   8.594 -0.8759 -1.7534  0.0076
 3332SOL     OW21628   0.640   0.462  17.348  0.2485 -0.0872 -0.1777
 3332SOL    HW121629   0.594   0.535  17.306 -0.6240 -0.0975  0.7419
 3332SOL    HW221630   0.575   0.435  17.413  1.4342  0.8414  1.3783
 3333SOL     OW21631   4.574   1.083   8.575 -0.8600  0.3917 -0.2386
 3333SOL    HW121632   4.659   1.083   8.532 -1.0146  0.2659 -0.5471
 3333SOL    HW221633   4.509   1.106   8.509 -0.9045  0.9834  0.0190
 3334SOL     OW21634   1.003   4.495   0.487  0.4614  0.0904  0.7790
 3334SOL    HW121635   1.035   4.575   0.528 -1.3384  1.1748  0.0790
 3334SOL    HW221636   1.020   4.426   0.551  2.0173  0.4687  0.7885
 3335SOL     OW21637   3.228   4.267   9.195  0.0886  0.1704 -0.0014
 3335SOL    HW121638   3.245   4.234   9.284 -0.1073 -1.4210 -0.5573
 3335SOL    HW221639   3.183   4.351   9.197  0.3036  0.2519  1.7408
 3336SOL     OW21640   2.122   3.722   5.631 -0.2266  0.3564 -0.6585
 3336SOL    HW121641   2.155   3.758   5.548  0.0762  0.8303 -0.3340
 3336SOL    HW221642   2.202   3.681   5.663 -1.6369 -0.9012  1.2486
 3337SOL     OW21643   3.888   0.108  15.112  0.4848 -0.1064 -0.4360
 3337SOL    HW121644   3.803   0.073  15.139  0.6916 -1.1287 -1.1241
 3337SOL    HW221645   3.877   0.200  15.136 -3.0191 -0.8394  0.8350
 3338SOL     OW21646   3.056   0.055   3.249 -0.4120  0.2715 -0.4526
 3338SOL    HW121647   3.085   0.042   3.339  1.3163 -0.7309 -1.1516
 3338SOL    HW221648   3.075   4.708   3.212  0.0508  1.1676 -2.3031
 3339SOL     OW21649   0.525   0.216   4.414 -0.3049 -0.1914  0.0052
 3339SOL    HW121650   0.543   0.141   4.357 -1.5957 -1.1405  0.8562
 3339SOL    HW221651   0.434   0.234   4.391 -0.3862 -0.0635  0.4268
 3340SOL     OW21652   0.957   0.015   3.196  0.2750 -0.5898  0.3975
 3340SOL    HW121653   0.897   4.680   3.200 -1.2366  0.6739  1.1567
 3340SOL    HW221654   0.916   0.084   3.248  1.4357  0.1693  0.3082
 3341SOL     OW21655   4.682   4.000   3.582 -0.0997  0.0392  0.4289
 3341SOL    HW121656   4.682   3.905   3.579  0.3008  0.0704 -0.2547
 3341SOL    HW221657   4.637   4.019   3.500 -2.5465  1.3729  2.0537
 3342SOL     OW21658   2.630   0.068   9.210  0.4995  0.1528  0.1527
 3342SOL    HW121659   2.541   0.070   9.175  1.6872  0.9687 -2.8457
 3342SOL    HW221660   2.660   0.147   9.165  2.4451 -0.8610 -0.3176
 3343SOL     OW21661   2.407   2.296   1.972 -0.1629 -0.4714 -0.1990
 3343SOL    HW121662   2.343   2.363   1.997  0.4382  0.0827 -0.1584
 3343SOL    HW221663   2.375   2.217   2.015  0.8694 -1.0446 -0.4998
 3344SOL     OW21664   1.047   1.790  17.085 -0.2856  0.1012 -0.4703
 3344SOL    HW121665   1.030   1.728  17.014 -0.9805 -0.3781  0.1264
 3344SOL    HW221666   0.963   1.795  17.130  0.4699 -0.5386  1.0016
 3345SOL     OW21667   0.454   4.024   6.266  0.5653 -0.8401 -0.1867
 3345SOL    HW121668   0.459   3.935   6.232  1.4695 -0.0236 -2.2115
 3345SOL    HW221669   0.496   4.014   6.351  2.3000  0.8558 -0.8408
 3346SOL     OW21670   0.468   0.881   0.764 -0.1006  0.0690 -0.5188
 3346SOL    HW121671   0.431   0.801   0.728  1.8794 -0.3036 -1.7343
 3346SOL    HW221672   0.492   0.936   0.689  1.7552  0.3744  0.2975
 3347SOL     OW21673   1.961   4.132  14.850 -0.2119 -0.2287 -0.6720
 3347SOL    HW121674   1.951   4.191  14.924  0.0673  0.2619 -1.0242
 3347SOL    HW221675   1.975   4.198  14.782 -1.3535 -0.2158 -0.8889
 3348SOL     OW21676   0.219   4.409   8.885 -0.3985  0.3347 -0.2629
 3348SOL    HW121677   0.134   4.446   8.861 -0.8366 -0.9169 -0.6441
 3348SOL    HW221678   0.279   4.477   8.855 -0.7848  0.2428 -1.2284
 3349SOL     OW21679   2.127   2.428   4.640  0.8296  0.3647  0.1842
 3349SOL    HW121680   2.097   2.470   4.560  0.5516  1.6723  0.9799
 3349SOL    HW221681   2.163   2.343   4.614  1.2511  0.9886 -1.2211
 3350SOL     OW21682   2.941   2.774   5.497  0.1060  0.2005  0.4072
 3350SOL    HW121683   2.866   2.759   5.439 -0.6729 -2.6313  2.1389
 3350SOL    HW221684   2.907   2.844   5.553 -0.5069 -0.7101  1.1871
 3351SOL     OW21685   2.045   3.696  11.902  0.0746 -0.4154 -0.2307
 3351SOL    HW121686   1.963   3.673  11.859 -0.5365  1.1646  0.1033
 3351SOL    HW221687   2.107   3.664  11.836 -0.1877  1.6663 -1.4907
 3352SOL     OW21688   3.566   4.449   5.195  0.2340  0.7766 -0.0417
 3352SOL    HW121689   3.638   4.385   5.198 -0.7861 -0.4644 -2.4382
 3352SOL    HW221690   3.500   4.394   5.153  0.4910  0.7406 -0.3939
 3353SOL     OW21691   2.703   1.259  12.599  0.0857 -0.0955 -0.0822
 3353SOL    HW121692   2.646   1.335  12.588  1.6139  1.0483 -0.0185
 3353SOL    HW221693   2.665   1.202  12.532 -0.3842 -1.2889  1.1872
 3354SOL     OW21694   4.513   0.801  11.213  0.0645 -0.8165  0.1050
 3354SOL    HW121695   4.448   0.757  11.159  0.9612  1.3824 -2.7713
 3354SOL    HW221696   4.501   0.759  11.299  1.0233 -0.2443  0.5179
 3355SOL     OW21697   3.287   1.535  11.217 -0.3855  0.5216  0.6510
 3355SOL    HW121698   3.311   1.585  11.295  0.5374 -0.5043  1.0399
 3355SOL    HW221699   3.371   1.502  11.184  0.0456  0.7435  1.5201
 3356SOL     OW21700   3.591   0.590  12.121  0.4698  0.7755  0.2378
 3356SOL    HW121701   3.505   0.549  12.125  1.2207 -1.0157 -1.9961
 3356SOL    HW221702   3.614   0.581  12.214 -0.5755  0.8520  0.5029
 3357SOL     OW21703   1.490   2.343   2.692  0.2086 -0.4210  1.1228
 3357SOL    HW121704   1.459   2.349   2.782  0.8550  0.1085  1.3149
 3357SOL    HW221705   1.567   2.398   2.708  1.2120 -1.5952  0.3654
 3358SOL     OW21706   4.106   3.059   8.988 -0.7508  0.8124  0.5654
 3358SOL    HW121707   4.168   3.103   8.929 -0.9115  1.8845  1.1920
 3358SOL    HW221708   4.166   2.991   9.018 -1.6057 -0.2328 -0.1155
 3359SOL     OW21709   4.576   4.684   8.638  0.2754  0.3629 -0.1196
 3359SOL    HW121710   4.531   4.612   8.593  0.1639  1.0526 -1.1110
 3359SOL    HW221711   4.501   4.714   8.690  0.8099 -0.2199  0.9801
 3360SOL     OW21712   1.249   2.033   1.836  0.1806  0.0172  0.0646
 3360SOL    HW121713   1.210   2.112   1.800  2.3775  1.0154 -0.1250
 3360SOL    HW221714   1.177   1.970   1.834  0.0025  0.2524 -0.7843
 3361SOL     OW21715   2.155   3.397  11.992 -0.8295  0.1028 -0.0393
 3361SOL    HW121716   2.128   3.479  11.951  1.0237 -0.9901 -3.4295
 3361SOL    HW221717   2.103   3.413  12.071 -0.6545  0.7765 -0.0613
 3362SOL     OW21718   0.170   0.897   3.825 -0.3706 -0.3139  0.5809
 3362SOL    HW121719   0.214   0.924   3.906 -0.0022  1.1363 -0.1165
 3362SOL    HW221720   0.242   0.860   3.773 -0.5022 -1.8645  1.4774
 3363SOL     OW21721   4.578   2.732   6.922 -0.2241 -0.3266 -0.4590
 3363SOL    HW121722   4.663   2.694   6.946 -0.7896 -0.5339  1.2392
 3363SOL    HW221723   4.525   2.726   7.001  2.2627 -0.3673  1.2012
 3364SOL     OW21724   4.438   1.979   6.454  0.2394 -0.1742 -0.4136
 3364SOL    HW121725   4.498   2.044   6.417 -0.8327 -0.9470 -3.4728
 3364SOL    HW221726   4.470   1.903   6.406  1.2637 -0.0399  0.0571
 3365SOL     OW21727   4.019   0.045  11.676  0.4055  0.2755  0.1501
 3365SOL    HW121728   4.054   4.722  11.739  1.5567 -0.2484 -1.0016
 3365SOL    HW221729   4.082   0.036  11.604 -0.0859 -0.6006 -0.1674
 3366SOL     OW21730   1.023   3.642   5.290  0.0607  0.0247 -0.2330
 3366SOL    HW121731   0.943   3.594   5.266 -0.2777  0.0730  0.8219
 3366SOL    HW221732   1.075   3.570   5.324  0.9031  1.2353  1.0419
 3367SOL     OW21733   2.404   1.055   1.039  0.3834  0.3347 -0.0738
 3367SOL    HW121734   2.365   1.134   1.077  1.3866  1.0703 -0.5698
 3367SOL    HW221735   2.336   0.990   1.060 -0.1576  0.4084 -1.6509
 3368SOL     OW21736   1.956   2.148  17.448  0.0006 -0.0487  0.3386
 3368SOL    HW121737   2.014   2.217  17.480 -0.6192  0.5786  0.1059
 3368SOL    HW221738   1.957   2.157  17.352 -0.5443 -0.2298  0.3176
 3369SOL     OW21739   2.339   4.251   8.783  0.6493  0.1117  0.3164
 3369SOL    HW121740   2.359   4.341   8.806  3.1057 -0.2227 -0.5885
 3369SOL    HW221741   2.252   4.256   8.744  0.8731  0.5152 -0.1239
 3370SOL     OW21742   3.108   2.184   1.949  0.5413 -0.2787  0.5032
 3370SOL    HW121743   3.017   2.182   1.920 -0.0168 -0.4554  2.2554
 3370SOL    HW221744   3.109   2.098   1.991 -2.4326 -0.4981  0.0918
 3371SOL     OW21745   0.989   3.820  15.646  0.3499  0.1934  0.0625
 3371SOL    HW121746   0.900   3.798  15.617  0.3385 -0.6106  0.6937
 3371SOL    HW221747   1.043   3.783  15.577  1.9914  2.3431  0.2152
 3372SOL     OW21748   0.575   4.638  14.687 -0.1485  0.4617  0.5411
 3372SOL    HW121749   0.616   4.724  14.684 -0.5138  0.5670 -1.6297
 3372SOL    HW221750   0.530   4.637  14.771  1.0408  0.0565  1.1705
 3373SOL     OW21751   4.055   1.284   2.025 -0.1548  0.3690 -0.5298
 3373SOL    HW121752   4.116   1.211   2.017  0.5724  0.9831 -0.5910
 3373SOL    HW221753   4.047   1.324   1.938  2.0636  1.7586 -0.0910
 3374SOL     OW21754   2.544   1.526   7.948  0.1758 -0.2650 -0.1996
 3374SOL    HW121755   2.511   1.447   7.993 -3.4584 -0.3636 -3.0091
 3374SOL    HW221756   2.548   1.494   7.858  2.0021  0.7816 -0.4865
 3375SOL     OW21757   0.875   2.296   0.024  0.2608 -0.2376 -0.5232
 3375SOL    HW121758   0.883   2.390   0.041 -2.7051  0.1947 -1.4150
 3375SOL    HW221759   0.860   2.290  17.685  1.4994 -1.6317 -0.6203
 3376SOL     OW21760   4.716   1.063   7.730  0.6597 -0.0028 -0.5124
 3376SOL    HW121761   0.043   1.076   7.662  0.1251 -0.0137 -1.0350
 3376SOL    HW221762   4.644   1.094   7.675 -1.3141 -0.1345  1.9687
 3377SOL     OW21763   0.271   1.186   6.733  0.5050 -0.0818  0.4279
 3377SOL    HW121764   0.271   1.198   6.828  1.1171 -0.3460  0.4547
 3377SOL    HW221765   0.352   1.136   6.727  0.5505 -0.0498  0.7742
 3378SOL     OW21766   0.341   1.051   3.446 -0.1326 -0.4314  0.1277
 3378SOL    HW121767   0.394   1.118   3.402  1.1971 -1.8448 -0.4004
 3378SOL    HW221768   0.406   1.022   3.510  0.8057 -0.4506 -0.8356
 3379SOL     OW21769   1.313   3.997   6.846 -0.0091  0.2914 -0.3347
 3379SOL    HW121770   1.362   4.047   6.911  2.5057 -3.4000  0.6218
 3379SOL    HW221771   1.233   3.971   6.892  0.6636 -1.0891  0.0434
 3380SOL     OW21772   1.709   0.583   2.159  0.1602  0.1396  0.1868
 3380SOL    HW121773   1.792   0.535   2.151  0.5061  0.9587 -1.2257
 3380SOL    HW221774   1.748   0.664   2.191 -0.5482  1.1835 -1.5603
 3381SOL     OW21775   1.691   1.189   4.766 -0.2075  0.1371 -0.0672
 3381SOL    HW121776   1.687   1.284   4.758 -1.7195  0.1576  0.8632
 3381SOL    HW221777   1.769   1.175   4.713 -0.2273 -0.0477 -0.0470
 3382SOL     OW21778   2.481   4.066   4.683 -0.0569  0.4918  0.1806
 3382SOL    HW121779   2.507   4.149   4.723 -0.4864  1.1019 -0.7931
 3382SOL    HW221780   2.532   4.005   4.736 -0.6492  0.8450  1.1509
 3383SOL     OW21781   0.042   1.302  12.403 -0.2579  0.1930  0.1768
 3383SOL    HW121782   0.124   1.288  12.450 -0.6439  0.7817  1.0156
 3383SOL    HW221783   0.087   1.360  12.341 -1.6541  2.5547  1.3483
 3384SOL     OW21784   1.403   3.067  13.287  0.0611 -0.4844 -0.1810
 3384SOL    HW121785   1.445   3.133  13.342 -3.3236  1.0485  0.5652
 3384SOL    HW221786   1.385   2.998  13.351  1.3485 -0.9610 -0.3299
 3385SOL     OW21787   0.411   1.139   7.474  0.0330 -0.2782  0.0066
 3385SOL    HW121788   0.465   1.067   7.508 -0.3159 -1.1012 -1.1757
 3385SOL    HW221789   0.487   1.164   7.421  1.1775  0.8061  2.1429
 3386SOL     OW21790   0.819   2.226   2.812 -0.4540  0.0544 -0.1788
 3386SOL    HW121791   0.866   2.276   2.879  0.9877 -1.5710  0.0339
 3386SOL    HW221792   0.761   2.177   2.869 -1.2177  0.9655 -0.1719
 3387SOL     OW21793   0.595   0.633   5.441  0.0621 -0.5158  0.2952
 3387SOL    HW121794   0.507   0.619   5.478  0.3967  0.5743  1.4789
 3387SOL    HW221795   0.622   0.721   5.467  0.9716 -0.3082 -1.3391
 3388SOL     OW21796   1.483   0.696   3.520  0.4279  0.7569  0.1289
 3388SOL    HW121797   1.471   0.767   3.583 -0.2071 -1.4489  2.4430
 3388SOL    HW221798   1.516   0.630   3.581 -0.1300 -0.5761 -1.0231
 3389SOL     OW21799   2.407   2.342   9.607  1.1003  0.3996 -0.2538
 3389SOL    HW121800   2.316   2.369   9.615  0.9452  0.7265 -3.0626
 3389SOL    HW221801   2.398   2.247   9.611  1.5280  0.3462 -0.4862
 3390SOL     OW21802   3.059   2.865  12.935 -0.3915 -0.0095  0.5204
 3390SOL    HW121803   3.012   2.792  12.893  1.5421 -0.9352 -0.0378
 3390SOL    HW221804   3.076   2.923  12.861  2.0661 -0.9889  0.2968
 3391SOL     OW21805   0.734   0.422   7.523 -0.5605 -0.2209 -0.0110
 3391SOL    HW121806   0.640   0.407   7.515 -0.6715  1.3442 -1.6405
 3391SOL    HW221807   0.729   0.503   7.574 -1.9913 -0.4603  0.2172
 3392SOL     OW21808   3.646   3.427  11.945 -0.0457  0.0678 -0.7017
 3392SOL    HW121809   3.731   3.471  11.942 -0.4658  1.0579  1.5115
 3392SOL    HW221810   3.602   3.495  11.996  0.9631  1.5081 -1.7463
 3393SOL     OW21811   2.495   1.998   1.706  0.3547  0.3206 -0.0081
 3393SOL    HW121812   2.420   2.040   1.666 -0.0533 -1.0568 -0.6944
 3393SOL    HW221813   2.452   1.974   1.788  3.0150  0.4106  1.4173
 3394SOL     OW21814   2.310   0.196  17.006  0.2320  0.5502 -0.0769
 3394SOL    HW121815   2.340   0.117  16.961  0.1000  1.6241 -2.0291
 3394SOL    HW221816   2.231   0.164  17.050  0.2338 -1.9338 -1.9071
 3395SOL     OW21817   0.993   2.856   7.744 -0.6498  0.6405 -0.2334
 3395SOL    HW121818   1.043   2.908   7.680 -1.8853  0.5516 -1.2580
 3395SOL    HW221819   0.901   2.871   7.723 -1.1271  0.6846  1.8805
 3396SOL     OW21820   4.243   4.395   9.493  0.2954 -0.3196  0.0873
 3396SOL    HW121821   4.220   4.443   9.413  2.9220 -0.4075 -0.7080
 3396SOL    HW221822   4.248   4.307   9.457  1.7943  0.4100 -1.4685
 3397SOL     OW21823   0.258   3.391   9.131 -0.0582 -0.2464 -0.3236
 3397SOL    HW121824   0.338   3.349   9.098  0.3695  1.2292 -1.1654
 3397SOL    HW221825   0.278   3.359   9.219  0.5251  0.3790 -0.2232
 3398SOL     OW21826   0.132   0.355  14.848 -0.2198  0.0303  0.3036
 3398SOL    HW121827   0.217   0.370  14.890  0.4732 -1.6087 -0.5368
 3398SOL    HW221828   0.097   0.443  14.866 -1.4365 -0.9013  2.5304
 3399SOL     OW21829   2.260   2.478   4.894  0.2130  0.6233 -0.6043
 3399SOL    HW121830   2.216   2.467   4.810 -1.5375 -0.3207  0.4374
 3399SOL    HW221831   2.226   2.405   4.946 -0.1315 -0.4618 -2.3797
 3400SOL     OW21832   3.823   2.381   5.721 -0.0686  0.0818  0.1858
 3400SOL    HW121833   3.913   2.366   5.748  0.5528 -2.5542 -3.2431
 3400SOL    HW221834   3.811   2.325   5.644 -0.5109  0.8286 -0.2940
 3401SOL     OW21835   0.541   1.395  12.534  0.1978 -0.3730  0.7619
 3401SOL    HW121836   0.586   1.314  12.557 -1.9889 -0.6910  3.7863
 3401SOL    HW221837   0.592   1.472  12.561 -0.0492  0.0491  0.0504
 3402SOL     OW21838   3.280   4.331  17.600  0.4854  0.0087 -0.1303
 3402SOL    HW121839   3.353   4.390  17.620  0.3246  0.4247 -0.7647
 3402SOL    HW221840   3.274   4.338  17.505  1.1519  1.3514 -0.0808
 3403SOL     OW21841   4.354   0.255   8.984 -0.0043  0.4115  0.2294
 3403SOL    HW121842   4.340   0.320   8.915 -4.0565 -0.3923  0.2766
 3403SOL    HW221843   4.354   0.310   9.063 -2.0359 -0.5777  0.9144
 3404SOL     OW21844   3.472   2.210  16.257  0.3721 -0.7289 -0.5699
 3404SOL    HW121845   3.434   2.280  16.204  1.6245 -0.2876 -0.8674
 3404SOL    HW221846   3.416   2.230  16.333 -0.1697 -0.7858 -0.9549
 3405SOL     OW21847   2.759   1.378   7.488  0.0457 -0.1635 -0.9588
 3405SOL    HW121848   2.741   1.429   7.408  2.2902  1.1220 -0.6472
 3405SOL    HW221849   2.781   1.296   7.444 -1.2003 -2.1926  2.2112
 3406SOL     OW21850   3.193   3.440  15.907  0.5408  0.1933 -0.2469
 3406SOL    HW121851   3.166   3.350  15.922  3.2664 -0.3443  1.5204
 3406SOL    HW221852   3.234   3.425  15.821  0.5859 -1.9346  0.1528
 3407SOL     OW21853   0.119   0.138   0.405  0.5667  0.2262  0.3646
 3407SOL    HW121854   0.205   0.180   0.399  0.8600 -0.6836 -1.7704
 3407SOL    HW221855   0.072   0.168   0.327 -1.0490  0.5964  1.4813
 3408SOL     OW21856   0.360   4.243   1.773  0.1455  0.2772  0.1695
 3408SOL    HW121857   0.365   4.328   1.730 -1.1003 -0.0705 -0.6700
 3408SOL    HW221858   0.452   4.234   1.798  1.0204  5.6371 -1.2909
 3409SOL     OW21859   1.803   1.652   8.000 -0.4886  0.6014  0.4936
 3409SOL    HW121860   1.729   1.656   7.940 -0.2970  1.6372  0.3240
 3409SOL    HW221861   1.880   1.682   7.951  0.3036 -1.0911  0.7230
 3410SOL     OW21862   4.607   2.031  17.042 -0.2492 -0.2704  0.3526
 3410SOL    HW121863   4.652   1.972  16.982 -2.1218  0.3523 -1.6670
 3410SOL    HW221864   4.513   2.015  17.036  0.4990 -3.7697 -2.2323
 3411SOL     OW21865   0.457   2.115   3.371 -0.5010  0.5773  0.2444
 3411SOL    HW121866   0.474   2.202   3.407 -0.5222  0.7606 -0.1903
 3411SOL    HW221867   0.378   2.138   3.321 -1.7419  1.3432  2.5486
 3412SOL     OW21868   2.567   2.332   4.183 -0.2441  0.1420 -0.3608
 3412SOL    HW121869   2.477   2.362   4.194  0.1540  1.1682  0.1180
 3412SOL    HW221870   2.618   2.412   4.199  3.0062 -2.0758  0.5025
 3413SOL     OW21871   2.594   0.621   0.123  0.1867 -0.2068  0.5196
 3413SOL    HW121872   2.567   0.533   0.094 -1.6654  0.4286  0.3507
 3413SOL    HW221873   2.522   0.646   0.180 -0.7434  1.6450 -1.4813
 3414SOL     OW21874   1.917   0.709   5.599 -0.0724 -0.2966 -0.1169
 3414SOL    HW121875   1.832   0.714   5.643  0.0064  2.1871 -0.2373
 3414SOL    HW221876   1.885   0.731   5.512 -0.5620 -2.0335 -0.3814
 3415SOL     OW21877   0.071   4.049   4.579 -0.6510  0.0841  0.0960
 3415SOL    HW121878   0.095   4.000   4.658 -0.0065  0.8907  0.4128
 3415SOL    HW221879   0.149   4.067   4.526  0.2638  1.1001  1.7627
 3416SOL     OW21880   0.764   1.728   9.458  0.1656  0.3633  0.1609
 3416SOL    HW121881   0.841   1.693   9.504  0.6092  1.0867 -0.0333
 3416SOL    HW221882   0.780   1.708   9.366  0.8627  0.3404  0.2905
 3417SOL     OW21883   2.749   2.086   0.697 -0.1181 -0.1667 -0.0273
 3417SOL    HW121884   2.816   2.079   0.628 -1.3896  1.3122 -1.4175
 3417SOL    HW221885   2.741   2.180   0.705  0.5468 -0.4374  3.6320
 3418SOL     OW21886   2.406   0.498   1.476 -0.1147  0.2518  0.3078
 3418SOL    HW121887   2.347   0.447   1.420  0.1337 -0.2848  0.5279
 3418SOL    HW221888   2.416   0.576   1.422 -0.9847  1.4869  1.9570
 3419SOL     OW21889   2.978   3.872  10.053 -0.1861 -0.1107  0.2327
 3419SOL    HW121890   2.929   3.833  10.125 -0.6764 -0.6095 -0.3605
 3419SOL    HW221891   3.059   3.905  10.091 -0.0538 -1.4353  1.1084
 3420SOL     OW21892   1.545   0.479   6.290 -0.0778  0.5127  0.2499
 3420SOL    HW121893   1.556   0.434   6.374  1.2096 -0.8126 -0.6189
 3420SOL    HW221894   1.520   0.398   6.245  0.0825 -0.3059  1.6267
 3421SOL     OW21895   4.485   1.909   7.254 -0.2744 -0.0490 -0.1018
 3421SOL    HW121896   4.538   1.892   7.332 -1.3510  0.3054  0.7023
 3421SOL    HW221897   4.547   1.898   7.182 -0.7790  1.2143 -0.7286
 3422SOL     OW21898   4.492   4.147   2.663 -0.1937 -0.1128  0.8417
 3422SOL    HW121899   4.559   4.165   2.596 -0.8262 -0.9656 -0.0172
 3422SOL    HW221900   4.452   4.233   2.653  0.7866  0.6819  3.7404
 3423SOL     OW21901   1.028   2.842   4.848 -0.1004 -0.5289 -0.6702
 3423SOL    HW121902   0.973   2.916   4.821 -1.2161 -0.4168  1.8693
 3423SOL    HW221903   0.960   2.774   4.842  1.9788 -2.8243  1.6687
 3424SOL     OW21904   3.101   2.918   4.889 -0.4210  0.3435 -0.4209
 3424SOL    HW121905   3.124   2.825   4.896 -1.2404  0.0635 -1.4577
 3424SOL    HW221906   3.076   2.921   4.797 -1.0565  1.2456 -0.2111
 3425SOL     OW21907   4.106   2.198  11.045 -0.4043  0.1452  0.2456
 3425SOL    HW121908   4.019   2.211  11.082  0.0473 -0.9089  1.6514
 3425SOL    HW221909   4.157   2.168  11.119 -2.8706 -2.3897  0.8959
 3426SOL     OW21910   3.526   2.098  12.813  0.1929 -0.0352  0.1857
 3426SOL    HW121911   3.499   2.047  12.890  1.3628 -2.4462 -1.0102
 3426SOL    HW221912   3.620   2.095  12.832  0.4770 -3.8360 -1.8810
 3427SOL     OW21913   3.270   1.554   8.675  0.8212  0.1040  0.2506
 3427SOL    HW121914   3.294   1.476   8.626  1.7744  0.2664  0.4534
 3427SOL    HW221915   3.245   1.522   8.762  1.2511 -1.2367 -0.1243
 3428SOL     OW21916   2.088   2.677   3.899  0.4132  0.4158 -0.0748
 3428SOL    HW121917   2.050   2.629   3.825 -2.0958  1.3512  0.6059
 3428SOL    HW221918   2.012   2.729   3.927  0.9296  0.6428  0.9199
 3429SOL     OW21919   0.103   4.095   5.463  0.0227  0.1996  0.5626
 3429SOL    HW121920   0.066   4.133   5.384 -1.8941  0.3716  1.5180
 3429SOL    HW221921   0.029   4.068   5.519 -0.7134  1.5511  0.2291
 3430SOL     OW21922   3.419   0.545   7.371 -0.5583  0.1657 -0.0509
 3430SOL    HW121923   3.483   0.594   7.422  2.1281 -0.7361 -2.5723
 3430SOL    HW221924   3.369   0.492   7.434 -0.2958 -0.3523 -0.2724
 3431SOL     OW21925   0.718   4.346   4.740  0.6859  0.0065  0.1321
 3431SOL    HW121926   0.696   4.329   4.832  1.2923 -2.8973 -0.2583
 3431SOL    HW221927   0.660   4.419   4.717  2.5368  0.2019 -3.9340
 3432SOL     OW21928   1.215   2.181  17.623  0.1403  0.2199 -0.2468
 3432SOL    HW121929   1.185   2.155  17.710 -0.3705 -0.5688 -0.6676
 3432SOL    HW221930   1.308   2.166  17.639 -0.1153 -1.2759 -0.2424
 3433SOL     OW21931   4.447   2.575   9.076 -0.6262  0.7227 -0.3958
 3433SOL    HW121932   4.520   2.604   9.021 -1.8145  2.1905 -1.2286
 3433SOL    HW221933   4.397   2.527   9.010  1.2952 -1.3047 -0.3522
 3434SOL     OW21934   2.293   2.781   9.710  0.0952  0.3038 -0.2091
 3434SOL    HW121935   2.376   2.825   9.693 -1.3269  3.0524 -0.0376
 3434SOL    HW221936   2.265   2.827   9.789  2.9656  0.8651  0.4972
 3435SOL     OW21937   0.296   2.592   5.348 -0.3008  0.1239 -0.5043
 3435SOL    HW121938   0.223   2.619   5.292 -1.9795 -1.2643  1.0185
 3435SOL    HW221939   0.367   2.649   5.319 -0.3170 -0.0345 -0.8497
 3436SOL     OW21940   4.547   2.601   4.759  0.2207  0.0156  0.2742
 3436SOL    HW121941   4.543   2.689   4.796  0.5905 -0.0295  0.4183
 3436SOL    HW221942   4.610   2.621   4.690  1.0824 -1.6313  0.5808
 3437SOL     OW21943   1.324   1.715  17.633  0.2195  0.0816 -0.3455
 3437SOL    HW121944   1.378   1.746  17.560  2.3253 -1.6321  0.4930
 3437SOL    HW221945   1.258   1.662  17.590 -1.2410  2.2500 -0.7689
 3438SOL     OW21946   4.031   0.427   7.976 -0.4900  0.3245  0.3040
 3438SOL    HW121947   4.054   0.520   7.973 -0.0426  0.0955 -3.0068
 3438SOL    HW221948   4.080   0.400   8.054 -0.5226 -0.3234  0.1008
 3439SOL     OW21949   0.719   3.073  16.035 -0.1983  0.0932  0.5685
 3439SOL    HW121950   0.795   3.015  16.033  0.1589  0.5129  1.4857
 3439SOL    HW221951   0.751   3.161  16.016 -0.0022  0.1333  1.0774
 3440SOL     OW21952   0.915   1.126   7.412  0.9831  0.5103  0.2654
 3440SOL    HW121953   0.826   1.159   7.403  0.5749  0.0319  2.6133
 3440SOL    HW221954   0.940   1.108   7.321  0.2173  2.6939 -0.3613
 3441SOL     OW21955   4.048   0.546   5.341 -0.1825 -0.5129 -0.4567
 3441SOL    HW121956   4.024   0.576   5.428 -0.8506  1.5400 -1.3236
 3441SOL    HW221957   4.069   0.629   5.297  1.7274 -0.3835  0.7111
 3442SOL     OW21958   0.080   0.255   8.633 -0.3744 -0.3287  0.2053
 3442SOL    HW121959   0.026   0.291   8.703  0.9540 -0.2649  1.2046
 3442SOL    HW221960   0.023   0.279   8.559  3.3094  0.1412 -2.4828
 3443SOL     OW21961   2.480   2.665  14.147 -0.2940  0.0846 -0.0920
 3443SOL    HW121962   2.575   2.655  14.161 -0.2943  0.6611  0.3182
 3443SOL    HW221963   2.477   2.656  14.052 -1.5946 -1.8930  0.1402
 3444SOL     OW21964   2.283   4.483  15.340  0.0303 -0.4826  0.0031
 3444SOL    HW121965   2.240   4.540  15.404  1.4765  2.3284 -1.4907
 3444SOL    HW221966   2.289   4.407  15.398 -0.6791 -0.6251 -0.1064
 3445SOL     OW21967   2.815   0.751  14.424 -0.0909  0.0441 -0.5911
 3445SOL    HW121968   2.799   0.660  14.450 -0.2109  0.2669  0.1145
 3445SOL    HW221969   2.731   0.791  14.445 -0.6166 -1.5055  0.2805
 3446SOL     OW21970   4.626   4.636  17.395  0.3056  0.1135  0.2080
 3446SOL    HW121971   4.706   4.603  17.355  0.3663  1.2487 -0.5969
 3446SOL    HW221972   4.600   4.553  17.435 -0.9996  0.9739  1.1446
 3447SOL     OW21973   0.064   3.754   8.159  0.2058  0.4999 -0.0256
 3447SOL    HW121974   0.133   3.817   8.137  1.1269 -1.0911 -1.6638
 3447SOL    HW221975   4.726   3.811   8.160 -1.1117 -1.3077 -0.4972
 3448SOL     OW21976   1.133   2.931  13.232  0.2992  0.3918  0.5546
 3448SOL    HW121977   1.130   2.901  13.323  2.9857  1.3165  0.9591
 3448SOL    HW221978   1.126   3.025  13.246  1.8632  1.1332 -3.5986
 3449SOL     OW21979   0.369   0.637   9.145  0.0386  0.2014  0.0521
 3449SOL    HW121980   0.291   0.594   9.109  0.2369 -1.6630  1.8355
 3449SOL    HW221981   0.400   0.565   9.200 -0.7713  1.8870  2.6837
 3450SOL     OW21982   2.075   1.170  17.409  0.0371 -0.3289 -0.6380
 3450SOL    HW121983   1.986   1.202  17.421 -0.0999 -0.6010 -0.9285
 3450SOL    HW221984   2.075   1.173  17.313 -1.2966 -2.2819 -0.6915
 3451SOL     OW21985   2.724   4.663  17.594 -0.5566  0.4132  0.5214
 3451SOL    HW121986   2.771   4.640  17.514  1.3618  1.3131  1.3879
 3451SOL    HW221987   2.788   4.659  17.666  0.9249  0.6356 -0.7966
 3452SOL     OW21988   1.375   2.258  14.031  0.2671 -0.6629  0.5263
 3452SOL    HW121989   1.440   2.188  14.043  0.3033 -0.5566  0.9423
 3452SOL    HW221990   1.307   2.230  14.093 -0.7487  1.4453  0.3512
 3453SOL     OW21991   0.871   1.220   6.984  0.3361 -0.0182 -0.5900
 3453SOL    HW121992   0.859   1.138   7.033 -4.3650  0.4545 -0.8849
 3453SOL    HW221993   0.829   1.204   6.899 -1.8413  3.1438 -0.1154
 3454SOL     OW21994   2.050   2.136  11.810  0.2697  0.4564 -0.2421
 3454SOL    HW121995   2.106   2.134  11.732  1.3397  2.3342  0.4678
 3454SOL    HW221996   1.961   2.146  11.777  0.0459  0.1658  0.2855
 3455SOL     OW21997   3.783   3.327   0.098  0.1767 -0.4833  0.0836
 3455SOL    HW121998   3.791   3.335   0.193 -0.4287 -1.6245  0.2240
 3455SOL    HW221999   3.690   3.307   0.089  0.3046 -1.1489  0.2183
 3456SOL     OW22000   4.242   4.611  10.602 -0.0739  0.2137  0.2921
 3456SOL    HW122001   4.190   4.532  10.617 -1.3189  1.2520  1.4426
 3456SOL    HW222002   4.173   4.677  10.591 -1.2499 -0.9886  0.3984
 3457SOL     OW22003   3.337   0.024   3.062  0.0615  0.1842  0.3148
 3457SOL    HW122004   3.355   4.724   3.147  0.5699 -0.5039 -0.1152
 3457SOL    HW222005   3.342   0.119   3.079 -0.7101  0.4593 -1.0023
 3458SOL     OW22006   0.765   0.864   8.712 -0.3940  0.4375  0.4876
 3458SOL    HW122007   0.849   0.821   8.731 -1.0883 -0.7633  0.8992
 3458SOL    HW222008   0.712   0.826   8.782  1.1720  0.3052  1.6206
 3459SOL     OW22009   3.746   3.715   9.148  0.4798  0.0579  0.3720
 3459SOL    HW122010   3.712   3.763   9.073  1.3386  0.5381  0.2935
 3459SOL    HW222011   3.774   3.636   9.101 -0.2907 -0.2014  0.3572
 3460SOL     OW22012   1.934   3.255   2.931 -0.1979 -0.2469 -0.2278
 3460SOL    HW122013   1.887   3.310   2.994  1.8464 -1.8672  2.7474
 3460SOL    HW222014   1.970   3.328   2.881  0.1268 -0.2351  0.0205
 3461SOL     OW22015   2.235   4.707   8.055 -0.0743  0.2245 -0.3548
 3461SOL    HW122016   2.236   4.687   7.962 -0.3975 -1.5347  0.0288
 3461SOL    HW222017   2.327   4.683   8.072  1.2134  1.3866 -5.6621
 3462SOL     OW22018   0.596   3.259  10.654  0.0162  0.2557 -0.0198
 3462SOL    HW122019   0.571   3.258  10.747 -0.4746 -1.0731 -0.1717
 3462SOL    HW222020   0.585   3.167  10.630 -1.2710  0.4379 -0.1466
 3463SOL     OW22021   0.720   1.129   2.205  0.1080 -0.0881  0.1440
 3463SOL    HW122022   0.693   1.149   2.116  1.2893  0.8683  0.0014
 3463SOL    HW222023   0.637   1.116   2.251  0.5123  2.8889  1.7435
 3464SOL     OW22024   1.620   4.241   7.480  0.0700  0.0372  0.0309
 3464SOL    HW122025   1.603   4.209   7.569  0.7291  1.0635  0.5204
 3464SOL    HW222026   1.696   4.292   7.508  0.6545 -1.2359  0.7777
 3465SOL     OW22027   0.526   0.223  16.897 -0.3552 -0.0619 -0.3926
 3465SOL    HW122028   0.594   0.204  16.962 -1.5988  0.0620  0.9484
 3465SOL    HW222029   0.558   0.308  16.867  1.5493 -1.5407 -2.5420
 3466SOL     OW22030   1.057   3.855   3.803  0.2413  0.2201 -0.1237
 3466SOL    HW122031   1.072   3.774   3.853  2.3582  0.4886 -0.2927
 3466SOL    HW222032   1.147   3.856   3.770  0.1019  0.2708 -0.4920
 3467SOL     OW22033   3.954   2.062  10.178  0.4522 -0.0512  0.2960
 3467SOL    HW122034   3.890   2.081  10.246 -0.3207 -2.1763  0.1505
 3467SOL    HW222035   4.041   2.071  10.217  0.8955 -0.7827 -0.5188
 3468SOL     OW22036   1.760   0.318  13.479 -0.0625 -0.4240 -0.3844
 3468SOL    HW122037   1.843   0.366  13.486 -1.1374  1.5461 -1.1701
 3468SOL    HW222038   1.734   0.319  13.571  1.3551  2.4852 -0.0298
 3469SOL     OW22039   2.026   3.052   9.245  0.0147 -0.1350 -0.0864
 3469SOL    HW122040   2.064   3.005   9.171  0.2070  1.1107 -0.7764
 3469SOL    HW222041   2.064   3.018   9.326  0.9231 -1.0310 -0.8971
 3470SOL     OW22042   2.584   0.077   8.855 -0.2371  0.1405 -0.1891
 3470SOL    HW122043   2.606   0.133   8.929 -0.6562 -2.6436  2.0345
 3470SOL    HW222044   2.671   0.048   8.827 -0.0417  1.1195 -0.5722
 3471SOL     OW22045   4.347   0.869   5.922  0.2495 -0.0045  0.5695
 3471SOL    HW122046   4.323   0.936   5.858 -1.7747 -0.3024  1.0211
 3471SOL    HW222047   4.348   0.787   5.872 -2.0681  0.4082 -0.1508
 3472SOL     OW22048   1.157   4.212   7.527  0.3373  0.0468 -0.0707
 3472SOL    HW122049   1.185   4.261   7.449 -0.0402 -0.3639 -0.4638
 3472SOL    HW222050   1.203   4.261   7.595 -0.3969  1.4852 -0.6067
 3473SOL     OW22051   0.275   0.423   0.910  0.2267  0.3563  0.0706
 3473SOL    HW122052   0.230   0.506   0.922 -1.7810 -0.4337 -1.7194
 3473SOL    HW222053   0.270   0.367   0.987 -0.1558  0.9542  0.4766
 3474SOL     OW22054   1.770   4.102   6.002 -0.0803 -0.2951 -0.2254
 3474SOL    HW122055   1.771   4.163   6.075 -1.0713  1.6134 -1.8142
 3474SOL    HW222056   1.866   4.103   5.997  0.0109  2.6347  2.4310
 3475SOL     OW22057   0.961   2.128   3.641 -0.0498 -0.4918 -0.4852
 3475SOL    HW122058   0.942   2.081   3.561  0.1309 -1.0546 -0.1996
 3475SOL    HW222059   1.056   2.137   3.639  0.1281 -1.4294  2.7923
 3476SOL     OW22060   2.589   4.442  17.412  0.4448 -0.0370  0.4348
 3476SOL    HW122061   2.534   4.472  17.485  0.1540 -0.1789  0.2708
 3476SOL    HW222062   2.660   4.505  17.424 -1.2162  1.4775  2.4056
 3477SOL     OW22063   3.358   0.791  12.156  0.1432  0.4463  0.1657
 3477SOL    HW122064   3.418   0.865  12.166  0.9245 -0.3500  1.3896
 3477SOL    HW222065   3.298   0.836  12.096 -1.0761 -0.0535  1.0213
 3478SOL     OW22066   2.066   2.370   3.380  0.6118 -0.4334  0.4832
 3478SOL    HW122067   2.162   2.374   3.389  0.6166  0.3651  0.0189
 3478SOL    HW222068   2.051   2.449   3.328  0.6715 -1.6467 -1.3820
 3479SOL     OW22069   1.560   2.739  10.459  0.4588  0.1014 -0.9161
 3479SOL    HW122070   1.539   2.678  10.387  2.9806 -0.1692 -1.4149
 3479SOL    HW222071   1.491   2.702  10.515  2.9631  0.4110  2.3678
 3480SOL     OW22072   3.328   3.696   4.221 -0.3764  0.2218 -0.2728
 3480SOL    HW122073   3.331   3.789   4.199  1.4880 -0.1736 -1.6510
 3480SOL    HW222074   3.342   3.692   4.316 -0.0620 -0.1639 -0.3328
 3481SOL     OW22075   1.152   1.901   8.059  0.3623 -0.0442 -0.4345
 3481SOL    HW122076   1.159   1.980   8.113  1.6133 -0.6637  0.2893
 3481SOL    HW222077   1.148   1.948   7.976 -3.0511  1.2291  0.4426
 3482SOL     OW22078   3.486   2.182  10.804 -0.1650 -0.6876 -0.5422
 3482SOL    HW122079   3.439   2.265  10.808  0.2277 -0.5258  0.5366
 3482SOL    HW222080   3.538   2.195  10.883  1.6518 -1.6854 -1.5746
 3483SOL     OW22081   3.612   1.787   4.783 -0.1726 -0.2045 -0.2118
 3483SOL    HW122082   3.559   1.856   4.822 -1.1204  0.3412 -2.4349
 3483SOL    HW222083   3.695   1.799   4.829 -1.9114 -0.8642  3.0830
 3484SOL     OW22084   1.351   4.637  17.349  0.1929 -0.0403 -0.3978
 3484SOL    HW122085   1.425   4.597  17.304 -0.6037 -1.1860 -0.6929
 3484SOL    HW222086   1.294   4.674  17.282  0.1312  0.9234  0.1850
 3485SOL     OW22087   0.829   3.898   1.591 -0.2933 -0.7782 -0.2810
 3485SOL    HW122088   0.882   3.868   1.517  0.9041  1.5182 -0.3455
 3485SOL    HW222089   0.748   3.853   1.568  0.3463 -1.8388 -0.5200
 3486SOL     OW22090   2.557   0.825   7.817 -0.6007  0.1216 -0.0259
 3486SOL    HW122091   2.630   0.885   7.830 -0.6214  0.3299 -0.8247
 3486SOL    HW222092   2.603   0.746   7.788 -1.6843 -0.1640 -0.9788
 3487SOL     OW22093   4.304   4.179   3.673 -0.2922  0.0084  0.6375
 3487SOL    HW122094   4.236   4.129   3.719 -0.9761  0.5893  0.2522
 3487SOL    HW222095   4.357   4.217   3.744 -0.0621 -1.0432  1.0328
 3488SOL     OW22096   4.135   3.370   4.837 -0.0283 -0.1743 -0.1676
 3488SOL    HW122097   4.172   3.426   4.769 -1.3121  0.4245 -0.3894
 3488SOL    HW222098   4.192   3.294   4.827  0.5349  0.0418  1.4280
 3489SOL     OW22099   4.142   1.014   5.413 -0.0218 -0.1830 -0.2960
 3489SOL    HW122100   4.076   0.956   5.452  1.7781 -1.2512  1.1342
 3489SOL    HW222101   4.092   1.096   5.415 -0.9614 -0.7482 -0.8595
 3490SOL     OW22102   2.762   2.966   6.929 -0.1484  0.0985  0.4639
 3490SOL    HW122103   2.829   3.011   6.878  0.3278 -2.6242 -1.3088
 3490SOL    HW222104   2.764   2.999   7.018  1.7188 -0.0229  0.4580
 3491SOL     OW22105   0.010   3.564   9.888 -0.0286  0.2925  0.2347
 3491SOL    HW122106   4.719   3.593   9.802 -2.0492 -0.5428  0.6520
 3491SOL    HW222107   0.080   3.623   9.915  3.2124 -2.7953 -1.4535
 3492SOL     OW22108   1.701   1.762  12.794 -0.2109 -0.3957  0.2186
 3492SOL    HW122109   1.720   1.727  12.881  1.4559  1.3727  0.5679
 3492SOL    HW222110   1.611   1.733  12.781 -0.0959 -0.6704  0.0392
 3493SOL     OW22111   3.520   2.959   5.320  0.0249 -0.3372  0.9290
 3493SOL    HW122112   3.586   3.022   5.348 -0.7121  1.6732 -1.8484
 3493SOL    HW222113   3.445   3.015   5.303 -1.0556 -1.7423  1.0637
 3494SOL     OW22114   0.577   1.513   5.394  0.3341 -1.0218  0.7452
 3494SOL    HW122115   0.649   1.503   5.456  0.8948  2.7355  0.7060
 3494SOL    HW222116   0.545   1.596   5.428  0.9675 -0.8708  0.9847
 3495SOL     OW22117   3.362   0.410   6.937 -0.0995  0.0125 -0.2828
 3495SOL    HW122118   3.407   0.493   6.920 -0.3383  0.0846 -0.5578
 3495SOL    HW222119   3.304   0.422   7.012  0.5628 -1.8528  0.5442
 3496SOL     OW22120   0.252   2.838   3.983 -0.1235 -0.0318  1.0450
 3496SOL    HW122121   0.303   2.895   3.925  1.1580 -4.1542 -1.9220
 3496SOL    HW222122   0.272   2.881   4.066  0.9609  3.8619 -1.2640
 3497SOL     OW22123   0.085   0.722  12.612 -0.0042  0.4507  0.1110
 3497SOL    HW122124   0.075   0.795  12.551 -1.6430 -0.3769 -0.6257
 3497SOL    HW222125   0.153   0.754  12.671 -1.7931  1.6537  1.5377
 3498SOL     OW22126   2.576   2.015   0.406 -0.0728 -0.0854  0.0734
 3498SOL    HW122127   2.481   2.010   0.420 -0.1123  0.6913  0.1235
 3498SOL    HW222128   2.604   1.981   0.491 -0.5123  1.6858  0.9454
 3499SOL     OW22129   3.229   3.530   1.430 -0.1842  0.1625  0.0539
 3499SOL    HW122130   3.264   3.561   1.346 -0.1287  2.0782  0.8018
 3499SOL    HW222131   3.293   3.459   1.443  0.3106  0.9693  1.9712
 3500SOL     OW22132   0.666   1.877  16.204 -0.4949  0.0801 -0.0856
 3500SOL    HW122133   0.755   1.856  16.231 -0.0607  1.4936 -0.4098
 3500SOL    HW222134   0.677   1.968  16.178 -2.9077  0.0354 -1.2761
 3501SOL     OW22135   1.174   0.622   6.783 -0.2379  0.1697  0.6409
 3501SOL    HW122136   1.110   0.675   6.736 -0.7451 -1.0959 -0.0844
 3501SOL    HW222137   1.206   0.566   6.712  0.6271  0.8044  0.5249
 3502SOL     OW22138   2.916   3.230   5.295  0.3773 -0.9638  0.5422
 3502SOL    HW122139   2.922   3.159   5.231 -1.1829 -0.4174 -0.2062
 3502SOL    HW222140   2.992   3.283   5.267  1.1726 -1.5271  1.6558
 3503SOL     OW22141   2.440   3.317   7.468 -0.4605 -0.1764 -0.9782
 3503SOL    HW122142   2.531   3.308   7.497 -1.8743 -2.2494  2.8701
 3503SOL    HW222143   2.438   3.236   7.418 -2.2680 -0.7286 -0.0201
 3504SOL     OW22144   2.833   4.247   1.681  0.0295 -0.1260  0.2944
 3504SOL    HW122145   2.872   4.228   1.596  0.3072  0.3636  0.3090
 3504SOL    HW222146   2.756   4.299   1.657 -0.9903 -1.4005  0.8087
 3505SOL     OW22147   1.541   2.278  17.053 -0.1046  0.1190 -0.0069
 3505SOL    HW122148   1.509   2.359  17.014  1.3045 -0.6401 -2.7062
 3505SOL    HW222149   1.474   2.262  17.120  1.4903 -3.1868  0.7992
 3506SOL     OW22150   3.111   1.230   8.987  0.0481 -0.1283  0.2885
 3506SOL    HW122151   3.057   1.194   9.057 -1.5247  0.5779 -0.5665
 3506SOL    HW222152   3.050   1.274   8.928  1.6086 -1.6513 -2.4390
 3507SOL     OW22153   4.483   3.923   6.305 -0.1129  0.0597 -0.3786
 3507SOL    HW122154   4.575   3.946   6.289 -0.9578  3.3918 -0.4070
 3507SOL    HW222155   4.428   3.993   6.270 -0.5276  0.2627  0.6978
 3508SOL     OW22156   2.376   0.717   1.322  0.3278  0.2198  0.4155
 3508SOL    HW122157   2.334   0.800   1.346 -0.9982 -0.9825  2.2256
 3508SOL    HW222158   2.358   0.725   1.228  0.3435  2.9655  0.6553
 3509SOL     OW22159   4.048   3.791   8.976  0.7352 -0.2638 -0.4431
 3509SOL    HW122160   4.074   3.826   8.891  0.0073 -1.1410 -1.0184
 3509SOL    HW222161   3.953   3.800   8.964  0.1798 -3.3357  1.6171
 3510SOL     OW22162   0.990   3.965   4.672  0.2447 -0.5714  0.5956
 3510SOL    HW122163   1.028   3.929   4.592 -0.2875  1.7362 -0.7102
 3510SOL    HW222164   0.916   4.015   4.636  2.7431  2.0893 -0.8509
 3511SOL     OW22165   0.987   0.412   0.396  0.0442  0.0302  0.6715
 3511SOL    HW122166   0.943   0.488   0.435 -1.1037 -1.4280  2.2332
 3511SOL    HW222167   0.962   0.426   0.305 -2.1075 -0.7868  1.1373
 3512SOL     OW22168   4.587   4.688  15.514  0.0129  0.5196  0.3168
 3512SOL    HW122169   4.671   4.664  15.475 -0.6423  1.0295 -1.3792
 3512SOL    HW222170   4.533   4.611  15.530  1.8936 -0.5078  1.8193
 3513SOL     OW22171   4.551   4.139   7.500 -0.1236  0.1722 -0.0120
 3513SOL    HW122172   4.614   4.145   7.429 -1.1326 -0.0311 -0.9237
 3513SOL    HW222173   4.601   4.071   7.545  1.5409  1.4490  0.0590
 3514SOL     OW22174   2.235   3.988  17.675 -1.0202 -0.8118  0.1080
 3514SOL    HW122175   2.185   3.932  17.734 -2.4330 -1.0153 -1.2894
 3514SOL    HW222176   2.292   4.029  17.740  2.6447 -1.8379 -2.4763
 3515SOL     OW22177   2.415   2.031  12.755 -0.2999 -0.4475  0.2590
 3515SOL    HW122178   2.369   2.114  12.770  2.9904  1.2215  1.1782
 3515SOL    HW222179   2.479   2.039  12.825 -0.5906 -2.8139  0.8137
 3516SOL     OW22180   0.254   0.012  13.318  0.2302  0.8284 -1.0561
 3516SOL    HW122181   0.277   0.103  13.301  0.1373  1.3588  1.6218
 3516SOL    HW222182   0.200   4.729  13.242  0.3730  1.5714 -1.3788
 3517SOL     OW22183   4.669   4.260   0.260  0.1160 -0.3251 -0.4237
 3517SOL    HW122184   4.730   4.334   0.263 -2.3580  1.6217  1.8302
 3517SOL    HW222185   4.604   4.294   0.322 -1.4037 -2.0672 -1.0598
 3518SOL     OW22186   0.970   0.410   0.776 -0.5490  0.4184  0.3784
 3518SOL    HW122187   1.031   0.337   0.788  2.3412  2.9448  1.1643
 3518SOL    HW222188   0.891   0.371   0.739  0.5428  0.4303 -1.9874
 3519SOL     OW22189   2.734   0.406   3.689 -0.9697 -0.2048 -0.1449
 3519SOL    HW122190   2.703   0.344   3.623  1.0878  0.8172 -2.0600
 3519SOL    HW222191   2.827   0.413   3.666 -0.9204  0.9709  0.4197
 3520SOL     OW22192   3.414   0.305   5.458  0.1137  0.3952  0.3782
 3520SOL    HW122193   3.506   0.319   5.479  0.3210 -0.2208 -0.1219
 3520SOL    HW222194   3.425   0.301   5.363 -0.5437 -1.5757  0.3887
 3521SOL     OW22195   1.392   4.624  14.454 -0.4112  0.2063 -0.0568
 3521SOL    HW122196   1.396   4.533  14.424 -1.6671  0.6845 -1.6810
 3521SOL    HW222197   1.308   4.661  14.425  0.2821  1.0077 -1.0142
 3522SOL     OW22198   3.039   3.613   3.415  0.4278 -0.3870 -0.1219
 3522SOL    HW122199   3.014   3.546   3.352  0.3705 -1.1953  0.7584
 3522SOL    HW222200   2.972   3.678   3.392  1.9179  0.6826 -1.4775
 3523SOL     OW22201   1.573   1.708   4.343 -0.1898 -0.0566  0.0186
 3523SOL    HW122202   1.541   1.738   4.429 -0.8331 -0.0216 -0.2306
 3523SOL    HW222203   1.663   1.740   4.349  0.4654 -1.8445 -0.4635
 3524SOL     OW22204   0.259   2.980  11.321  0.2086 -0.7613 -0.7619
 3524SOL    HW122205   0.282   2.919  11.391  1.7464  0.6280 -0.0680
 3524SOL    HW222206   0.172   2.953  11.292  0.2487 -1.2287 -0.4456
 3525SOL     OW22207   0.148   3.726   7.130  0.1487 -0.2926 -0.1584
 3525SOL    HW122208   0.148   3.789   7.202  3.9315 -0.9992  0.4576
 3525SOL    HW222209   0.183   3.652   7.180  1.7262 -1.3298 -2.8142
 3526SOL     OW22210   0.595   2.738   3.240  0.0723 -0.1115 -0.3217
 3526SOL    HW122211   0.521   2.685   3.268  0.1847  0.1198  0.3936
 3526SOL    HW222212   0.546   2.816   3.216 -2.2462 -1.4139  0.1910
 3527SOL     OW22213   2.561   1.982   9.423  0.7869  0.0428 -0.3853
 3527SOL    HW122214   2.550   2.056   9.364  0.5562 -3.3390 -4.5924
 3527SOL    HW222215   2.607   2.025   9.495  0.7170  0.0236 -0.3296
 3528SOL     OW22216   1.394   2.774   2.830  0.3904  0.1997 -0.2357
 3528SOL    HW122217   1.402   2.801   2.739 -1.7638  0.8435 -0.2304
 3528SOL    HW222218   1.375   2.861   2.864 -1.5163 -0.3033  0.0077
 3529SOL     OW22219   3.578   0.240   3.984  1.0403  0.0698 -0.3242
 3529SOL    HW122220   3.588   0.222   4.077  0.2046  0.4309 -0.1683
 3529SOL    HW222221   3.669   0.259   3.964  0.9938 -1.5417 -2.1380
 3530SOL     OW22222   2.602   0.050   2.283 -0.2007 -0.1559 -0.3932
 3530SOL    HW122223   2.665   0.079   2.217  1.0617 -0.8384  0.4949
 3530SOL    HW222224   2.667   0.014   2.344 -0.6965  1.0612  0.8466
 3531SOL     OW22225   1.543   1.443   3.535 -0.4585 -0.0850  0.0838
 3531SOL    HW122226   1.552   1.525   3.582 -1.9082  0.3230 -0.3317
 3531SOL    HW222227   1.635   1.421   3.524 -0.5352  0.0939 -0.9619
 3532SOL     OW22228   2.945   3.843  16.146  0.3046 -0.4355  0.4822
 3532SOL    HW122229   2.861   3.885  16.128  0.9499  0.3354 -0.7547
 3532SOL    HW222230   2.917   3.762  16.103  0.1507  0.1111 -0.4473
 3533SOL     OW22231   2.412   0.709   4.718 -0.7379  0.0480 -0.0193
 3533SOL    HW122232   2.384   0.799   4.735  1.4251  0.3784  1.7325
 3533SOL    HW222233   2.324   0.671   4.728 -1.5541  2.2700  1.1500
 3534SOL     OW22234   4.608   1.161  17.584  0.0285  0.0599  0.3762
 3534SOL    HW122235   4.515   1.163  17.606  0.2924 -0.4586  1.5168
 3534SOL    HW222236   4.608   1.157  17.488 -1.4421 -0.4404  0.3912
 3535SOL     OW22237   1.190   1.687   3.582  0.0906  0.1050  0.2113
 3535SOL    HW122238   1.225   1.744   3.650  1.1098  0.8249 -0.9257
 3535SOL    HW222239   1.098   1.697   3.607 -0.2330  0.8033 -1.2806
 3536SOL     OW22240   0.257   0.100   5.801 -0.2000 -0.3674  0.4803
 3536SOL    HW122241   0.324   0.150   5.847  1.4058 -3.3646  1.3893
 3536SOL    HW222242   0.288   0.014   5.827  0.8755 -0.4389 -1.0023
 3537SOL     OW22243   2.199   3.543  10.516  0.2539  0.2771  0.2265
 3537SOL    HW122244   2.234   3.495  10.591  1.1084 -0.4050 -0.6101
 3537SOL    HW222245   2.278   3.577  10.474  0.2248 -2.7175 -2.2463
 3538SOL     OW22246   3.536   2.800   2.568 -0.3666  0.0784 -0.4601
 3538SOL    HW122247   3.581   2.763   2.644 -0.9584 -1.3573 -0.8165
 3538SOL    HW222248   3.462   2.838   2.614 -0.2781  1.5541 -1.5207
 3539SOL     OW22249   2.595   0.692   0.764  0.0354  0.0422 -0.2849
 3539SOL    HW122250   2.583   0.783   0.791 -0.4415 -0.9241  2.6595
 3539SOL    HW222251   2.531   0.643   0.816 -2.7414  2.6813 -1.2049
 3540SOL     OW22252   4.274   1.260  17.295  0.1221 -0.5619  0.2824
 3540SOL    HW122253   4.245   1.323  17.360  0.3469 -2.3622  2.1415
 3540SOL    HW222254   4.191   1.212  17.285 -0.2444 -0.2997  2.1424
 3541SOL     OW22255   4.596   1.556   2.385 -0.4258 -0.1391  0.2876
 3541SOL    HW122256   4.618   1.644   2.415  0.7192 -0.7241  1.2027
 3541SOL    HW222257   4.688   1.533   2.371 -0.1206  0.7654  0.8388
 3542SOL     OW22258   0.612   4.126   2.427  0.3670  0.1704 -0.3701
 3542SOL    HW122259   0.544   4.137   2.362  0.1331  0.5108 -0.0693
 3542SOL    HW222260   0.686   4.103   2.370  1.7679  1.6173  0.8438
 3543SOL     OW22261   3.707   0.898   8.632  0.4024 -0.5916  0.3371
 3543SOL    HW122262   3.613   0.901   8.649  0.2243 -2.4201 -0.3742
 3543SOL    HW222263   3.726   0.928   8.721  2.4485  0.8077 -0.5823
 3544SOL     OW22264   0.236   2.890   4.740 -0.1529  0.4352  0.2790
 3544SOL    HW122265   0.233   2.811   4.686  0.7470  0.4737  0.1693
 3544SOL    HW222266   0.173   2.862   4.806  0.1881 -0.3789  0.2617
 3545SOL     OW22267   0.439   0.326  14.678 -0.0964 -0.0392 -0.3530
 3545SOL    HW122268   0.388   0.395  14.636  2.3525  0.4468 -2.5843
 3545SOL    HW222269   0.441   0.349  14.771  0.9081 -2.8217  0.3014
 3546SOL     OW22270   0.389   4.499  10.701  0.3085 -0.3010  0.0450
 3546SOL    HW122271   0.356   4.479  10.788 -1.6640 -2.5755 -1.2413
 3546SOL    HW222272   0.332   4.555  10.649  0.2491  0.1587  0.6042
 3547SOL     OW22273   2.327   4.226  16.244  0.4748  0.1266 -0.6261
 3547SOL    HW122274   2.280   4.222  16.160 -0.3645  1.1250 -0.2049
 3547SOL    HW222275   2.372   4.310  16.243 -0.0910  0.4358  0.1584
 3548SOL     OW22276   4.148   3.263   3.247 -0.9714  0.6293  0.1611
 3548SOL    HW122277   4.155   3.168   3.254 -1.0731  0.5244 -1.3163
 3548SOL    HW222278   4.210   3.302   3.309 -1.9894 -0.4325  1.8333
 3549SOL     OW22279   3.944   3.962   8.479  0.5670 -0.1229  0.8053
 3549SOL    HW122280   3.854   3.992   8.486  0.7986  0.4278  1.4816
 3549SOL    HW222281   3.992   4.043   8.461 -0.7195  0.8488  1.8054
 3550SOL     OW22282   2.232   3.600  16.864  0.0765  0.4906  0.6296
 3550SOL    HW122283   2.154   3.616  16.916 -1.4325  0.3979 -1.6050
 3550SOL    HW222284   2.290   3.645  16.926 -0.5253  0.5578  1.1438
 3551SOL     OW22285   0.208   0.018   3.953  0.4020  0.0321  0.0117
 3551SOL    HW122286   0.115   4.737   3.958  0.5046 -0.1253  1.3930
 3551SOL    HW222287   0.223   0.013   3.859 -1.1929  0.2123 -0.2400
 3552SOL     OW22288   1.538   2.903   4.321 -0.4164 -0.5945  0.0661
 3552SOL    HW122289   1.632   2.922   4.314 -1.1769  3.0695 -0.0363
 3552SOL    HW222290   1.542   2.815   4.284 -0.3280 -0.5363 -0.0662
 3553SOL     OW22291   3.256   4.226   5.666 -0.6003 -0.0893 -0.6191
 3553SOL    HW122292   3.189   4.274   5.715  2.2257  0.5004  2.6226
 3553SOL    HW222293   3.265   4.281   5.587  0.4385  0.4980 -0.0817
 3554SOL     OW22294   1.320   3.412   8.724 -0.2765  0.2550 -0.1802
 3554SOL    HW122295   1.402   3.429   8.678  0.4922 -0.5027  0.9213
 3554SOL    HW222296   1.262   3.405   8.648 -0.5195 -0.3838  0.0741
 3555SOL     OW22297   1.146   1.783   3.305 -0.1438 -0.4312  0.1061
 3555SOL    HW122298   1.166   1.723   3.378  0.8914  0.2139  0.3566
 3555SOL    HW222299   1.101   1.726   3.243 -2.0542  1.2559 -0.0476
 3556SOL     OW22300   4.397   1.068   0.872  0.5530 -0.1565 -0.3010
 3556SOL    HW122301   4.465   1.020   0.825  2.4630  1.8658  0.4336
 3556SOL    HW222302   4.441   1.134   0.926 -0.6850 -0.5230  1.1641
 3557SOL     OW22303   2.581   1.770   9.276 -0.3151  0.0115  0.4158
 3557SOL    HW122304   2.492   1.766   9.240 -0.4406  1.6568  0.5762
 3557SOL    HW222305   2.588   1.851   9.326 -0.5351  0.3907 -0.1687
 3558SOL     OW22306   3.788   3.730   6.776 -0.3754  0.1216  0.2394
 3558SOL    HW122307   3.778   3.718   6.871  1.2297  0.9349  0.5026
 3558SOL    HW222308   3.822   3.647   6.744 -1.2498 -0.2585  0.2839
 3559SOL     OW22309   0.210   3.732  16.982  0.0393  0.4933  0.0034
 3559SOL    HW122310   0.182   3.641  16.970  0.4904  0.1369  1.6481
 3559SOL    HW222311   0.179   3.755  16.894 -2.0841 -0.7174  0.4673
 3560SOL     OW22312   2.887   2.516  11.299  0.2392  0.1392  0.1868
 3560SOL    HW122313   2.891   2.427  11.266 -0.4146  1.2702 -2.8880
 3560SOL    HW222314   2.805   2.548  11.262  0.8957  2.9349  1.1168
 3561SOL     OW22315   2.626   2.867   3.061  0.0187 -0.0004  0.2062
 3561SOL    HW122316   2.708   2.881   3.109 -0.1318 -2.5635  1.2237
 3561SOL    HW222317   2.658   2.819   2.985  0.5079 -0.8421  0.9380
 3562SOL     OW22318   0.324   1.784   7.073  0.3499  0.3647  0.2827
 3562SOL    HW122319   0.390   1.734   7.121 -0.2549 -1.2366 -0.5177
 3562SOL    HW222320   0.344   1.871   7.106 -1.5248  0.6282  0.6908
 3563SOL     OW22321   3.964   2.378   4.462  0.4118 -0.3441  0.0688
 3563SOL    HW122322   3.974   2.473   4.450  0.5957 -0.3727 -0.0102
 3563SOL    HW222323   4.020   2.351   4.389 -1.6040  1.7092 -2.2311
 3564SOL     OW22324   1.533   0.766   5.044 -0.3891 -0.0337 -0.1971
 3564SOL    HW122325   1.543   0.737   4.954 -0.7598  0.8194 -0.5161
 3564SOL    HW222326   1.599   0.836   5.037 -3.7266  3.0728 -0.4471
 3565SOL     OW22327   3.768   1.401   0.884 -0.0307  0.3538  0.1135
 3565SOL    HW122328   3.781   1.491   0.915  0.8665  0.1614  0.2903
 3565SOL    HW222329   3.812   1.359   0.958  0.0024 -0.8321 -0.5795
 3566SOL     OW22330   1.756   1.833   7.148  0.1362 -0.3890  0.1192
 3566SOL    HW122331   1.684   1.771   7.141  0.1870 -0.4678  0.2980
 3566SOL    HW222332   1.797   1.787   7.221  0.6687  1.0191  0.6997
 3567SOL     OW22333   0.301   3.255   8.460  0.0363  0.2498 -0.2777
 3567SOL    HW122334   0.383   3.302   8.448  0.5327 -0.6990 -0.5604
 3567SOL    HW222335   0.338   3.175   8.497  1.5048  1.4021  0.7803
 3568SOL     OW22336   1.602   4.243   8.440 -0.5608 -0.2030 -0.0319
 3568SOL    HW122337   1.580   4.326   8.483  1.9504  2.1923 -3.2815
 3568SOL    HW222338   1.621   4.188   8.516 -1.4129 -1.1095 -0.4759
 3569SOL     OW22339   3.314   2.625   5.487  0.2640  0.0942  0.2731
 3569SOL    HW122340   3.243   2.594   5.431  3.2746 -2.8638 -1.8701
 3569SOL    HW222341   3.291   2.714   5.513  0.0303 -0.3045  1.4700
 3570SOL     OW22342   3.976   3.566   4.982  0.1640 -0.3478  0.2483
 3570SOL    HW122343   3.961   3.644   4.929  0.4719 -0.8880 -0.6262
 3570SOL    HW222344   4.050   3.541   4.926  0.8502  0.3740  0.8256
 3571SOL     OW22345   0.139   1.084   7.472  1.2106  0.0504  0.2563
 3571SOL    HW122346   0.230   1.113   7.464  1.3272 -0.8996 -1.7781
 3571SOL    HW222347   0.103   1.141   7.404 -0.5444 -1.0450  0.2815
 3572SOL     OW22348   4.436   3.992  12.162  0.3684 -0.2933 -0.2208
 3572SOL    HW122349   4.482   3.910  12.143  0.1390 -0.4231 -0.2171
 3572SOL    HW222350   4.409   3.987  12.254  2.3978 -0.1536  0.3814
 3573SOL     OW22351   2.781   0.974   1.607  0.0487 -0.2158  0.1141
 3573SOL    HW122352   2.788   1.063   1.573 -0.4326 -0.0656  0.4044
 3573SOL    HW222353   2.698   0.995   1.650  1.4738  2.2281  1.6316
 3574SOL     OW22354   4.280   0.765   1.892 -0.6279 -0.5053 -0.7098
 3574SOL    HW122355   4.217   0.710   1.938 -1.2152  0.5529 -0.2427
 3574SOL    HW222356   4.296   0.710   1.815 -0.0714 -1.3234 -0.0037
 3575SOL     OW22357   2.219   1.584   8.732 -0.2488 -0.0628  0.0070
 3575SOL    HW122358   2.138   1.537   8.712  0.1401 -0.3411 -0.9207
 3575SOL    HW222359   2.204   1.626   8.816  0.6477 -0.6134  0.4467
 3576SOL     OW22360   0.160   0.999   3.234  0.2939  0.4790  0.6519
 3576SOL    HW122361   0.196   1.040   3.312  0.8849  0.1345  0.5552
 3576SOL    HW222362   0.145   1.072   3.174  1.7254  0.5411  0.3845
 3577SOL     OW22363   0.028   2.623   5.254  0.2897  0.2662 -0.0249
 3577SOL    HW122364   4.731   2.605   5.167 -3.0187  2.8821  0.8314
 3577SOL    HW222365   0.028   2.536   5.294  0.6144 -0.3122 -1.2646
 3578SOL     OW22366   4.113   1.639  11.480 -0.1876  0.0695 -0.3061
 3578SOL    HW122367   4.041   1.587  11.445 -0.1178 -1.2851  1.5900
 3578SOL    HW222368   4.155   1.576  11.539 -1.2413 -0.3903 -0.0523
 3579SOL     OW22369   1.593   1.420  17.583  0.1316 -0.7501 -0.5550
 3579SOL    HW122370   1.685   1.399  17.601  0.7010  0.8617 -1.6035
 3579SOL    HW222371   1.606   1.444  17.491 -3.1704 -0.3836 -0.9292
 3580SOL     OW22372   3.402   4.026   6.158 -0.2203 -0.3477 -0.5197
 3580SOL    HW122373   3.359   4.049   6.075 -1.0173 -1.1042 -0.3242
 3580SOL    HW222374   3.491   4.040   6.125 -0.0875  2.7785  1.1641
 3581SOL     OW22375   3.278   0.056   3.695  0.0226 -0.2332  0.0735
 3581SOL    HW122376   3.279   0.142   3.736  0.1176 -0.5263  0.6878
 3581SOL    HW222377   3.331   0.009   3.759 -0.4967 -1.2808 -0.2597
 3582SOL     OW22378   3.841   4.681   2.231  0.8463 -0.4133  0.1760
 3582SOL    HW122379   3.772   4.615   2.235  0.5634  0.0185  2.6669
 3582SOL    HW222380   3.796   4.736   2.168 -0.7732 -0.7278  1.0677
 3583SOL     OW22381   2.411   1.315   9.246 -0.5064 -0.1311 -0.3591
 3583SOL    HW122382   2.502   1.332   9.270 -0.3823  1.6437 -2.0814
 3583SOL    HW222383   2.363   1.349   9.322  2.3395  0.1486  1.3245
 3584SOL     OW22384   1.065   4.003  11.662  0.0351  0.1585  0.2386
 3584SOL    HW122385   1.022   3.941  11.603  1.0056  0.4641 -0.7810
 3584SOL    HW222386   1.020   3.988  11.746  0.3963 -0.9398  0.2422
 3585SOL     OW22387   3.098   0.584   6.338  0.0702  0.3594  0.4394
 3585SOL    HW122388   3.031   0.518   6.358 -0.5622  1.1333  0.8781
 3585SOL    HW222389   3.052   0.631   6.269 -1.1571 -0.9972  0.3152
 3586SOL     OW22390   3.643   4.641   8.888  0.1200 -0.2108 -0.1725
 3586SOL    HW122391   3.652   4.710   8.953 -0.6578  0.5743 -0.8918
 3586SOL    HW222392   3.716   4.583   8.910  1.7415  1.1794 -1.8703
 3587SOL     OW22393   0.975   1.795   1.566 -0.3655 -0.0559  0.4245
 3587SOL    HW122394   0.918   1.718   1.567 -0.5451  0.0849  0.7716
 3587SOL    HW222395   1.030   1.792   1.644 -1.3806 -2.0692  1.0722
 3588SOL     OW22396   1.515   1.188   1.401 -0.2204  0.1186  0.1387
 3588SOL    HW122397   1.498   1.181   1.495  1.8756  1.1764  0.6055
 3588SOL    HW222398   1.426   1.175   1.368  0.0373 -1.7672  0.2074
 3589SOL     OW22399   4.137   0.680  17.650 -0.0356 -0.3557  1.2202
 3589SOL    HW122400   4.178   0.702  17.733  0.1322 -0.9637  1.2946
 3589SOL    HW222401   4.175   0.593  17.641  0.0837 -0.2680  0.8764
 3590SOL     OW22402   3.183   0.826   2.069 -0.0089 -0.2843 -0.1542
 3590SOL    HW122403   3.175   0.814   1.974  1.6036 -1.1010 -0.1872
 3590SOL    HW222404   3.262   0.879   2.081 -0.6242  0.6988 -0.4863
 3591SOL     OW22405   3.870   0.662   6.724 -0.4214  0.2812 -0.0888
 3591SOL    HW122406   3.924   0.678   6.646 -1.2085  2.8501 -0.1024
 3591SOL    HW222407   3.917   0.615   6.793  0.5213  1.1554 -0.1407
 3592SOL     OW22408   2.697   4.225   6.276  0.3418  0.2239  0.2387
 3592SOL    HW122409   2.608   4.223   6.239  0.7512 -2.3627 -0.5977
 3592SOL    HW222410   2.753   4.222   6.199  0.0363  0.1781  0.0158
 3593SOL     OW22411   2.956   1.473  11.353 -0.2627  0.2801 -0.0931
 3593SOL    HW122412   3.031   1.463  11.413  1.2918 -0.4462 -2.1400
 3593SOL    HW222413   2.981   1.556  11.312 -0.0987  0.1501 -0.2611
 3594SOL     OW22414   4.200   4.264   3.251  0.4265  0.1324 -0.2248
 3594SOL    HW122415   4.211   4.294   3.341  0.9075 -0.4292 -0.0945
 3594SOL    HW222416   4.113   4.303   3.241  0.1308 -0.6324 -0.7280
 3595SOL     OW22417   2.153   4.248   4.905 -0.1231 -0.1614 -0.4551
 3595SOL    HW122418   2.153   4.256   5.000  0.9511 -0.2554 -0.4454
 3595SOL    HW222419   2.156   4.337   4.870  2.1690 -0.2644 -0.5107
 3596SOL     OW22420   0.119   0.650   7.894 -0.0602  0.6706  0.0421
 3596SOL    HW122421   0.065   0.655   7.815 -1.3257  1.7602  0.9816
 3596SOL    HW222422   0.053   0.657   7.964  0.7917  3.3955  0.5721
 3597SOL     OW22423   0.360   0.809   2.887  0.0994 -0.3831  0.0612
 3597SOL    HW122424   0.442   0.775   2.923  0.5283  0.4628 -0.1279
 3597SOL    HW222425   0.305   0.794   2.964 -1.9784  0.6822 -1.2047
 3598SOL     OW22426   4.550   2.355   6.600  0.0635 -0.8109 -0.1820
 3598SOL    HW122427   4.569   2.294   6.529  1.1969 -2.1785  1.3100
 3598SOL    HW222428   4.587   2.327   6.684 -1.0111  0.0181  0.5625
 3599SOL     OW22429   0.139   0.749   6.907 -0.3470 -0.4188 -0.3048
 3599SOL    HW122430   0.132   0.792   6.992 -1.4967 -1.9175  0.3499
 3599SOL    HW222431   0.233   0.759   6.893 -0.2720  1.9093  1.8494
 3600SOL     OW22432   4.668   0.612  15.461 -0.5551 -0.2140 -0.0090
 3600SOL    HW122433   4.635   0.524  15.480 -2.7079  0.8003  0.9350
 3600SOL    HW222434   4.623   0.667  15.525  0.5904  0.5651  0.1379
 3601SOL     OW22435   4.589   3.109   4.527  0.2927 -0.3105  0.2252
 3601SOL    HW122436   4.501   3.079   4.551 -0.0962 -0.5032 -1.3708
 3601SOL    HW222437   4.623   3.029   4.486 -1.6215  0.1335 -2.2772
 3602SOL     OW22438   2.276   0.980   8.412 -1.1253 -0.0157 -0.1481
 3602SOL    HW122439   2.253   1.019   8.497  0.4494  3.0996 -1.1266
 3602SOL    HW222440   2.350   0.930   8.447 -0.6374 -0.3500 -1.6774
 3603SOL     OW22441   3.051   4.367   4.028 -0.2762  0.5655  0.6225
 3603SOL    HW122442   2.975   4.392   4.081 -1.6262 -0.1680 -0.9680
 3603SOL    HW222443   3.043   4.441   3.969  0.3934 -0.8191 -1.1914
 3604SOL     OW22444   1.520   2.411   5.537 -0.1216  0.3096  0.3187
 3604SOL    HW122445   1.452   2.436   5.475  0.5780  0.9115 -0.1946
 3604SOL    HW222446   1.567   2.493   5.551  0.3711 -0.5277  3.6054
 3605SOL     OW22447   0.190   4.528  13.486  0.0167 -0.5987 -0.1282
 3605SOL    HW122448   0.285   4.517  13.485  0.4029  2.8093 -0.3773
 3605SOL    HW222449   0.192   4.619  13.457 -1.6165 -0.5295 -0.0394
 3606SOL     OW22450   1.118   1.312   0.529  0.0361  0.0571 -0.0706
 3606SOL    HW122451   1.133   1.352   0.443  0.1080  1.3734  0.5465
 3606SOL    HW222452   1.083   1.380   0.587 -0.0057 -0.3184  0.3417
 3607SOL     OW22453   2.676   0.282   9.024 -0.3445  0.4320 -0.0121
 3607SOL    HW122454   2.716   0.298   8.939 -0.0774 -0.6571 -0.0867
 3607SOL    HW222455   2.692   0.369   9.061 -1.2947  1.3157 -1.6950
 3608SOL     OW22456   0.529   3.714   8.068  0.2116 -0.0621  0.2191
 3608SOL    HW122457   0.550   3.630   8.025 -0.1657 -1.7245  3.2657
 3608SOL    HW222458   0.607   3.728   8.122  1.0530  0.4072 -1.1345
 3609SOL     OW22459   1.007   4.676   8.771 -0.4243  0.2785 -0.0230
 3609SOL    HW122460   0.949   4.706   8.842  0.4126  0.5287  0.5516
 3609SOL    HW222461   1.063   4.607   8.807 -0.1951  0.1027 -0.7235
 3610SOL     OW22462   1.922   4.074   1.090 -0.0789  0.0447  0.1942
 3610SOL    HW122463   1.917   4.081   1.185  1.9222  0.0485  0.3005
 3610SOL    HW222464   1.988   4.139   1.065 -3.9213  2.8870 -2.6153
 3611SOL     OW22465   2.506   2.648   2.583 -0.1633  0.0158 -0.3442
 3611SOL    HW122466   2.510   2.612   2.672 -0.6117 -0.1160 -0.3756
 3611SOL    HW222467   2.413   2.670   2.578 -0.3767 -1.2338 -1.7177
 3612SOL     OW22468   2.035   3.412   5.268  0.0599 -0.7821  0.0794
 3612SOL    HW122469   2.116   3.460   5.285  0.9881 -3.0593  2.1760
 3612SOL    HW222470   1.967   3.477   5.288  1.1131  0.4618 -0.3879
 3613SOL     OW22471   2.448   2.078  10.456 -0.3846  0.1746  0.0526
 3613SOL    HW122472   2.543   2.085  10.451 -0.4921  2.2191  0.6306
 3613SOL    HW222473   2.423   2.155  10.405  1.7318  0.3221 -0.7569
 3614SOL     OW22474   3.241   2.525  12.585 -0.0538  0.1212  0.1798
 3614SOL    HW122475   3.276   2.503  12.672 -1.3370 -0.9155  0.4270
 3614SOL    HW222476   3.266   2.447  12.536 -2.0202  1.0851 -2.3471
 3615SOL     OW22477   3.768   0.409  12.028 -0.2600 -0.1261 -0.1997
 3615SOL    HW122478   3.724   0.375  11.949  0.2344  1.1432 -1.0241
 3615SOL    HW222479   3.705   0.471  12.065 -0.2323  0.8593 -1.8196
 3616SOL     OW22480   0.144   0.680  10.482 -0.0454 -0.4295  0.3125
 3616SOL    HW122481   0.191   0.742  10.427 -2.0062  0.2998 -0.5347
 3616SOL    HW222482   0.114   0.613  10.422  0.7570 -0.4390 -0.0788
 3617SOL     OW22483   2.370   0.230   8.731  0.5894 -0.7243 -0.2974
 3617SOL    HW122484   2.300   0.177   8.767 -0.8600  1.8903  0.7679
 3617SOL    HW222485   2.438   0.178   8.774  1.7852  0.6198 -0.5288
 3618SOL     OW22486   0.373   3.600  16.265 -0.5281 -0.6283  0.3146
 3618SOL    HW122487   0.404   3.512  16.247  1.5675 -0.3054  2.2780
 3618SOL    HW222488   0.315   3.613  16.190  0.8272  1.5132 -0.3582
 3619SOL     OW22489   1.436   4.239   3.951 -0.5855 -0.4463  0.0977
 3619SOL    HW122490   1.418   4.236   4.045  1.5488 -1.8699  0.4637
 3619SOL    HW222491   1.375   4.171   3.923 -0.9873 -0.7156  1.6009
 3620SOL     OW22492   1.535   1.177   5.004  0.5815  0.1835 -0.2094
 3620SOL    HW122493   1.465   1.242   4.999  2.2799  2.0158 -0.1494
 3620SOL    HW222494   1.579   1.187   4.920 -0.7579  1.6520 -0.7417
 3621SOL     OW22495   4.277   0.704  11.094  0.0749 -0.6893 -0.2644
 3621SOL    HW122496   4.257   0.797  11.083 -0.0700 -0.8372 -1.2454
 3621SOL    HW222497   4.190   0.679  11.124  0.6428  0.8126  2.6161
 3622SOL     OW22498   4.426   0.833   9.255  0.5201  0.1964  0.4754
 3622SOL    HW122499   4.494   0.768   9.242 -1.5131 -2.4387  2.9961
 3622SOL    HW222500   4.485   0.908   9.269  1.2761 -0.4140  0.5669
 3623SOL     OW22501   3.709   3.977   6.678  0.3374  0.2079 -0.7218
 3623SOL    HW122502   3.695   4.024   6.760 -4.7497  0.6479 -1.8065
 3623SOL    HW222503   3.742   3.897   6.718  0.0219 -0.6212 -2.1305
 3624SOL     OW22504   1.832   0.077   7.826  0.5765 -0.0030  0.0632
 3624SOL    HW122505   1.900   0.141   7.804  1.9357 -0.6302  2.4341
 3624SOL    HW222506   1.759   0.121   7.783  0.5630 -0.2531 -0.1651
 3625SOL     OW22507   1.950   3.991   9.903  0.2962  0.4264  0.1001
 3625SOL    HW122508   2.024   3.950   9.858  0.2228  0.6010 -0.1746
 3625SOL    HW222509   1.971   4.084   9.904  0.4098  0.4130 -2.3113
 3626SOL     OW22510   4.675   2.632   8.617  0.4482 -0.4887 -0.7583
 3626SOL    HW122511   4.623   2.710   8.631  0.2903 -0.7986  0.3331
 3626SOL    HW222512   4.724   2.654   8.537  0.8187 -1.6214 -0.8373
 3627SOL     OW22513   2.910   4.697   2.926 -0.0564 -0.0642  0.0349
 3627SOL    HW122514   2.874   0.035   2.971 -0.0942  0.6445 -1.2188
 3627SOL    HW222515   2.838   4.635   2.929  0.9183 -1.1515  1.0999
 3628SOL     OW22516   2.321   0.122   6.180  0.0195 -0.5947  0.3066
 3628SOL    HW122517   2.342   0.034   6.210 -0.1414 -0.0148  2.1332
 3628SOL    HW222518   2.401   0.135   6.128 -1.4017 -0.4878 -1.8245
 3629SOL     OW22519   2.898   0.338   6.828 -0.2506 -0.1731 -0.2511
 3629SOL    HW122520   2.848   0.407   6.784 -1.1452  0.9935  2.5490
 3629SOL    HW222521   2.961   0.390   6.879 -0.1037 -1.1979  0.6012
 3630SOL     OW22522   0.975   3.214  13.409  0.6297 -0.2651  0.1367
 3630SOL    HW122523   0.978   3.127  13.450 -0.2295 -0.9576 -1.2907
 3630SOL    HW222524   1.047   3.215  13.346  0.0720 -2.7781 -0.5369
 3631SOL     OW22525   2.561   3.925   0.190 -0.8594  0.3489 -0.1270
 3631SOL    HW122526   2.544   4.018   0.173  1.0344  0.4939 -1.1814
 3631SOL    HW222527   2.605   3.899   0.109 -1.5475 -0.1046 -0.3605
 3632SOL     OW22528   0.039   4.217   7.236  0.2885  0.2573 -0.4127
 3632SOL    HW122529   0.117   4.270   7.222  0.1910  0.4115 -0.3704
 3632SOL    HW222530   0.004   4.206   7.148 -3.3238 -0.1929  1.0975
 3633SOL     OW22531   1.475   3.281   9.056  0.6696  0.7996 -0.4813
 3633SOL    HW122532   1.548   3.303   9.114 -1.4471  2.0370  1.7275
 3633SOL    HW222533   1.526   3.274   8.975  2.0964  0.3232  0.4595
 3634SOL     OW22534   0.923   3.609  10.268 -0.0889  0.1388 -0.6317
 3634SOL    HW122535   0.978   3.612  10.346  1.6619  1.6329 -1.9408
 3634SOL    HW222536   0.869   3.534  10.294 -2.8154  1.7125 -1.7198
 3635SOL     OW22537   2.497   1.994   4.670 -0.1500 -0.7735  0.0866
 3635SOL    HW122538   2.459   1.953   4.593  0.9049 -1.9991  0.2301
 3635SOL    HW222539   2.419   2.034   4.709  0.6805  1.4994 -0.6001
 3636SOL     OW22540   3.639   3.576   7.960  0.3771  0.3317 -0.0318
 3636SOL    HW122541   3.684   3.494   7.939 -3.3025 -1.1215 -2.3005
 3636SOL    HW222542   3.698   3.619   8.022 -0.8948  0.0794  1.3346
 3637SOL     OW22543   3.368   1.394  12.988  0.7557 -0.3388 -0.0683
 3637SOL    HW122544   3.276   1.369  12.975  1.0027 -0.9504 -0.6380
 3637SOL    HW222545   3.408   1.385  12.902  0.7235  0.0580 -0.1261
 3638SOL     OW22546   3.971   4.377   3.945 -0.0086  0.3551 -0.9398
 3638SOL    HW122547   4.038   4.378   3.877  0.5896 -2.5301 -0.3877
 3638SOL    HW222548   4.016   4.313   4.000 -1.9829  1.3274  1.8467
 3639SOL     OW22549   3.068   4.609  15.744 -0.4076 -0.3209  0.0107
 3639SOL    HW122550   3.040   4.674  15.680  1.1656  0.1921 -0.1515
 3639SOL    HW222551   3.109   4.555  15.677 -0.4042  1.4677 -1.4214
 3640SOL     OW22552   2.745   1.325  10.224  0.0637  0.3498 -0.1431
 3640SOL    HW122553   2.735   1.334  10.129  1.5566 -3.0955 -0.6432
 3640SOL    HW222554   2.710   1.409  10.253  1.0468  0.4527  0.7377
 3641SOL     OW22555   3.539   2.453   8.805  0.0069  0.0841  0.1763
 3641SOL    HW122556   3.506   2.414   8.724 -0.7784  0.5411  0.2731
 3641SOL    HW222557   3.499   2.397   8.871 -0.2000 -0.1179 -0.1236
 3642SOL     OW22558   1.572   0.395   5.484 -0.3638 -0.4095  0.1720
 3642SOL    HW122559   1.493   0.355   5.446 -0.3455 -0.3911  0.1149
 3642SOL    HW222560   1.569   0.350   5.569 -0.8332 -0.2148  0.2598
 3643SOL     OW22561   4.457   1.019   5.093  0.8542  0.1451 -0.3139
 3643SOL    HW122562   4.414   0.979   5.017  1.3446 -0.3203 -0.3517
 3643SOL    HW222563   4.426   0.979   5.175 -1.2160  0.5490 -0.9165
 3644SOL     OW22564   2.504   2.445   9.913  0.0472  0.0123  0.2125
 3644SOL    HW122565   2.579   2.432   9.855 -0.1612 -0.9608  0.1586
 3644SOL    HW222566   2.447   2.389   9.861  0.9758  0.3105 -1.1371
 3645SOL     OW22567   2.152   3.177   4.105  0.4894 -0.1220 -0.2623
 3645SOL    HW122568   2.116   3.133   4.028  1.3564 -0.0241 -0.7214
 3645SOL    HW222569   2.080   3.225   4.146  2.0364 -0.2317  2.6367
 3646SOL     OW22570   2.659   0.479   3.948 -0.0021  0.1295 -0.0954
 3646SOL    HW122571   2.661   0.443   3.859 -2.0323 -2.1397  0.7470
 3646SOL    HW222572   2.709   0.416   3.999 -2.9971 -0.0433  2.6421
 3647SOL     OW22573   3.114   0.716   8.463  0.2154  0.4065  0.1696
 3647SOL    HW122574   3.121   0.801   8.506 -2.2828  1.4764 -1.5149
 3647SOL    HW222575   3.188   0.723   8.402  1.3656 -1.7812  1.3456
 3648SOL     OW22576   0.464   2.954   3.146  0.0607 -0.6041 -0.1800
 3648SOL    HW122577   0.381   2.920   3.113 -0.1249  1.0195 -1.4200
 3648SOL    HW222578   0.465   3.033   3.092  2.4917 -0.0963  0.6081
 3649SOL     OW22579   0.072   4.569   3.104  0.4235  0.0711 -0.0084
 3649SOL    HW122580   0.012   4.557   3.178  0.1885 -0.9553 -0.3602
 3649SOL    HW222581   0.092   4.662   3.112 -2.5704  0.5207  2.0960
 3650SOL     OW22582   1.283   4.670  16.709 -0.0540  0.1157 -0.4162
 3650SOL    HW122583   1.358   4.698  16.657  0.5055  2.1894  1.5018
 3650SOL    HW222584   1.204   4.700  16.664 -0.1000  2.1307  0.9857
 3651SOL     OW22585   2.972   0.235   3.950 -0.5792 -0.3175 -0.4190
 3651SOL    HW122586   3.025   0.315   3.947 -2.1590  0.7167 -0.4848
 3651SOL    HW222587   2.901   0.258   4.009 -0.6322 -0.9687 -0.2313
 3652SOL     OW22588   0.403   0.082  11.013 -0.4537 -0.1202  0.0120
 3652SOL    HW122589   0.310   0.088  10.989 -0.8864 -1.8552  1.2707
 3652SOL    HW222590   0.418   4.727  11.008 -0.4987  0.0031 -2.5917
 3653SOL     OW22591   2.053   0.633   1.133 -0.2436 -0.3699  0.0301
 3653SOL    HW122592   2.008   0.590   1.060 -0.2735 -1.0685  0.4569
 3653SOL    HW222593   1.983   0.689   1.166 -0.6829  0.4555 -2.3052
 3654SOL     OW22594   1.815   0.549   1.026  0.0232 -0.0396 -0.7695
 3654SOL    HW122595   1.789   0.640   1.015 -0.6457 -0.0368  0.9201
 3654SOL    HW222596   1.770   0.529   1.108  2.3319 -2.7809 -0.1612
 3655SOL     OW22597   0.744   1.051   4.598 -0.4062  0.0202  0.0199
 3655SOL    HW122598   0.674   0.988   4.612 -0.4210  0.0664  0.1560
 3655SOL    HW222599   0.796   1.004   4.533  0.6648 -1.2455  1.7911
 3656SOL     OW22600   1.953   3.659  15.409  0.2274 -0.7530 -0.2687
 3656SOL    HW122601   1.926   3.680  15.320 -1.2759  1.4827  0.7450
 3656SOL    HW222602   1.968   3.564  15.408  0.7766 -0.6837  1.2206
 3657SOL     OW22603   2.169   1.047  12.674  0.6064  0.4394 -0.0399
 3657SOL    HW122604   2.240   1.006  12.624 -0.3977  0.2452 -1.3009
 3657SOL    HW222605   2.217   1.078  12.752  2.0043 -1.0047 -0.3190
 3658SOL     OW22606   0.079   4.336   1.619  0.2887 -0.2716 -0.3276
 3658SOL    HW122607   0.154   4.284   1.651  0.8896  0.9745  0.2786
 3658SOL    HW222608   0.023   4.347   1.696 -0.6117  0.4538 -1.0880
 3659SOL     OW22609   4.117   0.010   5.288  0.2693 -0.2198  0.3251
 3659SOL    HW122610   4.185   4.700   5.243  2.0462  1.1070  1.5818
 3659SOL    HW222611   4.130   0.095   5.246 -2.7308  1.2240  2.3196
 3660SOL     OW22612   2.035   1.819  10.180  0.3588 -0.5541  0.2425
 3660SOL    HW122613   2.012   1.884  10.247 -0.7044 -2.3331  1.5999
 3660SOL    HW222614   2.117   1.793  10.223 -0.3177 -0.8582  1.3568
 3661SOL     OW22615   3.181   1.143   6.779 -0.2542 -0.3853  0.0605
 3661SOL    HW122616   3.093   1.161   6.812 -0.3506  0.0628 -0.4366
 3661SOL    HW222617   3.230   1.224   6.794  0.5551 -0.6017 -1.4832
 3662SOL     OW22618   4.441   3.078   6.021 -0.0041  0.3728 -0.1826
 3662SOL    HW122619   4.358   3.101   6.061  0.3690  0.8126  0.3321
 3662SOL    HW222620   4.485   3.045   6.099  2.3514 -0.0700 -1.6726
 3663SOL     OW22621   2.808   4.642   2.408  0.2313 -0.2487  0.0556
 3663SOL    HW122622   2.844   4.680   2.488 -1.6199  1.4431  0.0846
 3663SOL    HW222623   2.762   4.569   2.449  0.6789 -0.9879 -0.7680
 3664SOL     OW22624   0.680   1.938   5.274 -0.1519  0.0984  0.2350
 3664SOL    HW122625   0.701   2.013   5.218  0.8345 -0.7903 -0.5721
 3664SOL    HW222626   0.611   1.897   5.224 -1.9300  1.4887  1.5376
 3665SOL     OW22627   4.516   3.688   2.857 -0.3763  0.8475 -0.7196
 3665SOL    HW122628   4.447   3.702   2.792 -1.1407  0.3672 -0.0089
 3665SOL    HW222629   4.534   3.594   2.852 -1.7880  0.6638 -2.3144
 3666SOL     OW22630   3.880   0.777   7.065  0.3313  0.5129 -0.1006
 3666SOL    HW122631   3.918   0.689   7.063 -0.9819 -0.0662  1.2404
 3666SOL    HW222632   3.949   0.829   7.106  1.8634 -1.4064 -0.2351
 3667SOL     OW22633   3.056   1.498   7.257 -0.1533 -0.4564  0.2876
 3667SOL    HW122634   3.092   1.475   7.171 -0.8613 -0.1499 -0.0899
 3667SOL    HW222635   2.961   1.503   7.247 -0.0848 -1.9835 -0.9687
 3668SOL     OW22636   4.030   3.196  14.322 -0.1501 -0.7294  0.0981
 3668SOL    HW122637   4.033   3.101  14.324  0.2130 -0.6577  2.6807
 3668SOL    HW222638   4.097   3.209  14.255 -0.5211  0.9634  0.0535
 3669SOL     OW22639   2.275   4.246  17.535  0.0594 -0.5913 -0.3285
 3669SOL    HW122640   2.221   4.319  17.565  1.8027  0.0872  1.1746
 3669SOL    HW222641   2.238   4.170  17.580  0.6535 -0.3210  0.6240
 3670SOL     OW22642   4.067   2.419  13.779 -0.2846  0.4128  0.1427
 3670SOL    HW122643   4.072   2.507  13.817  1.9635  0.3483  0.0004
 3670SOL    HW222644   3.980   2.419  13.739  0.7074 -0.6044 -2.0089
 3671SOL     OW22645   2.058   2.174   1.906 -0.0545  0.4358 -0.4562
 3671SOL    HW122646   1.997   2.245   1.928 -0.2396  0.6011 -1.4951
 3671SOL    HW222647   2.117   2.220   1.846  2.8858 -1.9150  0.6598
 3672SOL     OW22648   3.223   3.938   0.591 -0.0209  0.2407 -0.5540
 3672SOL    HW122649   3.139   3.893   0.605  0.3455  0.5151  2.5202
 3672SOL    HW222650   3.251   3.901   0.507  2.2321 -1.2235  0.8702
 3673SOL     OW22651   2.388   3.738   9.904 -0.7447  0.1211 -0.3306
 3673SOL    HW122652   2.415   3.792   9.978  1.6668  0.7508 -1.6740
 3673SOL    HW222653   2.327   3.681   9.951 -1.7271  1.4842  0.0785
 3674SOL     OW22654   4.591   0.436   7.827 -0.4439  0.6439  0.5303
 3674SOL    HW122655   4.532   0.361   7.838  0.1033  0.5180  2.5335
 3674SOL    HW222656   4.573   0.489   7.904  1.0672  0.0913  1.2645
 3675SOL     OW22657   0.758   3.249   3.485 -0.3671 -0.6194 -0.9457
 3675SOL    HW122658   0.812   3.289   3.417  1.2781  1.1461  1.4233
 3675SOL    HW222659   0.804   3.170   3.512 -0.0751  0.3725  1.4320
 3676SOL     OW22660   2.502   2.431   1.263 -0.2773  0.0785  0.5504
 3676SOL    HW122661   2.589   2.401   1.290  0.5941  2.0681 -0.0376
 3676SOL    HW222662   2.463   2.407   1.347  1.6023  0.8630  1.6593
 3677SOL     OW22663   2.805   2.431   5.739  0.3323  0.0566 -0.6276
 3677SOL    HW122664   2.715   2.402   5.722 -0.0142  0.5155  0.4289
 3677SOL    HW222665   2.799   2.458   5.831 -0.1754 -2.9328  0.2224
 3678SOL     OW22666   0.858   4.402   8.785  0.4167  0.5476 -0.2598
 3678SOL    HW122667   0.805   4.349   8.844  1.2383  0.5957  0.5264
 3678SOL    HW222668   0.927   4.422   8.848  0.0841  1.5092 -0.1938
 3679SOL     OW22669   1.684   1.658   9.237 -0.1528  0.6510  0.1221
 3679SOL    HW122670   1.690   1.621   9.325 -2.3852  1.6516  0.7055
 3679SOL    HW222671   1.753   1.725   9.238  0.6553 -0.2125  2.1257
 3680SOL     OW22672   1.783   4.125  16.175  0.0963 -0.0658  0.2333
 3680SOL    HW122673   1.768   4.172  16.093 -1.6207 -0.1949  0.4798
 3680SOL    HW222674   1.866   4.077  16.172  1.0571  1.5534  1.6332
 3681SOL     OW22675   1.027   0.513  11.241 -0.1272 -0.7001  0.0400
 3681SOL    HW122676   1.011   0.575  11.312 -3.3512 -1.3663 -0.1071
 3681SOL    HW222677   0.972   0.560  11.179  0.0382 -0.2602  0.2257
 3682SOL     OW22678   1.221   0.462   8.201  0.2697 -0.2381  0.0219
 3682SOL    HW122679   1.192   0.412   8.125  0.7628  1.3058 -1.1855
 3682SOL    HW222680   1.196   0.407   8.276 -1.2593  0.0756 -0.2596
 3683SOL     OW22681   2.495   3.280  15.207  0.5004 -0.3175  0.4837
 3683SOL    HW122682   2.545   3.209  15.167  1.6014  0.4525  0.4884
 3683SOL    HW222683   2.419   3.272  15.149  0.6425  0.7284  0.1525
 3684SOL     OW22684   2.444   1.938   3.864 -0.5580  0.2973 -0.5702
 3684SOL    HW122685   2.351   1.954   3.882 -0.4945  0.9877 -0.8662
 3684SOL    HW222686   2.480   2.023   3.885  1.6708 -1.2766  1.9422
 3685SOL     OW22687   2.700   0.995  11.605  0.7858 -0.0116  0.5640
 3685SOL    HW122688   2.679   0.902  11.595 -0.8715  0.6183 -1.6426
 3685SOL    HW222689   2.745   1.027  11.527 -0.3996  1.3475  0.4248
 3686SOL     OW22690   3.054   2.978  12.685  0.0589  0.5362  0.0515
 3686SOL    HW122691   3.046   2.935  12.600  6.2754  0.7434 -0.6446
 3686SOL    HW222692   3.116   3.049  12.669  0.3722 -0.2502 -2.2182
 3687SOL     OW22693   3.987   4.023  16.351 -0.3907  0.0832 -0.3753
 3687SOL    HW122694   3.908   4.026  16.298  1.4323  2.9739 -2.8813
 3687SOL    HW222695   4.043   3.962  16.303  0.6371  0.1291  0.7564
 3688SOL     OW22696   2.105   3.678  13.967 -0.1028  0.1255  0.2895
 3688SOL    HW122697   2.033   3.669  14.029 -0.7819 -0.5664 -0.5900
 3688SOL    HW222698   2.125   3.767  13.997  1.7523 -0.0223 -0.4917
 3689SOL     OW22699   3.531   3.037   4.415  0.0063  0.1575 -0.1686
 3689SOL    HW122700   3.521   3.131   4.429  2.4476  0.3463  0.3791
 3689SOL    HW222701   3.587   3.011   4.488  0.5004 -0.5255 -0.7836
 3690SOL     OW22702   4.432   0.174   0.510  0.1272 -0.2779 -0.3730
 3690SOL    HW122703   4.458   0.223   0.431 -0.4921 -1.4131 -1.2691
 3690SOL    HW222704   4.429   0.250   0.568  0.4433 -0.2808 -0.3502
 3691SOL     OW22705   2.633   1.320  16.383 -0.4346 -0.0156 -0.0454
 3691SOL    HW122706   2.623   1.413  16.362 -1.8787  0.3225  2.1164
 3691SOL    HW222707   2.543   1.293  16.361 -0.1295  0.5306 -1.9827
 3692SOL     OW22708   3.230   3.370   4.480 -0.6646 -0.2200 -0.6449
 3692SOL    HW122709   3.322   3.377   4.455  0.3519  0.1417  3.1481
 3692SOL    HW222710   3.189   3.451   4.451 -2.6098 -0.7453  0.6517
 3693SOL     OW22711   2.454   2.813   5.277  0.6840 -0.1831  0.5300
 3693SOL    HW122712   2.542   2.801   5.242  1.9481 -2.6240  4.6035
 3693SOL    HW222713   2.390   2.778   5.215 -0.3950  2.7408 -0.0493
 3694SOL     OW22714   2.387   2.413   9.111 -0.0813 -0.5723  0.2738
 3694SOL    HW122715   2.452   2.382   9.175  0.2167  2.1655  1.2662
 3694SOL    HW222716   2.446   2.456   9.048 -1.3406  0.6031 -0.0802
 3695SOL     OW22717   2.432   3.976   4.423  0.1002 -0.0126 -0.2257
 3695SOL    HW122718   2.380   4.051   4.394 -0.8369 -0.6317 -0.1650
 3695SOL    HW222719   2.440   3.999   4.516 -0.2438  0.3294 -0.2830
 3696SOL     OW22720   0.139   2.284  12.813  0.4129  0.2195  0.3786
 3696SOL    HW122721   0.141   2.242  12.727  1.8210  0.7019  0.1747
 3696SOL    HW222722   0.167   2.217  12.875  2.7275 -0.1845 -1.1128
 3697SOL     OW22723   1.662   0.884  14.411  0.5363  0.2438  0.2985
 3697SOL    HW122724   1.651   0.963  14.463  0.9024  1.1859 -1.0554
 3697SOL    HW222725   1.652   0.813  14.475 -3.6634  0.9335  0.4183
 3698SOL     OW22726   0.257   3.237   3.447  0.1332  0.3252  0.3164
 3698SOL    HW122727   0.201   3.161   3.433 -0.6328  0.8795  0.3035
 3698SOL    HW222728   0.347   3.212   3.429 -0.7567 -1.2676 -1.8849
 3699SOL     OW22729   0.904   2.684   2.424 -0.4329  0.2712 -0.2748
 3699SOL    HW122730   0.891   2.756   2.485 -0.6487  0.7005 -0.8272
 3699SOL    HW222731   0.879   2.613   2.483  0.0904  1.7065  1.6631
 3700SOL     OW22732   0.920   4.732  10.222  0.0802  0.0827 -0.2476
 3700SOL    HW122733   0.882   4.654  10.263  0.9882 -0.1110  0.2197
 3700SOL    HW222734   0.923   4.698  10.132  2.2095 -3.6072  1.2191
 3701SOL     OW22735   1.654   2.380   7.956  0.4061 -0.3894 -0.2993
 3701SOL    HW122736   1.563   2.393   7.985  1.8056  0.9222  3.5271
 3701SOL    HW222737   1.668   2.286   7.956  0.1960 -0.4171 -2.8542
 3702SOL     OW22738   0.939   4.297   9.466 -0.0083  0.2627 -0.3253
 3702SOL    HW122739   0.858   4.287   9.515 -0.5230  1.6506 -0.9107
 3702SOL    HW222740   0.982   4.372   9.508 -1.5302  1.5866 -1.1288
 3703SOL     OW22741   3.078   3.521   5.856  0.3814 -0.1988  0.1169
 3703SOL    HW122742   3.161   3.536   5.902  0.8385 -0.8078 -0.5040
 3703SOL    HW222743   3.024   3.502   5.933  3.1060 -2.6930  1.4108
 3704SOL     OW22744   4.669   0.226   9.127  0.4531  0.3615 -0.0037
 3704SOL    HW122745   4.629   0.246   9.212 -1.4539  1.4499 -1.1262
 3704SOL    HW222746   4.630   0.145   9.096 -0.8572  1.3910 -1.0517
 3705SOL     OW22747   4.510   1.484   6.390 -0.3930 -0.1645 -0.1187
 3705SOL    HW122748   4.459   1.403   6.397 -0.9423  0.0955 -1.0780
 3705SOL    HW222749   4.602   1.463   6.402 -0.4323  1.3783  2.8184
 3706SOL     OW22750   0.986   0.954  13.447  0.4778 -0.4878 -0.5397
 3706SOL    HW122751   0.980   0.906  13.364  1.0047 -0.0502 -0.8298
 3706SOL    HW222752   0.900   0.936  13.485  0.8685 -1.1209  0.0411
 3707SOL     OW22753   1.381   0.269  16.376 -0.1753  0.3565  0.4735
 3707SOL    HW122754   1.340   0.224  16.301  1.6644  2.0159 -1.5446
 3707SOL    HW222755   1.311   0.299  16.434 -0.0614  0.6822  0.4395
 3708SOL     OW22756   1.616   1.325   2.301 -0.1664 -0.3415 -0.3092
 3708SOL    HW122757   1.555   1.285   2.363 -0.1691  0.4555  0.1987
 3708SOL    HW222758   1.673   1.372   2.362  1.4264 -0.9558 -1.3386
 3709SOL     OW22759   4.152   4.037   7.645 -0.1508 -0.1486  0.2321
 3709SOL    HW122760   4.232   4.012   7.692  0.8908  0.2142 -1.3630
 3709SOL    HW222761   4.136   4.126   7.677  0.2691 -0.5337  1.5314
 3710SOL     OW22762   1.609   4.128   8.704  0.0420  0.2836  0.0113
 3710SOL    HW122763   1.569   4.104   8.788  3.0433  0.5645  1.5182
 3710SOL    HW222764   1.700   4.102   8.717  0.3196 -0.1842 -2.9889
 3711SOL     OW22765   4.072   2.811   4.115 -0.2047  0.3860 -0.0199
 3711SOL    HW122766   4.115   2.895   4.132 -2.4307  1.0063  2.6123
 3711SOL    HW222767   3.977   2.824   4.114 -0.1637  0.7660  1.1500
 3712SOL     OW22768   2.528   0.307   1.092 -0.0896 -0.5102  0.1947
 3712SOL    HW122769   2.549   0.253   1.016 -1.7125 -1.1815  0.2271
 3712SOL    HW222770   2.614   0.348   1.104  0.3142 -1.8759  2.0510
 3713SOL     OW22771   2.563   0.952   5.335  0.1125  0.4372 -0.6099
 3713SOL    HW122772   2.472   0.930   5.353 -0.0291  0.8842 -0.7593
 3713SOL    HW222773   2.597   0.885   5.393  2.8228  2.2499 -0.1368
 3714SOL     OW22774   1.383   3.231   1.919 -0.1069 -0.5280 -0.0896
 3714SOL    HW122775   1.299   3.202   1.953 -0.9250 -0.1295 -1.7486
 3714SOL    HW222776   1.448   3.189   1.976  0.2221 -1.5758 -1.2350
 3715SOL     OW22777   4.473   1.211   7.552 -0.1187  0.0830 -0.1334
 3715SOL    HW122778   4.473   1.292   7.500  0.7085 -0.0963 -0.4235
 3715SOL    HW222779   4.462   1.141   7.487  2.1835  0.7516 -1.2676
 3716SOL     OW22780   4.633   3.217   9.586 -0.2265  0.8728  0.8585
 3716SOL    HW122781   4.708   3.178   9.631  2.6231  2.1467 -2.8830
 3716SOL    HW222782   4.575   3.141   9.581  1.7086 -0.4859 -0.7881
 3717SOL     OW22783   3.387   0.788   7.253  0.5632  0.2271 -0.0467
 3717SOL    HW122784   3.469   0.781   7.204  1.7669 -2.4659  2.3271
 3717SOL    HW222785   3.396   0.705   7.301  1.4506 -0.1211 -0.8036
 3718SOL     OW22786   4.524   2.355  16.524 -0.4122 -0.2303  0.0001
 3718SOL    HW122787   4.518   2.316  16.612 -0.7777 -1.3600 -0.5247
 3718SOL    HW222788   4.559   2.281  16.475 -1.0630 -0.8668  0.5039
 3719SOL     OW22789   1.101   4.055   3.179  0.3597 -0.0391  0.1835
 3719SOL    HW122790   1.021   4.017   3.143  0.0261  2.3036 -1.5977
 3719SOL    HW222791   1.060   4.137   3.205 -0.6300 -0.4162 -0.1749
 3720SOL     OW22792   1.078   1.100   4.657 -0.0560 -0.3212 -0.1755
 3720SOL    HW122793   1.109   1.047   4.731 -1.6056  0.3498  0.9692
 3720SOL    HW222794   1.019   1.165   4.696  0.3438  0.9234 -1.6743
 3721SOL     OW22795   1.417   3.397  14.684  0.1894 -0.0586 -0.3569
 3721SOL    HW122796   1.465   3.479  14.673  2.3447 -1.0927  1.2828
 3721SOL    HW222797   1.493   3.341  14.667  1.3324  1.5560 -0.5397
 3722SOL     OW22798   4.654   4.416  11.929  0.0573 -0.4716  0.1082
 3722SOL    HW122799   4.615   4.331  11.950  3.5255 -1.5646  2.1345
 3722SOL    HW222800   4.575   4.467  11.943  0.0442 -1.1553  2.5421
 3723SOL     OW22801   4.261   4.185   8.870  0.0538  0.3540  0.4773
 3723SOL    HW122802   4.328   4.141   8.818 -1.9888 -1.2313 -0.8237
 3723SOL    HW222803   4.195   4.198   8.801  1.0379 -0.5266 -0.6275
 3724SOL     OW22804   1.598   2.807   9.989  0.3577 -0.1184 -0.0420
 3724SOL    HW122805   1.541   2.863  10.040 -0.6045 -0.1565 -1.0673
 3724SOL    HW222806   1.682   2.837  10.024  0.8241  1.0899 -2.1421
 3725SOL     OW22807   3.351   1.202   0.829 -0.2329  0.3144 -0.0567
 3725SOL    HW122808   3.279   1.241   0.879  1.9525  0.8035  2.7597
 3725SOL    HW222809   3.375   1.118   0.868 -1.7795 -0.0489  0.1022
 3726SOL     OW22810   3.373   0.916   9.076 -0.0334  0.2860  0.0680
 3726SOL    HW122811   3.460   0.876   9.081 -0.3048 -0.5781 -2.2710
 3726SOL    HW222812   3.321   0.836   9.074  1.6196 -0.7770 -0.3461
 3727SOL     OW22813   3.050   0.024   8.311 -0.0931 -0.3529 -0.4768
 3727SOL    HW122814   3.097   4.720   8.240  2.7288 -0.1889  1.2941
 3727SOL    HW222815   3.018   4.683   8.351  1.8844 -0.1999  1.4009
 3728SOL     OW22816   2.384   3.137   1.795  0.0296 -0.8023 -0.2342
 3728SOL    HW122817   2.420   3.072   1.856  0.7322 -0.7034 -0.5439
 3728SOL    HW222818   2.291   3.128   1.816 -0.4006  0.2508 -1.7585
 3729SOL     OW22819   3.286   0.191   6.338 -0.4155 -0.4090 -0.7060
 3729SOL    HW122820   3.317   0.282   6.335 -2.0979  0.2274  1.5651
 3729SOL    HW222821   3.314   0.172   6.428  0.8502  1.3729 -0.7029
 3730SOL     OW22822   2.589   2.381   8.164 -0.3159  0.3175 -0.6670
 3730SOL    HW122823   2.674   2.349   8.133  0.6203  2.5597 -0.4511
 3730SOL    HW222824   2.611   2.456   8.220  0.5844  1.3546 -2.4232
 3731SOL     OW22825   3.492   0.448  13.048  0.3817 -0.1462  0.1930
 3731SOL    HW122826   3.543   0.420  12.973 -0.1997 -0.1838 -0.1905
 3731SOL    HW222827   3.462   0.535  13.021  0.5319  0.2163  1.1626
 3732SOL     OW22828   0.836   2.279  15.030  0.6137  0.4086 -0.6489
 3732SOL    HW122829   0.858   2.358  15.080 -0.6268  0.0113  0.5224
 3732SOL    HW222830   0.832   2.224  15.109  1.4124  0.0872 -0.8257
 3733SOL     OW22831   1.400   1.839   2.697 -0.5882 -0.3275 -0.5645
 3733SOL    HW122832   1.322   1.894   2.707  0.7639  1.2045  1.5754
 3733SOL    HW222833   1.471   1.898   2.723 -0.3970 -1.0411  0.5325
 3734SOL     OW22834   0.707   0.842   2.688  0.2793 -0.0284 -0.8383
 3734SOL    HW122835   0.767   0.832   2.614  0.9514  0.2788 -0.3383
 3734SOL    HW222836   0.776   0.871   2.748 -0.5485 -0.0297  0.0982
 3735SOL     OW22837   0.612   0.374   1.749  0.2999 -0.5259 -0.0258
 3735SOL    HW122838   0.646   0.286   1.766 -0.6900 -0.4537  2.2387
 3735SOL    HW222839   0.692   0.411   1.710  0.5079  0.5909  1.5019
 3736SOL     OW22840   3.716   4.432   4.673  0.2418 -0.6155 -0.1284
 3736SOL    HW122841   3.670   4.496   4.619 -0.6014  0.4980  1.9106
 3736SOL    HW222842   3.765   4.479   4.740  0.1627 -2.3354  1.1316
 3737SOL     OW22843   3.125   3.326   4.880  0.0869  0.1281 -0.3618
 3737SOL    HW122844   3.112   3.270   4.804 -3.2582 -0.4408  0.6157
 3737SOL    HW222845   3.220   3.323   4.884  0.0031  0.5232  2.1583
 3738SOL     OW22846   0.517   4.155   9.787 -0.3142 -0.0362 -0.0761
 3738SOL    HW122847   0.438   4.160   9.733 -0.9841 -1.0695  0.8074
 3738SOL    HW222848   0.500   4.206   9.865  0.8997  1.7822 -0.9924
 3739SOL     OW22849   2.174   4.138   9.515  0.9975 -0.4448  0.1783
 3739SOL    HW122850   2.087   4.176   9.527  1.1991 -0.3245  1.3105
 3739SOL    HW222851   2.199   4.191   9.439 -0.5317  1.8967  1.3102
 3740SOL     OW22852   1.895   0.602   3.574 -0.1670  0.0661 -0.0302
 3740SOL    HW122853   1.825   0.593   3.638 -0.7361  3.5285 -0.1576
 3740SOL    HW222854   1.859   0.664   3.511 -1.7611 -0.8110  0.0177
 3741SOL     OW22855   1.163   3.136   9.821 -0.3107  0.7039  0.4228
 3741SOL    HW122856   1.221   3.069   9.785 -0.8402  0.3648  0.2052
 3741SOL    HW222857   1.170   3.110   9.913 -1.8406 -1.5044 -0.0893
 3742SOL     OW22858   4.562   3.354   6.975 -0.1069 -0.0126 -0.2770
 3742SOL    HW122859   4.627   3.419   7.002 -2.4802  2.1263  0.3530
 3742SOL    HW222860   4.608   3.277   7.009 -1.4749 -0.8698 -0.3578
 3743SOL     OW22861   0.138   1.946   3.663  0.5577 -0.0006  0.4384
 3743SOL    HW122862   0.134   1.958   3.758 -2.6626  1.4294  0.1335
 3743SOL    HW222863   0.118   2.038   3.646  2.2905 -0.0329 -1.7329
 3744SOL     OW22864   3.592   1.199   6.277  0.2905  0.8102  0.5387
 3744SOL    HW122865   3.673   1.154   6.252 -1.4325 -1.2796 -1.2773
 3744SOL    HW222866   3.534   1.177   6.204 -0.7282 -1.5813  2.0365
 3745SOL     OW22867   4.171   4.304  10.394  0.1950  0.2913 -0.4387
 3745SOL    HW122868   4.092   4.335  10.351  1.3589  2.0811 -1.3160
 3745SOL    HW222869   4.137   4.330  10.480 -2.9267 -0.8100 -1.3441
 3746SOL     OW22870   4.498   0.017   6.216  0.0919 -0.0566  0.5397
 3746SOL    HW122871   4.445   0.078   6.268 -0.9071  1.0033 -1.7409
 3746SOL    HW222872   4.549   4.737   6.295  0.9252  2.5097  0.6581
 3747SOL     OW22873   3.970   3.265  16.267  0.3761  0.1379  0.0794
 3747SOL    HW122874   4.042   3.251  16.205 -1.1461 -0.1344 -1.6009
 3747SOL    HW222875   3.989   3.353  16.299 -0.5533  0.8928 -1.4537
 3748SOL     OW22876   4.373   2.587   7.766  0.0401 -0.5639 -0.3234
 3748SOL    HW122877   4.311   2.626   7.827  2.1779  4.4636 -1.3769
 3748SOL    HW222878   4.438   2.558   7.830 -0.6026 -2.5865 -0.5939
 3749SOL     OW22879   3.230   4.472   7.616  0.4980  0.1663  0.1325
 3749SOL    HW122880   3.227   4.449   7.709 -0.6107 -0.4378 -0.0494
 3749SOL    HW222881   3.312   4.520   7.607 -0.0071  0.8235 -0.9441
 3750SOL     OW22882   1.629   0.399  11.937 -0.2621  0.1121  0.2628
 3750SOL    HW122883   1.553   0.346  11.962 -1.3336  0.7772 -1.6341
 3750SOL    HW222884   1.655   0.346  11.862 -0.6258  1.4617 -0.8262
 3751SOL     OW22885   1.370   1.998   2.095 -0.1675 -0.2027  0.3135
 3751SOL    HW122886   1.335   2.036   2.015 -1.5052 -1.8859  0.0914
 3751SOL    HW222887   1.287   1.989   2.141  0.6398  0.5978  1.9325
 3752SOL     OW22888   1.074   2.831   3.198  0.2057  0.1957  0.4501
 3752SOL    HW122889   1.050   2.779   3.274  0.4802  0.5545  0.7831
 3752SOL    HW222890   1.157   2.794   3.170  0.2008 -1.7300  3.0477
 3753SOL     OW22891   2.380   0.372  14.328 -1.1919  0.4157  0.1704
 3753SOL    HW122892   2.301   0.414  14.294 -0.9675  1.9126  1.5097
 3753SOL    HW222893   2.447   0.382  14.260 -0.1828 -0.7841  0.9879
 3754SOL     OW22894   0.759   3.749   6.905 -0.5279  0.2016 -0.0303
 3754SOL    HW122895   0.738   3.810   6.975  2.9040  1.3663 -0.0286
 3754SOL    HW222896   0.746   3.670   6.957  1.4999 -0.8501 -1.1403
 3755SOL     OW22897   0.680   2.386  14.160  0.0243 -0.7316  0.0213
 3755SOL    HW122898   0.594   2.357  14.132 -0.5309  0.3438  0.6086
 3755SOL    HW222899   0.695   2.473  14.123  0.6219 -0.6722  0.4004
 3756SOL     OW22900   4.675   3.261   1.797 -0.9360 -0.2189  0.5543
 3756SOL    HW122901   4.624   3.308   1.863  0.6242  1.0344  0.8495
 3756SOL    HW222902   4.637   3.302   1.719 -1.0543 -1.6795 -0.1524
 3757SOL     OW22903   1.545   1.610   6.876  0.2966 -0.1634 -0.0424
 3757SOL    HW122904   1.499   1.531   6.905  3.1331 -1.5281  0.7017
 3757SOL    HW222905   1.493   1.629   6.798 -1.5352 -2.1115  0.6989
 3758SOL     OW22906   2.300   1.101   8.657 -0.5282  0.2027 -0.3957
 3758SOL    HW122907   2.395   1.096   8.666 -0.3604  2.4822 -0.9739
 3758SOL    HW222908   2.275   1.182   8.701  1.3311  0.5335  0.0495
 3759SOL     OW22909   2.581   2.549  13.253  0.1521 -0.3915  0.2825
 3759SOL    HW122910   2.559   2.640  13.231  0.2015 -0.6366 -0.7768
 3759SOL    HW222911   2.589   2.513  13.165  0.5585  0.0477  0.1365
 3760SOL     OW22912   0.159   2.056  12.987  0.1495 -0.4009 -0.1929
 3760SOL    HW122913   0.114   1.981  13.025  0.9645 -0.1817  1.2303
 3760SOL    HW222914   0.228   2.009  12.939  0.7575 -0.0332  0.3148
 3761SOL     OW22915   4.139   1.027   4.575 -0.6184 -0.3158 -0.2919
 3761SOL    HW122916   4.114   1.120   4.568  1.0001  0.1745  0.4314
 3761SOL    HW222917   4.051   0.992   4.588 -0.8506  1.5399  3.0027
 3762SOL     OW22918   4.469   3.446   1.854 -0.2442 -0.4415 -0.2427
 3762SOL    HW122919   4.392   3.444   1.910 -0.8533  0.8213 -1.0295
 3762SOL    HW222920   4.419   3.449   1.773 -0.5119 -1.8621 -0.1298
 3763SOL     OW22921   4.468   3.481   0.573  0.0301  0.1206 -0.0814
 3763SOL    HW122922   4.518   3.399   0.570 -0.0699  0.0076  1.2041
 3763SOL    HW222923   4.493   3.509   0.485 -0.6427 -1.6204 -0.8261
 3764SOL     OW22924   4.181   0.336  11.566 -0.1228 -0.1090  0.3730
 3764SOL    HW122925   4.129   0.326  11.645 -1.6341  0.1705 -0.5780
 3764SOL    HW222926   4.173   0.254  11.517  0.5429 -0.9747  1.7207
 3765SOL     OW22927   1.499   2.831   7.876 -0.3284 -0.3036  0.2950
 3765SOL    HW122928   1.573   2.838   7.816 -1.0677  1.5974 -0.4107
 3765SOL    HW222929   1.430   2.802   7.815  1.8648 -0.1723 -2.2500
 3766SOL     OW22930   3.129   0.266   7.350 -0.0980 -0.0583 -0.3570
 3766SOL    HW122931   3.130   0.341   7.410  0.8363  0.0380 -0.4887
 3766SOL    HW222932   3.208   0.222   7.383 -0.6984 -0.4649  0.5493
 3767SOL     OW22933   2.852   1.033   3.912  0.1374  0.2875  0.1555
 3767SOL    HW122934   2.808   1.081   3.842 -0.4794 -0.4992  0.0044
 3767SOL    HW222935   2.936   1.014   3.869  0.4037 -2.2501  1.7848
 3768SOL     OW22936   0.337   1.531   6.034  0.1761  0.3330  0.5505
 3768SOL    HW122937   0.407   1.468   6.045  0.7048  1.2051  2.2073
 3768SOL    HW222938   0.265   1.493   6.084 -1.5368  4.0859  0.9833
 3769SOL     OW22939   3.527   0.004   2.382 -0.3553  0.0115  0.8579
 3769SOL    HW122940   3.570   4.665   2.415  0.9110  0.4355  0.2206
 3769SOL    HW222941   3.542   0.069   2.450  1.7313  1.7426 -1.2705
 3770SOL     OW22942   3.127   2.506  11.922  0.1175  0.5446 -0.0709
 3770SOL    HW122943   3.116   2.582  11.979  1.7940  0.1545  0.7853
 3770SOL    HW222944   3.147   2.557  11.844  1.1269  0.6465  0.2499
 3771SOL     OW22945   3.561   0.140   1.290  0.2219 -0.3813  0.3716
 3771SOL    HW122946   3.473   0.104   1.290 -0.1328  0.4637 -1.2570
 3771SOL    HW222947   3.562   0.194   1.369  1.4613  0.8348 -0.4599
 3772SOL     OW22948   2.945   1.986   9.813  0.0427  0.5121 -0.0329
 3772SOL    HW122949   2.960   2.014   9.723  0.6297  1.4466  0.3571
 3772SOL    HW222950   2.858   2.023   9.828 -0.4627 -0.4457 -0.6043
 3773SOL     OW22951   4.657   0.772   7.726 -0.1700 -0.0502  0.4960
 3773SOL    HW122952   4.659   0.789   7.631 -0.8656 -0.0690  0.4782
 3773SOL    HW222953   4.679   0.862   7.752 -0.1944 -0.5751  2.3025
 3774SOL     OW22954   1.554   1.243  13.611 -0.1028 -0.3679 -0.1743
 3774SOL    HW122955   1.643   1.223  13.639 -0.0851  0.9387  0.7042
 3774SOL    HW222956   1.570   1.283  13.525  4.7375  0.2093  1.0063
 3775SOL     OW22957   0.162   1.461   6.219  0.1552  0.4016  0.0223
 3775SOL    HW122958   0.161   1.440   6.312 -0.3060  0.8399  0.1163
 3775SOL    HW222959   0.082   1.417   6.188  0.9147 -1.5513  0.8171
 3776SOL     OW22960   3.005   3.237   7.111 -0.0826 -0.0731  0.6830
 3776SOL    HW122961   2.925   3.203   7.150 -0.2408 -1.0907 -0.5090
 3776SOL    HW222962   2.984   3.202   7.024  1.0061 -0.8098  0.7056
 3777SOL     OW22963   1.708   2.848   2.088 -0.6379  0.0255  0.4687
 3777SOL    HW122964   1.717   2.813   2.176 -1.5055  1.0719  0.9770
 3777SOL    HW222965   1.698   2.941   2.109 -1.8278 -0.2801  1.1885
 3778SOL     OW22966   4.174   3.449   7.036  0.7502 -0.0659 -0.7739
 3778SOL    HW122967   4.246   3.398   7.071 -0.1441  1.0266  2.6117
 3778SOL    HW222968   4.207   3.475   6.950  0.1652 -0.4553 -1.1175
 3779SOL     OW22969   0.487   3.258   9.080 -0.3011 -0.4073 -0.2237
 3779SOL    HW122970   0.470   3.227   9.169  0.0710  0.5798  0.1869
 3779SOL    HW222971   0.522   3.179   9.039  0.8494 -0.8367  1.5663
 3780SOL     OW22972   1.519   3.347   4.337  0.4809 -0.0040 -0.6033
 3780SOL    HW122973   1.559   3.375   4.255 -1.5231  1.0207 -1.2402
 3780SOL    HW222974   1.567   3.395   4.405  0.4492 -0.6699 -0.1132
 3781SOL     OW22975   4.691   0.485   7.308 -0.1061 -0.2136  0.1248
 3781SOL    HW122976   0.009   0.472   7.383 -0.3389 -0.0451  0.3353
 3781SOL    HW222977   4.618   0.526   7.355  0.3609  1.8692 -0.9717
 3782SOL     OW22978   4.241   1.711   6.192 -0.5185  0.1049  0.1756
 3782SOL    HW122979   4.202   1.661   6.264 -0.6513 -1.4560 -0.9729
 3782SOL    HW222980   4.172   1.777   6.179  0.5319  0.9541 -1.0109
 3783SOL     OW22981   2.822   2.934   3.237  0.1604 -0.7713 -0.5074
 3783SOL    HW122982   2.792   2.980   3.315 -1.4460  0.0905 -1.6202
 3783SOL    HW222983   2.916   2.951   3.239 -0.2838  2.1709 -3.5116
 3784SOL     OW22984   1.878   1.627   5.283 -0.3942  0.6069 -0.0127
 3784SOL    HW122985   1.789   1.661   5.295 -0.1909  0.9945  0.4381
 3784SOL    HW222986   1.905   1.634   5.375  0.6765 -1.3753 -0.1825
 3785SOL     OW22987   1.889   2.390   8.101  0.2999  0.2802  0.4602
 3785SOL    HW122988   1.849   2.349   8.177 -3.4521  2.6064 -0.2674
 3785SOL    HW222989   1.807   2.413   8.058  0.8863  2.9204  0.7707
 3786SOL     OW22990   1.275   0.249   0.230  0.5159 -0.8498 -0.1272
 3786SOL    HW122991   1.181   0.259   0.211  0.9648  1.0940 -1.2795
 3786SOL    HW222992   1.315   0.293   0.155  1.0721 -0.3129  0.4955
 3787SOL     OW22993   4.527   4.598   1.871 -0.2489 -0.6621  0.2861
 3787SOL    HW122994   4.568   4.622   1.789 -0.1095  1.1078  0.8628
 3787SOL    HW222995   4.535   4.504   1.888  1.2915 -0.5365  0.1958
 3788SOL     OW22996   2.298   4.724   6.496 -0.0748 -0.1918 -0.0154
 3788SOL    HW122997   2.214   4.679   6.500 -0.2068  0.0222 -0.4111
 3788SOL    HW222998   2.294   0.053   6.563 -0.2654 -0.8478  0.6456
 3789SOL     OW22999   2.802   1.059   4.470 -0.3953 -0.4594  0.2066
 3789SOL    HW123000   2.764   1.092   4.389 -1.1057 -1.4640  0.1345
 3789SOL    HW223001   2.730   1.004   4.500 -0.1872  0.3934  2.3378
 3790SOL     OW23002   2.622   2.974  15.747 -0.1987  0.2454  0.6826
 3790SOL    HW123003   2.556   3.041  15.733 -0.7129 -0.9283 -2.3869
 3790SOL    HW223004   2.652   2.976  15.656 -0.5300  0.2887  0.5762
 3791SOL     OW23005   3.096   3.620   4.082 -0.3851  0.0677  0.4674
 3791SOL    HW123006   3.173   3.629   4.138  1.0094 -1.6598 -1.1720
 3791SOL    HW223007   3.143   3.628   3.999  0.2900  1.5443  0.9932
 3792SOL     OW23008   1.899   2.613  16.608 -0.3453  0.9467 -0.1147
 3792SOL    HW123009   1.979   2.565  16.630 -0.6202  1.7519  2.5957
 3792SOL    HW223010   1.881   2.570  16.524 -2.6240 -0.7683  1.2657
 3793SOL     OW23011   0.008   2.172   5.575 -0.0399 -0.0192 -0.1557
 3793SOL    HW123012   0.074   2.105   5.557 -0.6038 -0.6082 -0.0150
 3793SOL    HW223013   4.696   2.166   5.495 -0.7533  2.2643  0.1410
 3794SOL     OW23014   1.689   2.350   4.721  0.5101 -0.3637 -0.7670
 3794SOL    HW123015   1.608   2.400   4.727  1.8894  1.8116 -0.5512
 3794SOL    HW223016   1.694   2.306   4.636 -2.2875 -2.0531 -0.0496
 3795SOL     OW23017   1.473   1.430   7.683 -0.0116 -0.1170  0.2515
 3795SOL    HW123018   1.426   1.471   7.756 -3.0141 -0.2418 -1.5884
 3795SOL    HW223019   1.539   1.492   7.653 -0.7777 -1.0643 -3.3953
 3796SOL     OW23020   2.488   1.959   2.362  0.3216  0.7817 -0.3346
 3796SOL    HW123021   2.503   1.980   2.455  0.3813 -0.0821 -0.1459
 3796SOL    HW223022   2.393   1.971   2.366  0.4050  1.0283  1.0506
 3797SOL     OW23023   1.188   1.124  10.155  0.0370 -0.1746 -0.0706
 3797SOL    HW123024   1.246   1.168  10.216  1.5152 -1.6320 -0.4230
 3797SOL    HW223025   1.123   1.194  10.152  1.3250  1.0288 -0.0887
 3798SOL     OW23026   2.084   3.773   4.129  0.6396  0.3599 -0.6307
 3798SOL    HW123027   2.083   3.711   4.201 -0.9810 -1.6655 -2.3772
 3798SOL    HW223028   2.096   3.721   4.049  1.7494 -1.8925  1.0194
 3799SOL     OW23029   2.254   2.984   0.976 -0.1451 -0.2687 -0.1875
 3799SOL    HW123030   2.174   2.939   0.949 -1.1107  0.3566  1.6806
 3799SOL    HW223031   2.238   3.004   1.068  1.3410 -1.5675  0.3464
 3800SOL     OW23032   2.388   3.493   3.432  0.3407 -0.0087 -0.0594
 3800SOL    HW123033   2.397   3.530   3.344 -1.0749 -0.2084 -0.2900
 3800SOL    HW223034   2.316   3.549   3.462  0.6293 -0.6935  1.8903
 3801SOL     OW23035   0.101   1.714   6.231  0.3505  0.1525  0.2026
 3801SOL    HW123036   0.161   1.640   6.219  0.2262  0.5115 -2.5923
 3801SOL    HW223037   0.054   1.682   6.308 -1.1283  0.4460 -0.5702
 3802SOL     OW23038   4.094   3.835   6.464 -0.2765  0.4133  0.4166
 3802SOL    HW123039   4.187   3.817   6.481 -0.7956 -1.9622  0.6952
 3802SOL    HW223040   4.068   3.763   6.407  2.2724  0.3436 -0.6763
 3803SOL     OW23041   2.299   1.029  14.078 -0.6812 -0.2014  0.4995
 3803SOL    HW123042   2.380   0.979  14.071 -2.3003 -2.7253 -0.3563
 3803SOL    HW223043   2.319   1.098  14.141 -0.9656  0.5206 -0.2013
 3804SOL     OW23044   3.852   2.724   8.292 -0.1838  0.2513 -0.4114
 3804SOL    HW123045   3.763   2.751   8.311  0.7190  1.8713  1.5160
 3804SOL    HW223046   3.861   2.655   8.358  0.2500  1.5818  0.9202
 3805SOL     OW23047   1.696   1.997   9.468 -0.4206  0.3306 -0.5031
 3805SOL    HW123048   1.684   2.085   9.431 -0.0440 -0.1040 -1.6543
 3805SOL    HW223049   1.630   1.943   9.426  1.4317 -1.6962 -0.7957
 3806SOL     OW23050   2.899   1.208  11.466  0.3085  0.4363 -0.1458
 3806SOL    HW123051   2.850   1.188  11.386 -0.3145 -3.9549  1.3314
 3806SOL    HW223052   2.837   1.265  11.512 -0.5765 -1.1641  0.6162
 3807SOL     OW23053   1.237   1.652  13.631  0.3360  0.0780 -0.0426
 3807SOL    HW123054   1.289   1.706  13.691  0.2027  0.1828 -0.0207
 3807SOL    HW223055   1.276   1.567  13.651  0.3261  0.7233  2.7983
 3808SOL     OW23056   1.860   0.164   7.336  0.0568  0.2329  0.1346
 3808SOL    HW123057   1.860   0.073   7.366  0.1471  0.3360  0.4560
 3808SOL    HW223058   1.955   0.166   7.331  0.0458  0.4597  0.0237
 3809SOL     OW23059   4.564   0.289   0.795 -0.1977  0.0096  0.2592
 3809SOL    HW123060   4.633   0.303   0.729  1.1493  1.6638  2.0289
 3809SOL    HW223061   4.501   0.356   0.770 -0.2933 -0.6160 -1.1776
 3810SOL     OW23062   3.105   1.265   5.278 -0.7740 -0.1879  0.3886
 3810SOL    HW123063   3.037   1.320   5.316 -1.8097 -0.5824 -0.9080
 3810SOL    HW223064   3.063   1.213   5.209 -0.5741  0.6536 -0.3633
 3811SOL     OW23065   3.416   4.081  16.023 -0.1555  0.0055 -0.1047
 3811SOL    HW123066   3.366   4.161  16.041  0.9855  1.4052 -3.1746
 3811SOL    HW223067   3.497   4.113  15.983  0.3281 -1.5190 -0.3313
 3812SOL     OW23068   0.950   0.602  14.588  0.3447  0.0006  0.3263
 3812SOL    HW123069   0.857   0.621  14.603 -0.3096 -1.9361 -1.2487
 3812SOL    HW223070   0.945   0.557  14.504 -1.6330 -0.0139  0.4481
 3813SOL     OW23071   3.138   3.930  13.212 -0.0256 -0.0570  0.3684
 3813SOL    HW123072   3.164   3.840  13.192 -1.4845  0.4058 -3.7883
 3813SOL    HW223073   3.042   3.925  13.206 -0.0569 -0.0944  0.9229
 3814SOL     OW23074   2.858   3.818   7.598 -0.6144 -0.6520  0.2246
 3814SOL    HW123075   2.795   3.759   7.557 -2.4838  1.7943 -0.3757
 3814SOL    HW223076   2.820   3.830   7.685  1.2288  1.7479  0.6985
 3815SOL     OW23077   2.558   2.971   2.623  0.4535 -0.2043  0.0092
 3815SOL    HW123078   2.619   2.953   2.552  2.1991  0.6397  1.3057
 3815SOL    HW223079   2.573   2.898   2.683  1.0076 -0.3917 -0.3559
 3816SOL     OW23080   1.545   1.379  13.382  0.8089 -0.5318  0.0863
 3816SOL    HW123081   1.455   1.360  13.356  1.1020 -1.3116 -0.3635
 3816SOL    HW223082   1.578   1.379  13.292  0.9433 -0.7205  0.1347
 3817SOL     OW23083   3.413   3.904   6.920 -0.1851 -0.3545  0.0761
 3817SOL    HW123084   3.337   3.960   6.900 -0.4139 -0.7256 -0.0982
 3817SOL    HW223085   3.469   3.959   6.975 -0.9614  0.9021 -0.3993
 3818SOL     OW23086   2.263   3.395   9.778 -0.0688  0.4048 -0.5113
 3818SOL    HW123087   2.250   3.378   9.684 -0.9084 -1.2645 -0.0777
 3818SOL    HW223088   2.355   3.422   9.784 -0.1235  0.2574  0.9954
 3819SOL     OW23089   3.538   4.709   6.876  0.7058 -0.1515 -0.3818
 3819SOL    HW123090   3.572   4.669   6.796  0.6207 -0.4694 -0.2571
 3819SOL    HW223091   3.555   0.063   6.864  0.7399 -0.1995 -0.7131
 3820SOL     OW23092   2.409   4.173   7.980  0.4864 -0.0325 -0.3385
 3820SOL    HW123093   2.419   4.268   7.976 -1.2614  0.2025  0.7872
 3820SOL    HW223094   2.500   4.147   7.997  0.5163  0.5957  0.4406
 3821SOL     OW23095   2.096   1.593   3.676 -0.8315  0.1631  0.5730
 3821SOL    HW123096   2.066   1.527   3.614 -0.5039  0.3983  0.1621
 3821SOL    HW223097   2.189   1.580   3.695 -0.7159  0.5003  0.2333
 3822SOL     OW23098   2.721   4.694   4.398 -0.0227 -0.4874 -0.2921
 3822SOL    HW123099   2.677   4.699   4.482 -0.5230 -0.2651 -0.5692
 3822SOL    HW223100   2.718   0.047   4.377  4.0798 -0.1932  0.4475
 3823SOL     OW23101   0.475   0.820  14.097  0.3052 -0.2555 -0.0438
 3823SOL    HW123102   0.420   0.835  14.020 -0.9102  0.5347  0.9664
 3823SOL    HW223103   0.469   0.903  14.143  0.3995 -1.0578  1.4146
 3824SOL     OW23104   0.982   0.735   5.140  0.1163  0.4706  0.0909
 3824SOL    HW123105   0.947   0.802   5.199  2.7865  1.3310  0.6849
 3824SOL    HW223106   1.058   0.770   5.093  1.0939  0.4921  1.6976
 3825SOL     OW23107   2.090   1.098   2.730  0.7829 -0.2055 -0.1093
 3825SOL    HW123108   2.103   1.183   2.772  1.4071 -0.3536 -0.0047
 3825SOL    HW223109   2.160   1.095   2.664 -0.0254 -0.6225 -0.9371
 3826SOL     OW23110   1.201   2.073  17.048  0.0184 -0.7654 -0.6166
 3826SOL    HW123111   1.216   2.095  17.140 -0.7812  1.8698 -1.1146
 3826SOL    HW223112   1.155   1.989  17.056 -2.5061  0.4509 -2.3294
 3827SOL     OW23113   1.802   2.251  10.103  0.3880 -0.1116 -0.5246
 3827SOL    HW123114   1.744   2.189  10.148  0.6225 -0.2884 -0.4632
 3827SOL    HW223115   1.770   2.230  10.015  0.6706 -1.3640 -0.3247
 3828SOL     OW23116   2.180   1.291   2.932  0.6040 -0.1009 -0.1272
 3828SOL    HW123117   2.213   1.276   3.020  0.6343  0.6040 -0.0192
 3828SOL    HW223118   2.202   1.382   2.910  2.0106 -0.7130 -1.2758
 3829SOL     OW23119   0.299   4.446  11.410 -0.5793 -0.1661 -0.9003
 3829SOL    HW123120   0.382   4.491  11.397 -0.1788 -0.4889  0.4894
 3829SOL    HW223121   0.242   4.509  11.455  0.2380 -0.2121  0.1971
 3830SOL     OW23122   2.440   0.958   3.578  0.0716 -0.1775 -0.1542
 3830SOL    HW123123   2.452   0.917   3.493  1.3171 -1.2315  0.5302
 3830SOL    HW223124   2.365   1.013   3.554  0.6006  0.8083  0.4541
 3831SOL     OW23125   1.964   0.211   1.887 -0.4594  0.5744  0.5670
 3831SOL    HW123126   2.013   0.201   1.806 -2.4219  0.1639 -0.5799
 3831SOL    HW223127   1.976   0.302   1.913 -2.1534  0.3141  2.3079
 3832SOL     OW23128   4.354   1.796   5.766  0.3695 -0.4553 -0.0716
 3832SOL    HW123129   4.414   1.722   5.757 -0.6469 -1.1394 -1.1973
 3832SOL    HW223130   4.296   1.772   5.838  2.1741  2.0366  2.2014
 3833SOL     OW23131   4.693   4.492   2.502  0.1883  0.5792 -0.3564
 3833SOL    HW123132   4.717   4.511   2.411 -2.3207  1.4025 -0.8489
 3833SOL    HW223133   0.022   4.532   2.556  3.3867 -4.0752 -1.0130
 3834SOL     OW23134   3.310   1.696   3.323 -0.3920 -0.1864  0.4000
 3834SOL    HW123135   3.335   1.673   3.413  1.6240  0.3557 -0.0366
 3834SOL    HW223136   3.321   1.791   3.317  0.9951 -0.4595 -1.2459
 3835SOL     OW23137   1.687   3.130   2.995 -0.6860  0.1348  0.0898
 3835SOL    HW123138   1.764   3.112   2.942  0.7765 -2.4654  3.0511
 3835SOL    HW223139   1.717   3.206   3.044 -0.0123  0.4343 -0.8026
 3836SOL     OW23140   0.900   0.901   2.903  0.2066  0.6046  0.1648
 3836SOL    HW123141   0.987   0.894   2.862  1.9058  2.4895  3.4464
 3836SOL    HW223142   0.919   0.875   2.993 -0.0040  0.9441  0.3063
 3837SOL     OW23143   2.630   0.579   8.025 -0.0549 -0.4604 -0.4455
 3837SOL    HW123144   2.605   0.516   8.093  0.2402 -0.4997 -0.3733
 3837SOL    HW223145   2.551   0.627   8.002 -0.0760 -0.1473  0.2485
 3838SOL     OW23146   2.605   1.206   5.390 -0.3629  0.2163 -0.6210
 3838SOL    HW123147   2.590   1.119   5.355 -0.3234  0.4512 -1.2258
 3838SOL    HW223148   2.524   1.217   5.439  0.0165 -2.5102  0.6230
 3839SOL     OW23149   1.158   1.160   1.740  0.4043 -0.1660  0.4656
 3839SOL    HW123150   1.122   1.238   1.697  0.7725 -0.0697  0.3346
 3839SOL    HW223151   1.210   1.196   1.812  1.0251 -0.4408  0.1520
 3840SOL     OW23152   3.904   0.747   3.934 -0.1818 -0.6896 -0.2643
 3840SOL    HW123153   3.949   0.663   3.944 -3.2388 -2.3094  0.0381
 3840SOL    HW223154   3.980   0.799   3.909  0.0033 -0.8561 -0.0479
 3841SOL     OW23155   1.414   2.360  10.994 -0.2884  0.6083 -0.3389
 3841SOL    HW123156   1.446   2.280  10.951  2.4143  1.4369  0.1380
 3841SOL    HW223157   1.335   2.324  11.035  0.5678  0.1675  0.9554
 3842SOL     OW23158   0.677   0.078   5.600  0.6296 -0.4394  0.0666
 3842SOL    HW123159   0.741   0.128   5.549  0.4515 -0.2879 -0.0092
 3842SOL    HW223160   0.603   0.138   5.587  0.7673 -0.2728  0.0430
 3843SOL     OW23161   2.865   4.347   7.929  0.0638  0.1121  0.5110
 3843SOL    HW123162   2.889   4.423   7.878  2.2480 -0.9022  0.0552
 3843SOL    HW223163   2.790   4.318   7.877  0.4004 -0.0978  0.1443
 3844SOL     OW23164   1.355   0.448  12.150  0.6438  0.4005 -0.4168
 3844SOL    HW123165   1.294   0.383  12.184  0.4261  1.0101  0.3782
 3844SOL    HW223166   1.436   0.426  12.195 -0.3755  0.6159  1.5280
 3845SOL     OW23167   2.716   2.125   9.580 -0.4953  0.1117  0.2293
 3845SOL    HW123168   2.719   2.219   9.600  0.6219  0.1778 -0.2296
 3845SOL    HW223169   2.811   2.112   9.574 -0.6515 -1.6446  1.3723
 3846SOL     OW23170   2.756   3.692  17.642 -0.0897  0.0774 -0.6122
 3846SOL    HW123171   2.829   3.742  17.677 -1.6025  0.8909  1.4225
 3846SOL    HW223172   2.693   3.763  17.628  0.3959  0.2078 -2.0702
 3847SOL     OW23173   0.329   2.108  12.078  0.1898  0.2878 -0.0186
 3847SOL    HW123174   0.421   2.093  12.055  0.1040  0.5394 -0.5088
 3847SOL    HW223175   0.284   2.152  12.006 -2.0730 -1.3746  0.4051
 3848SOL     OW23176   4.552   2.475   7.512 -0.1789 -0.6038 -0.1216
 3848SOL    HW123177   4.516   2.531   7.581  2.7952  0.9988  0.1187
 3848SOL    HW223178   4.511   2.510   7.433 -0.4986 -0.4040  0.1296
 3849SOL     OW23179   3.283   0.649   0.581 -0.0229 -0.3454 -0.4163
 3849SOL    HW123180   3.235   0.729   0.563  2.3465  1.1464 -0.1336
 3849SOL    HW223181   3.360   0.662   0.525  0.1494 -1.7482 -0.5112
 3850SOL     OW23182   2.980   0.295   5.702 -0.3825 -0.5277  0.7394
 3850SOL    HW123183   3.005   0.328   5.789 -1.8385 -0.0344  0.9637
 3850SOL    HW223184   2.997   0.373   5.650 -0.4440  0.1486  1.7165
 3851SOL     OW23185   1.200   4.243   1.432 -0.0159  0.5028  0.2369
 3851SOL    HW123186   1.106   4.234   1.414 -0.3964  1.2179  1.8878
 3851SOL    HW223187   1.196   4.216   1.523 -1.3662 -2.3189 -0.6633
 3852SOL     OW23188   2.630   0.585   4.826  0.0034 -0.0820 -0.2218
 3852SOL    HW123189   2.711   0.623   4.792  0.2260  0.2729  0.7174
 3852SOL    HW223190   2.569   0.648   4.786 -0.2471  0.4419  0.9978
 3853SOL     OW23191   4.188   3.592   6.334 -0.7606  0.4384  0.2975
 3853SOL    HW123192   4.258   3.631   6.282 -0.2452 -1.6159 -0.5180
 3853SOL    HW223193   4.248   3.537   6.385 -1.1676 -1.2869 -1.1222
 3854SOL     OW23194   3.027   0.990   4.646 -0.0347  0.1718  0.1589
 3854SOL    HW123195   2.964   1.021   4.581  1.6514  0.6123 -1.2359
 3854SOL    HW223196   3.109   1.031   4.620 -0.0943  0.2854  0.1502
 3855SOL     OW23197   0.418   1.600   2.376 -0.2072  0.4376  0.3073
 3855SOL    HW123198   0.505   1.569   2.353 -0.2483 -0.2641  1.1002
 3855SOL    HW223199   0.415   1.564   2.465  0.6875  0.2848  0.2744
 3856SOL     OW23200   0.961   2.009   3.383 -0.6084  0.2612  0.3726
 3856SOL    HW123201   0.946   2.012   3.289  1.5689 -1.1933  0.0015
 3856SOL    HW223202   0.993   1.921   3.404  2.3922  1.4692  0.7270
 3857SOL     OW23203   1.669   2.425   6.591  0.5050  0.5133  0.3634
 3857SOL    HW123204   1.674   2.340   6.547 -0.6611  0.3144  0.6127
 3857SOL    HW223205   1.614   2.476   6.531  0.8754  0.5849  0.0842
 3858SOL     OW23206   0.987   0.741   6.636 -0.8974 -0.4665  0.2152
 3858SOL    HW123207   0.962   0.812   6.578 -0.7958 -0.8528 -0.3024
 3858SOL    HW223208   0.897   0.710   6.633 -0.4699 -1.8956  2.0260
 3859SOL     OW23209   4.150   1.794   3.385  0.3175 -0.3435  0.2126
 3859SOL    HW123210   4.143   1.759   3.296  1.4042 -0.4945  0.1875
 3859SOL    HW223211   4.245   1.809   3.381  0.7034 -2.2821  1.7659
 3860SOL     OW23212   4.437   3.025   4.060  0.6503  0.2230 -0.3526
 3860SOL    HW123213   4.349   3.006   4.093  0.4060  2.5836  0.3568
 3860SOL    HW223214   4.409   3.068   3.980  0.1852  0.2003 -0.2044
 3861SOL     OW23215   0.329   2.133  14.552 -0.2661 -0.5816 -0.5327
 3861SOL    HW123216   0.384   2.163  14.480 -0.6211  0.3505 -0.4147
 3861SOL    HW223217   0.388   2.071  14.596 -0.5623  0.2621  1.0513
 3862SOL     OW23218   2.219   3.227  15.963  0.2209 -0.0258  0.1994
 3862SOL    HW123219   2.217   3.288  16.037  0.0580  1.4116 -0.9865
 3862SOL    HW223220   2.197   3.277  15.884  1.2891 -1.7825 -1.1972
 3863SOL     OW23221   0.859   0.413  17.496 -0.1314 -0.3664  0.3771
 3863SOL    HW123222   0.806   0.423  17.417  0.7981 -0.5140 -0.2536
 3863SOL    HW223223   0.814   0.480  17.549  0.9457 -0.2117  1.0825
 3864SOL     OW23224   3.362   1.449   2.462 -0.0600  0.0214  0.4180
 3864SOL    HW123225   3.279   1.421   2.423  0.5611 -1.0240 -0.1537
 3864SOL    HW223226   3.332   1.487   2.544 -0.3002 -0.9105  0.7606
 3865SOL     OW23227   0.650   4.568  14.246  0.1670 -0.9422 -0.1885
 3865SOL    HW123228   0.731   4.531  14.209 -0.1551 -0.9989 -0.8518
 3865SOL    HW223229   0.584   4.517  14.199  0.9543 -0.2064 -2.1295
 3866SOL     OW23230   0.242   0.836   2.091  0.2786  0.0379  0.1727
 3866SOL    HW123231   0.191   0.816   2.013 -0.0952  2.8581 -0.3079
 3866SOL    HW223232   0.314   0.888   2.054 -0.2794 -1.5055 -3.0961
 3867SOL     OW23233   1.099   0.850   1.380  0.1694  0.4998 -0.2486
 3867SOL    HW123234   1.124   0.769   1.424  1.4483  1.4414  0.7535
 3867SOL    HW223235   1.155   0.917   1.418 -4.1362  2.7287  2.1534
 3868SOL     OW23236   4.100   0.691  15.508 -0.5159  0.1381 -0.1192
 3868SOL    HW123237   4.048   0.615  15.484 -0.8931  0.7938 -1.3697
 3868SOL    HW223238   4.132   0.710  15.420  1.1202  1.1908  0.7107
 3869SOL     OW23239   1.921   3.371  11.819  0.2169 -0.5283 -0.3302
 3869SOL    HW123240   1.852   3.332  11.872 -1.3691  0.5932 -1.5627
 3869SOL    HW223241   1.996   3.341  11.870  0.0345  2.7505  1.8657
 3870SOL     OW23242   2.688   0.820   8.326 -0.5693 -0.1516 -0.0626
 3870SOL    HW123243   2.741   0.772   8.390  0.1450  1.3004  0.4546
 3870SOL    HW223244   2.714   0.782   8.241  1.8662  2.0903 -0.3346
 3871SOL     OW23245   0.869   0.495   5.807 -0.2636  0.5371 -0.0783
 3871SOL    HW123246   0.777   0.470   5.798  0.4124 -1.4983 -1.5586
 3871SOL    HW223247   0.867   0.573   5.752  0.7101  0.5125 -0.1508
 3872SOL     OW23248   3.970   2.903  10.329 -0.1019  0.1344  0.0317
 3872SOL    HW123249   4.061   2.880  10.347  0.0202  0.8650  0.3433
 3872SOL    HW223250   3.981   2.997  10.338 -0.4937  0.0885  0.9845
 3873SOL     OW23251   3.652   1.777   7.973 -0.3456 -0.0451 -0.6928
 3873SOL    HW123252   3.698   1.833   8.036 -0.7692 -0.4982  0.0143
 3873SOL    HW223253   3.579   1.746   8.026 -0.7937  1.7333 -0.2405
 3874SOL     OW23254   2.705   2.184  15.830  0.4033  0.2411 -0.1133
 3874SOL    HW123255   2.744   2.226  15.754  2.0827  2.8346  2.1506
 3874SOL    HW223256   2.779   2.202  15.888 -0.7750  2.6178  0.6703
 3875SOL     OW23257   3.452   3.899  15.770  0.0419  0.2865 -0.4051
 3875SOL    HW123258   3.403   3.915  15.851  0.5606  1.0609 -0.2461
 3875SOL    HW223259   3.541   3.880  15.801 -0.3908 -1.5650 -0.2579
 3876SOL     OW23260   1.226   4.084   3.926 -0.4082  0.5036 -0.2732
 3876SOL    HW123261   1.181   4.085   3.841 -0.4498  1.3248 -0.2425
 3876SOL    HW223262   1.149   4.076   3.982 -0.3869  2.8535  0.1191
 3877SOL     OW23263   0.775   1.418  10.321  0.0074 -0.1210  0.0977
 3877SOL    HW123264   0.694   1.439  10.369 -0.2468  0.8215 -0.7307
 3877SOL    HW223265   0.824   1.365  10.384 -0.4770 -0.0462  0.5469
 3878SOL     OW23266   1.193   3.562  11.569  0.1033 -0.1540  0.2627
 3878SOL    HW123267   1.226   3.608  11.645 -1.4181 -0.9890  1.4256
 3878SOL    HW223268   1.234   3.606  11.494 -2.4190 -0.1291 -1.0916
 3879SOL     OW23269   3.011   0.915   6.723 -0.1313 -0.9974 -0.0644
 3879SOL    HW123270   3.061   0.993   6.699 -0.7919 -0.3956  0.5055
 3879SOL    HW223271   3.063   0.840   6.696  1.2635 -0.1526  0.2659
 3880SOL     OW23272   1.958   0.671   0.528 -0.0209  0.4268 -0.7394
 3880SOL    HW123273   2.015   0.606   0.487 -1.4218 -1.4045  0.2371
 3880SOL    HW223274   1.868   0.641   0.533 -0.1388  1.0046  0.5811
 3881SOL     OW23275   1.148   2.017   7.287 -0.0040  0.5111 -0.0765
 3881SOL    HW123276   1.123   1.937   7.333 -0.7340 -1.0475 -3.1573
 3881SOL    HW223277   1.239   1.998   7.262  0.1437 -1.7575  2.1243
 3882SOL     OW23278   3.229   3.650   9.365 -0.0156 -0.8336  0.1230
 3882SOL    HW123279   3.230   3.743   9.340 -0.9907 -0.3419  1.9252
 3882SOL    HW223280   3.204   3.663   9.456  0.2025  1.6536 -0.1547
 3883SOL     OW23281   0.410   3.682   2.888  0.2281  0.1054  0.4218
 3883SOL    HW123282   0.366   3.605   2.852 -1.2396  1.0846  0.1103
 3883SOL    HW223283   0.343   3.750   2.879  2.7078  2.4421 -0.5498
 3884SOL     OW23284   4.356   2.446   5.112 -0.1066 -0.4604  0.3975
 3884SOL    HW123285   4.370   2.535   5.145 -2.1475 -0.0882  0.2680
 3884SOL    HW223286   4.306   2.451   5.031  4.4042  0.3878 -2.3296
 3885SOL     OW23287   3.434   0.606   6.548 -0.7100  0.1495 -0.3254
 3885SOL    HW123288   3.499   0.676   6.547 -0.7319  0.1396 -1.4871
 3885SOL    HW223289   3.493   0.545   6.593 -1.4377  0.0549  0.5211
 3886SOL     OW23290   2.206   3.414  16.172 -0.4529  0.6300 -0.2770
 3886SOL    HW123291   2.165   3.367  16.245 -1.3465 -1.0172 -1.8440
 3886SOL    HW223292   2.232   3.496  16.214 -1.0516  0.0981  1.1258
 3887SOL     OW23293   3.353   3.679   2.900 -0.1939  0.3989 -0.0654
 3887SOL    HW123294   3.342   3.644   2.812 -0.2958 -0.2168  0.1917
 3887SOL    HW223295   3.301   3.759   2.909 -1.4198 -0.6039  1.9339
 3888SOL     OW23296   2.700   4.244   2.280  0.1789 -0.5572 -0.5588
 3888SOL    HW123297   2.678   4.184   2.209 -0.4799  1.8783 -2.4171
 3888SOL    HW223298   2.787   4.259   2.244  0.0882 -0.3475 -0.6910
 3889SOL     OW23299   1.864   1.413  12.993  0.2340 -0.1421 -0.0162
 3889SOL    HW123300   1.927   1.386  13.061 -0.3609 -1.7467 -0.0944
 3889SOL    HW223301   1.880   1.507  12.993  1.5062 -0.3556  0.0560
 3890SOL     OW23302   2.742   1.255   8.868 -0.2349 -0.0317 -0.1481
 3890SOL    HW123303   2.823   1.305   8.863  0.6450 -1.3203  1.2088
 3890SOL    HW223304   2.759   1.187   8.933 -2.6639  0.8380  1.3986
 3891SOL     OW23305   0.962   4.472   2.185 -0.9498 -0.6201  0.1316
 3891SOL    HW123306   0.980   4.566   2.184  3.0016 -1.3207  3.9254
 3891SOL    HW223307   0.876   4.464   2.145 -1.1242  4.3400 -0.4956
 3892SOL     OW23308   0.679   0.921   6.932  0.1988  0.4789 -0.3525
 3892SOL    HW123309   0.683   0.826   6.920  0.1894  0.4313  0.0088
 3892SOL    HW223310   0.766   0.946   6.902  1.1133 -1.6464  0.5329
 3893SOL     OW23311   2.776   4.352   4.130 -0.5631 -0.1153 -0.1159
 3893SOL    HW123312   2.708   4.372   4.065 -1.2834  0.3530  0.7912
 3893SOL    HW223313   2.791   4.444   4.151 -1.6947  0.5732 -2.2979
 3894SOL     OW23314   4.492   0.404   0.377 -0.3154 -0.0910  0.1046
 3894SOL    HW123315   4.406   0.433   0.347 -0.2584 -0.6163 -0.5760
 3894SOL    HW223316   4.536   0.479   0.416  0.5267  0.0361 -1.0811
 3895SOL     OW23317   2.636   1.751   1.957  0.2241  0.3813 -0.3562
 3895SOL    HW123318   2.570   1.704   1.905  0.3737  2.3662 -2.3631
 3895SOL    HW223319   2.594   1.832   1.985  0.1757  0.0776  0.4480
 3896SOL     OW23320   1.634   2.638   5.465  0.3627 -0.4432 -0.7553
 3896SOL    HW123321   1.693   2.664   5.536 -0.5675 -0.5417  0.0488
 3896SOL    HW223322   1.580   2.717   5.459  1.7090  0.5935  0.6462
 3897SOL     OW23323   3.059   4.267   0.856 -0.2634  0.1764  0.0692
 3897SOL    HW123324   3.101   4.193   0.901 -0.6743 -0.6992 -1.0029
 3897SOL    HW223325   3.121   4.279   0.784 -0.5579  2.4723  0.2061
 3898SOL     OW23326   2.177   1.009   7.195  1.0287  0.6029  0.1525
 3898SOL    HW123327   2.212   1.046   7.114  0.4977  0.0816 -0.3165
 3898SOL    HW223328   2.084   1.007   7.172  0.5223 -1.4586  2.4072
 3899SOL     OW23329   0.751   2.675   8.504  0.0440  0.2431 -0.1073
 3899SOL    HW123330   0.763   2.632   8.419 -2.3152 -1.6013  0.4949
 3899SOL    HW223331   0.656   2.679   8.494 -0.2842  0.0150  3.1864
 3900SOL     OW23332   2.641   0.616   1.167 -0.2749 -0.2617 -0.1510
 3900SOL    HW123333   2.580   0.664   1.223 -2.2562 -1.1630 -1.5401
 3900SOL    HW223334   2.575   0.573   1.113 -1.5324  0.3482  0.8679
 3901SOL     OW23335   4.574   1.164  17.309 -0.5668  0.3404 -0.2157
 3901SOL    HW123336   4.480   1.185  17.312 -0.1893  2.0692 -0.8945
 3901SOL    HW223337   4.559   1.084  17.258  0.1426 -0.8537  1.4558
 3902SOL     OW23338   1.898   2.920   8.372  0.2278 -0.1963  0.1162
 3902SOL    HW123339   1.876   2.828   8.361  3.3384 -0.6620 -2.2716
 3902SOL    HW223340   1.904   2.936   8.466  2.8063 -1.5964  0.2009
 3903SOL     OW23341   3.993   0.907   3.462 -0.3151  0.2426 -0.1389
 3903SOL    HW123342   4.025   0.893   3.551 -1.4543  2.2189  0.6005
 3903SOL    HW223343   3.942   0.987   3.475 -2.0124 -0.8160 -0.4300
 3904SOL     OW23344   1.973   3.703   7.616 -0.0783 -0.0696 -0.0583
 3904SOL    HW123345   2.007   3.669   7.533 -0.3918 -0.1639 -0.1498
 3904SOL    HW223346   2.012   3.659   7.691 -3.1738 -2.6393  0.0368
 3905SOL     OW23347   3.449   1.394   7.922  0.2351  0.5738  0.1441
 3905SOL    HW123348   3.530   1.345   7.912 -1.5642 -2.2191 -0.7653
 3905SOL    HW223349   3.471   1.477   7.880 -1.3124  0.8097 -0.2269
 3906SOL     OW23350   1.619   3.721  11.553  0.1224  0.4073 -0.0022
 3906SOL    HW123351   1.699   3.693  11.508  0.4493 -1.1555  1.5318
 3906SOL    HW223352   1.594   3.637  11.592  1.3198 -0.5314 -1.2535
 3907SOL     OW23353   1.149   3.387  14.990  0.1723 -0.0083 -0.3361
 3907SOL    HW123354   1.070   3.334  14.993  0.9113 -0.9974  2.0721
 3907SOL    HW223355   1.188   3.336  15.062  0.1052  0.1636 -0.1799
 3908SOL     OW23356   3.358   3.549   4.721 -0.0259  0.2760 -0.1850
 3908SOL    HW123357   3.341   3.456   4.736  1.0853 -0.4552 -3.7010
 3908SOL    HW223358   3.340   3.591   4.805  0.5546  1.1684 -0.5085
 3909SOL     OW23359   2.249   4.392   8.178  0.1489 -0.4202  0.1978
 3909SOL    HW123360   2.316   4.424   8.118  1.0927 -0.4287  1.2512
 3909SOL    HW223361   2.210   4.472   8.213 -0.7419 -1.3204  1.2677
 3910SOL     OW23362   0.967   2.296   9.080  0.0575  0.3359  0.1555
 3910SOL    HW123363   1.038   2.347   9.119  0.3339 -1.3462  1.8587
 3910SOL    HW223364   0.999   2.206   9.085 -2.1661 -0.3873  1.1847
 3911SOL     OW23365   3.137   4.129  17.705 -0.0924 -0.2285 -0.3800
 3911SOL    HW123366   3.176   4.067  17.644 -1.0217 -1.1258 -0.0593
 3911SOL    HW223367   3.160   4.219  17.681  1.0066 -0.2452  0.6181
 3912SOL     OW23368   4.037   0.507   3.975  0.4787 -0.1075  0.5429
 3912SOL    HW123369   4.091   0.467   4.043  0.3955  1.4037  1.4964
 3912SOL    HW223370   4.099   0.571   3.941 -1.3560  1.7105  0.6501
 3913SOL     OW23371   4.692   0.701   0.227 -0.3108  0.6502  0.3802
 3913SOL    HW123372   4.658   0.653   0.303  0.5101 -0.2725  0.1661
 3913SOL    HW223373   0.030   0.740   0.267  0.0610 -0.1492  0.4532
 3914SOL     OW23374   3.343   0.351  17.687  0.1158 -0.8499  0.2427
 3914SOL    HW123375   3.269   0.355  17.748  2.7658 -0.5383  3.4021
 3914SOL    HW223376   3.419   0.368  17.743  0.2518 -1.9195  0.3838
 3915SOL     OW23377   0.673   3.670   6.395  0.2541 -0.0310 -0.2121
 3915SOL    HW123378   0.717   3.723   6.462  0.0519 -0.8994  0.6009
 3915SOL    HW223379   0.592   3.655   6.444  0.1752  0.4211 -0.1973
 3916SOL     OW23380   0.335   4.047   1.962  0.4556  0.3372  0.7572
 3916SOL    HW123381   0.428   4.064   1.973  0.9636 -0.5003 -2.2797
 3916SOL    HW223382   0.303   4.109   1.896  1.3210 -1.8336 -1.6979
 3917SOL     OW23383   0.966   0.484   1.916  0.1405 -0.3056 -0.2214
 3917SOL    HW123384   0.939   0.534   1.839 -3.1051 -0.2124  0.9679
 3917SOL    HW223385   1.044   0.445   1.876 -0.4354  0.5000 -2.1594
 3918SOL     OW23386   2.790   4.128   7.582  0.6312 -0.0964 -0.5978
 3918SOL    HW123387   2.714   4.088   7.538  1.1606 -0.3529 -1.2786
 3918SOL    HW223388   2.742   4.185   7.642 -1.4123 -1.0800 -1.2742
 3919SOL     OW23389   0.355   2.279   4.840  0.7197 -0.7049  0.5664
 3919SOL    HW123390   0.302   2.246   4.767 -0.7442 -2.6332  2.5042
 3919SOL    HW223391   0.304   2.254   4.917 -2.4113  3.2997 -0.2516
 3920SOL     OW23392   4.686   4.343   4.309  0.4444  0.4453  0.1627
 3920SOL    HW123393   4.612   4.399   4.331  0.1838  0.3644 -0.5091
 3920SOL    HW223394   4.730   4.402   4.248  1.4600 -1.2750 -0.7802
 3921SOL     OW23395   4.188   0.643   4.291  0.1400 -0.4503  0.1895
 3921SOL    HW123396   4.134   0.717   4.262  1.4434  0.7284  0.7483
 3921SOL    HW223397   4.238   0.677   4.365  0.5184  2.1436 -1.2610
 3922SOL     OW23398   0.661   0.638  14.643  0.1449 -0.0228 -0.5742
 3922SOL    HW123399   0.667   0.709  14.579  1.3499 -0.4404 -0.9281
 3922SOL    HW223400   0.594   0.659  14.708  0.9901 -2.8107  1.2303
 3923SOL     OW23401   0.061   2.124  11.630 -0.1424  0.4914 -0.4569
 3923SOL    HW123402   4.721   2.087  11.667  0.9723 -0.9463  0.4900
 3923SOL    HW223403   0.059   2.100  11.537 -1.4832  0.6830 -0.4738
 3924SOL     OW23404   0.248   2.694   8.925  0.1404  0.2420  0.4436
 3924SOL    HW123405   0.264   2.728   8.837 -0.4472  0.7856  0.5453
 3924SOL    HW223406   0.176   2.639   8.894 -0.3124  1.6120 -0.9593
 3925SOL     OW23407   2.824   1.023   0.555  0.1145 -0.4074 -0.0333
 3925SOL    HW123408   2.809   1.118   0.549  0.6483 -0.3393 -0.3753
 3925SOL    HW223409   2.841   1.005   0.462 -0.0244  0.7327 -0.2813
 3926SOL     OW23410   3.528   1.172   5.290  0.3189 -0.2541  0.0412
 3926SOL    HW123411   3.523   1.219   5.207  1.2590 -1.5167 -0.7272
 3926SOL    HW223412   3.597   1.106   5.278 -0.5686 -1.3592  1.0485
 3927SOL     OW23413   4.442   1.853   2.305  0.1274  0.7015  0.4925
 3927SOL    HW123414   4.502   1.841   2.379  0.1292 -1.2603  0.1525
 3927SOL    HW223415   4.366   1.799   2.326  0.8028 -0.0041  1.1299
 3928SOL     OW23416   4.691   0.009   8.107 -0.1319 -0.0112  0.6941
 3928SOL    HW123417   4.642   0.012   8.190 -0.3093  1.6230  0.5261
 3928SOL    HW223418   4.655   0.088   8.067  1.2172  1.3377  2.1718
 3929SOL     OW23419   2.367   0.655   5.833 -0.0585 -0.7698  0.1935
 3929SOL    HW123420   2.339   0.613   5.914  0.0404  0.2847  0.7727
 3929SOL    HW223421   2.455   0.675   5.863 -0.4084  0.9091  0.0648
 3930SOL     OW23422   2.282   2.796  12.333  0.9095  0.3409 -0.3586
 3930SOL    HW123423   2.269   2.769  12.242 -0.6955 -0.3795  0.0796
 3930SOL    HW223424   2.191   2.811  12.360  0.5202  1.3408 -2.2391
 3931SOL     OW23425   3.782   3.539   3.812 -0.5879 -0.1044 -0.1918
 3931SOL    HW123426   3.815   3.591   3.739  0.6099  1.9434  1.8017
 3931SOL    HW223427   3.715   3.599   3.846 -2.0355 -2.6432  1.4751
 3932SOL     OW23428   3.622   0.798   6.529  0.1253 -0.2328  0.2241
 3932SOL    HW123429   3.689   0.830   6.589 -0.5298  0.6946  0.4687
 3932SOL    HW223430   3.670   0.792   6.446 -0.4467  1.0953 -0.1976
 3933SOL     OW23431   2.396   0.569   3.424  0.4127 -0.3321 -0.1905
 3933SOL    HW123432   2.314   0.614   3.442 -0.3952 -1.9394  0.1654
 3933SOL    HW223433   2.438   0.573   3.510  1.1484 -1.2983 -0.5037
 3934SOL     OW23434   2.543   4.736  13.280 -0.1109  0.3234 -0.4508
 3934SOL    HW123435   2.535   4.691  13.196  1.9106  1.6910 -1.3622
 3934SOL    HW223436   2.605   0.065  13.254  0.3633  0.5064  1.1692
 3935SOL     OW23437   1.395   4.016   5.720  0.0293 -0.3175  0.3550
 3935SOL    HW123438   1.462   3.950   5.701  0.6024  0.8143 -1.5398
 3935SOL    HW223439   1.431   4.104   5.715  0.8785 -0.7033 -0.4623
 3936SOL     OW23440   2.703   2.908   2.125 -0.2234  0.0594 -0.3556
 3936SOL    HW123441   2.667   2.938   2.208  2.1882 -0.9491  1.0693
 3936SOL    HW223442   2.795   2.932   2.136 -0.6368  1.8580 -0.9509
 3937SOL     OW23443   1.853   1.636   3.538 -0.0627  0.0681  0.1880
 3937SOL    HW123444   1.911   1.710   3.556  0.4143  0.0060 -1.1546
 3937SOL    HW223445   1.914   1.578   3.493 -1.2071 -0.7252 -0.3515
 3938SOL     OW23446   0.576   2.043   7.428 -0.1512 -0.2269 -0.5460
 3938SOL    HW123447   0.643   2.043   7.496 -0.7439 -0.1044  0.0443
 3938SOL    HW223448   0.561   1.951   7.409  1.0712 -0.6304  0.4340
 3939SOL     OW23449   0.581   0.150   3.728 -0.3563 -0.0787  0.2723
 3939SOL    HW123450   0.540   0.229   3.763 -3.8938 -1.0470 -1.6406
 3939SOL    HW223451   0.520   0.079   3.747 -1.6822  0.4869 -1.8021
 3940SOL     OW23452   1.058   3.895  16.620 -0.2634  0.7716  0.0558
 3940SOL    HW123453   1.133   3.877  16.677 -0.8177  0.4897  0.7086
 3940SOL    HW223454   0.989   3.837  16.653  1.4732 -0.0471  2.2640
 3941SOL     OW23455   0.201   4.265   2.353 -0.7864  0.2701  0.3682
 3941SOL    HW123456   0.240   4.335   2.405  1.0340  0.5630 -1.4342
 3941SOL    HW223457   0.248   4.189   2.388  1.1601 -0.0248 -2.9625
 3942SOL     OW23458   1.041   0.724   9.703 -0.0351 -0.1352  0.7010
 3942SOL    HW123459   1.109   0.711   9.637 -2.6251 -1.7570 -1.6313
 3942SOL    HW223460   0.985   0.787   9.658 -0.0412 -0.6855 -0.0632
 3943SOL     OW23461   1.201   0.980   6.300 -0.0138  0.2293 -0.9157
 3943SOL    HW123462   1.211   0.885   6.295 -2.7297 -0.1024 -0.2178
 3943SOL    HW223463   1.108   0.998   6.285 -0.5269 -0.4058  1.4039
 3944SOL     OW23464   3.219   3.132   3.697 -0.5956 -0.3282 -0.0154
 3944SOL    HW123465   3.304   3.113   3.734 -0.1964  0.6463 -0.4140
 3944SOL    HW223466   3.228   3.224   3.670  0.2335  0.1136  1.7766
 3945SOL     OW23467   1.965   1.860   4.051 -0.3684  0.4038 -0.0277
 3945SOL    HW123468   1.912   1.939   4.060 -0.0861  0.3684  1.9498
 3945SOL    HW223469   1.931   1.828   3.967  0.0793  0.0836 -0.0842
 3946SOL     OW23470   4.090   3.999   1.847 -0.8717 -0.1583  0.1631
 3946SOL    HW123471   4.095   3.961   1.759  2.6039  2.1139 -0.6000
 3946SOL    HW223472   4.155   4.068   1.839 -0.7799 -0.2785 -0.1264
 3947SOL     OW23473   3.242   1.698   9.111 -0.1125 -0.1302  0.3079
 3947SOL    HW123474   3.275   1.611   9.087  0.4497  0.1579  0.0512
 3947SOL    HW223475   3.328   1.735   9.091 -0.2379  1.6031  3.0383
 3948SOL     OW23476   1.772   4.368   2.391  0.2219  0.3076  0.4666
 3948SOL    HW123477   1.688   4.358   2.435  1.5376  1.2065  3.2013
 3948SOL    HW223478   1.806   4.279   2.399  1.8611  1.0022  1.2897
 3949SOL     OW23479   1.122   1.597   5.417  0.2173  0.3136 -0.7602
 3949SOL    HW123480   1.159   1.684   5.402 -1.9029  1.2006 -0.9945
 3949SOL    HW223481   1.049   1.613   5.357  0.6869 -0.3085 -1.4875
 3950SOL     OW23482   0.167   1.902   3.229  0.6257 -0.2724 -0.2557
 3950SOL    HW123483   0.225   1.835   3.266 -2.7470 -2.0084  1.9370
 3950SOL    HW223484   0.162   1.874   3.137  0.1942 -0.9828 -0.0221
 3951SOL     OW23485   2.374   3.772  12.106  0.0929 -0.6780  0.3860
 3951SOL    HW123486   2.288   3.739  12.080 -0.4413 -0.3500  1.7147
 3951SOL    HW223487   2.352   3.827  12.182 -0.6252 -2.4649  1.4779
 3952SOL     OW23488   2.425   4.494   6.439  0.6536  0.3293 -0.2379
 3952SOL    HW123489   2.500   4.532   6.392  0.8657  0.4862  0.2295
 3952SOL    HW223490   2.375   4.573   6.456 -1.0706 -1.1748  1.6584
 3953SOL     OW23491   2.564   4.393  11.761 -0.4593  0.2497  0.1006
 3953SOL    HW123492   2.479   4.374  11.721  0.3281  0.2149 -1.5631
 3953SOL    HW223493   2.583   4.472  11.711  0.5887 -0.6887 -0.9871
 3954SOL     OW23494   2.947   4.119   5.345  0.5014 -0.4794  0.2343
 3954SOL    HW123495   2.941   4.024   5.336  0.1321 -0.5022  0.6907
 3954SOL    HW223496   2.926   4.139   5.437 -0.2811  1.0987 -0.2850
 3955SOL     OW23497   1.996   1.908   3.501 -0.2132  0.2147  0.4600
 3955SOL    HW123498   1.982   2.003   3.500  1.9902  0.5115 -1.9766
 3955SOL    HW223499   2.087   1.903   3.528 -0.5793 -0.6538  1.5091
 3956SOL     OW23500   4.425   2.577  17.039  0.0585  0.0071  0.3801
 3956SOL    HW123501   4.442   2.663  17.078  1.9048 -0.7079  1.0925
 3956SOL    HW223502   4.402   2.528  17.117 -3.3786  2.0639  0.6796
 3957SOL     OW23503   1.541   0.204   7.998  0.5902 -0.3191 -0.6515
 3957SOL    HW123504   1.632   0.207   8.027  0.1856 -1.4618  0.7327
 3957SOL    HW223505   1.547   0.119   7.955 -0.6506 -0.7155 -0.0583
 3958SOL     OW23506   4.069   1.118   5.780 -0.1502 -0.1024 -0.0297
 3958SOL    HW123507   4.020   1.058   5.836 -0.2304 -0.2991 -0.3087
 3958SOL    HW223508   4.031   1.200   5.811  1.1685  0.2507  0.6416
 3959SOL     OW23509   2.352   0.785  15.565  0.0621 -0.4763  0.5454
 3959SOL    HW123510   2.290   0.762  15.495 -0.4179  2.1973  0.0807
 3959SOL    HW223511   2.338   0.880  15.565  1.6844 -0.2375  0.0206
 3960SOL     OW23512   4.506   0.329   2.278  0.0861  0.3496  0.2947
 3960SOL    HW123513   4.551   0.405   2.242  0.6642  0.8432  2.0746
 3960SOL    HW223514   4.544   0.259   2.223 -0.6294  1.4150 -1.5509
 3961SOL     OW23515   4.009   1.159   9.342  0.2077 -0.2003  0.1048
 3961SOL    HW123516   4.104   1.163   9.353  0.0924 -0.6950  1.3276
 3961SOL    HW223517   3.984   1.244   9.378 -2.0143  0.2904 -2.6240
 3962SOL     OW23518   4.056   3.741   1.634  0.5083  0.0891  0.1845
 3962SOL    HW123519   4.082   3.695   1.714 -0.2099 -0.4982  0.0813
 3962SOL    HW223520   3.991   3.681   1.599  0.8379  0.5175 -1.1693
 3963SOL     OW23521   0.444   3.886  17.562  0.1366  0.1638  0.0430
 3963SOL    HW123522   0.501   3.934  17.622  1.1837 -0.6774 -0.2901
 3963SOL    HW223523   0.497   3.812  17.532 -1.2328 -0.9096  0.2677
 3964SOL     OW23524   0.194   1.116   4.991  0.4299  0.2262  0.1676
 3964SOL    HW123525   0.189   1.067   5.073 -1.9729  3.2179  1.8197
 3964SOL    HW223526   0.122   1.178   5.005 -0.8038 -1.7483  2.3693
 3965SOL     OW23527   2.563   4.664   7.732 -0.6814 -0.1283 -1.1759
 3965SOL    HW123528   2.630   4.720   7.771 -0.7592  0.5149 -1.9657
 3965SOL    HW223529   2.610   4.630   7.655  2.9048  0.0957  0.8959
 3966SOL     OW23530   3.467   4.348   3.399  0.3273  0.1530  0.2354
 3966SOL    HW123531   3.472   4.277   3.463 -1.3224 -0.3844 -0.2127
 3966SOL    HW223532   3.397   4.399   3.439  0.5892  1.9557 -1.5992
 3967SOL     OW23533   4.098   0.234   1.763 -0.0340 -0.0789  0.4045
 3967SOL    HW123534   4.071   0.158   1.816  2.3168 -2.0928 -1.2824
 3967SOL    HW223535   4.086   0.299   1.832 -0.7232  0.4060 -0.1745
 3968SOL     OW23536   1.254   1.013   1.511  0.4132 -0.4556  0.2619
 3968SOL    HW123537   1.194   1.024   1.584  0.6318  0.3172  0.3319
 3968SOL    HW223538   1.336   1.018   1.559 -0.1156 -1.8639  1.3118
 3969SOL     OW23539   3.026   3.328   3.343  0.1881 -0.0322  0.6782
 3969SOL    HW123540   3.093   3.365   3.401  1.7169  1.6441 -2.1936
 3969SOL    HW223541   3.005   3.254   3.400 -0.2122 -0.2360  0.2701
 3970SOL     OW23542   4.216   0.035   9.380 -0.0143  0.1170 -0.0996
 3970SOL    HW123543   4.217   4.695   9.326 -1.6999 -0.1864  0.3435
 3970SOL    HW223544   4.302   0.021   9.420 -2.0782 -1.4513  3.6671
 3971SOL     OW23545   1.216   3.487   8.463  0.2153 -0.0880 -0.3559
 3971SOL    HW123546   1.290   3.503   8.405  1.4211  2.1975  1.7810
 3971SOL    HW223547   1.154   3.438   8.409 -1.4836  0.5024  1.0256
 3972SOL     OW23548   0.024   1.560   7.473 -0.1469  0.3949  0.0354
 3972SOL    HW123549   4.730   1.557   7.563 -3.0761 -1.3329 -1.1385
 3972SOL    HW223550   4.680   1.576   7.430 -0.4700 -2.6674 -0.4528
 3973SOL     OW23551   3.980   4.416   0.883  0.2805 -0.5770  0.5319
 3973SOL    HW123552   4.072   4.425   0.857 -0.4359 -1.1399 -2.1949
 3973SOL    HW223553   3.962   4.509   0.896  1.3187 -0.2120 -0.6258
 3974SOL     OW23554   2.016   4.454  16.262 -0.3617  0.3583  0.1597
 3974SOL    HW123555   2.029   4.485  16.352 -0.3428 -1.4211  0.7780
 3974SOL    HW223556   1.932   4.495  16.241 -0.6902  0.2433  1.2256
 3975SOL     OW23557   3.986   0.412   6.298 -0.1002  0.0457 -0.5559
 3975SOL    HW123558   4.027   0.412   6.384  0.3133  0.1793 -0.7509
 3975SOL    HW223559   4.030   0.488   6.258  0.6879 -0.2387 -0.2290
 3976SOL     OW23560   3.198   3.234   6.702  0.1105  0.2600  0.1128
 3976SOL    HW123561   3.236   3.229   6.614 -0.3155  0.9988 -0.1155
 3976SOL    HW223562   3.276   3.232   6.758 -0.2200 -0.0037  0.5606
 3977SOL     OW23563   0.940   4.077   3.721 -0.0615 -0.5415 -0.1836
 3977SOL    HW123564   0.990   3.997   3.734  1.5847  0.5304  0.1406
 3977SOL    HW223565   0.856   4.057   3.762 -0.8358  0.2957 -1.3323
 3978SOL     OW23566   3.410   2.543   9.392  0.5725  0.0872  0.0812
 3978SOL    HW123567   3.461   2.498   9.324 -3.9454 -3.6351 -0.8327
 3978SOL    HW223568   3.447   2.501   9.469 -0.1304  0.4219  0.6005
 3979SOL     OW23569   3.384   4.624   3.328  0.5670 -0.2633  0.0853
 3979SOL    HW123570   3.366   4.536   3.296  0.2539 -0.3847  0.5843
 3979SOL    HW223571   3.318   4.634   3.397  1.5771 -0.1022  1.0317
 3980SOL     OW23572   0.844   0.508   9.783  0.6949 -0.3791 -0.3441
 3980SOL    HW123573   0.906   0.484   9.852 -0.8498 -0.6602  0.9288
 3980SOL    HW223574   0.899   0.570   9.736 -0.4771  0.8310 -0.1023
 3981SOL     OW23575   3.236   4.271   6.867 -0.0783 -0.1671 -0.4677
 3981SOL    HW123576   3.231   4.246   6.775  0.3861 -0.2142 -0.4782
 3981SOL    HW223577   3.152   4.311   6.890 -0.3365 -2.3607  2.4523
 3982SOL     OW23578   1.017   0.718   3.910  0.0592 -0.0024  0.3039
 3982SOL    HW123579   1.072   0.697   3.986  1.8247  4.2236  0.1521
 3982SOL    HW223580   0.984   0.628   3.897 -0.8231  0.4037 -0.2698
 3983SOL     OW23581   2.783   0.748   8.865  0.0959 -0.4438 -0.2386
 3983SOL    HW123582   2.690   0.765   8.854  0.1311  0.0305  0.2344
 3983SOL    HW223583   2.821   0.834   8.883  1.0245 -0.5678 -1.5796
 3984SOL     OW23584   4.346   0.729   6.807  0.4439 -0.2999 -0.3405
 3984SOL    HW123585   4.303   0.650   6.773  1.3707 -0.9775  0.0656
 3984SOL    HW223586   4.430   0.729   6.762 -0.0847 -0.6175 -1.3151
 3985SOL     OW23587   2.531   0.572   6.829  0.2899  0.9096 -0.0768
 3985SOL    HW123588   2.586   0.593   6.904  1.8771  0.2821 -1.0698
 3985SOL    HW223589   2.455   0.626   6.850 -2.6890 -3.0394 -0.6120
 3986SOL     OW23590   2.149   0.515   3.686  0.3764 -0.2133 -0.3381
 3986SOL    HW123591   2.225   0.544   3.635  0.4950 -0.9637 -0.5953
 3986SOL    HW223592   2.075   0.531   3.627 -0.3292  0.6075  0.7801
 3987SOL     OW23593   4.330   2.478   8.852 -0.2357 -0.1367  0.4381
 3987SOL    HW123594   4.286   2.393   8.849 -1.8915  0.7617 -0.3281
 3987SOL    HW223595   4.256   2.536   8.836 -0.8057 -1.7001 -2.5997
 3988SOL     OW23596   4.315   3.314   9.080 -0.7734 -0.2027  0.0698
 3988SOL    HW123597   4.407   3.300   9.057 -0.6248 -1.7759  1.5656
 3988SOL    HW223598   4.318   3.261   9.160 -2.7235  0.0464  0.2956
 3989SOL     OW23599   0.001   3.666   4.071  0.2354 -0.6587 -0.2132
 3989SOL    HW123600   4.709   3.642   4.158  0.2978  1.5713  0.4271
 3989SOL    HW223601   4.732   3.761   4.077  3.6822 -0.4824  1.8148
 3990SOL     OW23602   4.729   0.756  11.817  0.1395 -0.1558 -0.4424
 3990SOL    HW123603   0.049   0.686  11.845  1.5872  0.8854 -0.9182
 3990SOL    HW223604   4.673   0.757  11.895  1.1478  0.3808  0.2739
 3991SOL     OW23605   4.218   1.272   6.747  0.0640 -0.2645 -0.0630
 3991SOL    HW123606   4.246   1.321   6.825  0.0582  0.2085 -0.3601
 3991SOL    HW223607   4.161   1.205   6.786 -1.2780  1.4299  0.8751
 3992SOL     OW23608   1.364   4.420  17.082 -0.0397 -0.6597 -0.4272
 3992SOL    HW123609   1.455   4.436  17.107 -0.7743  0.8553  1.2425
 3992SOL    HW223610   1.346   4.502  17.035 -3.2131 -0.5606  0.9857
 3993SOL     OW23611   0.640   0.867  11.020  0.3261  0.0319  0.3818
 3993SOL    HW123612   0.644   0.815  11.101  1.1889 -0.2889  0.1315
 3993SOL    HW223613   0.690   0.946  11.039 -0.4838  1.1647 -2.2407
 3994SOL     OW23614   0.566   3.551   5.573  0.1490  0.3419  0.2508
 3994SOL    HW123615   0.527   3.623   5.621 -0.5453 -0.7538  1.3186
 3994SOL    HW223616   0.533   3.576   5.487 -1.1807 -3.1071 -0.2515
 3995SOL     OW23617   4.099   1.474  15.064  0.3644 -0.2717 -0.2183
 3995SOL    HW123618   4.060   1.450  15.148 -2.2308  1.4128 -0.9484
 3995SOL    HW223619   4.016   1.507  15.028 -0.2144  0.5734  1.9441
 3996SOL     OW23620   2.592   3.938   9.679 -0.8923 -0.3326  0.4035
 3996SOL    HW123621   2.652   3.940   9.753  1.3118  0.8009 -1.4069
 3996SOL    HW223622   2.503   3.942   9.713 -0.8094 -2.1360  0.8313
 3997SOL     OW23623   0.816   2.414   4.574  0.3102  0.2798 -0.3020
 3997SOL    HW123624   0.841   2.469   4.500 -0.6313  0.7167 -0.3047
 3997SOL    HW223625   0.747   2.476   4.599  0.2662  0.2561 -0.3641
 3998SOL     OW23626   2.874   3.415   9.897 -0.5458  0.2346 -0.2978
 3998SOL    HW123627   2.785   3.426   9.931  0.0516 -0.0823  1.3689
 3998SOL    HW223628   2.932   3.478   9.938 -0.3763  0.4869 -0.9169
 3999SOL     OW23629   3.924   2.718   5.558  0.0340 -0.2095 -0.0271
 3999SOL    HW123630   3.886   2.697   5.644  0.8808  0.7297  0.5751
 3999SOL    HW223631   3.846   2.735   5.504 -0.4459 -0.0568  0.7079
 4000SOL     OW23632   2.134   3.090   7.389  0.1313  0.1983  0.0178
 4000SOL    HW123633   2.213   3.058   7.432 -0.3472 -1.8823 -0.5991
 4000SOL    HW223634   2.148   3.093   7.294  1.7095 -0.2562  0.2276
 4001SOL     OW23635   3.906   1.445  13.057  0.6506 -0.2500 -0.2222
 4001SOL    HW123636   3.848   1.411  12.988 -0.7967 -0.9949  1.3710
 4001SOL    HW223637   3.993   1.432  13.019  1.3956  0.7551  1.1547
 4002SOL     OW23638   2.623   3.661  16.705  0.4163 -0.2454  0.4308
 4002SOL    HW123639   2.632   3.568  16.728 -1.2514 -0.4733  0.1701
 4002SOL    HW223640   2.552   3.653  16.642  2.3414  0.8746 -1.8479
 4003SOL     OW23641   2.929   0.727   8.148 -0.4232  0.1608  0.0279
 4003SOL    HW123642   2.961   0.708   8.237 -1.1023  0.6394  0.3735
 4003SOL    HW223643   2.891   0.642   8.123 -0.4064  0.0050  0.5246
 4004SOL     OW23644   3.576   4.191  10.288  0.2090  0.7466 -0.0951
 4004SOL    HW123645   3.487   4.216  10.264  0.1396 -0.9677 -1.6339
 4004SOL    HW223646   3.612   4.274  10.318 -2.5282  2.1934 -0.7646
 4005SOL     OW23647   2.011   3.779   8.655  0.2229  0.0428 -0.0743
 4005SOL    HW123648   2.093   3.744   8.621  0.3182 -1.4082  1.6773
 4005SOL    HW223649   1.949   3.746   8.589 -0.3252  2.5172 -0.8140
 4006SOL     OW23650   1.119   3.620   3.930 -0.5729 -0.7701  0.1453
 4006SOL    HW123651   1.049   3.583   3.876  0.6715 -0.7007 -1.5150
 4006SOL    HW223652   1.157   3.550   3.983 -3.0739 -2.2339 -0.0290
 4007SOL     OW23653   2.076   4.257  16.088 -0.0722  0.0727 -0.5847
 4007SOL    HW123654   2.072   4.336  16.142  2.5011  0.4256 -0.8978
 4007SOL    HW223655   2.034   4.286  16.007 -0.3756  1.6851  0.1597
 4008SOL     OW23656   2.622   3.428   9.282  0.2387  0.1990  0.5506
 4008SOL    HW123657   2.678   3.378   9.340  0.1452 -2.8379 -1.9486
 4008SOL    HW223658   2.684   3.489   9.242  0.0980  0.9442  1.4620
 4009SOL     OW23659   3.421   3.831   7.667 -0.0791 -0.2814  0.0622
 4009SOL    HW123660   3.372   3.864   7.742  1.3624  1.1586  0.3726
 4009SOL    HW223661   3.358   3.766   7.635 -2.5877  2.0642  0.2701
 4010SOL     OW23662   1.361   3.140   6.296  0.3073 -0.1050 -0.1673
 4010SOL    HW123663   1.321   3.053   6.299 -1.4142  0.7301  0.8452
 4010SOL    HW223664   1.350   3.174   6.385 -1.3045 -1.9116  0.3241
 4011SOL     OW23665   1.555   2.552   2.448  0.3706  0.2624  0.1879
 4011SOL    HW123666   1.466   2.573   2.419  0.4694  1.7353  0.9381
 4011SOL    HW223667   1.587   2.469   2.412  0.0596 -0.2324  1.0508
 4012SOL     OW23668   1.062   1.656   1.278 -0.2509  0.3295  0.6274
 4012SOL    HW123669   1.052   1.603   1.199  1.2011  0.4093  0.3896
 4012SOL    HW223670   1.037   1.742   1.245 -0.2749 -0.4898 -1.4835
 4013SOL     OW23671   4.199   0.821  11.438 -0.6791 -0.7493 -0.2695
 4013SOL    HW123672   4.191   0.736  11.394 -1.1547  0.7096 -3.0302
 4013SOL    HW223673   4.178   0.805  11.530 -0.1579 -0.2463 -0.0632
 4014SOL     OW23674   4.022   3.434   7.642 -0.2782 -1.2018  0.6153
 4014SOL    HW123675   3.960   3.465   7.576  0.0441 -0.8899  0.4556
 4014SOL    HW223676   3.955   3.414   7.707 -1.5678 -1.8214 -0.9076
 4015SOL     OW23677   1.568   2.108   5.070  0.0633  0.4150  0.5156
 4015SOL    HW123678   1.517   2.185   5.046 -2.1920 -0.6651  1.8805
 4015SOL    HW223679   1.652   2.153   5.059 -0.1564  0.7982  0.4241
 4016SOL     OW23680   4.555   4.285   8.658  0.1013 -0.4161 -0.5812
 4016SOL    HW123681   4.518   4.370   8.635  2.2632  0.6925  0.0352
 4016SOL    HW223682   4.483   4.225   8.640 -0.0741 -0.7321  1.1965
 4017SOL     OW23683   1.619   1.027   3.597  0.5265 -0.5132 -0.2332
 4017SOL    HW123684   1.585   1.098   3.542  1.0372  1.0951  1.5212
 4017SOL    HW223685   1.713   1.038   3.583  0.5296 -0.7453 -0.3878
 4018SOL     OW23686   2.697   2.099   4.168  0.1866  0.2728 -0.7495
 4018SOL    HW123687   2.679   2.193   4.171  0.9890  0.3762  1.1070
 4018SOL    HW223688   2.733   2.091   4.257 -3.0111 -2.2209  0.2912
 4019SOL     OW23689   2.498   2.475   4.479 -0.2720 -0.1120 -0.1856
 4019SOL    HW123690   2.538   2.544   4.427 -0.2847 -1.5090 -2.0526
 4019SOL    HW223691   2.421   2.471   4.422  0.8130  1.2034 -1.7447
 4020SOL     OW23692   1.292   2.836   5.772  0.3694 -0.5851 -0.9262
 4020SOL    HW123693   1.361   2.902   5.766  0.3956 -0.4631  0.7531
 4020SOL    HW223694   1.289   2.830   5.867 -0.0859  1.0295 -0.8463
 4021SOL     OW23695   2.864   2.918  16.577  0.1146 -0.0076  0.3899
 4021SOL    HW123696   2.862   2.857  16.503  2.2163  0.8335 -0.3466
 4021SOL    HW223697   2.830   2.860  16.645 -0.4175 -0.1935 -0.0357
 4022SOL     OW23698   1.488   0.036   6.152 -0.0582  0.0499 -0.2888
 4022SOL    HW123699   1.449   0.004   6.234  1.3191  2.9902  1.5206
 4022SOL    HW223700   1.501   4.689   6.113  0.4884 -1.2005  2.6272
 4023SOL     OW23701   0.146   2.410   5.800  0.0131  0.2380 -0.2320
 4023SOL    HW123702   0.105   2.430   5.884 -2.6939  2.2755 -2.0826
 4023SOL    HW223703   0.071   2.389   5.744 -1.0796  2.8530  0.2654
 4024SOL     OW23704   0.539   0.859   3.987 -0.4801  0.1567 -0.4024
 4024SOL    HW123705   0.484   0.836   3.912  0.1964 -0.0089 -0.8512
 4024SOL    HW223706   0.627   0.856   3.950 -1.1521 -1.6622 -1.8962
 4025SOL     OW23707   1.583   2.630   4.941  0.1203 -0.5758  0.3749
 4025SOL    HW123708   1.670   2.669   4.944 -0.8040  1.4921  0.2778
 4025SOL    HW223709   1.578   2.660   4.851  0.8339 -1.1759  0.1299
 4026SOL     OW23710   0.800   1.357  12.436  0.3203  0.4176 -0.1234
 4026SOL    HW123711   0.821   1.312  12.354 -0.2716  1.7637 -1.0199
 4026SOL    HW223712   0.790   1.287  12.500 -0.2431  0.6435  0.0366
 4027SOL     OW23713   0.825   2.055   7.583  0.8348 -0.0767 -0.1234
 4027SOL    HW123714   0.806   2.056   7.677 -0.4122 -0.6144 -0.3820
 4027SOL    HW223715   0.902   1.999   7.584  0.8475 -0.0886 -1.9885
 4028SOL     OW23716   1.415   2.444   8.055 -0.2262  0.2022  1.0746
 4028SOL    HW123717   1.327   2.453   8.020  0.0712  2.0314  0.8129
 4028SOL    HW223718   1.425   2.535   8.082  1.6098  0.6330 -1.1013
 4029SOL     OW23719   2.574   1.880  12.590 -0.0943  0.4445  0.3981
 4029SOL    HW123720   2.531   1.953  12.635  1.0786  0.6274  1.2323
 4029SOL    HW223721   2.653   1.877  12.644  0.5207  2.0748 -0.3963
 4030SOL     OW23722   0.446   2.449   6.101 -0.1373 -0.2129 -0.9721
 4030SOL    HW123723   0.390   2.495   6.164  0.0017 -1.2871 -0.0558
 4030SOL    HW223724   0.443   2.506   6.024  3.8311  3.5489  1.6486
 4031SOL     OW23725   1.049   2.653   7.927 -0.5426 -0.0648  0.0886
 4031SOL    HW123726   0.994   2.689   7.857 -0.7308 -0.4698  0.0241
 4031SOL    HW223727   1.086   2.574   7.887  0.2982  1.2831 -1.7872
 4032SOL     OW23728   2.103   3.502   2.876 -0.2251  0.4422 -0.2650
 4032SOL    HW123729   2.135   3.428   2.824 -0.2305  0.3188 -0.0942
 4032SOL    HW223730   2.157   3.488   2.953 -0.0038 -0.3512 -0.5649
 4033SOL     OW23731   1.451   1.391   2.697 -0.3980  0.4426 -0.1985
 4033SOL    HW123732   1.371   1.390   2.644  0.0532  2.8253 -0.9214
 4033SOL    HW223733   1.444   1.445   2.775 -2.2697 -1.9521  1.3058
 4034SOL     OW23734   2.493   3.839  14.004 -0.1165  0.0137 -0.1271
 4034SOL    HW123735   2.532   3.859  13.919 -0.5990 -1.1602 -0.6237
 4034SOL    HW223736   2.459   3.925  14.027 -0.3059 -0.1070  0.0375
 4035SOL     OW23737   3.320   1.241   6.474  0.0346 -0.3041  0.1235
 4035SOL    HW123738   3.329   1.145   6.477 -2.7267 -0.5747  0.3431
 4035SOL    HW223739   3.408   1.267   6.498  0.3374 -1.1875 -0.0176
 4036SOL     OW23740   2.639   3.484   8.350 -0.2489 -0.3921  0.2282
 4036SOL    HW123741   2.610   3.482   8.441  0.6502  2.5850  0.5714
 4036SOL    HW223742   2.690   3.404   8.358  0.4922  0.1591  0.9971
 4037SOL     OW23743   3.587   2.323   4.909  0.6191 -0.2893 -0.2969
 4037SOL    HW123744   3.634   2.301   4.829 -0.1677  1.2408 -1.1643
 4037SOL    HW223745   3.585   2.418   4.895  0.4949 -0.0597  1.2805
 4038SOL     OW23746   1.565   0.875   2.319  0.4971 -0.2124  0.3237
 4038SOL    HW123747   1.553   0.824   2.239 -2.9969 -0.7675  1.2214
 4038SOL    HW223748   1.538   0.963   2.294 -1.2340 -0.5691  0.9422
 4039SOL     OW23749   4.501   1.332   3.420  0.3953  0.9269 -0.1334
 4039SOL    HW123750   4.502   1.237   3.413  0.5533  1.0269 -1.4481
 4039SOL    HW223751   4.593   1.355   3.427  0.2733  1.3635  0.0683
 4040SOL     OW23752   3.836   2.416  13.618 -0.7177  0.0479 -0.2448
 4040SOL    HW123753   3.771   2.350  13.595 -0.1854 -0.6182  0.1606
 4040SOL    HW223754   3.790   2.500  13.611  3.3412  2.3808  0.4306
 4041SOL     OW23755   0.429   1.117  15.042  0.6405  0.0530  0.6938
 4041SOL    HW123756   0.484   1.194  15.049 -1.0768  1.1488  2.0075
 4041SOL    HW223757   0.472   1.045  15.088  0.6727 -0.0309  0.5358
 4042SOL     OW23758   2.323   0.400   4.850 -0.0605  0.1862  0.3550
 4042SOL    HW123759   2.262   0.362   4.913 -0.5567 -0.1759 -0.3483
 4042SOL    HW223760   2.265   0.469   4.818  0.5541  0.4131 -0.2543
 4043SOL     OW23761   2.047   1.018   1.866 -0.7063 -0.1211  0.0856
 4043SOL    HW123762   2.032   0.945   1.806 -2.1698  2.2464 -2.3888
 4043SOL    HW223763   2.068   0.973   1.948 -0.7264  1.8841  1.1833
 4044SOL     OW23764   0.005   2.922   5.997  0.0353  0.1760 -0.3310
 4044SOL    HW123765   0.090   2.887   6.024  0.1291 -1.2988 -2.5468
 4044SOL    HW223766   4.686   2.916   6.072  0.5732  1.0642  0.1637
 4045SOL     OW23767   2.414   1.515   8.334  0.4673 -0.3312  0.0289
 4045SOL    HW123768   2.331   1.546   8.371  1.4764  1.5470  0.7378
 4045SOL    HW223769   2.395   1.533   8.242  0.2365  1.7104  0.4693
 4046SOL     OW23770   2.665   1.456   3.286 -0.3863  0.1934 -0.3875
 4046SOL    HW123771   2.741   1.439   3.230  0.2043  3.5503 -0.6351
 4046SOL    HW223772   2.648   1.550   3.281  1.1516  0.5909  1.6862
 4047SOL     OW23773   0.586   2.846   8.234 -0.4409 -0.1507 -0.9628
 4047SOL    HW123774   0.494   2.872   8.231 -0.3490  0.0826 -2.1804
 4047SOL    HW223775   0.588   2.754   8.259 -0.3768  0.3204  0.7578
 4048SOL     OW23776   1.209   4.122  14.225  0.2437  0.0976  0.1506
 4048SOL    HW123777   1.252   4.070  14.156 -1.4236  1.8552 -2.2105
 4048SOL    HW223778   1.145   4.055  14.250  1.8657 -1.9008 -1.0862
 4049SOL     OW23779   3.097   4.052   4.727 -0.8458  0.3927 -0.4189
 4049SOL    HW123780   3.033   4.090   4.666  1.3613  2.8204 -1.2251
 4049SOL    HW223781   3.141   3.997   4.663 -0.6352 -1.0460  0.9725
 4050SOL     OW23782   1.200   3.328   3.367  0.5627 -0.2941 -0.2653
 4050SOL    HW123783   1.143   3.273   3.421  0.1099  0.7810  0.3652
 4050SOL    HW223784   1.142   3.351   3.295  0.8957 -1.0034 -0.7615
 4051SOL     OW23785   2.888   2.520   2.534 -0.0290  0.0858 -0.3432
 4051SOL    HW123786   2.898   2.615   2.536 -0.8126  0.1756 -0.5394
 4051SOL    HW223787   2.821   2.503   2.468  0.8472 -1.4514 -0.8476
 4052SOL     OW23788   1.192   1.854   0.387 -0.6932 -0.4279  0.3897
 4052SOL    HW123789   1.241   1.813   0.316 -0.8322 -0.8664  0.5447
 4052SOL    HW223790   1.255   1.920   0.416  0.0607 -1.2320  0.5646
 4053SOL     OW23791   3.073   0.206   7.880 -0.2343 -0.6886  0.2430
 4053SOL    HW123792   2.996   0.199   7.936 -0.7186 -1.0384 -0.4640
 4053SOL    HW223793   3.074   0.300   7.865  0.6240 -0.5636  1.0981
 4054SOL     OW23794   3.382   3.005   2.675 -0.1266  0.7219 -0.1572
 4054SOL    HW123795   3.472   3.037   2.671 -0.1210  0.8416  0.8221
 4054SOL    HW223796   3.377   2.965   2.762 -4.2485  0.3315 -0.5452
 4055SOL     OW23797   3.219   3.603   5.623  0.1265  0.1739  0.4551
 4055SOL    HW123798   3.173   3.555   5.692 -1.2635 -1.0234 -1.2957
 4055SOL    HW223799   3.153   3.672   5.622 -0.5892 -0.5319 -0.6196
 4056SOL     OW23800   4.164   3.199   7.528  0.2406 -0.3557  0.0309
 4056SOL    HW123801   4.157   3.291   7.555 -1.8143 -1.0389  1.8179
 4056SOL    HW223802   4.251   3.176   7.562  0.8052  1.4347 -0.2094
 4057SOL     OW23803   1.108   0.105   6.063  0.5321 -0.3456 -0.1671
 4057SOL    HW123804   1.104   0.010   6.052 -0.3998 -0.4885  1.3838
 4057SOL    HW223805   1.065   0.140   5.985  1.8186 -0.0080 -0.7190
 4058SOL     OW23806   3.455   0.962  14.458 -0.1274  0.5783 -0.4579
 4058SOL    HW123807   3.465   1.026  14.529 -1.3573  0.7457 -0.4293
 4058SOL    HW223808   3.431   0.890  14.516  0.4990  0.5351 -0.2549
 4059SOL     OW23809   2.244   0.004   9.494  0.0648 -0.4558 -0.0907
 4059SOL    HW123810   2.166   0.027   9.546 -0.3560  1.3019 -1.4896
 4059SOL    HW223811   2.205   0.034   9.412 -0.5977  0.8258  0.6988
 4060SOL     OW23812   1.219   1.670   7.547 -0.3085 -0.0872  0.0867
 4060SOL    HW123813   1.198   1.630   7.463 -0.3330 -2.4796  1.2293
 4060SOL    HW223814   1.310   1.699   7.538 -0.4643  0.9659  1.7776
 4061SOL     OW23815   4.198   2.800   5.884 -0.3530  0.7805 -0.0279
 4061SOL    HW123816   4.223   2.857   5.811  0.1789  1.8034  0.9556
 4061SOL    HW223817   4.284   2.761   5.900 -0.4777 -0.0281 -1.2747
 4062SOL     OW23818   1.934   4.556   7.822 -0.3415  0.1415 -0.5476
 4062SOL    HW123819   1.886   4.634   7.849 -0.3353 -0.4516  1.2012
 4062SOL    HW223820   2.014   4.567   7.873 -1.1081  1.0595  0.4439
 4063SOL     OW23821   3.199   3.982   8.658 -0.0236 -0.1416 -0.1338
 4063SOL    HW123822   3.271   4.010   8.714 -0.1589 -0.3236  0.1302
 4063SOL    HW223823   3.237   3.998   8.571  2.2632 -0.3509  0.8592
 4064SOL     OW23824   3.541   1.208   9.932  0.2907  0.0826  0.5430
 4064SOL    HW123825   3.500   1.203  10.019  0.4879  0.7232  0.6742
 4064SOL    HW223826   3.621   1.157   9.944  1.0883  1.2943  0.3621
 4065SOL     OW23827   4.497   1.030   3.907  0.1189 -0.6724  0.0064
 4065SOL    HW123828   4.573   0.992   3.952 -0.4374 -1.4850  0.2530
 4065SOL    HW223829   4.523   1.021   3.815  0.7433  1.6465 -0.0434
 4066SOL     OW23830   4.372   0.370   5.715 -0.3073  0.0106 -0.0920
 4066SOL    HW123831   4.437   0.385   5.783  1.3485  0.6663 -1.8149
 4066SOL    HW223832   4.400   0.434   5.649  1.1218 -0.4959  0.0211
 4067SOL     OW23833   4.130   3.211   1.296  0.0713 -0.4951 -0.7232
 4067SOL    HW123834   4.220   3.203   1.327 -0.4340 -0.0416  0.8888
 4067SOL    HW223835   4.078   3.212   1.376  0.0942  0.6235 -0.7281
 4068SOL     OW23836   3.101   0.915   3.222 -0.0201 -0.5128 -0.7750
 4068SOL    HW123837   3.057   0.948   3.300  1.8575 -0.9586  0.4714
 4068SOL    HW223838   3.050   0.836   3.207 -2.7639  1.1125  0.0688
 4069SOL     OW23839   3.774   2.469   9.688  0.5504 -0.0271  0.1187
 4069SOL    HW123840   3.857   2.428   9.715  0.7488  0.2909 -0.0152
 4069SOL    HW223841   3.789   2.553   9.730 -0.6642 -0.7703  2.0248
 4070SOL     OW23842   2.331   2.844  14.272  0.5383  0.2800 -0.1528
 4070SOL    HW123843   2.366   2.865  14.358  0.6408 -1.6497  0.2906
 4070SOL    HW223844   2.391   2.780  14.233 -0.0801  0.7260 -1.8670
 4071SOL     OW23845   3.110   0.201   1.495  0.3081  0.0996 -0.0751
 4071SOL    HW123846   3.113   0.170   1.586  0.3341  0.4182  0.0322
 4071SOL    HW223847   3.111   0.292   1.522 -1.6725 -0.7782  3.0028
 4072SOL     OW23848   1.320   2.864   7.381 -0.3660  0.3061 -0.0906
 4072SOL    HW123849   1.399   2.886   7.430  0.1245  1.8789 -1.5867
 4072SOL    HW223850   1.299   2.785   7.431 -0.3065 -0.0808 -0.6704
 4073SOL     OW23851   1.560   1.002  17.708  0.7946  0.4099  0.0873
 4073SOL    HW123852   1.632   0.953  17.748  0.8581 -0.9849 -1.7100
 4073SOL    HW223853   1.535   0.939  17.640 -1.6362  2.7205 -1.1408
 4074SOL     OW23854   3.055   4.701  11.859  0.1835 -0.0995  0.0689
 4074SOL    HW123855   2.967   4.675  11.886 -0.2572  1.3556  0.0495
 4074SOL    HW223856   3.095   4.614  11.859 -0.2249 -0.2840  0.9550
 4075SOL     OW23857   3.147   1.271   2.930 -0.1588 -0.8930  0.0744
 4075SOL    HW123858   3.234   1.291   2.895  1.3724 -1.1528  3.6667
 4075SOL    HW223859   3.166   1.249   3.022 -0.2241  0.1794  0.3493
 4076SOL     OW23860   0.091   1.920  13.454 -0.3083 -0.1818 -0.3331
 4076SOL    HW123861   0.088   1.996  13.512 -0.0724  1.7989 -2.9563
 4076SOL    HW223862   4.736   1.916  13.438 -0.0534 -0.7824 -1.6388
 4077SOL     OW23863   0.732   3.155  12.037  0.0522 -0.8480  0.0544
 4077SOL    HW123864   0.730   3.203  12.120 -3.1157 -1.9890  0.6412
 4077SOL    HW223865   0.823   3.128  12.046  0.7278  2.1847  2.2994
 4078SOL     OW23866   3.115   4.028   6.036  0.5941 -0.2032  0.2130
 4078SOL    HW123867   3.187   4.059   5.981  0.9798 -0.6724  0.4623
 4078SOL    HW223868   3.070   3.980   5.967  1.2010  0.1545 -0.4323
 4079SOL     OW23869   2.885   4.519   7.297  0.1118 -0.2107  0.0116
 4079SOL    HW123870   2.946   4.446   7.290  1.1029  0.9255 -3.2282
 4079SOL    HW223871   2.930   4.581   7.355 -0.1481 -1.6225  1.7235
 4080SOL     OW23872   3.647   3.823  15.984  0.0299  0.3079 -0.1750
 4080SOL    HW123873   3.708   3.754  15.958  0.8713  0.6627  0.8800
 4080SOL    HW223874   3.692   3.864  16.058  2.6539 -2.1856 -0.3683
 4081SOL     OW23875   1.291   1.359   7.473 -0.0761 -0.1022  0.2196
 4081SOL    HW123876   1.323   1.293   7.410 -0.6064 -0.6115  0.4805
 4081SOL    HW223877   1.357   1.355   7.541  0.0426 -1.7641  0.0183
 4082SOL     OW23878   1.413   1.377   6.869 -0.5833 -0.3665  0.4566
 4082SOL    HW123879   1.339   1.331   6.908 -0.7022 -0.3616  0.2419
 4082SOL    HW223880   1.370   1.421   6.795 -0.5230 -0.7457  0.1903
 4083SOL     OW23881   3.843   3.952   1.623 -0.1168 -0.3530 -0.1457
 4083SOL    HW123882   3.867   3.899   1.698  0.6726  1.0282  0.5796
 4083SOL    HW223883   3.912   3.945   1.557 -0.1096  0.2532 -0.2043
 4084SOL     OW23884   2.943   1.188   2.547 -0.5880  0.3306 -0.3891
 4084SOL    HW123885   2.939   1.175   2.641  2.2469  0.0529 -0.2986
 4084SOL    HW223886   2.860   1.227   2.520 -0.9481  1.0698  1.8666
 4085SOL     OW23887   3.949   4.030   0.294 -0.2789  0.4191  0.2453
 4085SOL    HW123888   3.860   4.021   0.259  0.4270 -1.2235 -1.0924
 4085SOL    HW223889   3.987   4.084   0.225 -0.0313 -0.6404 -0.4414
 4086SOL     OW23890   3.635   1.483   3.646 -0.2676 -0.2056  0.0229
 4086SOL    HW123891   3.689   1.415   3.685 -0.2169 -0.1157  0.1096
 4086SOL    HW223892   3.654   1.563   3.695  0.2552 -0.5724  0.4026
 4087SOL     OW23893   4.519   2.453  12.478  0.7358 -0.1032 -0.2305
 4087SOL    HW123894   4.591   2.485  12.533  0.4467  1.1777 -0.6001
 4087SOL    HW223895   4.558   2.366  12.470  0.6314 -0.2295  0.6431
 4088SOL     OW23896   0.214   3.052   1.788 -0.3346 -0.6830  0.1789
 4088SOL    HW123897   0.303   3.080   1.764 -0.7407 -1.4550 -2.2731
 4088SOL    HW223898   0.167   3.133   1.764  1.2183  0.2375  0.2290
 4089SOL     OW23899   1.319   1.793   8.682  0.3194  0.4837 -0.6318
 4089SOL    HW123900   1.325   1.701   8.656 -1.6242  0.4619 -1.0028
 4089SOL    HW223901   1.281   1.788   8.770  0.9942 -1.3869 -0.4457
 4090SOL     OW23902   1.560   3.549  15.908  0.1397 -0.2397  0.2585
 4090SOL    HW123903   1.498   3.593  15.850 -0.9542  0.2640  1.7947
 4090SOL    HW223904   1.634   3.610  15.909  0.4198 -0.5478 -1.2759
 4091SOL     OW23905   3.202   3.024   7.399 -0.4734  0.3368 -0.0783
 4091SOL    HW123906   3.108   3.041   7.404 -0.8897 -1.9508  0.0719
 4091SOL    HW223907   3.205   2.980   7.314  0.2853  1.4561 -0.6298
 4092SOL     OW23908   1.798   2.184   0.596  0.0760  0.0582 -0.0697
 4092SOL    HW123909   1.795   2.168   0.502 -0.3296  0.2574 -0.0934
 4092SOL    HW223910   1.863   2.254   0.592 -0.3020  0.3833 -0.5512
 4093SOL     OW23911   4.068   1.633   8.742  0.2461 -0.4076  0.0421
 4093SOL    HW123912   4.120   1.558   8.771 -0.4737 -1.3875 -1.2327
 4093SOL    HW223913   4.030   1.663   8.825 -1.4712  0.4100 -1.0440
 4094SOL     OW23914   4.089   0.928   2.220  0.7053  0.4959  0.0965
 4094SOL    HW123915   4.053   0.993   2.280  1.2205  1.2258 -0.3968
 4094SOL    HW223916   4.120   0.987   2.152  0.1913  0.0386 -0.5462
 4095SOL     OW23917   0.000   4.280   8.067 -0.0548  0.5261 -0.3811
 4095SOL    HW123918   0.055   4.223   8.121 -1.2632 -0.1955  0.0920
 4095SOL    HW223919   0.053   4.359   8.057 -1.5083  1.4633 -0.5943
 4096SOL     OW23920   1.481   2.014  14.002  0.3856 -0.0010 -0.2736
 4096SOL    HW123921   1.492   2.000  14.096  0.4716  0.5107 -0.2090
 4096SOL    HW223922   1.564   1.979  13.968  1.1949  1.8357 -0.2020
 4097SOL     OW23923   2.629   1.974  15.211  0.1923 -0.2407 -0.3188
 4097SOL    HW123924   2.608   2.050  15.266  0.1109 -2.9207  3.3573
 4097SOL    HW223925   2.679   1.914  15.266  0.5482  0.4796  0.1416
 4098SOL     OW23926   0.962   4.437   4.842  0.4653  0.1362 -0.0334
 4098SOL    HW123927   0.985   4.347   4.822  2.0491  0.5507 -0.0877
 4098SOL    HW223928   0.884   4.435   4.787  0.6445  0.6970 -0.3167
 4099SOL     OW23929   0.359   3.981   5.429 -0.2546 -0.0130 -0.1643
 4099SOL    HW123930   0.264   3.993   5.427 -0.2608  0.1835  1.6268
 4099SOL    HW223931   0.361   3.886   5.422 -1.6520  0.0163 -0.8999
 4100SOL     OW23932   1.948   1.892   5.088  0.2594 -0.4625  0.5312
 4100SOL    HW123933   1.941   1.813   5.142  0.4023 -2.2206 -1.9775
 4100SOL    HW223934   1.999   1.955   5.138  0.4235 -1.0318  1.0847
 4101SOL     OW23935   3.740   2.175  12.584  0.1749  0.0966  0.0955
 4101SOL    HW123936   3.778   2.126  12.511 -0.0805 -0.3716  0.2780
 4101SOL    HW223937   3.649   2.173  12.555  0.4026 -1.0687 -0.5047
 4102SOL     OW23938   2.339   3.980   8.863  0.2153  0.1155 -0.0394
 4102SOL    HW123939   2.340   4.062   8.813 -0.9228 -0.8505 -1.6541
 4102SOL    HW223940   2.431   3.959   8.882  0.0285  0.1964  0.9654
 4103SOL     OW23941   4.421   2.694   5.466  0.2167  0.3277 -0.3457
 4103SOL    HW123942   4.329   2.708   5.441  0.5263  0.7499 -1.2773
 4103SOL    HW223943   4.422   2.599   5.478  0.3102  0.2038 -1.2639
 4104SOL     OW23944   0.725   4.194   8.871  0.2790  0.0338 -0.0834
 4104SOL    HW123945   0.794   4.127   8.870 -1.2408 -1.4288 -3.5300
 4104SOL    HW223946   0.661   4.173   8.939 -0.8398 -1.6553 -1.6561
 4105SOL     OW23947   2.751   2.938   4.918  0.0648  0.1751 -0.0188
 4105SOL    HW123948   2.804   2.964   4.842  2.0783  0.4963  1.4978
 4105SOL    HW223949   2.799   2.967   4.996 -0.9432  0.3884  0.5112
 4106SOL     OW23950   0.250   0.886  16.796  0.3305 -0.1379  0.2628
 4106SOL    HW123951   0.326   0.829  16.780  1.4905  1.1956  1.0378
 4106SOL    HW223952   0.216   0.890  16.706 -1.3357 -0.8599  0.8742
 4107SOL     OW23953   2.944   0.904  11.363  0.0593 -0.1119 -0.3009
 4107SOL    HW123954   2.873   0.966  11.345  1.9591  1.8031 -1.1443
 4107SOL    HW223955   3.016   0.956  11.328  0.9678 -0.6111  0.8460
 4108SOL     OW23956   0.922   2.760   9.463  0.4107 -0.7604 -0.6883
 4108SOL    HW123957   0.985   2.714   9.519  2.2708 -0.2408 -2.3582
 4108SOL    HW223958   0.880   2.810   9.533  0.5309 -1.3694 -0.1772
 4109SOL     OW23959   0.701   4.280   9.636 -0.4105  0.4437 -0.0288
 4109SOL    HW123960   0.642   4.217   9.676  0.0202 -0.0141 -0.1288
 4109SOL    HW223961   0.775   4.272   9.695 -0.9878  0.3636  0.6861
 4110SOL     OW23962   1.747   3.845  17.603 -0.0205  0.1010  0.3895
 4110SOL    HW123963   1.695   3.883  17.532  0.7073 -0.8481 -0.6416
 4110SOL    HW223964   1.751   3.923  17.659  1.2454 -0.9961  1.8014
 4111SOL     OW23965   1.797   2.705  13.660  0.2684 -0.0542 -0.8602
 4111SOL    HW123966   1.811   2.632  13.600  1.0874 -0.8025  0.2541
 4111SOL    HW223967   1.702   2.694  13.671  0.3284 -0.2249 -0.4943
 4112SOL     OW23968   1.074   0.343   5.644  0.2965  0.0294  0.2092
 4112SOL    HW123969   0.995   0.388   5.674 -0.0165  0.5634 -1.3901
 4112SOL    HW223970   1.055   0.253   5.671  1.5037  0.4196  2.3512
 4113SOL     OW23971   0.368   0.457   9.379 -0.5765  0.2381  0.5359
 4113SOL    HW123972   0.350   0.503   9.460 -0.3832  0.6976  0.3144
 4113SOL    HW223973   0.410   0.373   9.399  2.2210  1.6596  0.4830
 4114SOL     OW23974   4.002   1.182   0.164  0.0368  0.2777  0.5798
 4114SOL    HW123975   4.016   1.271   0.194 -0.2100  1.0010 -1.4603
 4114SOL    HW223976   3.925   1.185   0.107  1.0735  1.2666 -0.7747
 4115SOL     OW23977   3.956   3.531   6.721 -0.3204  0.3668 -0.3214
 4115SOL    HW123978   3.979   3.491   6.637  2.1418  0.1321  0.4665
 4115SOL    HW223979   4.044   3.543   6.756  0.4761 -1.2005 -1.7826
 4116SOL     OW23980   1.983   3.262   7.533 -0.2007 -0.2414  0.4908
 4116SOL    HW123981   2.041   3.193   7.502 -3.5939 -1.9990 -1.9578
 4116SOL    HW223982   2.042   3.331   7.563  0.9891 -1.0124 -0.0611
 4117SOL     OW23983   0.872   2.590   8.726  0.3235 -0.5114  0.3736
 4117SOL    HW123984   0.840   2.612   8.638 -1.8483  1.2902  1.6151
 4117SOL    HW223985   0.967   2.583   8.714  0.1743 -1.0362 -0.5081
 4118SOL     OW23986   3.974   3.208   8.583  0.3039 -0.2610 -0.2393
 4118SOL    HW123987   3.984   3.283   8.642  0.7506 -0.7825  0.3519
 4118SOL    HW223988   3.929   3.247   8.508  0.4629  2.9962  1.3483
 4119SOL     OW23989   1.990   3.696   5.919  0.8158  0.5926 -0.2500
 4119SOL    HW123990   2.024   3.770   5.867  0.3172  1.3923  0.5581
 4119SOL    HW223991   1.902   3.732   5.929  0.0600 -1.3430 -0.0641
 4120SOL     OW23992   0.629   3.154   2.835 -0.2818 -0.5073 -0.1227
 4120SOL    HW123993   0.589   3.135   2.750 -2.9708 -0.5891  1.1631
 4120SOL    HW223994   0.663   3.067   2.858  2.4369  0.5999 -0.0063
 4121SOL     OW23995   3.595   1.545  10.114 -0.4705 -0.2283 -0.0759
 4121SOL    HW123996   3.583   1.504  10.200 -0.3909  1.6738  0.8376
 4121SOL    HW223997   3.681   1.584  10.129 -0.3453 -1.0512  1.3303
 4122SOL     OW23998   0.138   0.276  17.474 -0.5930  0.4451 -0.1776
 4122SOL    HW123999   0.133   0.325  17.556 -1.0941 -0.1413  0.1430
 4122SOL    HW224000   0.161   0.340  17.407 -0.4604  0.6124  0.0305
 4123SOL     OW24001   1.795   2.599  10.865  0.4707  0.3921  0.2551
 4123SOL    HW124002   1.829   2.564  10.782 -0.5410  1.5436 -0.6370
 4123SOL    HW224003   1.742   2.667  10.824 -1.5002  0.1548  2.4080
 4124SOL     OW24004   0.984   0.686   7.719 -0.3744 -0.0778  1.0208
 4124SOL    HW124005   0.991   0.661   7.627 -1.5881 -0.7776  1.1047
 4124SOL    HW224006   0.893   0.658   7.732 -0.6511  0.4268  0.1574
 4125SOL     OW24007   0.048   1.322   7.814 -0.1404  0.7488  0.2225
 4125SOL    HW124008   0.122   1.326   7.753 -0.6193  0.5180 -0.3647
 4125SOL    HW224009   0.052   1.229   7.833  1.0606  1.1171  1.8727
 4126SOL     OW24010   1.874   3.351   4.673  0.4268 -0.3964  0.1038
 4126SOL    HW124011   1.903   3.363   4.763  2.1739 -0.2250 -0.4778
 4126SOL    HW224012   1.806   3.285   4.686 -0.0585 -0.2482 -1.6282
 4127SOL     OW24013   3.079   2.335   4.456  0.9166  0.7816 -0.0141
 4127SOL    HW124014   3.082   2.372   4.544  0.0260  2.3134 -0.6245
 4127SOL    HW224015   3.092   2.415   4.405  1.2102  1.2324  0.7524
 4128SOL     OW24016   0.899   1.843   7.996 -0.5244  0.1410  0.2624
 4128SOL    HW124017   0.881   1.869   8.086 -0.0971  1.9915 -0.1963
 4128SOL    HW224018   0.991   1.820   8.007  0.0225  1.1410 -2.1375
 4129SOL     OW24019   2.804   4.602   5.669  0.2156  0.0366 -0.1314
 4129SOL    HW124020   2.787   4.541   5.597  1.6677 -0.5884  0.0505
 4129SOL    HW224021   2.897   4.621   5.654  0.4898 -2.6191 -1.9837
 4130SOL     OW24022   0.201   0.398  16.292  0.0126  0.2957  0.4588
 4130SOL    HW124023   0.164   0.333  16.232 -1.4345  0.4085  1.2152
 4130SOL    HW224024   0.233   0.453  16.221 -0.2935 -1.2441 -0.8902
 4131SOL     OW24025   3.689   2.027   8.448 -0.0448 -0.3288 -0.2929
 4131SOL    HW124026   3.723   2.117   8.452  0.6407 -0.6283  0.5627
 4131SOL    HW224027   3.767   1.983   8.480  0.0999 -0.0574 -0.2695
 4132SOL     OW24028   0.166   2.535  13.906  0.3691 -0.6161 -0.0553
 4132SOL    HW124029   0.219   2.531  13.986  1.8828  1.4232 -0.9729
 4132SOL    HW224030   0.163   2.442  13.883 -2.3933 -1.3296  3.0836
 4133SOL     OW24031   0.414   1.694   5.569 -0.1473  0.2061  0.3589
 4133SOL    HW124032   0.432   1.632   5.640  2.0538  0.6521  0.2002
 4133SOL    HW224033   0.319   1.680   5.565  0.1792 -0.6288 -3.9587
 4134SOL     OW24034   1.898   1.828   9.215  0.3440 -0.0933  0.0482
 4134SOL    HW124035   1.873   1.857   9.127  2.8324  0.9437 -0.3105
 4134SOL    HW224036   1.974   1.880   9.240  1.7981 -2.4203  0.5487
 4135SOL     OW24037   1.563   1.762  13.284 -0.0934  0.6123 -0.0341
 4135SOL    HW124038   1.628   1.735  13.349 -4.2711 -2.1884  2.9087
 4135SOL    HW224039   1.483   1.792  13.326 -0.2633  1.0014 -0.6353
 4136SOL     OW24040   3.312   2.628   1.995  0.0260  0.1787 -0.3265
 4136SOL    HW124041   3.299   2.636   1.900 -0.3882  1.8375 -0.1283
 4136SOL    HW224042   3.257   2.553   2.019 -0.7834  0.4034 -1.4812
 4137SOL     OW24043   2.457   1.156  17.282 -0.1651 -0.0335 -0.1323
 4137SOL    HW124044   2.375   1.198  17.255  0.8309  0.7589 -1.9277
 4137SOL    HW224045   2.503   1.223  17.334  0.0659 -0.1910 -0.1328
 4138SOL     OW24046   3.464   1.188   3.314 -0.0880  0.3238 -0.7435
 4138SOL    HW124047   3.541   1.223   3.358 -0.5943 -0.8409  1.0788
 4138SOL    HW224048   3.457   1.252   3.243  0.2024  2.4171  1.1200
 4139SOL     OW24049   0.140   4.189   9.426 -0.7772 -0.5748  0.3251
 4139SOL    HW124050   0.158   4.247   9.501 -1.1755 -1.7175  1.3026
 4139SOL    HW224051   0.226   4.167   9.389 -1.4645  1.1892 -2.3087
 4140SOL     OW24052   2.166   3.942   1.203 -0.0758 -0.8822 -0.5291
 4140SOL    HW124053   2.168   3.951   1.299  0.9798  0.6981 -0.6991
 4140SOL    HW224054   2.073   3.926   1.187 -0.1610  2.0613 -2.9298
 4141SOL     OW24055   2.728   2.830   1.737  0.1873  0.5645 -0.4201
 4141SOL    HW124056   2.763   2.795   1.655 -1.4045 -0.4103 -0.6855
 4141SOL    HW224057   2.805   2.834   1.793  0.8963  2.4852 -1.4995
 4142SOL     OW24058   2.920   3.619   3.171  0.4216 -0.2014 -0.1350
 4142SOL    HW124059   2.946   3.635   3.081 -0.6617 -0.6258 -0.5198
 4142SOL    HW224060   2.831   3.652   3.159  0.3302  0.2833  1.8873
 4143SOL     OW24061   0.863   0.391   3.110 -0.0977  0.3267  0.5385
 4143SOL    HW124062   0.895   0.365   3.196  0.0705  1.1515  0.7236
 4143SOL    HW224063   0.812   0.312   3.094 -0.0752  0.7432 -1.6484
 4144SOL     OW24064   2.919   0.769   3.557  0.1629  0.6324  0.5761
 4144SOL    HW124065   2.999   0.769   3.610 -0.0543  2.4374  0.9150
 4144SOL    HW224066   2.930   0.854   3.514 -1.1076 -0.1648 -1.3055
 4145SOL     OW24067   4.283   3.488   7.668  0.0104  0.2662 -0.1035
 4145SOL    HW124068   4.315   3.553   7.606  1.3465 -1.4883 -1.2497
 4145SOL    HW224069   4.188   3.476   7.660  0.3221 -0.6495 -2.4312
 4146SOL     OW24070   1.427   1.745   9.127  0.2224 -0.2979  0.1423
 4146SOL    HW124071   1.519   1.733   9.151  0.0584 -0.5268  0.6449
 4146SOL    HW224072   1.384   1.668   9.163 -1.7332 -0.2829 -2.1196
 4147SOL     OW24073   2.483   1.141   3.980  0.2770  0.0707  0.0862
 4147SOL    HW124074   2.525   1.163   4.063 -1.0047 -1.2771  1.0936
 4147SOL    HW224075   2.516   1.053   3.961 -0.3392 -0.1385 -0.0341
 4148SOL     OW24076   1.010   1.298   2.032  0.0039  0.0803 -0.2369
 4148SOL    HW124077   1.014   1.206   2.056  0.9274 -0.4154 -2.2979
 4148SOL    HW224078   1.089   1.327   2.078  1.0924 -0.4479 -1.7585
 4149SOL     OW24079   2.746   1.476   0.737 -0.0353 -0.4743 -0.0379
 4149SOL    HW124080   2.683   1.539   0.702  1.0189 -0.4610 -1.9470
 4149SOL    HW224081   2.832   1.506   0.706 -0.5814  0.2242 -0.8549
 4150SOL     OW24082   3.949   4.713  13.933 -0.3488 -0.0908 -0.0884
 4150SOL    HW124083   3.962   4.675  14.020 -0.4339 -0.8789 -0.4199
 4150SOL    HW224084   3.998   0.055  13.943 -0.3758  0.1368 -1.8223
 4151SOL     OW24085   0.909   3.388   4.638 -0.1596 -0.2910  0.1162
 4151SOL    HW124086   0.938   3.473   4.602 -0.6349  0.1938  0.8958
 4151SOL    HW224087   0.819   3.392   4.608 -0.4169  0.1145  0.9498
 4152SOL     OW24088   4.091   0.484   1.644 -0.1789 -0.3524  0.3851
 4152SOL    HW124089   4.001   0.457   1.625 -0.8932  2.3253 -0.1050
 4152SOL    HW224090   4.121   0.397   1.670  0.5597 -0.2800 -0.2213
 4153SOL     OW24091   1.556   2.173   2.984  0.3333  0.7563 -0.0354
 4153SOL    HW124092   1.464   2.156   2.964  0.4767  1.5860 -1.4129
 4153SOL    HW224093   1.606   2.127   2.917 -0.9189  2.2045 -1.9654
 4154SOL     OW24094   1.989   4.345   1.761 -1.1805  0.3169 -0.0282
 4154SOL    HW124095   2.023   4.256   1.775  0.0263  0.8576  0.4935
 4154SOL    HW224096   1.894   4.335   1.761 -1.0481 -1.0282  0.0257
 4155SOL     OW24097   3.690   4.723   1.678 -0.1978 -0.1748  0.2981
 4155SOL    HW124098   3.628   4.659   1.644  1.5905 -1.0600 -1.3279
 4155SOL    HW224099   3.768   4.669   1.666  0.1044  0.3460 -0.1167
 4156SOL     OW24100   3.247   3.274  16.713 -0.2794  0.4339  0.2960
 4156SOL    HW124101   3.210   3.293  16.626  1.0443 -1.3364 -0.6344
 4156SOL    HW224102   3.310   3.343  16.731 -0.2172  0.3984  0.2121
 4157SOL     OW24103   0.657   1.012   8.274  0.1143 -0.0830 -0.0582
 4157SOL    HW124104   0.681   0.965   8.194  2.4305  1.4016 -0.2304
 4157SOL    HW224105   0.685   0.950   8.341 -0.5430  0.5742  0.8332
 4158SOL     OW24106   4.291   2.469   7.050  0.0700  0.8517  0.1691
 4158SOL    HW124107   4.246   2.505   6.974  0.8045  1.0867 -0.1527
 4158SOL    HW224108   4.219   2.426   7.096  0.1384  0.6613  0.0986
 4159SOL     OW24109   3.461   1.714   8.141  0.1784  0.5413 -0.6076
 4159SOL    HW124110   3.435   1.806   8.137 -0.4966  0.5404  3.5664
 4159SOL    HW224111   3.378   1.676   8.109  0.3553 -0.4721  0.1243
 4160SOL     OW24112   1.791   0.138   8.115 -0.0762 -0.1816  0.4000
 4160SOL    HW124113   1.881   0.156   8.145  0.4408  1.4530 -2.0544
 4160SOL    HW224114   1.809   0.108   8.026 -1.1866 -1.4331  0.6068
 4161SOL     OW24115   1.818   4.293   7.173 -0.3380  0.0067  0.0968
 4161SOL    HW124116   1.757   4.234   7.128 -0.1700 -1.2214  1.4783
 4161SOL    HW224117   1.898   4.262   7.131 -0.5200 -0.2140 -0.0892
 4162SOL     OW24118   2.220   4.095  11.512  0.4254  0.4315 -0.1729
 4162SOL    HW124119   2.229   4.095  11.417  0.2870 -1.0595 -0.1886
 4162SOL    HW224120   2.129   4.124  11.518  0.2722  0.2990 -1.7616
 4163SOL     OW24121   4.633   4.154  13.827 -0.2886 -0.0304 -0.0160
 4163SOL    HW124122   4.666   4.231  13.874 -2.0086  0.4442  0.4248
 4163SOL    HW224123   4.701   4.152  13.759 -0.0676 -1.6232  0.2639
 4164SOL     OW24124   0.670   4.014   0.721  0.1301 -0.5238 -0.1515
 4164SOL    HW124125   0.759   4.048   0.734 -0.5901  0.0170  3.2922
 4164SOL    HW224126   0.611   4.082   0.754 -0.9753 -1.1248 -0.9004
 4165SOL     OW24127   0.462   2.080   6.151  0.4122  0.2784 -0.0244
 4165SOL    HW124128   0.454   2.118   6.064 -2.0876 -0.1777  0.0172
 4165SOL    HW224129   0.483   2.152   6.211 -1.9842 -0.0677  1.2109
 4166SOL     OW24130   4.162   4.036  15.408  0.2287  0.0843  0.0787
 4166SOL    HW124131   4.083   3.985  15.390 -0.0710  1.1862 -1.8129
 4166SOL    HW224132   4.209   4.015  15.328 -0.1074  0.1891 -0.1447
 4167SOL     OW24133   4.633   1.763  10.498 -0.0982 -0.6355 -0.0360
 4167SOL    HW124134   4.644   1.790  10.589  2.7163  0.3844 -0.6809
 4167SOL    HW224135   4.564   1.697  10.497 -1.8593  1.1975  1.4088
 4168SOL     OW24136   0.477   1.801  16.414  0.1509  0.0850  1.0225
 4168SOL    HW124137   0.528   1.811  16.334 -1.3028  2.6419  0.4143
 4168SOL    HW224138   0.414   1.869  16.393  0.5961  0.0151 -0.5745
 4169SOL     OW24139   4.484   3.474   5.478  0.1595  0.0047 -0.4783
 4169SOL    HW124140   4.530   3.550   5.443 -0.4176  0.4612 -0.2441
 4169SOL    HW224141   4.504   3.490   5.571  1.0088 -0.8204 -0.5245
 4170SOL     OW24142   2.496   2.708   1.850  0.1771 -0.1001  0.4588
 4170SOL    HW124143   2.580   2.718   1.806  0.4216  0.3592  1.0294
 4170SOL    HW224144   2.486   2.801   1.872  0.2457 -0.2574  1.1510
 4171SOL     OW24145   1.937   4.068   1.355  0.3647  0.1652  0.4036
 4171SOL    HW124146   1.871   4.090   1.420 -1.2040 -2.0142 -0.4711
 4171SOL    HW224147   2.011   4.070   1.416  1.4905 -0.5351 -0.9400
 4172SOL     OW24148   4.591   4.058   9.963 -0.4767 -0.5035  0.1566
 4172SOL    HW124149   4.680   4.028   9.983  0.2624 -0.0298 -2.4395
 4172SOL    HW224150   4.597   4.053   9.868 -1.0428 -3.5364  0.2810
 4173SOL     OW24151   3.800   0.585   3.698  0.4164  0.7847 -0.2006
 4173SOL    HW124152   3.848   0.628   3.768 -0.6096  1.0551  0.3205
 4173SOL    HW224153   3.724   0.551   3.745  1.3209  0.0716  0.7691
 4174SOL     OW24154   2.788   2.708   5.223  0.3148 -0.2767  0.0248
 4174SOL    HW124155   2.745   2.625   5.242  1.7973 -0.9245  0.5602
 4174SOL    HW224156   2.848   2.678   5.154  2.0232  1.5735  0.7114
 4175SOL     OW24157   4.596   2.481   7.990  0.3689 -0.3123  0.1725
 4175SOL    HW124158   4.529   2.413   7.990  1.0548 -0.9985 -4.2832
 4175SOL    HW224159   4.580   2.517   8.078 -2.3276 -0.6562 -0.1700
 4176SOL     OW24160   3.243   2.264   3.787 -0.3177 -0.2312 -0.1583
 4176SOL    HW124161   3.162   2.212   3.781  0.2217 -1.0300 -0.4889
 4176SOL    HW224162   3.209   2.351   3.767 -0.8364 -1.0155 -2.6592
 4177SOL     OW24163   4.265   3.379   2.053 -0.6183  0.1790  0.4453
 4177SOL    HW124164   4.213   3.345   1.980 -1.4319  3.1217 -0.3445
 4177SOL    HW224165   4.252   3.313   2.122 -1.9266  0.8379  0.8224
 4178SOL     OW24166   0.235   2.507  16.943 -0.0833  0.6913 -0.0721
 4178SOL    HW124167   0.220   2.425  16.896 -1.2194 -0.2936  2.0367
 4178SOL    HW224168   0.152   2.550  16.925  0.1516  0.5734 -1.4546
 4179SOL     OW24169   2.291   2.153   5.600 -0.2843  0.1839 -0.1254
 4179SOL    HW124170   2.371   2.151   5.652 -1.5323  1.6064  1.8384
 4179SOL    HW224171   2.216   2.183   5.651  0.3135  2.3131 -0.4984
 4180SOL     OW24172   2.913   3.544   9.640  0.9044  1.1047  0.3192
 4180SOL    HW124173   2.855   3.618   9.622  0.0347  0.7323  1.6056
 4180SOL    HW224174   2.890   3.507   9.725  0.5448 -0.4540 -0.4661
 4181SOL     OW24175   0.413   0.752   6.907  0.0010 -0.3816 -0.2299
 4181SOL    HW124176   0.439   0.808   6.980 -3.7085 -0.8212  1.4410
 4181SOL    HW224177   0.452   0.780   6.824 -1.4477 -1.4211 -1.2691
 4182SOL     OW24178   1.817   1.999  16.775 -0.0037  0.6858  0.4506
 4182SOL    HW124179   1.731   2.019  16.737  0.5794 -0.5958 -1.5402
 4182SOL    HW224180   1.815   1.904  16.771 -1.4640  0.7685 -1.0292
 4183SOL     OW24181   3.501   4.434   8.745 -0.1455 -0.1343 -0.1505
 4183SOL    HW124182   3.558   4.493   8.792  0.2537  0.3043 -1.1788
 4183SOL    HW224183   3.470   4.374   8.813 -2.1555 -0.6233 -1.4897
 4184SOL     OW24184   1.402   2.664   2.158 -0.7252  0.8706  0.2853
 4184SOL    HW124185   1.397   2.570   2.179 -0.3779  1.1197  1.4690
 4184SOL    HW224186   1.308   2.683   2.156 -0.3982  2.7347  3.6716
 4185SOL     OW24187   3.455   2.556   5.806  0.6661  0.3049  0.6797
 4185SOL    HW124188   3.534   2.590   5.764 -0.7818 -1.1290 -3.2802
 4185SOL    HW224189   3.450   2.608   5.886 -1.3267 -0.2594  0.9281
 4186SOL     OW24190   1.475   3.511  14.276  0.0870  0.0265  0.1147
 4186SOL    HW124191   1.526   3.561  14.340 -0.3784  0.1590  0.3789
 4186SOL    HW224192   1.543   3.456  14.238 -0.5190  0.0964 -1.0628
 4187SOL     OW24193   4.197   3.714   3.070  0.3457  0.2282 -0.0302
 4187SOL    HW124194   4.200   3.809   3.083  1.4613  0.0731  0.8482
 4187SOL    HW224195   4.159   3.706   2.983  0.7023 -1.1033 -0.0507
 4188SOL     OW24196   3.461   4.548   1.361 -0.1986 -0.4556  0.0376
 4188SOL    HW124197   3.444   4.579   1.450 -3.0002 -0.8082 -0.3886
 4188SOL    HW224198   3.427   4.626   1.317  1.9832 -0.1491 -1.0881
 4189SOL     OW24199   0.228   2.714   2.107 -0.3493 -0.1846  0.0624
 4189SOL    HW124200   0.195   2.629   2.135  3.1474 -1.5435  0.0384
 4189SOL    HW224201   0.152   2.750   2.062  0.7980  0.3411 -1.4876
 4190SOL     OW24202   0.338   2.508   2.716 -0.5290  0.6825 -0.1679
 4190SOL    HW124203   0.372   2.517   2.627  0.1206  1.1534  0.1300
 4190SOL    HW224204   0.319   2.600   2.735  1.0499  0.3690  3.0480
 4191SOL     OW24205   2.059   0.158   8.166 -0.4739  0.6596 -0.1277
 4191SOL    HW124206   2.134   0.101   8.151 -0.0409  0.9544  0.8652
 4191SOL    HW224207   2.090   0.241   8.129 -0.1228  0.2745 -0.6927
 4192SOL     OW24208   2.968   2.728   4.087 -0.0189  0.1348 -0.9647
 4192SOL    HW124209   3.020   2.772   4.154 -0.8418  0.7076 -0.6998
 4192SOL    HW224210   3.041   2.702   4.030  0.9874 -0.1033  0.4380
 4193SOL     OW24211   3.509   2.407   6.398  0.2956 -0.2421  0.4105
 4193SOL    HW124212   3.517   2.479   6.461 -1.1278 -0.7484  1.1493
 4193SOL    HW224213   3.601   2.382   6.396  0.7649  1.5149 -0.8637
 4194SOL     OW24214   1.900   1.219   1.448  0.3402  0.4116  0.3054
 4194SOL    HW124215   1.849   1.218   1.529  0.0922 -1.7157  0.1316
 4194SOL    HW224216   1.944   1.304   1.453  0.1861  0.6671 -2.2943
 4195SOL     OW24217   0.620   2.789   5.460 -0.2060  0.2398  0.1832
 4195SOL    HW124218   0.558   2.750   5.521  2.9814 -2.1777  1.9254
 4195SOL    HW224219   0.640   2.870   5.507 -0.9882  0.6553 -0.2052
 4196SOL     OW24220   1.989   1.647   7.799 -0.6218  0.6103  0.0748
 4196SOL    HW124221   2.047   1.708   7.754  0.0208 -0.2358 -0.2406
 4196SOL    HW224222   2.051   1.603   7.858 -0.9740 -0.5231 -0.4068
 4197SOL     OW24223   1.119   2.876   3.520  0.6382  0.0061  0.5316
 4197SOL    HW124224   1.201   2.919   3.493  0.3075  0.7203  0.6746
 4197SOL    HW224225   1.047   2.934   3.496  1.4938  0.7407 -0.2942
 4198SOL     OW24226   1.870   2.244  10.555  0.1335  0.3692  0.4153
 4198SOL    HW124227   1.815   2.191  10.613  1.1688  0.6315  1.6420
 4198SOL    HW224228   1.927   2.285  10.621  0.3800  0.7217 -0.0177
 4199SOL     OW24229   1.624   4.018  17.436 -0.0294  0.3041  0.6250
 4199SOL    HW124230   1.638   4.072  17.358 -0.6009  1.2468  1.1751
 4199SOL    HW224231   1.533   3.988  17.427  0.5361 -1.2229 -0.0095
 4200SOL     OW24232   3.762   4.579   0.662 -0.1785 -0.3321 -0.1181
 4200SOL    HW124233   3.843   4.549   0.620  0.8982  1.2050  0.8318
 4200SOL    HW224234   3.810   4.624   0.732 -0.1522 -0.2529 -0.1863
 4201SOL     OW24235   3.525   4.080   5.103  0.6180  0.9471  0.0155
 4201SOL    HW124236   3.491   4.021   5.171 -1.7048 -2.2304 -3.8734
 4201SOL    HW224237   3.462   4.069   5.032 -1.1632  0.6742  1.6289
 4202SOL     OW24238   3.647   2.606   4.847 -0.7241  0.4637 -0.2060
 4202SOL    HW124239   3.586   2.641   4.912  0.9174 -2.1174  2.6856
 4202SOL    HW224240   3.582   2.578   4.782  0.2888  0.0380 -1.0255
 4203SOL     OW24241   4.023   0.760   0.477  0.0184  0.2420  0.2840
 4203SOL    HW124242   4.115   0.772   0.455 -0.5401 -1.0205 -2.6867
 4203SOL    HW224243   4.016   0.838   0.533 -2.1784  1.0417 -1.1058
 4204SOL     OW24244   0.357   4.407  17.579 -0.3106  0.3001 -0.0749
 4204SOL    HW124245   0.417   4.371  17.513  0.6887 -1.3037  1.7204
 4204SOL    HW224246   0.414   4.452  17.641  0.2828  1.7239 -1.6279
 4205SOL     OW24247   2.775   1.253  13.275 -0.6894 -0.1153 -0.3281
 4205SOL    HW124248   2.821   1.333  13.250 -1.0329  0.5231  1.1107
 4205SOL    HW224249   2.807   1.249  13.365  0.5180 -1.4550 -0.8063
 4206SOL     OW24250   2.003   4.101   7.035  0.1590  0.0662 -0.2345
 4206SOL    HW124251   1.912   4.073   7.020 -0.8639  2.4379  1.5963
 4206SOL    HW224252   2.048   4.016   7.041 -2.3426 -1.1965  0.7912
 4207SOL     OW24253   3.627   4.443   1.652  0.2827  0.0920  0.1490
 4207SOL    HW124254   3.689   4.372   1.671 -2.5428 -2.8206 -1.4661
 4207SOL    HW224255   3.550   4.399   1.617  0.7093 -0.5491  0.0148
 4208SOL     OW24256   3.561   3.067  11.816 -0.3172  0.5323 -0.6069
 4208SOL    HW124257   3.592   3.109  11.895  1.3799 -0.4342 -0.7514
 4208SOL    HW224258   3.477   3.045  11.857  0.7019 -0.2479  1.0463
 4209SOL     OW24259   0.605   1.474   3.866 -0.0933  0.5889 -0.0621
 4209SOL    HW124260   0.645   1.457   3.951 -0.1974  0.6236 -0.0055
 4209SOL    HW224261   0.619   1.569   3.866 -2.4195  0.9419  0.8066
 4210SOL     OW24262   1.185   3.363   8.950 -0.3083  0.8938  0.1311
 4210SOL    HW124263   1.237   3.340   8.873 -1.4283 -1.7620  0.1674
 4210SOL    HW224264   1.255   3.357   9.015 -1.5060 -0.8161  1.2793
 4211SOL     OW24265   2.582   1.571   4.901 -0.0739 -0.3703  0.4216
 4211SOL    HW124266   2.518   1.539   4.837 -0.4385  1.9544 -0.3674
 4211SOL    HW224267   2.615   1.653   4.864 -2.5223  0.9842  1.2066
 4212SOL     OW24268   2.694   2.868   5.953  0.7593 -0.1263 -0.3048
 4212SOL    HW124269   2.782   2.854   5.988  0.7159  1.4495  0.4299
 4212SOL    HW224270   2.658   2.781   5.969 -1.2165  0.7627  0.0560
 4213SOL     OW24271   3.358   4.618  12.559 -0.0143  0.0972  0.1170
 4213SOL    HW124272   3.364   4.618  12.655 -1.5967  2.5884  0.2094
 4213SOL    HW224273   3.351   4.523  12.552  1.3513 -0.1517  2.0367
 4214SOL     OW24274   3.989   4.478   0.568 -0.0218  0.1692  0.1649
 4214SOL    HW124275   4.073   4.524   0.558  0.8144 -1.4329 -0.2113
 4214SOL    HW224276   3.998   4.426   0.489 -2.7526 -1.5701  0.9939
 4215SOL     OW24277   4.239   4.434  17.280 -0.4351 -0.5292 -0.4270
 4215SOL    HW124278   4.302   4.411  17.213  0.2388 -1.5730  0.5554
 4215SOL    HW224279   4.219   4.345  17.310 -1.3825  0.4290  1.8286
 4216SOL     OW24280   3.295   3.129   9.199 -0.5472 -0.7361  0.0425
 4216SOL    HW124281   3.385   3.161   9.208 -0.9842  0.3825  0.4829
 4216SOL    HW224282   3.302   3.034   9.205 -0.5985 -0.8008 -0.9356
 4217SOL     OW24283   0.067   4.039   2.696  0.0611  0.5160  0.1681
 4217SOL    HW124284   0.035   3.949   2.689  1.9690 -0.2841  1.6149
 4217SOL    HW224285   0.027   4.075   2.617 -1.5419  1.6761  1.5182
 4218SOL     OW24286   0.573   1.133   2.966  0.5245 -0.2929 -0.3068
 4218SOL    HW124287   0.652   1.137   2.914  1.3487  1.8402  1.1196
 4218SOL    HW224288   0.601   1.082   3.042  0.5466  2.0945  1.2810
 4219SOL     OW24289   1.480   0.677   7.200 -0.0293 -0.1802 -0.3254
 4219SOL    HW124290   1.459   0.606   7.260 -0.1502  0.1889  0.0666
 4219SOL    HW224291   1.471   0.635   7.114 -0.3175 -0.9301  0.0700
 4220SOL     OW24292   1.016   3.830  14.164 -0.4604 -0.2836 -0.2106
 4220SOL    HW124293   0.921   3.830  14.173 -0.3482  1.0584  0.9375
 4220SOL    HW224294   1.014   3.848  14.070 -1.0200  1.1288  0.0795
 4221SOL     OW24295   1.108   0.687   4.363  0.2487 -0.0625  0.1115
 4221SOL    HW124296   1.031   0.642   4.398 -0.1088  0.1437 -0.4151
 4221SOL    HW224297   1.127   0.640   4.281  0.9289 -0.9965  0.8081
 4222SOL     OW24298   4.214   2.494   2.001 -0.0514  0.1970  0.3726
 4222SOL    HW124299   4.119   2.489   1.987 -0.3609 -0.4037  2.5569
 4222SOL    HW224300   4.207   2.495   2.097 -4.0908  1.6910  0.0714
 4223SOL     OW24301   1.965   0.977   8.751  0.3322  0.0383 -0.4683
 4223SOL    HW124302   1.975   1.041   8.680 -2.8091 -0.3361 -1.2565
 4223SOL    HW224303   2.012   0.899   8.723  0.9435  0.6773 -1.2281
 4224SOL     OW24304   4.381   1.101   8.344  0.4360 -0.2651 -0.4204
 4224SOL    HW124305   4.322   1.057   8.283 -2.1186  2.1666  0.2914
 4224SOL    HW224306   4.441   1.135   8.278 -2.2982  0.3245 -2.6109
 4225SOL     OW24307   1.845   4.396   4.921  0.0954  0.8367  0.3674
 4225SOL    HW124308   1.844   4.300   4.928 -0.5422  0.9259  1.4811
 4225SOL    HW224309   1.915   4.410   4.858  1.0687  0.9389  1.4881
 4226SOL     OW24310   1.438   1.743   2.197 -0.7836  0.3209  0.1301
 4226SOL    HW124311   1.419   1.818   2.141  2.5258  0.6325 -0.5367
 4226SOL    HW224312   1.396   1.672   2.147 -0.1156  0.0758 -0.0795
 4227SOL     OW24313   1.948   0.242   2.539 -0.3712 -0.1612 -0.1310
 4227SOL    HW124314   2.028   0.287   2.564 -0.0844  0.6024 -2.4093
 4227SOL    HW224315   1.990   0.166   2.499 -0.0810  0.7680 -1.5782
 4228SOL     OW24316   0.394   3.398   5.893 -0.0628 -0.4157 -0.4038
 4228SOL    HW124317   0.368   3.311   5.864 -1.8008  0.6625 -2.0706
 4228SOL    HW224318   0.312   3.434   5.926  0.7259  1.3123 -0.3273
 4229SOL     OW24319   1.053   2.688   6.669 -0.8399 -0.5831  0.0995
 4229SOL    HW124320   1.096   2.669   6.586  0.2282  0.3387  0.4456
 4229SOL    HW224321   1.105   2.764   6.696  0.4628 -1.4683  0.0900
 4230SOL     OW24322   0.087   0.456   9.303 -0.1351 -0.6932  0.8191
 4230SOL    HW124323   0.171   0.476   9.343  0.4658  0.2484 -0.9332
 4230SOL    HW224324   0.093   0.362   9.317  0.1032 -0.8725 -0.4802
 4231SOL     OW24325   0.974   0.441   4.409 -0.5008 -0.2760 -0.3427
 4231SOL    HW124326   0.879   0.453   4.410 -0.4242  0.3711 -0.7167
 4231SOL    HW224327   0.988   0.403   4.496  0.5143  0.2737 -0.2618
 4232SOL     OW24328   2.822   0.525   2.488 -0.3095 -0.0787 -0.1207
 4232SOL    HW124329   2.907   0.526   2.532 -1.4503 -0.9836  2.1085
 4232SOL    HW224330   2.761   0.527   2.562 -1.4504 -0.0612 -1.0625
 4233SOL     OW24331   1.576   3.740  15.680  0.1014  0.2858  0.1651
 4233SOL    HW124332   1.625   3.821  15.665 -0.5947  0.5114 -0.9565
 4233SOL    HW224333   1.596   3.698  15.596 -0.7410 -1.8704  1.0514
 4234SOL     OW24334   0.286   3.466   1.373 -0.4625 -0.1437 -0.3827
 4234SOL    HW124335   0.323   3.553   1.390 -1.5625  0.2783 -0.1156
 4234SOL    HW224336   0.306   3.414   1.451  1.6285  0.6580 -0.3747
 4235SOL     OW24337   3.642   2.109   7.954  0.0256  0.2697 -0.3958
 4235SOL    HW124338   3.699   2.053   8.007  1.2205  2.6893  0.8722
 4235SOL    HW224339   3.581   2.141   8.020 -0.1650 -0.6958 -0.1031
 4236SOL     OW24340   0.362   0.783   7.602  0.0390  0.2404  1.0093
 4236SOL    HW124341   0.426   0.806   7.534  0.0592 -0.7047  0.7048
 4236SOL    HW224342   0.297   0.727   7.561  1.3611  0.7715 -1.8166
 4237SOL     OW24343   2.753   2.874   0.948 -0.5238  0.2542  0.2870
 4237SOL    HW124344   2.793   2.878   0.862  0.8077 -3.0224  0.7402
 4237SOL    HW224345   2.663   2.846   0.928 -0.4764  1.1635 -1.1843
 4238SOL     OW24346   0.187   0.319   3.327  0.0489 -0.2304 -0.0997
 4238SOL    HW124347   0.224   0.255   3.388 -0.3842 -0.3092  0.0845
 4238SOL    HW224348   0.264   0.370   3.302 -1.3761  1.6766 -0.5178
 4239SOL     OW24349   3.751   3.270   7.084 -0.2022  0.2397  0.1849
 4239SOL    HW124350   3.800   3.198   7.043 -0.0030  1.5790 -1.9272
 4239SOL    HW224351   3.725   3.326   7.011  0.3201 -0.0785 -0.2489
 4240SOL     OW24352   0.920   4.062   8.278 -0.1381  0.1916  0.2020
 4240SOL    HW124353   0.996   4.099   8.232  0.8121 -0.0697  1.5563
 4240SOL    HW224354   0.877   4.144   8.302 -1.6684 -0.5015 -0.2142
 4241SOL     OW24355   4.511   2.222   3.743  0.5257  0.0033  0.4467
 4241SOL    HW124356   4.542   2.232   3.653 -0.0207  0.4728  0.3121
 4241SOL    HW224357   4.442   2.289   3.743  0.4465 -0.0684  1.7098
 4242SOL     OW24358   0.035   2.620  10.422 -0.4073  0.1754 -0.3583
 4242SOL    HW124359   0.070   2.639  10.335  0.6699 -1.8774 -0.3746
 4242SOL    HW224360   0.043   2.705  10.465  1.8109 -0.8229  1.1996
 4243SOL     OW24361   2.802   4.347   5.500 -0.3829  0.3791 -0.1213
 4243SOL    HW124362   2.746   4.329   5.424  0.8715  1.3952 -1.2969
 4243SOL    HW224363   2.862   4.412   5.465  1.2381 -0.6378  0.7746
 4244SOL     OW24364   1.715   1.053   8.285  0.0577  0.2687 -0.3027
 4244SOL    HW124365   1.802   1.021   8.259  0.3989  0.6070  0.4375
 4244SOL    HW224366   1.695   1.008   8.367 -1.6170 -0.9135 -1.3411
 4245SOL     OW24367   2.767   2.104   4.676  0.7934 -0.2711 -0.2734
 4245SOL    HW124368   2.672   2.110   4.663  1.0429  0.7775 -1.5168
 4245SOL    HW224369   2.778   2.176   4.739  1.2871 -0.2086 -0.4329
 4246SOL     OW24370   3.290   1.388  10.161 -0.1951 -0.4215  0.0269
 4246SOL    HW124371   3.358   1.422  10.219 -1.2511 -0.1611  1.1135
 4246SOL    HW224372   3.310   1.295  10.154  0.1632 -0.0793 -3.4680
 4247SOL     OW24373   0.985   4.222   8.588 -0.2207  0.0385  0.0268
 4247SOL    HW124374   1.079   4.227   8.605  0.3597 -1.0510 -2.8893
 4247SOL    HW224375   0.945   4.264   8.664  0.3020 -4.2297  2.6998
 4248SOL     OW24376   1.604   0.290   6.045 -0.0484  0.1686 -0.2460
 4248SOL    HW124377   1.610   0.217   6.107  0.5983  0.8613  0.5103
 4248SOL    HW224378   1.526   0.258   6.001 -0.1204  1.7678 -1.2717
 4249SOL     OW24379   2.112   4.089   3.346  0.1615 -0.4493 -0.3320
 4249SOL    HW124380   2.151   4.074   3.432 -1.6348  0.0663  0.5703
 4249SOL    HW224381   2.026   4.053   3.371  0.2415 -0.0676  0.4866
 4250SOL     OW24382   4.242   1.056   7.391  0.1356  0.0226  0.1979
 4250SOL    HW124383   4.260   1.012   7.474  0.6321 -0.2032 -0.0322
 4250SOL    HW224384   4.174   1.119   7.415  0.0254  0.1470 -0.4583
 4251SOL     OW24385   2.229   3.035  17.597 -0.0499 -0.4212 -0.1192
 4251SOL    HW124386   2.257   3.008  17.684  2.1545  0.5573 -0.5356
 4251SOL    HW224387   2.312   3.050  17.551 -1.4230  1.3589 -2.0489
 4252SOL     OW24388   0.263   4.676  10.555  0.4537 -0.2712 -0.2817
 4252SOL    HW124389   0.194   4.632  10.505 -0.5478  0.4142  0.4917
 4252SOL    HW224390   0.275   0.014  10.499  2.1756 -1.9715 -2.2287
 4253SOL     OW24391   3.296   0.067  10.391 -0.3495 -0.1782 -0.6090
 4253SOL    HW124392   3.384   0.072  10.428  0.1093 -1.2270 -1.5260
 4253SOL    HW224393   3.254   0.135  10.443 -0.7715 -1.3651  0.6058
 4254SOL     OW24394   4.208   1.023  14.826 -0.0392  0.1522  0.4481
 4254SOL    HW124395   4.201   0.928  14.836  0.4289  0.0677 -0.0209
 4254SOL    HW224396   4.227   1.032  14.733 -0.4289 -1.9699  0.1640
 4255SOL     OW24397   3.913   4.216   0.079  0.2556  0.7100  0.0087
 4255SOL    HW124398   3.939   4.155   0.010  1.0788 -0.8169  1.7029
 4255SOL    HW224399   3.881   4.289   0.025  0.2028 -0.3078 -1.3318
 4256SOL     OW24400   1.319   4.549   8.790 -0.3693 -0.4623  0.0993
 4256SOL    HW124401   1.383   4.599   8.740 -1.3546  0.9639  0.2800
 4256SOL    HW224402   1.372   4.540   8.869 -2.0999  1.8839  1.5274
 4257SOL     OW24403   0.797   0.368  15.200 -0.8540  0.3491  0.3869
 4257SOL    HW124404   0.727   0.380  15.137  0.1898  0.4989 -0.7377
 4257SOL    HW224405   0.817   0.460  15.221  1.4479  0.0527 -0.4885
 4258SOL     OW24406   2.638   2.073   8.637  0.0681 -0.0992  0.7955
 4258SOL    HW124407   2.570   2.121   8.685 -1.5903 -1.6674  0.0268
 4258SOL    HW224408   2.589   2.006   8.590 -1.0518  1.4847 -0.2974
 4259SOL     OW24409   1.713   3.616  12.130  0.1873 -0.0510  0.4299
 4259SOL    HW124410   1.690   3.640  12.041 -2.6907  0.5370  1.3312
 4259SOL    HW224411   1.651   3.546  12.152 -0.4458  1.3751  3.2166
 4260SOL     OW24412   1.124   2.419   4.312 -0.3599 -0.2930  0.2734
 4260SOL    HW124413   1.042   2.444   4.355 -1.0489  0.0900 -1.2436
 4260SOL    HW224414   1.156   2.503   4.280  1.3234  0.0942  2.9751
 4261SOL     OW24415   1.597   2.585   8.919  0.0508  0.1795  0.5016
 4261SOL    HW124416   1.678   2.540   8.942  0.9974 -0.1573 -3.3915
 4261SOL    HW224417   1.553   2.605   9.001 -0.8692 -3.8934  0.9836
 4262SOL     OW24418   0.171   0.832  15.695 -0.3340 -0.1612 -0.5528
 4262SOL    HW124419   0.098   0.859  15.641 -0.4873 -1.7700 -1.1329
 4262SOL    HW224420   0.213   0.768  15.638  0.2027  1.5283 -2.0645
 4263SOL     OW24421   1.265   3.592  10.086  0.2837 -0.9157  0.7735
 4263SOL    HW124422   1.347   3.598  10.136  0.3402 -1.2902  0.7258
 4263SOL    HW224423   1.247   3.499  10.089 -3.1600 -0.2765 -0.5542
 4264SOL     OW24424   1.242   4.113   6.164 -0.9093 -0.0676  0.1376
 4264SOL    HW124425   1.252   4.019   6.147 -1.7141 -0.2610  0.7461
 4264SOL    HW224426   1.219   4.133   6.073  0.7946 -1.4901 -0.6145
 4265SOL     OW24427   0.885   2.470   2.159 -0.1509 -0.2302 -0.1291
 4265SOL    HW124428   0.890   2.566   2.149  1.2964 -0.3660 -0.7764
 4265SOL    HW224429   0.796   2.457   2.190 -0.6577  1.6311 -0.7850
 4266SOL     OW24430   2.728   3.244   8.586  0.5551  0.6232  0.2563
 4266SOL    HW124431   2.713   3.219   8.495  2.1031  1.2034 -0.1662
 4266SOL    HW224432   2.817   3.212   8.600 -0.1388 -1.3073  0.1901
 4267SOL     OW24433   1.107   0.894   3.740  0.3944  0.2008  0.3548
 4267SOL    HW124434   1.183   0.837   3.727 -0.3801 -1.0322  1.1907
 4267SOL    HW224435   1.064   0.834   3.801 -0.5067 -1.0097 -1.4979
 4268SOL     OW24436   4.254   2.753   6.873 -0.1822  0.4352  0.2226
 4268SOL    HW124437   4.345   2.727   6.855 -0.2624  1.0283 -1.0971
 4268SOL    HW224438   4.205   2.672   6.886  3.7465 -2.0643 -0.4269
 4269SOL     OW24439   2.025   1.578   7.004  0.1018 -0.4098 -0.1844
 4269SOL    HW124440   1.996   1.622   6.925 -0.7991 -0.1767  0.2849
 4269SOL    HW224441   1.938   1.569   7.042  0.7966  1.5314  1.8568
 4270SOL     OW24442   0.753   2.649   7.658  0.0558 -0.8372 -0.0345
 4270SOL    HW124443   0.718   2.732   7.692 -0.5533 -0.7610 -0.8386
 4270SOL    HW224444   0.767   2.603   7.741 -1.4361  0.2793  0.8590
 4271SOL     OW24445   1.961   1.363  13.228  0.4520 -0.5776  0.4486
 4271SOL    HW124446   1.957   1.455  13.255  0.6869  1.0174 -4.8047
 4271SOL    HW224447   1.947   1.322  13.313 -2.4890  0.0605  0.2559
 4272SOL     OW24448   4.641   0.653   3.580 -0.3370 -0.0199 -0.1837
 4272SOL    HW124449   4.689   0.736   3.585 -2.0049  0.9141  0.3135
 4272SOL    HW224450   4.705   0.583   3.589  0.9293  1.0723 -0.6701
 4273SOL     OW24451   0.880   3.769   0.906 -0.0258  0.0727 -0.0042
 4273SOL    HW124452   0.844   3.692   0.863 -0.8361  0.1265  0.5948
 4273SOL    HW224453   0.839   3.842   0.859  1.8657  0.4053 -1.1473
 4274SOL     OW24454   4.290   4.687   1.419  0.5732  0.3071 -0.6193
 4274SOL    HW124455   4.240   4.623   1.468  0.2702  1.8397  1.0804
 4274SOL    HW224456   4.337   4.632   1.356 -1.0989 -0.3985 -1.2270
 4275SOL     OW24457   3.910   4.049   4.111  1.2833  0.2119 -0.7204
 4275SOL    HW124458   3.958   4.124   4.145 -1.6027  0.9437  1.7205
 4275SOL    HW224459   3.830   4.090   4.079  1.2649  1.3786  0.8598
 4276SOL     OW24460   2.441   0.520  12.147  0.1209 -0.2833  0.2102
 4276SOL    HW124461   2.378   0.464  12.194  2.9825 -1.8094  2.2798
 4276SOL    HW224462   2.498   0.449  12.115  0.1455  0.0744 -0.5380
 4277SOL     OW24463   1.139   2.257   5.550 -0.8075 -0.2277  0.1812
 4277SOL    HW124464   1.190   2.302   5.483 -1.3580 -1.1620 -0.8688
 4277SOL    HW224465   1.051   2.253   5.512 -0.7630  0.6703 -0.0013
 4278SOL     OW24466   1.665   3.851   4.587  0.1597 -0.5100 -0.2528
 4278SOL    HW124467   1.631   3.765   4.562  1.4435 -1.5336  1.4967
 4278SOL    HW224468   1.757   3.855   4.560  0.2634  2.5924  0.6019
 4279SOL     OW24469   2.323   0.389  10.567  0.2184 -0.0686  0.4907
 4279SOL    HW124470   2.306   0.303  10.605  1.1629  0.0507  1.1804
 4279SOL    HW224471   2.319   0.362  10.476 -1.7091  0.4285  0.4241
 4280SOL     OW24472   2.037   1.554   3.141 -0.4824 -0.3126 -0.1906
 4280SOL    HW124473   2.123   1.528   3.174 -0.0495  0.2020 -0.8945
 4280SOL    HW224474   1.980   1.491   3.185 -0.4016 -1.1572 -1.2779
 4281SOL     OW24475   1.513   4.246  12.992  0.5002 -0.1570 -0.5941
 4281SOL    HW124476   1.580   4.178  12.992  1.1282  0.4606  2.8993
 4281SOL    HW224477   1.463   4.247  12.911  0.4823  0.5847 -0.5746
 4282SOL     OW24478   4.022   3.295   3.598 -0.1196 -0.2814  0.4235
 4282SOL    HW124479   3.962   3.349   3.547 -0.3136 -0.1241  0.8161
 4282SOL    HW224480   4.070   3.371   3.632 -1.5305 -0.6057  3.1828
 4283SOL     OW24481   4.581   1.226  15.452  0.4821 -0.2761 -0.1111
 4283SOL    HW124482   4.503   1.271  15.486 -1.1304 -1.2372 -2.5033
 4283SOL    HW224483   4.652   1.266  15.502  0.5409 -0.5621  0.0288
 4284SOL     OW24484   0.642   0.159   8.913  0.0280  0.6102 -0.2101
 4284SOL    HW124485   0.639   0.068   8.942  1.9255  0.5638 -0.1601
 4284SOL    HW224486   0.658   0.147   8.819  0.4219  1.8563 -0.3119
 4285SOL     OW24487   0.996   0.236   1.017  0.2827 -0.5321 -0.1402
 4285SOL    HW124488   0.906   0.237   0.986  0.5056 -1.0676 -0.8121
 4285SOL    HW224489   1.021   0.144   1.010 -0.3298 -0.6845 -0.3090
 4286SOL     OW24490   0.529   3.271  16.188  0.3847 -0.5245  0.3099
 4286SOL    HW124491   0.606   3.286  16.133  0.5955  0.9157  0.9964
 4286SOL    HW224492   0.546   3.324  16.266  0.8710 -0.2728  0.0336
 4287SOL     OW24493   4.017   3.884   6.767  0.2626 -0.0499 -0.2886
 4287SOL    HW124494   4.053   3.866   6.680  0.3316 -0.5963 -0.1459
 4287SOL    HW224495   3.935   3.834   6.763 -0.5901  1.3696 -0.4370
 4288SOL     OW24496   1.904   2.036  14.164  0.0305  0.5195 -0.1538
 4288SOL    HW124497   1.983   1.983  14.160  2.3928  3.9365  1.6244
 4288SOL    HW224498   1.920   2.098  14.093 -0.8909 -0.4762 -1.2126
 4289SOL     OW24499   2.520   2.474   5.544 -0.1905 -0.3865  0.5111
 4289SOL    HW124500   2.438   2.521   5.533 -1.3830 -1.9586  2.6771
 4289SOL    HW224501   2.496   2.419   5.619  0.5292 -2.1485 -0.5486
 4290SOL     OW24502   3.239   0.694   9.890 -0.8085 -0.0332 -0.6188
 4290SOL    HW124503   3.231   0.661   9.801  2.0456  0.6990 -1.1162
 4290SOL    HW224504   3.242   0.611   9.937  0.4239  0.8573  0.8653
 4291SOL     OW24505   3.293   1.302   0.150 -0.0245 -0.1025 -0.1321
 4291SOL    HW124506   3.316   1.294   0.058  0.4030  2.8938 -0.2927
 4291SOL    HW224507   3.233   1.376   0.142  0.7799  0.3496 -1.9013
 4292SOL     OW24508   2.424   2.806   4.109 -0.3090  0.0197  0.6528
 4292SOL    HW124509   2.512   2.803   4.072 -0.3328 -2.4715  0.7886
 4292SOL    HW224510   2.383   2.824   4.024  0.2945  0.9971  0.5696
 4293SOL     OW24511   0.044   3.555  15.603 -0.0880  0.3087 -0.3298
 4293SOL    HW124512   4.733   3.613  15.659  0.0163 -0.3022  0.3955
 4293SOL    HW224513   0.135   3.582  15.618  1.0720 -3.4584 -0.4194
 4294SOL     OW24514   1.451   4.147   7.036  0.2913 -0.6594 -0.4387
 4294SOL    HW124515   1.386   4.217   7.042  0.7512 -0.0069 -2.8367
 4294SOL    HW224516   1.482   4.145   7.126  1.2794 -0.7090 -0.7714
 4295SOL     OW24517   1.407   1.773  15.736  0.3386 -0.5898 -0.4172
 4295SOL    HW124518   1.371   1.752  15.650  0.3650  1.3174 -0.8895
 4295SOL    HW224519   1.402   1.869  15.729  2.1683 -0.5621 -1.1831
 4296SOL     OW24520   1.409   2.582  17.619 -0.7537  0.0404 -0.0666
 4296SOL    HW124521   1.417   2.504  17.563  0.9358  1.8177 -2.2997
 4296SOL    HW224522   1.430   2.538  17.701 -1.5967  2.3003  1.3557
 4297SOL     OW24523   1.771   4.690  13.387  0.2336 -0.0167  0.1379
 4297SOL    HW124524   1.720   4.614  13.361 -1.0261  1.5050 -1.7713
 4297SOL    HW224525   1.772   4.731  13.301  0.2461  2.1533  1.1624
 4298SOL     OW24526   2.151   3.802   5.389 -0.0388  0.0250 -0.7808
 4298SOL    HW124527   2.174   3.757   5.308  1.0022 -0.2705 -0.3209
 4298SOL    HW224528   2.115   3.881   5.348  0.1106 -0.0773 -1.1097
 4299SOL     OW24529   2.948   0.145   6.502 -0.3470 -0.6209 -0.1586
 4299SOL    HW124530   3.031   0.127   6.547  0.2048 -1.6455 -1.5781
 4299SOL    HW224531   2.931   0.082   6.433 -0.8325 -0.7418  0.0729
 4300SOL     OW24532   1.725   3.648  14.323 -0.2126  0.3930  0.6310
 4300SOL    HW124533   1.739   3.674  14.231  0.4346  2.0454  1.1938
 4300SOL    HW224534   1.673   3.719  14.359  0.4579  0.9632  0.4678
 4301SOL     OW24535   3.769   3.301   1.518 -0.1963  0.0326 -0.3668
 4301SOL    HW124536   3.721   3.323   1.438  2.3138  0.3966 -1.7659
 4301SOL    HW224537   3.709   3.284   1.590 -0.0030 -2.4096 -0.7948
 4302SOL     OW24538   2.001   2.701   3.496 -0.2232  0.0956  0.3992
 4302SOL    HW124539   2.021   2.794   3.501 -0.2728  0.0570  1.4364
 4302SOL    HW224540   1.999   2.684   3.402  1.6033 -1.5069  0.6463
 4303SOL     OW24541   4.269   4.020   2.856 -0.0055 -0.3602  0.4017
 4303SOL    HW124542   4.274   3.979   2.770 -1.8905  1.3854 -0.5257
 4303SOL    HW224543   4.234   4.107   2.839  0.5971  0.2146  2.0705
 4304SOL     OW24544   3.260   1.113   5.970 -0.2142  0.1769  0.7947
 4304SOL    HW124545   3.294   1.100   5.882 -0.4448  1.7139  0.4761
 4304SOL    HW224546   3.172   1.149   5.956 -0.7117 -1.6763 -0.9033
 4305SOL     OW24547   4.338   3.747   1.981  0.4697  0.1123 -0.0595
 4305SOL    HW124548   4.327   3.818   2.044 -0.3285 -1.3682  1.4571
 4305SOL    HW224549   4.410   3.700   2.021 -0.5082 -0.0743  1.4623
 4306SOL     OW24550   4.323   0.184   4.742 -0.0310  0.1003 -0.4140
 4306SOL    HW124551   4.251   0.122   4.729 -0.0527  0.3613 -1.6007
 4306SOL    HW224552   4.305   0.251   4.675 -0.3639  2.0106  1.5886
 4307SOL     OW24553   3.501   1.814   7.743 -0.0299 -0.6045 -0.5262
 4307SOL    HW124554   3.497   1.719   7.758  1.0663 -0.5755 -0.0781
 4307SOL    HW224555   3.575   1.832   7.801 -2.1795  0.2996  1.9741
 4308SOL     OW24556   2.408   1.166  11.471 -0.4070  0.4112 -0.0985
 4308SOL    HW124557   2.391   1.073  11.486 -2.3247  0.6876 -0.6227
 4308SOL    HW224558   2.481   1.177  11.532 -2.1447  0.7284  1.9225
 4309SOL     OW24559   2.649   3.537   1.193  0.3392  0.1033 -0.1879
 4309SOL    HW124560   2.679   3.494   1.274 -1.7380 -0.6909  0.1558
 4309SOL    HW224561   2.558   3.509   1.195  0.8332 -1.6259 -1.4995
 4310SOL     OW24562   2.358   1.433   4.778  0.7530  0.2432  0.1642
 4310SOL    HW124563   2.288   1.399   4.721  1.7488  1.1535 -1.5874
 4310SOL    HW224564   2.428   1.383   4.736  0.2979 -1.9128  1.9398
 4311SOL     OW24565   2.582   0.142   6.399 -0.0648 -0.2085  0.1272
 4311SOL    HW124566   2.509   0.192   6.360  1.0796  0.6664 -0.8803
 4311SOL    HW224567   2.653   0.206   6.402 -0.5637  0.3544 -0.0635
 4312SOL     OW24568   1.182   2.997   9.235  0.0199 -0.0356 -0.3201
 4312SOL    HW124569   1.224   3.007   9.320  1.2345  1.4579 -1.0941
 4312SOL    HW224570   1.258   3.008   9.178  1.4531 -1.0065  1.4082
 4313SOL     OW24571   4.492   2.644   3.686  0.2725 -0.0613 -0.2950
 4313SOL    HW124572   4.421   2.581   3.682 -0.9669  1.1430  2.3351
 4313SOL    HW224573   4.467   2.694   3.765  0.2719  2.0807 -1.6496
 4314SOL     OW24574   2.776   1.376   5.964  0.0191  0.1416  0.7921
 4314SOL    HW124575   2.709   1.310   5.977  0.2617 -0.1239  0.6891
 4314SOL    HW224576   2.746   1.395   5.875  1.6218  0.5554  0.3405
 4315SOL     OW24577   3.074   2.792   2.265 -0.4387  0.1476  0.4575
 4315SOL    HW124578   3.020   2.776   2.342 -0.9085 -1.0745 -0.1232
 4315SOL    HW224579   3.162   2.820   2.291 -0.2451 -0.8286  0.8412
 4316SOL     OW24580   0.737   0.018   2.670  0.6624 -0.7174 -0.4654
 4316SOL    HW124581   0.654   0.062   2.686  1.8263  1.2714 -0.0033
 4316SOL    HW224582   0.797   0.065   2.727 -1.1078 -0.2947  1.0500
 4317SOL     OW24583   2.981   4.518   3.736  0.6571 -0.5760  0.0822
 4317SOL    HW124584   2.893   4.532   3.701  1.0576  0.4935 -0.5001
 4317SOL    HW224585   2.974   4.560   3.822  2.0119 -0.1231 -0.0188
 4318SOL     OW24586   4.711   2.222   6.110 -0.3343 -0.1319 -0.3977
 4318SOL    HW124587   0.056   2.200   6.071  0.8529  2.3713  0.7541
 4318SOL    HW224588   4.670   2.136   6.120  0.2790 -0.1290  2.3522
 4319SOL     OW24589   0.285   1.936   7.991  0.4001  0.4318  0.1459
 4319SOL    HW124590   0.290   1.919   8.085 -2.9562  0.4667  0.3281
 4319SOL    HW224591   0.327   1.859   7.954 -0.3730  0.2712 -0.4018
 4320SOL     OW24592   3.439   4.192  11.972 -0.1291 -0.2178 -0.0404
 4320SOL    HW124593   3.414   4.208  11.881  0.4633 -2.3064 -0.5589
 4320SOL    HW224594   3.508   4.259  11.977  0.6912 -1.0124 -0.8049
 4321SOL     OW24595   0.101   1.691   8.493 -0.2655 -1.1352  0.0642
 4321SOL    HW124596   0.136   1.702   8.404  0.3260 -1.4400  0.2538
 4321SOL    HW224597   0.185   1.704   8.537 -1.1072  2.1747  0.6996
 4322SOL     OW24598   3.350   1.858  11.583 -0.5688 -0.0341 -0.0225
 4322SOL    HW124599   3.269   1.876  11.632 -0.0750  0.2854  0.6907
 4322SOL    HW224600   3.411   1.890  11.651  0.9096 -1.8238 -0.5257
 4323SOL     OW24601   1.854   4.733   0.166 -0.3920  0.2207  0.8139
 4323SOL    HW124602   1.809   0.066   0.122 -0.2423  0.2702  0.7429
 4323SOL    HW224603   1.783   4.674   0.193 -1.6636  0.8243 -1.1836
 4324SOL     OW24604   0.062   0.962   2.599 -0.3793  0.1141  0.0370
 4324SOL    HW124605   0.068   0.969   2.504 -1.4497  2.3960  0.1369
 4324SOL    HW224606   0.138   0.905   2.611 -0.0852  0.6729  0.8318
 4325SOL     OW24607   3.012   1.229   5.868 -0.3623 -0.0150  0.3757
 4325SOL    HW124608   3.007   1.231   5.772  0.6961  0.2989  0.3319
 4325SOL    HW224609   2.963   1.309   5.885 -1.9090 -0.0883 -3.5994
 4326SOL     OW24610   1.617   0.470  13.304  0.2754 -0.3623 -0.0117
 4326SOL    HW124611   1.671   0.393  13.324  0.4020 -0.1628  0.4066
 4326SOL    HW224612   1.560   0.463  13.381  0.6787  0.0718  0.3273
 4327SOL     OW24613   0.716   0.942   1.837  0.4400 -0.0196  0.3285
 4327SOL    HW124614   0.702   1.031   1.867 -1.3384  0.0377 -0.7258
 4327SOL    HW224615   0.812   0.942   1.833  0.5023 -0.8845  1.7531
 4328SOL     OW24616   1.563   4.257   7.761  0.2347 -0.4055  0.6290
 4328SOL    HW124617   1.575   4.231   7.852  1.5365 -1.8181  0.0463
 4328SOL    HW224618   1.645   4.303   7.748  0.4560 -1.0273 -0.1720
 4329SOL     OW24619   3.269   1.049   8.122  0.2419  0.5511 -0.1923
 4329SOL    HW124620   3.362   1.055   8.102 -0.1096  2.6855 -1.1756
 4329SOL    HW224621   3.245   0.982   8.057  2.8716 -0.7132  0.1196
 4330SOL     OW24622   2.579   3.438  13.143 -0.0912  0.0959  0.0253
 4330SOL    HW124623   2.610   3.493  13.070 -2.1338 -0.8562 -1.5792
 4330SOL    HW224624   2.585   3.499  13.217  0.4790  0.4910 -0.3454
 4331SOL     OW24625   3.385   1.678  11.404  0.6030  0.2282  0.0677
 4331SOL    HW124626   3.377   1.755  11.460  1.8078  0.2935  0.1480
 4331SOL    HW224627   3.477   1.660  11.384  0.4885  0.5267 -0.7282
 4332SOL     OW24628   3.421   0.461   8.975  0.6053  0.2666 -0.2334
 4332SOL    HW124629   3.404   0.469   8.881  0.3071  2.6655  0.0372
 4332SOL    HW224630   3.511   0.493   8.987  0.1539  0.1188  3.5262
 4333SOL     OW24631   1.699   1.583   6.252  0.0374  0.1186 -0.1159
 4333SOL    HW124632   1.692   1.655   6.314 -0.2005 -0.0386  0.0383
 4333SOL    HW224633   1.617   1.593   6.203  0.5599  3.2722 -0.2880
 4334SOL     OW24634   1.705   3.881   9.116  0.2834 -0.2163  0.9920
 4334SOL    HW124635   1.658   3.825   9.178 -0.2296 -1.9978 -0.9883
 4334SOL    HW224636   1.745   3.824   9.050  0.1750  1.1855 -0.2931
 4335SOL     OW24637   3.938   4.394   9.229 -0.0656 -0.5713  0.0300
 4335SOL    HW124638   3.931   4.318   9.286 -1.9430  0.2297  0.8488
 4335SOL    HW224639   3.882   4.460   9.269 -0.1649  0.3995 -1.6947
 4336SOL     OW24640   2.589   3.597   8.859 -0.1845  0.1288  0.1512
 4336SOL    HW124641   2.571   3.690   8.863  2.6340  0.7666 -1.8364
 4336SOL    HW224642   2.681   3.607   8.883 -0.4095 -1.3373  1.5858
 4337SOL     OW24643   1.978   2.077   9.724 -0.3870  0.4220 -0.0049
 4337SOL    HW124644   1.977   2.046   9.633  0.6386  1.4084 -0.3467
 4337SOL    HW224645   2.070   2.084   9.748 -0.4775  0.8461  0.2044
 4338SOL     OW24646   1.695   2.508   8.573 -0.3100 -0.5286 -0.3804
 4338SOL    HW124647   1.654   2.454   8.640  0.6276  0.4840  1.0051
 4338SOL    HW224648   1.678   2.598   8.599 -1.6022 -0.9195  0.1362
 4339SOL     OW24649   4.254   1.270   3.552 -0.0843  0.5290 -0.1911
 4339SOL    HW124650   4.170   1.305   3.522 -0.0222 -0.8915 -2.0435
 4339SOL    HW224651   4.309   1.340   3.519 -1.2695  0.2194 -2.8802
 4340SOL     OW24652   1.862   2.812   2.593 -0.1995  0.1308 -0.3246
 4340SOL    HW124653   1.828   2.898   2.619 -3.1327 -0.6998 -1.3995
 4340SOL    HW224654   1.914   2.778   2.665  1.8442 -0.6886 -2.2072
 4341SOL     OW24655   2.554   4.347   5.349  0.1131 -0.4120  0.7061
 4341SOL    HW124656   2.531   4.412   5.415 -0.0010  0.4811 -0.2169
 4341SOL    HW224657   2.498   4.276   5.379  1.4545 -0.6476  2.6136
 4342SOL     OW24658   1.884   2.945  15.252  0.5663 -0.1567  0.5870
 4342SOL    HW124659   1.818   2.901  15.305  1.6570  1.1396  3.0487
 4342SOL    HW224660   1.901   2.890  15.176 -0.2587 -0.3055  0.5161
 4343SOL     OW24661   0.887   3.610   3.693 -0.6327  0.8008 -0.3410
 4343SOL    HW124662   0.925   3.622   3.605 -0.0294 -1.8434 -0.4541
 4343SOL    HW224663   0.874   3.701   3.719  0.3232  0.7062  0.4672
 4344SOL     OW24664   4.178   4.544   4.115 -0.1166  0.5215 -0.7333
 4344SOL    HW124665   4.167   4.451   4.134  2.3599  0.3608 -0.0810
 4344SOL    HW224666   4.145   4.586   4.195 -0.7028 -0.3207 -0.5300
 4345SOL     OW24667   0.793   2.794   9.932  0.5515 -0.3064 -0.1917
 4345SOL    HW124668   0.831   2.722   9.982 -0.1280 -0.9032 -0.5339
 4345SOL    HW224669   0.810   2.871   9.985  2.0207  0.1508 -1.3317
 4346SOL     OW24670   4.171   2.811  14.962  0.0844 -0.1170  0.0867
 4346SOL    HW124671   4.078   2.801  14.983 -0.0369  1.0643  0.0936
 4346SOL    HW224672   4.211   2.850  15.040  1.9678  1.0268 -1.4564
 4347SOL     OW24673   4.296   3.291   5.348 -0.2754 -0.0585 -0.1949
 4347SOL    HW124674   4.361   3.354   5.381 -1.1703  1.8577 -2.1107
 4347SOL    HW224675   4.314   3.210   5.396 -3.1690  0.0985  1.1849
 4348SOL     OW24676   4.241   2.576   3.963 -0.5635  0.3623  0.2004
 4348SOL    HW124677   4.313   2.639   3.971  1.1146 -1.8746  2.7195
 4348SOL    HW224678   4.195   2.579   4.046 -0.9673 -1.1973  0.0281
 4349SOL     OW24679   2.465   0.754  14.880 -0.1465 -0.2100  0.4680
 4349SOL    HW124680   2.418   0.746  14.963 -2.6326  3.2798 -0.6194
 4349SOL    HW224681   2.412   0.707  14.816  0.7297  2.0178 -1.8868
 4350SOL     OW24682   1.030   2.975   7.045  0.1456 -0.3185  0.5937
 4350SOL    HW124683   0.961   2.975   7.111  0.9754 -1.1775  1.4588
 4350SOL    HW224684   1.097   2.922   7.088  0.4626 -0.3967  0.0089
 4351SOL     OW24685   3.691   4.707   2.848  0.0548  0.2618 -0.4334
 4351SOL    HW124686   3.783   4.733   2.845 -0.0222  0.2376 -3.7490
 4351SOL    HW224687   3.668   4.695   2.940 -0.2085  0.1458 -0.5128
 4352SOL     OW24688   4.467   2.593  13.202 -0.1124 -0.1079  0.6909
 4352SOL    HW124689   4.380   2.557  13.188 -0.1634  0.1481  0.3344
 4352SOL    HW224690   4.470   2.596  13.297  2.5522  0.6037  0.6019
 4353SOL     OW24691   4.620   0.552   1.834 -0.4866 -0.3067  0.8364
 4353SOL    HW124692   4.594   0.468   1.871 -0.2989 -0.4062  0.7411
 4353SOL    HW224693   4.668   0.519   1.759 -2.2319 -1.0554  0.0436
 4354SOL     OW24694   4.287   0.875   7.602  0.2833 -0.1960  0.0658
 4354SOL    HW124695   4.324   0.796   7.640  1.4689 -0.0537 -0.7791
 4354SOL    HW224696   4.202   0.859   7.643  0.5872 -0.9602  0.3849
 4355SOL     OW24697   2.832   4.235  12.575  0.0450 -0.0722  0.3723
 4355SOL    HW124698   2.879   4.171  12.521 -0.7364  0.0633 -0.4603
 4355SOL    HW224699   2.850   4.323  12.542  0.3548 -0.4778 -0.5445
 4356SOL     OW24700   2.373   2.388   6.456  0.6605 -0.4218  0.0272
 4356SOL    HW124701   2.304   2.366   6.392  0.2706  0.6552  0.0825
 4356SOL    HW224702   2.357   2.482   6.457  1.1437 -0.3228 -1.0596
 4357SOL     OW24703   3.543   0.947   3.401  0.1152 -0.2430  0.4471
 4357SOL    HW124704   3.511   1.009   3.337 -0.2988  1.3719  2.2132
 4357SOL    HW224705   3.608   0.891   3.360 -0.8441 -0.7286 -0.4125
 4358SOL     OW24706   1.101   3.840  10.054  0.3430 -0.2241  0.0100
 4358SOL    HW124707   1.016   3.799  10.039 -0.2541  0.4087  1.7608
 4358SOL    HW224708   1.157   3.767  10.084 -1.6366 -0.5227  2.9130
 4359SOL     OW24709   3.597   3.317   1.751  0.4220 -0.3308  0.0166
 4359SOL    HW124710   3.595   3.409   1.778  0.0127 -0.2898 -0.1445
 4359SOL    HW224711   3.501   3.307   1.751  0.3103  0.7962  1.2507
 4360SOL     OW24712   3.334   2.356   5.697  0.1978  0.2955 -0.1210
 4360SOL    HW124713   3.387   2.430   5.729  0.2817  0.7556 -1.3172
 4360SOL    HW224714   3.250   2.403   5.698 -0.3556 -0.5452 -5.3640
 4361SOL     OW24715   2.454   1.916   8.479 -0.4166 -0.4376 -0.0552
 4361SOL    HW124716   2.366   1.942   8.506 -0.5014 -0.7390 -0.0395
 4361SOL    HW224717   2.450   1.913   8.383  0.3828  0.8241 -0.1257
 4362SOL     OW24718   3.918   1.456   7.100 -0.0423 -0.0311 -0.6468
 4362SOL    HW124719   3.950   1.528   7.153 -2.8873  0.1926  0.7280
 4362SOL    HW224720   3.987   1.390   7.109 -0.0369  0.1243  0.4222
 4363SOL     OW24721   1.749   3.247   7.396  0.7198 -0.1436 -0.2263
 4363SOL    HW124722   1.813   3.211   7.457 -0.6526  0.0334  1.3171
 4363SOL    HW224723   1.799   3.277   7.320  0.2481  0.2059 -0.3956
 4364SOL     OW24724   0.950   4.406  12.184  0.2978 -0.5588  0.7187
 4364SOL    HW124725   0.891   4.339  12.151  0.5550 -0.1639 -0.5503
 4364SOL    HW224726   0.931   4.478  12.124  0.0935 -0.8023  0.4922
 4365SOL     OW24727   4.527   4.671   5.975 -0.0895 -0.3537  0.3420
 4365SOL    HW124728   4.619   4.648   5.984 -0.2922 -1.3955 -0.3613
 4365SOL    HW224729   4.510   4.715   6.059 -1.2301 -0.9265  0.4041
 4366SOL     OW24730   3.145   4.311   4.866  0.2483 -0.2577  0.1432
 4366SOL    HW124731   3.110   4.290   4.780  0.2042 -2.6240  0.7398
 4366SOL    HW224732   3.077   4.294   4.930  0.4883 -1.6947  0.0184
 4367SOL     OW24733   0.941   1.843   2.884  0.1212 -0.5496 -0.0185
 4367SOL    HW124734   0.909   1.902   2.816 -0.8664 -2.5448 -1.2971
 4367SOL    HW224735   0.994   1.778   2.838 -0.5902 -1.7326  0.8161
 4368SOL     OW24736   4.645   0.192  17.532  0.1646  0.1790 -0.0751
 4368SOL    HW124737   4.727   0.234  17.505 -0.9464  3.4275  1.5732
 4368SOL    HW224738   4.610   0.166  17.447  0.1765 -0.2846  0.0620
 4369SOL     OW24739   1.462   4.505  11.872  0.1583  0.6928  0.4085
 4369SOL    HW124740   1.540   4.488  11.924 -1.0159 -2.1128  1.2440
 4369SOL    HW224741   1.479   4.593  11.839  0.4981  0.1824 -0.7743
 4370SOL     OW24742   2.233   3.641  10.127  0.1184 -0.3409  0.8555
 4370SOL    HW124743   2.297   3.647  10.197 -0.5817  0.8878  1.3821
 4370SOL    HW224744   2.212   3.547  10.127  0.3603 -0.4021 -0.0913
 4371SOL     OW24745   3.285   1.428   9.019  0.7921  0.1688  0.0506
 4371SOL    HW124746   3.351   1.374   9.063  0.1845 -1.1863 -0.6725
 4371SOL    HW224747   3.205   1.375   9.014  1.5462 -1.0779  1.1680
 4372SOL     OW24748   3.344   4.055   4.869 -0.0504  0.0813 -0.6907
 4372SOL    HW124749   3.249   4.054   4.853 -0.3034  1.2941  0.6745
 4372SOL    HW224750   3.365   4.107   4.792  0.0331  0.3498 -0.4869
 4373SOL     OW24751   3.201   3.978   9.146  0.3739  0.1656  0.1482
 4373SOL    HW124752   3.274   3.964   9.206 -0.2038 -0.6605  0.6643
 4373SOL    HW224753   3.213   4.070   9.123 -1.2029  0.6422  1.2507
 4374SOL     OW24754   4.271   4.518   6.846 -1.2560 -0.6346  0.4075
 4374SOL    HW124755   4.204   4.450   6.856 -0.9156 -1.0489 -0.1431
 4374SOL    HW224756   4.249   4.555   6.761  1.4508  3.9141  1.6762
 4375SOL     OW24757   4.613   3.707  17.755  0.0394 -0.3135 -0.0573
 4375SOL    HW124758   4.640   3.617   0.018 -0.8074 -1.2549 -3.2352
 4375SOL    HW224759   4.619   3.742   0.088 -0.3882 -1.2330  0.3312
 4376SOL     OW24760   1.003   4.077  10.121 -0.1961 -0.0445  0.0388
 4376SOL    HW124761   1.028   3.991  10.085 -1.6176 -0.3352 -0.2560
 4376SOL    HW224762   1.092   4.111  10.134 -0.6981  0.9100  0.9749
 4377SOL     OW24763   1.381   4.557   5.250 -0.1899  0.0516 -0.0075
 4377SOL    HW124764   1.467   4.530   5.218  0.1139  0.3321  0.5724
 4377SOL    HW224765   1.368   4.644   5.211  1.7289  0.4227  0.1858
 4378SOL     OW24766   2.093   4.065   1.800  0.5262  0.0453  0.4224
 4378SOL    HW124767   2.160   4.018   1.850  0.7770 -1.8995 -1.7200
 4378SOL    HW224768   2.114   4.038   1.710  0.2259 -0.7484  0.5867
 4379SOL     OW24769   4.550   1.494   3.076  0.2118 -0.1751 -0.1349
 4379SOL    HW124770   4.557   1.541   2.993  1.6838  1.8831  1.1471
 4379SOL    HW224771   4.594   1.554   3.136  1.3862 -2.7397  1.5715
 4380SOL     OW24772   4.592   2.301   9.690  0.3673 -0.1020 -0.0922
 4380SOL    HW124773   4.554   2.323   9.775  0.5485  0.9021 -0.2688
 4380SOL    HW224774   4.510   2.315   9.642 -0.4528 -0.5674  1.1629
 4381SOL     OW24775   4.564   3.136   3.509  0.6482 -1.2491 -0.0183
 4381SOL    HW124776   4.610   3.200   3.565  1.9126 -0.1052 -2.3860
 4381SOL    HW224777   4.474   3.139   3.540  1.6303  1.0258  2.7093
 4382SOL     OW24778   2.663   2.643   9.269 -0.0841  0.0550 -0.0577
 4382SOL    HW124779   2.648   2.673   9.180 -4.3115  0.1352  0.6499
 4382SOL    HW224780   2.752   2.612   9.253 -0.7195 -1.1178 -1.3298
 4383SOL     OW24781   2.424   4.599   8.747 -0.3708  0.4346 -0.6708
 4383SOL    HW124782   2.433   4.685   8.788 -2.1757 -1.0002  2.7596
 4383SOL    HW224783   2.510   4.559   8.760 -0.5255 -0.1263 -1.4188
 4384SOL     OW24784   0.631   3.059   6.708  0.0812 -0.2794 -0.4173
 4384SOL    HW124785   0.711   3.042   6.757 -2.3039 -0.3993  3.4211
 4384SOL    HW224786   0.596   2.972   6.688 -1.2786 -0.1625  1.4165
 4385SOL     OW24787   1.121   3.821   1.665  0.0818  0.7365  0.3751
 4385SOL    HW124788   1.075   3.762   1.605  0.3705  0.1692  0.7059
 4385SOL    HW224789   1.083   3.794   1.749 -1.0448  3.5329  0.7600
 4386SOL     OW24790   1.771   1.463   9.741 -0.1581  0.2612 -0.1136
 4386SOL    HW124791   1.764   1.550   9.779 -2.7497  0.2585 -0.6362
 4386SOL    HW224792   1.724   1.432   9.819  1.1660 -0.2335  0.5030
 4387SOL     OW24793   3.022   0.523   2.942  0.1529 -0.5335  0.0746
 4387SOL    HW124794   3.025   0.503   2.849 -0.6114 -0.8695  0.1222
 4387SOL    HW224795   2.973   0.444   2.966  0.3124  0.3030  3.1300
 4388SOL     OW24796   1.647   4.290   8.982  0.1615 -0.3275 -0.1358
 4388SOL    HW124797   1.720   4.230   8.997  1.4723  1.4366  0.4672
 4388SOL    HW224798   1.582   4.225   8.954 -0.7681  0.5013  0.0759
 4389SOL     OW24799   2.561   2.608   6.047  0.0701  0.7084 -0.3983
 4389SOL    HW124800   2.630   2.545   6.026 -1.2038 -0.1727 -1.9613
 4389SOL    HW224801   2.561   2.586   6.140  0.3084  1.2713 -0.2617
 4390SOL     OW24802   1.750   3.306   5.469 -0.3444  0.6233 -0.1828
 4390SOL    HW124803   1.760   3.401   5.476  1.1923  0.4430  0.1434
 4390SOL    HW224804   1.780   3.273   5.554  2.1565  0.3965 -1.1415
 4391SOL     OW24805   0.302   3.340   0.207  0.2964 -0.0188  0.0708
 4391SOL    HW124806   0.342   3.318   0.123  1.2217  0.3589  0.4120
 4391SOL    HW224807   0.326   3.428   0.237  1.2565 -0.3030  0.1294
 4392SOL     OW24808   0.781   3.705  16.349  0.3108 -0.3735  0.1445
 4392SOL    HW124809   0.820   3.764  16.414 -0.2655  0.2003 -0.0284
 4392SOL    HW224810   0.823   3.621  16.367 -0.4403 -0.7125  0.2964
 4393SOL     OW24811   3.611   0.766   6.043  0.2847 -0.5858  0.3784
 4393SOL    HW124812   3.555   0.818   6.100  0.1694  0.4202 -0.6413
 4393SOL    HW224813   3.594   0.808   5.958  1.3290 -1.7262 -0.3895
 4394SOL     OW24814   1.834   3.941   7.723 -0.4902 -0.0961  0.2929
 4394SOL    HW124815   1.912   3.899   7.685 -0.2018  1.4710 -0.8517
 4394SOL    HW224816   1.865   3.974   7.807 -1.2113  2.6071 -0.4956
 4395SOL     OW24817   3.662   0.863   2.885  0.1203  0.6112  0.1820
 4395SOL    HW124818   3.683   0.953   2.910 -0.3947  1.0201 -0.8430
 4395SOL    HW224819   3.699   0.842   2.799  2.2665  0.5366  1.1248
 4396SOL     OW24820   1.579   0.716   7.676 -0.2372 -0.2809  0.0942
 4396SOL    HW124821   1.668   0.697   7.647 -0.7245 -1.0314 -0.9058
 4396SOL    HW224822   1.601   0.787   7.736 -0.2033  0.9759 -1.4315
 4397SOL     OW24823   3.390   2.451  16.114  0.1296 -0.0292  0.5880
 4397SOL    HW124824   3.305   2.484  16.087  0.9587  1.5165 -0.1190
 4397SOL    HW224825   3.448   2.520  16.082  0.1653 -1.0182 -1.4841
 4398SOL     OW24826   1.360   0.411   1.314  0.2111 -0.4166  0.8607
 4398SOL    HW124827   1.392   0.372   1.395 -0.2050  0.4001  1.4314
 4398SOL    HW224828   1.309   0.484   1.351  0.3145  0.4112 -0.6528
 4399SOL     OW24829   3.578   2.998   8.633 -0.8092 -0.1811  0.4036
 4399SOL    HW124830   3.551   2.914   8.671 -3.7807  0.1731 -0.8809
 4399SOL    HW224831   3.513   3.017   8.565 -0.8763  1.0210  0.8089
 4400SOL     OW24832   2.900   4.171  12.172 -0.1121 -0.1824 -0.1297
 4400SOL    HW124833   2.899   4.267  12.181 -1.7193 -0.2100 -0.0588
 4400SOL    HW224834   2.980   4.150  12.123  0.4368  0.1180  0.6406
 4401SOL     OW24835   2.159   1.059   6.458 -0.2849 -0.2218  0.2189
 4401SOL    HW124836   2.229   1.034   6.397  0.8853  2.2859  0.5260
 4401SOL    HW224837   2.095   1.083   6.391 -0.9744 -1.9743  0.2480
 4402SOL     OW24838   3.973   0.702   2.141 -0.4166 -0.1386  0.0305
 4402SOL    HW124839   3.953   0.703   2.234  0.9205  0.0353  0.3055
 4402SOL    HW224840   4.001   0.792   2.126 -1.4230  0.4502  1.7062
 4403SOL     OW24841   0.056   4.194   8.521 -0.6772 -0.1869  0.0992
 4403SOL    HW124842   4.720   4.223   8.572  0.2399  1.7731  0.3542
 4403SOL    HW224843   0.014   4.124   8.472 -1.6398 -0.7631  1.7465
 4404SOL     OW24844   4.671   0.778   4.974  0.1956 -0.3662  0.5230
 4404SOL    HW124845   4.660   0.867   5.008 -1.2291 -0.3751  0.0522
 4404SOL    HW224846   4.650   0.731   5.055 -3.4717 -0.1579 -0.3216
 4405SOL     OW24847   1.127   0.457  15.569  0.8309 -0.1717 -0.6227
 4405SOL    HW124848   1.126   0.537  15.516 -0.9509  1.1185  1.3696
 4405SOL    HW224849   1.182   0.396  15.519  0.6098 -1.8549  1.1867
 4406SOL     OW24850   4.518   0.576   1.204 -0.4380 -0.4276  0.1761
 4406SOL    HW124851   4.537   0.645   1.140 -0.5032 -2.5111 -2.0656
 4406SOL    HW224852   4.494   0.507   1.143 -1.2800 -1.0188  1.1800
 4407SOL     OW24853   4.372   0.054   3.353  0.5357  0.5549  0.1812
 4407SOL    HW124854   4.288   0.076   3.312  0.9259  1.6639 -0.0168
 4407SOL    HW224855   4.426   0.044   3.275 -0.0936 -2.7307  0.1481
 4408SOL     OW24856   3.481   3.329   5.424  0.0448  0.1893 -0.3292
 4408SOL    HW124857   3.514   3.414   5.392  1.5628 -0.7349 -1.2297
 4408SOL    HW224858   3.476   3.358   5.515  2.5542 -1.0216  0.2049
 4409SOL     OW24859   4.440   2.743  16.184  0.5437  0.1623 -0.4660
 4409SOL    HW124860   4.464   2.662  16.229  0.5011 -0.4393 -1.5239
 4409SOL    HW224861   4.523   2.753  16.138 -0.4184  1.4483 -1.9164
 4410SOL     OW24862   1.031   0.642   8.522 -0.0925 -0.2220  0.4582
 4410SOL    HW124863   0.968   0.632   8.450 -0.2844 -1.4290  0.7970
 4410SOL    HW224864   1.097   0.701   8.486 -0.1677 -0.5498 -0.2274
 4411SOL     OW24865   0.711   3.675  13.060  0.2588  0.1663  0.4116
 4411SOL    HW124866   0.786   3.690  13.003 -0.7729  1.8469 -0.4822
 4411SOL    HW224867   0.673   3.762  13.070 -0.3560 -0.0108 -0.3438
 4412SOL     OW24868   0.739   1.930   9.623 -0.0493  0.7977  0.0420
 4412SOL    HW124869   0.740   1.883   9.540  0.9264 -0.7211  0.9233
 4412SOL    HW224870   0.648   1.926   9.654  0.3232 -0.2070  0.9841
 4413SOL     OW24871   0.424   3.522   6.896  0.2461 -0.2930 -0.7081
 4413SOL    HW124872   0.401   3.510   6.988 -0.4540 -0.2301 -0.8735
 4413SOL    HW224873   0.340   3.529   6.850 -0.4008  1.3111  0.6980
 4414SOL     OW24874   1.599   0.788   3.039  0.9604  0.6517 -0.5119
 4414SOL    HW124875   1.563   0.736   2.967  0.4710  0.7905 -0.3660
 4414SOL    HW224876   1.558   0.754   3.119 -0.7335  1.4007 -1.0506
 4415SOL     OW24877   1.115   0.019   6.527  0.1521 -0.3647  0.0235
 4415SOL    HW124878   1.079   4.670   6.534  1.2478 -0.7597  0.6473
 4415SOL    HW224879   1.083   0.065   6.449 -0.1390 -1.2461 -0.3776
 4416SOL     OW24880   1.219   3.284  17.319  0.3727 -0.3197 -0.1472
 4416SOL    HW124881   1.175   3.276  17.234  0.5095  0.1223 -0.2620
 4416SOL    HW224882   1.229   3.193  17.346  1.8516 -0.2661 -0.4942
 4417SOL     OW24883   3.414   1.038  12.068 -0.5927 -0.1901 -0.2701
 4417SOL    HW124884   3.438   1.128  12.091 -1.3504 -0.4792  1.7335
 4417SOL    HW224885   3.415   1.041  11.973  3.4584 -1.6445 -0.2425
 4418SOL     OW24886   1.199   3.519   7.482 -0.0956 -0.1296 -1.2885
 4418SOL    HW124887   1.196   3.607   7.444  0.9685  0.3513 -0.2852
 4418SOL    HW224888   1.242   3.539   7.565  1.7242 -0.3199 -2.1875
 4419SOL     OW24889   4.431   3.014   2.111  0.1607 -0.1365 -0.7100
 4419SOL    HW124890   4.439   3.063   2.029  0.6474  1.6206  0.3834
 4419SOL    HW224891   4.389   3.066   2.180  1.8058 -0.5584  0.6237
 4420SOL     OW24892   1.975   4.579  13.073  0.5505 -0.9008 -0.3345
 4420SOL    HW124893   1.928   4.663  13.073  1.3294 -0.4721  0.0617
 4420SOL    HW224894   1.924   4.538  13.143  1.9174  3.2945  3.1181
 4421SOL     OW24895   0.798   0.275   2.368 -0.8502 -0.0312  0.1632
 4421SOL    HW124896   0.762   0.343   2.310 -0.3773 -0.2296 -0.3624
 4421SOL    HW224897   0.885   0.305   2.396  0.9144 -4.3178 -0.7022
 4422SOL     OW24898   1.046   4.164   5.512  0.0473  0.7663 -0.0951
 4422SOL    HW124899   1.048   4.105   5.437 -1.1893  0.7214 -0.0867
 4422SOL    HW224900   1.126   4.215   5.498 -1.0421  1.5421 -3.4665
 4423SOL     OW24901   1.891   2.974  16.047  0.0320  0.2975  0.4494
 4423SOL    HW124902   1.865   2.999  15.958  0.1300 -2.1646 -0.2763
 4423SOL    HW224903   1.956   2.906  16.028 -1.2031 -1.3500  2.1365
 4424SOL     OW24904   2.028   0.408   1.670 -0.4065 -0.2556  0.3698
 4424SOL    HW124905   2.061   0.466   1.602 -0.9757  0.7760  0.9765
 4424SOL    HW224906   2.008   0.466   1.743 -1.4805 -1.8418  1.3424
 4425SOL     OW24907   3.802   2.954   6.101 -0.0014 -0.0535 -0.1485
 4425SOL    HW124908   3.722   3.005   6.087  0.7965  1.1567 -0.2921
 4425SOL    HW224909   3.800   2.918   6.190  0.2803  0.6279  0.1357
 4426SOL     OW24910   3.298   1.044   5.121 -0.2400 -0.2378 -0.4284
 4426SOL    HW124911   3.262   1.060   5.208  2.9087  0.4351  0.7521
 4426SOL    HW224912   3.225   1.039   5.058 -1.1894  0.6537  0.6007
 4427SOL     OW24913   1.759   2.880   7.042  0.9385 -0.5848  0.0940
 4427SOL    HW124914   1.736   2.891   7.134 -0.5393 -0.4907 -0.2910
 4427SOL    HW224915   1.854   2.866   7.039  0.9522 -0.4421 -0.1876
 4428SOL     OW24916   3.947   0.167   8.316  0.2403  0.2848  0.1568
 4428SOL    HW124917   3.986   0.253   8.328 -1.3891  0.7123  2.3697
 4428SOL    HW224918   4.019   0.106   8.333  1.2142  0.8249 -1.9273
 4429SOL     OW24919   3.831   0.695   3.454  0.0202 -0.5425  0.1548
 4429SOL    HW124920   3.896   0.755   3.490  0.3362 -1.0520  0.4356
 4429SOL    HW224921   3.799   0.645   3.529  1.5246 -0.3939  0.8905
 4430SOL     OW24922   2.526   4.531   8.473  0.4274  0.0268 -0.2912
 4430SOL    HW124923   2.515   4.436   8.475  1.9687 -0.1646 -0.3494
 4430SOL    HW224924   2.508   4.547   8.566  3.4305 -1.4631  0.5389
 4431SOL     OW24925   0.530   3.514   5.163  0.0358 -0.0710 -0.1889
 4431SOL    HW124926   0.445   3.491   5.200  0.2331  1.8112  1.4080
 4431SOL    HW224927   0.525   3.475   5.076 -0.4232 -0.5147  0.0352
 4432SOL     OW24928   1.228   4.550   4.609  0.0761  0.0807  0.0479
 4432SOL    HW124929   1.305   4.591   4.569  0.8581  1.9003  3.3937
 4432SOL    HW224930   1.220   4.460   4.579 -0.7995 -0.1708  1.0353
 4433SOL     OW24931   0.938   1.967  12.557  0.1233  0.3757 -0.0571
 4433SOL    HW124932   0.965   1.961  12.465 -0.4491  0.7272 -0.2510
 4433SOL    HW224933   0.844   1.980  12.539 -0.3764 -2.2196  0.6861
 4434SOL     OW24934   0.333   3.355   1.637  0.1507  0.0488 -0.0957
 4434SOL    HW124935   0.270   3.369   1.707  1.0318 -1.1842  0.9567
 4434SOL    HW224936   0.369   3.267   1.649  1.0022  0.7339  2.3261
 4435SOL     OW24937   4.486   1.976   4.501 -0.3788  0.2098 -0.2274
 4435SOL    HW124938   4.448   1.961   4.588 -1.4583 -2.3350 -1.1617
 4435SOL    HW224939   4.508   1.886   4.477 -0.5792  0.6887 -2.2041
 4436SOL     OW24940   2.541   1.063   3.124 -0.0186  0.2129  0.3730
 4436SOL    HW124941   2.513   0.996   3.187 -0.6657  0.5016  0.3935
 4436SOL    HW224942   2.493   1.042   3.044 -1.5030 -0.6645  1.4953
 4437SOL     OW24943   2.894   1.638   6.434 -0.7317 -0.0707  0.4153
 4437SOL    HW124944   2.936   1.552   6.442  0.1767  0.1317 -2.3199
 4437SOL    HW224945   2.823   1.617   6.373 -0.7002 -2.0712  1.0611
 4438SOL     OW24946   4.225   1.848   7.255 -0.1516  0.6015 -0.1757
 4438SOL    HW124947   4.313   1.885   7.252  0.1820 -0.0992  1.2937
 4438SOL    HW224948   4.229   1.825   7.348 -0.6471 -1.5186 -0.6851
 4439SOL     OW24949   2.719   2.161   3.813  0.0269 -0.4904 -0.1611
 4439SOL    HW124950   2.639   2.211   3.831  0.6191 -0.1324  1.5326
 4439SOL    HW224951   2.747   2.205   3.733  1.0451 -0.5024  0.1846
 4440SOL     OW24952   1.775   0.746   2.487 -0.2202 -0.0471  0.5295
 4440SOL    HW124953   1.810   0.799   2.559  1.6648  0.3301 -0.6647
 4440SOL    HW224954   1.701   0.801   2.463  1.2624  2.6558  2.0398
 4441SOL     OW24955   1.653   1.184   9.038  0.1331  0.8911 -0.0311
 4441SOL    HW124956   1.668   1.091   9.051  0.8697  1.0933  0.5213
 4441SOL    HW224957   1.735   1.227   9.064  1.2762 -0.9375 -0.6547
 4442SOL     OW24958   1.657   0.761   3.936  0.1048 -0.4822 -0.6584
 4442SOL    HW124959   1.644   0.833   3.998 -0.8793 -1.5793  0.4004
 4442SOL    HW224960   1.730   0.801   3.889  0.0363  2.6590  1.8430
 4443SOL     OW24961   3.556   1.557   8.351  0.2417  0.3755  0.3475
 4443SOL    HW124962   3.505   1.485   8.313 -0.1172  1.2046 -0.7483
 4443SOL    HW224963   3.540   1.625   8.286  1.2075 -0.6084 -0.9296
 4444SOL     OW24964   4.299   0.684   2.903 -0.0053  0.0242 -0.1652
 4444SOL    HW124965   4.255   0.631   2.970  0.6480 -1.0754 -0.6113
 4444SOL    HW224966   4.222   0.727   2.864  0.8411  1.4154 -0.3250
 4445SOL     OW24967   1.560   3.106   0.759 -0.2671 -0.0955 -0.3741
 4445SOL    HW124968   1.485   3.083   0.705  0.8517  0.1120 -2.0248
 4445SOL    HW224969   1.524   3.160   0.828 -1.5226 -2.5521  0.8872
 4446SOL     OW24970   0.486   0.764  17.633 -0.1117  0.5319  0.2918
 4446SOL    HW124971   0.423   0.733  17.567 -0.0082 -1.8168  1.3078
 4446SOL    HW224972   0.420   0.771  17.702  0.0869  1.7569  0.3424
 4447SOL     OW24973   4.638   3.147   7.163 -0.1249  0.4727  0.6127
 4447SOL    HW124974   4.619   3.060   7.199 -1.0175  1.0979  1.6343
 4447SOL    HW224975   4.561   3.190   7.201  0.6745  0.2674  2.4622
 4448SOL     OW24976   1.132   1.649  13.343  0.4256  0.0194 -0.2244
 4448SOL    HW124977   1.169   1.677  13.427  0.1221 -0.1451 -0.0362
 4448SOL    HW224978   1.064   1.587  13.371  1.9837 -1.5857 -0.0068
 4449SOL     OW24979   0.113   0.864   0.773  0.1744  0.1549  0.2681
 4449SOL    HW124980   0.153   0.926   0.712  1.9390 -1.3577 -0.1218
 4449SOL    HW224981   0.156   0.897   0.852  0.2901  1.4112 -0.3257
 4450SOL     OW24982   1.309   0.533   7.011 -0.5284 -0.4868 -0.2491
 4450SOL    HW124983   1.374   0.472   6.977 -0.3737  0.3259 -1.3995
 4450SOL    HW224984   1.283   0.581   6.933  2.0078 -0.2784 -0.9779
 4451SOL     OW24985   3.891   0.873   9.200  0.2311  0.2348 -0.5772
 4451SOL    HW124986   3.924   0.897   9.287  1.5117 -2.6341 -0.2637
 4451SOL    HW224987   3.975   0.864   9.155  0.2259 -2.2879 -0.0586
 4452SOL     OW24988   1.923   1.051   4.456  0.4194 -0.6795  0.0556
 4452SOL    HW124989   1.833   1.077   4.435  0.4684 -1.0855 -0.6702
 4452SOL    HW224990   1.963   1.048   4.369 -1.1057  0.5038 -0.6822
 4453SOL     OW24991   2.793   1.401  11.991 -0.0731 -0.0896 -0.1263
 4453SOL    HW124992   2.711   1.449  12.006 -2.0941 -3.3027 -0.9097
 4453SOL    HW224993   2.782   1.344  11.915 -0.7823 -1.0897  0.7232
 4454SOL     OW24994   1.396   3.525   7.742  0.0278 -0.2426  0.1114
 4454SOL    HW124995   1.455   3.499   7.812  1.6583  1.5305 -0.6177
 4454SOL    HW224996   1.433   3.473   7.670  2.2728 -1.2226  2.0058
 4455SOL     OW24997   1.513   3.726   9.260  0.3179 -0.1054 -0.0871
 4455SOL    HW124998   1.514   3.636   9.294  0.6376 -0.1628 -0.2424
 4455SOL    HW224999   1.430   3.732   9.214 -1.4550 -1.2540  2.9657
 4456SOL     OW25000   4.682   0.613   8.885  0.0519  0.5517  0.2439
 4456SOL    HW125001   4.596   0.652   8.897 -1.1384 -2.0089  0.1924
 4456SOL    HW225002   4.736   0.681   8.925  1.1019  0.5458 -1.1739
 4457SOL     OW25003   1.581   4.540   2.180 -0.5367  0.0138 -0.1537
 4457SOL    HW125004   1.623   4.490   2.251 -0.0637  1.6935  0.7429
 4457SOL    HW225005   1.488   4.538   2.204 -0.8219  0.1221 -1.2515
 4458SOL     OW25006   0.639   4.018   3.802 -0.1669  0.2235 -0.2769
 4458SOL    HW125007   0.588   4.033   3.882 -0.6523 -1.9729 -0.1632
 4458SOL    HW225008   0.570   3.963   3.764  1.0798 -1.1760 -0.4931
 4459SOL     OW25009   0.348   2.659   6.230 -0.1196 -0.1437  0.5316
 4459SOL    HW125010   0.329   2.701   6.314 -0.7729  0.7258 -0.0461
 4459SOL    HW225011   0.338   2.733   6.170  4.3331  1.8494  2.2345
 4460SOL     OW25012   2.157   2.798   7.757 -0.0570  0.2692 -0.0039
 4460SOL    HW125013   2.125   2.886   7.774 -0.4517  0.1629 -0.1875
 4460SOL    HW225014   2.222   2.793   7.827  0.1274  0.3070 -0.1687
 4461SOL     OW25015   3.788   1.154   3.483  0.6899  0.0169  0.1070
 4461SOL    HW125016   3.811   1.152   3.390  1.8513  0.9508  0.3602
 4461SOL    HW225017   3.725   1.226   3.473 -0.9041 -1.6226 -1.5723
 4462SOL     OW25018   4.225   3.976   3.156  0.0068  0.4083  0.3825
 4462SOL    HW125019   4.199   4.048   3.213  0.8529  1.4415 -0.5313
 4462SOL    HW225020   4.305   4.011   3.116 -0.3743  0.2610 -0.5227
 4463SOL     OW25021   1.363   2.347   9.941 -0.0635 -0.1171 -0.5935
 4463SOL    HW125022   1.423   2.416   9.911 -1.3598  0.8509 -0.9641
 4463SOL    HW225023   1.345   2.309   9.855  1.7264  0.8324 -1.4010
 4464SOL     OW25024   1.308   4.659  16.967  0.7961 -0.0745  0.9152
 4464SOL    HW125025   1.280   4.674  16.877 -1.9524 -1.6306  1.5095
 4464SOL    HW225026   1.389   4.707  16.981  0.8509  0.0896  0.0011
 4465SOL     OW25027   0.158   4.603   6.518 -0.4190 -0.7153 -0.2869
 4465SOL    HW125028   0.171   4.682   6.465  2.4212  0.1740  1.6794
 4465SOL    HW225029   0.229   4.548   6.483  0.1185 -1.0005  1.2582
 4466SOL     OW25030   3.421   0.846   3.621  0.1429  0.1116 -0.2084
 4466SOL    HW125031   3.474   0.898   3.682  1.5281 -1.2714 -0.2195
 4466SOL    HW225032   3.462   0.880   3.541 -0.7606 -1.4407 -1.3101
 4467SOL     OW25033   3.573   3.456  13.941 -0.3481  0.1102 -0.0800
 4467SOL    HW125034   3.541   3.545  13.956 -0.7277  0.0362 -0.4677
 4467SOL    HW225035   3.550   3.434  14.032 -0.2155 -0.9780 -0.3165
 4468SOL     OW25036   0.575   4.552  12.190 -0.2884  0.3695  0.1962
 4468SOL    HW125037   0.483   4.560  12.215 -0.6702 -1.2953 -0.7010
 4468SOL    HW225038   0.608   4.603  12.264  0.2739  1.5853 -0.8824
 4469SOL     OW25039   3.127   3.263   9.013  0.4400  0.6322  0.5625
 4469SOL    HW125040   3.195   3.211   9.057 -0.2177  0.0891  0.9430
 4469SOL    HW225041   3.107   3.327   9.081 -0.6001  0.5011  0.3749
 4470SOL     OW25042   4.003   4.611   8.889 -0.0276  0.3807  0.1308
 4470SOL    HW125043   4.009   4.674   8.961 -1.4064  1.9673 -1.1233
 4470SOL    HW225044   3.968   4.528   8.921 -0.9442  1.0074  0.7567
 4471SOL     OW25045   0.463   4.623   7.825 -0.5513  0.2491  0.5593
 4471SOL    HW125046   0.424   4.709   7.810 -1.0529 -0.2412 -0.9078
 4471SOL    HW225047   0.455   4.584   7.738  2.7318 -1.4870  1.0522
 4472SOL     OW25048   0.383   1.028   6.058 -0.0934 -0.4428  0.2595
 4472SOL    HW125049   0.394   0.974   5.980 -1.2897  1.1825 -1.0356
 4472SOL    HW225050   0.300   1.001   6.098  0.6572 -1.8869  0.8347
 4473SOL     OW25051   3.060   3.532   2.699 -0.4748 -0.3363  0.0586
 4473SOL    HW125052   2.989   3.502   2.755  0.1984 -0.3793  0.8773
 4473SOL    HW225053   3.039   3.625   2.691 -0.1373 -0.3109 -0.5717
 4474SOL     OW25054   2.582   3.436   3.885  0.2452 -0.3511  0.1587
 4474SOL    HW125055   2.511   3.386   3.925 -0.9836  0.5526 -0.8926
 4474SOL    HW225056   2.592   3.387   3.803  2.1280  0.1611  0.0930
 4475SOL     OW25057   2.941   4.432  12.163 -0.4893 -0.3144  0.4864
 4475SOL    HW125058   2.997   4.493  12.209 -0.1515 -0.3598  0.1372
 4475SOL    HW225059   2.892   4.490  12.105  0.9612  1.2492  0.8279
 4476SOL     OW25060   1.469   0.892  12.255  0.7852  0.0904  0.3959
 4476SOL    HW125061   1.530   0.877  12.182 -0.1415 -0.9143 -0.1752
 4476SOL    HW225062   1.407   0.820  12.245  1.1596  0.4862 -4.9460
 4477SOL     OW25063   2.345   3.702   6.658 -0.1782  0.2917 -0.3017
 4477SOL    HW125064   2.272   3.737   6.709 -0.8116  2.6827 -2.8456
 4477SOL    HW225065   2.294   3.675   6.582 -0.3111 -0.8069  0.1775
 4478SOL     OW25066   2.259   4.430  10.425  1.0430  0.0486 -0.0562
 4478SOL    HW125067   2.204   4.366  10.381  0.2345 -0.7351  2.1100
 4478SOL    HW225068   2.321   4.440  10.352 -0.5621 -0.0514 -1.4333
 4479SOL     OW25069   1.121   2.361   4.881 -0.0131  0.3392  0.4395
 4479SOL    HW125070   1.054   2.298   4.854  0.5560 -0.4991  0.9564
 4479SOL    HW225071   1.148   2.315   4.960 -1.1475 -0.3248  0.4448
 4480SOL     OW25072   1.547   3.644  13.059 -0.6554  0.0511  0.2691
 4480SOL    HW125073   1.637   3.665  13.084 -0.9575 -0.5414  1.8289
 4480SOL    HW225074   1.529   3.716  12.997 -0.5423 -1.1875 -1.2016
 4481SOL     OW25075   3.119   1.869   6.835  0.3755  0.6026 -0.1083
 4481SOL    HW125076   3.065   1.914   6.900  1.1978 -0.2441  1.1609
 4481SOL    HW225077   3.149   1.791   6.881 -2.0516  0.5259  1.3799
 4482SOL     OW25078   2.706   3.249   1.709 -0.0581  0.5997 -0.1768
 4482SOL    HW125079   2.753   3.198   1.775 -0.9804  0.9553  0.7443
 4482SOL    HW225080   2.663   3.181   1.658  0.8305  2.1268 -2.9743
 4483SOL     OW25081   3.751   1.797   6.962 -0.7261 -0.1014 -0.3970
 4483SOL    HW125082   3.814   1.749   6.908 -0.2368  0.8510 -0.6705
 4483SOL    HW225083   3.765   1.748   7.044 -1.2780  0.9009  0.2970
 4484SOL     OW25084   1.953   2.920  10.690 -0.4528 -0.1964 -0.9447
 4484SOL    HW125085   2.036   2.874  10.695 -0.1888  0.4508  0.5681
 4484SOL    HW225086   1.916   2.886  10.771  1.1954 -0.6575 -0.3984
 4485SOL     OW25087   3.094   2.477   5.706  0.6707 -0.5328  0.4178
 4485SOL    HW125088   3.096   2.573   5.712 -0.4117 -0.5296  0.6975
 4485SOL    HW225089   2.999   2.465   5.707  0.6651 -0.3593  2.1151
 4486SOL     OW25090   2.285   0.769   7.233  0.0263 -0.2231  0.5751
 4486SOL    HW125091   2.372   0.799   7.259  1.2619 -2.8226 -0.6523
 4486SOL    HW225092   2.230   0.847   7.224  0.3839  0.2718  2.6594
 4487SOL     OW25093   4.694   0.688   8.118  0.2102 -0.5384 -0.2923
 4487SOL    HW125094   4.649   0.771   8.102  0.8229  0.0904  1.2777
 4487SOL    HW225095   0.015   0.710   8.189  1.4208 -0.3402 -1.3722
 4488SOL     OW25096   3.512   2.090  12.541 -0.7953  0.0616  0.2387
 4488SOL    HW125097   3.493   2.082  12.634  1.0957 -1.3661  0.5100
 4488SOL    HW225098   3.523   1.999  12.513 -0.1579  1.3831 -3.7951
 4489SOL     OW25099   2.541   3.991  10.383  0.3167 -0.5411  0.1286
 4489SOL    HW125100   2.550   4.053  10.456  2.5453  0.6030 -1.1471
 4489SOL    HW225101   2.604   4.017  10.317  1.9231  0.1788  1.9342
 4490SOL     OW25102   0.788   1.518   4.187 -0.0858 -0.3904 -0.0953
 4490SOL    HW125103   0.818   1.581   4.253 -0.7166 -0.5572  0.3575
 4490SOL    HW225104   0.694   1.539   4.188  0.1511  0.6327  0.7964
 4491SOL     OW25105   4.198   0.106  15.437 -0.0643  0.4001  0.0017
 4491SOL    HW125106   4.289   0.103  15.409  0.7816 -0.9082  2.8871
 4491SOL    HW225107   4.195   0.152  15.521 -1.4155  0.2807  0.0233
 4492SOL     OW25108   0.334   3.562   4.375 -0.3716 -0.1958 -0.4512
 4492SOL    HW125109   0.299   3.647   4.351  1.7899  0.4140 -1.4306
 4492SOL    HW225110   0.429   3.574   4.369 -0.4637  0.5956 -0.3853
 4493SOL     OW25111   3.406   2.867   8.453 -0.5550 -0.7462  0.0984
 4493SOL    HW125112   3.392   2.783   8.497 -5.4437  0.7977  1.4464
 4493SOL    HW225113   3.470   2.840   8.387  1.1970  0.7414  1.1937
 4494SOL     OW25114   1.617   3.200   6.127  0.4061 -0.1481  0.3402
 4494SOL    HW125115   1.650   3.112   6.108  0.1842 -0.7167  2.6458
 4494SOL    HW225116   1.607   3.190   6.221  1.1974 -1.2398  0.3101
 4495SOL     OW25117   2.623   2.670  17.497  0.4239 -0.3581 -0.2100
 4495SOL    HW125118   2.534   2.636  17.499  0.8280 -1.4145 -0.3315
 4495SOL    HW225119   2.650   2.635  17.582  1.9947 -0.8269 -0.9111
 4496SOL     OW25120   2.056   2.980   6.196 -0.2712 -0.2450 -0.0883
 4496SOL    HW125121   2.055   3.061   6.145  0.7045 -0.0197  0.2585
 4496SOL    HW225122   1.975   2.941   6.163 -0.1827 -0.1512 -0.4168
 4497SOL     OW25123   2.098   3.123   5.262  0.2064 -0.7946 -0.1756
 4497SOL    HW125124   2.082   3.216   5.279 -1.1302 -1.1424  0.4085
 4497SOL    HW225125   2.192   3.116   5.281  0.1528  0.1133  0.4138
 4498SOL     OW25126   4.643   0.604  14.574 -0.4157  0.0776  0.1890
 4498SOL    HW125127   4.694   0.545  14.519  0.8400  1.1270  0.2276
 4498SOL    HW225128   4.574   0.545  14.604 -0.1335 -1.3923 -2.0541
 4499SOL     OW25129   2.262   0.086   6.838  0.0410 -0.1175 -0.0081
 4499SOL    HW125130   2.248   0.106   6.930 -1.5980  0.4649 -0.3794
 4499SOL    HW225131   2.304   0.167   6.810  0.2030 -0.6959 -1.4682
 4500SOL     OW25132   1.483   4.523   8.991 -0.0599  0.3483  0.2752
 4500SOL    HW125133   1.555   4.580   9.019  0.6329  0.4062 -1.5995
 4500SOL    HW225134   1.523   4.436   8.999 -1.2301 -0.3956 -1.8731
 4501SOL     OW25135   2.968   1.895   7.449  0.2863  0.2738  0.4598
 4501SOL    HW125136   2.882   1.933   7.429 -0.1757 -1.1201 -0.2013
 4501SOL    HW225137   2.953   1.801   7.454 -0.1942  0.3663  0.7988
 4502SOL     OW25138   0.228   2.400   0.998  0.3973  0.1820 -0.0476
 4502SOL    HW125139   0.149   2.445   0.970  0.2961 -1.5008 -2.4811
 4502SOL    HW225140   0.209   2.382   1.090  0.4523 -0.5906 -0.1922
 4503SOL     OW25141   0.537   2.941   7.555 -0.2957 -0.2741 -0.4155
 4503SOL    HW125142   0.471   2.878   7.582 -1.4544  0.5479 -1.3520
 4503SOL    HW225143   0.534   2.919   7.462  0.1925 -0.6713 -0.3367
 4504SOL     OW25144   1.341   0.969   5.009 -0.0649  0.1669 -0.3112
 4504SOL    HW125145   1.384   0.884   5.019  1.7864  0.7891 -3.1344
 4504SOL    HW225146   1.415   1.029   5.000 -1.4505  1.7720 -1.0593
 4505SOL     OW25147   1.160   4.679   7.654  0.1238 -0.0630 -0.4997
 4505SOL    HW125148   1.157   4.660   7.747 -0.0092  3.4270  0.2017
 4505SOL    HW225149   1.209   0.021   7.646  0.3954 -0.3644 -2.1171
 4506SOL     OW25150   4.555   3.592   7.221 -0.7404 -0.0329 -0.6755
 4506SOL    HW125151   4.500   3.670   7.226 -1.7913 -0.7836 -0.4951
 4506SOL    HW225152   4.492   3.528   7.254  0.9192 -1.0678  0.5108
 4507SOL     OW25153   0.220   3.259  12.050  0.5609  0.1652  0.0341
 4507SOL    HW125154   0.241   3.166  12.038 -0.3849  0.0082 -0.3536
 4507SOL    HW225155   0.274   3.284  12.125 -0.5698  3.5887 -0.3085
 4508SOL     OW25156   3.911   4.547   8.512  0.1677  0.3884 -0.4240
 4508SOL    HW125157   3.886   4.630   8.551  0.8726  0.9418 -1.1515
 4508SOL    HW225158   3.895   4.490   8.587  0.2030 -3.9077 -3.6773
 4509SOL     OW25159   3.402   3.847  16.149  0.3728  0.4316 -0.2082
 4509SOL    HW125160   3.400   3.937  16.118 -0.2533  0.7999  0.9061
 4509SOL    HW225161   3.457   3.798  16.087 -1.1908 -2.5948  0.7784
 4510SOL     OW25162   1.534   1.716   1.201  0.2744 -0.1495 -0.2273
 4510SOL    HW125163   1.599   1.713   1.131  1.1144 -2.0125  0.6441
 4510SOL    HW225164   1.504   1.626   1.199 -2.4470  0.6961  2.0675
 4511SOL     OW25165   1.297   3.314   6.059 -0.4563 -0.1169 -0.3484
 4511SOL    HW125166   1.215   3.299   6.104  1.5144 -1.1776  2.8568
 4511SOL    HW225167   1.363   3.288   6.123 -1.8613 -1.4414  0.5473
 4512SOL     OW25168   1.583   4.564   7.318 -0.1955  0.4752 -0.6349
 4512SOL    HW125169   1.541   4.480   7.340 -0.8451  1.6568  2.7409
 4512SOL    HW225170   1.584   4.562   7.223  0.7956 -0.8930 -0.5922
 4513SOL     OW25171   4.063   2.929   1.663 -0.0651  0.2740 -0.0721
 4513SOL    HW125172   4.027   2.853   1.617  0.2847 -0.4018  0.7741
 4513SOL    HW225173   4.087   2.880   1.742 -1.5274  0.6717  0.6131
 4514SOL     OW25174   0.062   2.287   8.058 -0.0263  0.2610 -0.2036
 4514SOL    HW125175   4.725   2.342   8.041 -1.0451 -0.4468  1.9107
 4514SOL    HW225176   0.096   2.312   8.144  1.4935 -1.8318 -0.1866
 4515SOL     OW25177   0.199   1.926   4.490 -0.3791 -0.0324  0.3065
 4515SOL    HW125178   0.134   1.881   4.436  0.8365 -1.5168  0.0962
 4515SOL    HW225179   0.273   1.867   4.472  0.3703  0.2698  2.4750
 4516SOL     OW25180   4.595   3.071   9.929  0.5176  0.4395  0.0806
 4516SOL    HW125181   4.604   3.166   9.918  0.4200  0.4230 -0.1530
 4516SOL    HW225182   4.511   3.062   9.973  0.7185  1.4226  0.6699
 4517SOL     OW25183   2.667   2.607   2.146  0.2501 -0.2261 -1.4428
 4517SOL    HW125184   2.749   2.591   2.098 -0.4482 -2.8680 -1.7571
 4517SOL    HW225185   2.638   2.696   2.125  0.8309 -0.2239 -2.2656
 4518SOL     OW25186   4.569   3.511   4.597 -0.8887  0.4332  0.4154
 4518SOL    HW125187   4.565   3.604   4.574  0.0484  0.2992 -0.2807
 4518SOL    HW225188   4.489   3.485   4.551  0.5956 -0.0676 -1.9096
 4519SOL     OW25189   2.922   0.469   3.325 -0.0588 -0.1239 -0.0048
 4519SOL    HW125190   2.939   0.439   3.414  0.8743  2.5824  0.7538
 4519SOL    HW225191   2.836   0.505   3.345 -1.7974 -2.3767 -3.5732
 4520SOL     OW25192   3.211   0.117   4.805 -0.4312  0.1872  0.6659
 4520SOL    HW125193   3.148   0.189   4.809 -1.8979 -1.1227  1.0646
 4520SOL    HW225194   3.188   0.077   4.721  1.1476 -0.4015  0.5286
 4521SOL     OW25195   2.921   0.892   7.204 -0.0020 -0.4441  0.3486
 4521SOL    HW125196   2.871   0.925   7.129  1.0443 -1.0801 -0.6322
 4521SOL    HW225197   3.007   0.870   7.168 -0.6036  0.1049 -1.4489
 4522SOL     OW25198   1.787   0.989  14.181  0.3627  0.1255 -0.4281
 4522SOL    HW125199   1.869   0.942  14.194  1.7840  2.3285 -1.4802
 4522SOL    HW225200   1.742   0.956  14.258 -2.3003 -0.7194 -2.3213
 4523SOL     OW25201   1.895   4.199  10.183 -0.0076  0.1177  0.4012
 4523SOL    HW125202   1.877   4.121  10.235  0.5777 -0.2634  0.0325
 4523SOL    HW225203   1.817   4.203  10.128  0.0033  2.2967  0.5356
 4524SOL     OW25204   0.617   3.457  11.138 -0.5128 -0.8529  0.4054
 4524SOL    HW125205   0.592   3.518  11.208  0.6831 -0.6971  0.6943
 4524SOL    HW225206   0.698   3.414  11.164 -0.9673 -2.3456 -0.7081
 4525SOL     OW25207   4.130   0.073   0.800 -0.5057 -0.0897  0.2217
 4525SOL    HW125208   4.178   0.031   0.872  2.1098 -1.8511 -2.5913
 4525SOL    HW225209   4.150   0.166   0.808 -0.0747 -0.3346  2.1366
 4526SOL     OW25210   3.836   2.280  14.092  0.5930 -0.1746  0.1954
 4526SOL    HW125211   3.928   2.303  14.088  0.8203 -1.0737  0.2462
 4526SOL    HW225212   3.806   2.339  14.022 -1.9681  1.6027  2.8128
 4527SOL     OW25213   3.285   2.779   6.593  0.0737 -0.4036 -0.1502
 4527SOL    HW125214   3.254   2.849   6.536  1.0232  0.1952  0.0700
 4527SOL    HW225215   3.285   2.831   6.674  1.1793  1.6468 -1.4603
 4528SOL     OW25216   3.333   4.129   1.946  0.3529 -0.2996 -0.2222
 4528SOL    HW125217   3.342   4.034   1.939  1.1853 -0.2266 -0.1425
 4528SOL    HW225218   3.273   4.152   1.875 -1.7778 -0.0804  1.6399
 4529SOL     OW25219   1.681   0.103   7.097  0.0641 -0.1422  0.4795
 4529SOL    HW125220   1.763   0.128   7.141  0.0452  1.2999 -0.3013
 4529SOL    HW225221   1.682   0.008   7.086 -1.0394 -0.1134  0.2081
 4530SOL     OW25222   0.863   3.057   4.061  0.1488 -0.0246  0.6113
 4530SOL    HW125223   0.912   3.028   3.984  1.2949  1.2853  0.8496
 4530SOL    HW225224   0.890   3.146   4.079  1.1776 -0.2258  0.0846
 4531SOL     OW25225   1.190   0.080   4.862 -0.4917  0.0000 -0.0312
 4531SOL    HW125226   1.202   4.729   4.892  0.2522  0.1311  0.0688
 4531SOL    HW225227   1.282   0.106   4.872 -0.7465  1.3019 -1.0906
 4532SOL     OW25228   3.286   1.731   1.781 -0.3838 -0.6957 -0.0396
 4532SOL    HW125229   3.317   1.642   1.796 -1.6848 -1.3320 -1.1845
 4532SOL    HW225230   3.362   1.779   1.746 -0.5508 -1.1946 -1.1080
 4533SOL     OW25231   1.814   4.626   9.596 -0.4223 -0.0978  0.5683
 4533SOL    HW125232   1.747   4.644   9.662  0.7532  0.4678  1.6087
 4533SOL    HW225233   1.826   4.531   9.599 -0.0952 -0.0943 -1.0352
 4534SOL     OW25234   4.265   3.016   5.424  0.0282  0.0971  0.1063
 4534SOL    HW125235   4.250   2.923   5.404 -1.8362  0.2755  0.6863
 4534SOL    HW225236   4.183   3.059   5.402 -0.4396 -2.5230 -3.2687
 4535SOL     OW25237   2.000   3.150   9.858 -0.0541 -0.1095  0.1333
 4535SOL    HW125238   1.966   3.232   9.824 -2.5477 -1.1729  0.0509
 4535SOL    HW225239   2.090   3.174   9.881 -0.6670 -0.6723  3.1261
 4536SOL     OW25240   2.551   4.684   9.760  0.5206 -0.6802  0.2669
 4536SOL    HW125241   2.559   4.684   9.665  0.7229 -1.1809  0.2818
 4536SOL    HW225242   2.532   4.590   9.764  1.4620 -0.9008 -0.2468
 4537SOL     OW25243   0.287   3.437   8.653 -0.1961 -0.0921  0.7316
 4537SOL    HW125244   0.373   3.428   8.696  1.4064 -1.1686 -2.6567
 4537SOL    HW225245   0.281   3.349   8.614 -0.2239 -1.1441  3.1077
 4538SOL     OW25246   3.020   2.077   4.204 -0.4364 -0.4559 -0.2510
 4538SOL    HW125247   2.950   2.075   4.270  0.5512 -2.5558  0.7306
 4538SOL    HW225248   3.067   2.160   4.217 -0.0574 -1.0676  2.3380
 4539SOL     OW25249   3.096   3.758   3.628  0.0707  0.0076 -0.4092
 4539SOL    HW125250   3.072   3.704   3.552 -2.0913  0.6761 -0.2165
 4539SOL    HW225251   3.129   3.836   3.585 -0.2390  0.3805  0.0270
 4540SOL     OW25252   4.248   2.416  12.463  0.3661 -0.0504 -0.2884
 4540SOL    HW125253   4.335   2.457  12.464  0.3459 -0.0121  0.5752
 4540SOL    HW225254   4.200   2.480  12.515 -1.9418 -0.8902 -1.3934
 4541SOL     OW25255   1.903   3.705   2.208 -0.5425 -0.5225 -0.0844
 4541SOL    HW125256   1.994   3.687   2.232 -0.8288 -1.6449  0.1357
 4541SOL    HW225257   1.908   3.762   2.132 -0.7985 -0.3359  0.0399
 4542SOL     OW25258   3.868   2.028  17.576  0.3460 -0.2406  0.4548
 4542SOL    HW125259   3.853   2.037  17.670 -1.1324  2.5480 -0.0324
 4542SOL    HW225260   3.785   2.011  17.532 -0.1238 -0.2563  1.3638
 4543SOL     OW25261   3.267   1.640   7.359 -0.1296  0.2064 -0.3886
 4543SOL    HW125262   3.190   1.623   7.304  0.8977 -0.7057 -1.5245
 4543SOL    HW225263   3.329   1.640   7.286  0.7690 -0.2916  0.3796
 4544SOL     OW25264   0.417   2.113   4.408 -0.1915 -0.0307 -0.5222
 4544SOL    HW125265   0.331   2.073   4.425  0.0991  0.9843  3.1505
 4544SOL    HW225266   0.397   2.205   4.425  0.2601 -0.0012 -0.1545
 4545SOL     OW25267   4.724   3.060   5.571  0.2946  0.2860  0.5704
 4545SOL    HW125268   4.718   2.982   5.516 -3.7060  0.4490  0.7574
 4545SOL    HW225269   4.656   3.036   5.635 -0.6319  1.1752 -0.0716
 4546SOL     OW25270   0.903   4.723   3.817 -0.2779 -0.2848 -0.0830
 4546SOL    HW125271   0.839   4.660   3.783 -0.3712  0.4504 -1.2622
 4546SOL    HW225272   0.892   4.723   3.912 -1.4029 -0.6004 -0.2202
 4547SOL     OW25273   1.164   1.369   5.848 -0.5879  0.3858 -1.2513
 4547SOL    HW125274   1.165   1.273   5.840  1.1106  0.1919  1.3174
 4547SOL    HW225275   1.245   1.391   5.894 -0.3626  1.8603 -2.3581
 4548SOL     OW25276   3.862   2.282   2.197  0.1814 -0.5484  0.9869
 4548SOL    HW125277   3.770   2.306   2.185  0.6071  0.1858 -0.8291
 4548SOL    HW225278   3.894   2.361   2.241 -1.4524  2.1266 -2.6687
 4549SOL     OW25279   2.755   3.926   5.513  1.2184 -0.2951  0.1379
 4549SOL    HW125280   2.725   3.858   5.452 -1.3370  0.8241  0.1714
 4549SOL    HW225281   2.686   3.992   5.513  1.2950 -0.2157  0.1739
 4550SOL     OW25282   4.546   1.750   1.329  0.2732 -0.4982 -0.3616
 4550SOL    HW125283   4.465   1.705   1.354 -2.1178  3.0337 -1.7051
 4550SOL    HW225284   4.550   1.758   1.234 -2.3255 -2.2165 -0.6283
 4551SOL     OW25285   0.705   4.010   2.814  0.0823  0.3562 -0.2541
 4551SOL    HW125286   0.618   3.987   2.848  1.1682 -2.6962  0.4609
 4551SOL    HW225287   0.715   4.101   2.842  2.4655  0.1848 -0.5339
 4552SOL     OW25288   3.012   1.331   4.038  0.1741  0.0870 -0.3934
 4552SOL    HW125289   2.981   1.317   3.948 -2.3770 -0.7061  0.5978
 4552SOL    HW225290   3.094   1.283   4.046  0.8245  1.3841  0.7955
 4553SOL     OW25291   3.442   4.391   3.065  0.0835  0.0348  0.1861
 4553SOL    HW125292   3.428   4.396   2.971 -3.4100 -0.8338  0.6790
 4553SOL    HW225293   3.359   4.348   3.086 -0.0289 -0.3269 -1.0247
 4554SOL     OW25294   1.885   3.494  16.143 -0.1704  0.0814  0.2820
 4554SOL    HW125295   1.909   3.416  16.094  0.1441  0.1893  0.2587
 4554SOL    HW225296   1.867   3.553  16.070  0.7442  0.6427  0.5103
 4555SOL     OW25297   2.067   0.314  14.825 -0.4651 -0.7112  1.1327
 4555SOL    HW125298   2.094   0.239  14.879  0.6890 -1.6015 -0.6885
 4555SOL    HW225299   2.090   0.293  14.735  0.7098  1.4512  0.9223
 4556SOL     OW25300   2.584   4.399   3.387  0.0834 -0.0336 -1.1032
 4556SOL    HW125301   2.604   4.348   3.466 -2.4273 -0.5754 -0.8259
 4556SOL    HW225302   2.488   4.399   3.388  0.0775 -0.7319 -3.2001
 4557SOL     OW25303   1.989   4.435   3.701 -0.2438 -0.6305  0.0055
 4557SOL    HW125304   1.951   4.390   3.625 -2.1383  0.2966  0.3994
 4557SOL    HW225305   1.925   4.502   3.726  0.4555  0.0105  0.0975
 4558SOL     OW25306   2.263   1.536   5.247 -0.4757  1.0556  0.5985
 4558SOL    HW125307   2.201   1.607   5.230  0.1153  0.6275 -3.1393
 4558SOL    HW225308   2.350   1.575   5.234 -1.1809  2.5509  0.3210
 4559SOL     OW25309   2.964   2.069   4.971 -0.5006 -0.0958 -0.3584
 4559SOL    HW125310   2.895   2.065   5.037  1.0086 -1.8766  1.1178
 4559SOL    HW225311   2.930   2.005   4.908  2.1500 -1.8648  0.0232
 4560SOL     OW25312   2.204   3.457  17.271  0.1540  0.3312 -0.0103
 4560SOL    HW125313   2.225   3.518  17.341  0.4234  0.7921 -0.4939
 4560SOL    HW225314   2.285   3.406  17.271  0.3996  0.7221  1.2538
 4561SOL     OW25315   1.964   2.696  15.967  0.6604 -0.9675 -0.0458
 4561SOL    HW125316   2.012   2.672  16.046  0.1614  0.3090  0.6538
 4561SOL    HW225317   1.944   2.608  15.937 -0.8870 -1.2828  1.8918
 4562SOL     OW25318   4.233   0.669  15.747 -0.5190 -0.3645 -0.3565
 4562SOL    HW125319   4.174   0.682  15.673 -0.1403 -0.9036 -0.7467
 4562SOL    HW225320   4.171   0.693  15.817  1.8074  0.8843  1.2622
 4563SOL     OW25321   1.786   2.350   6.238  0.7050  0.1379 -0.1185
 4563SOL    HW125322   1.705   2.338   6.287  1.9473 -0.6283  1.8002
 4563SOL    HW225323   1.771   2.294   6.162 -0.6416 -3.8423  3.0952
 4564SOL     OW25324   2.666   3.576   5.831  0.3101  0.3369  0.4072
 4564SOL    HW125325   2.653   3.670   5.847  1.1719  0.3640  0.9805
 4564SOL    HW225326   2.606   3.541   5.897 -1.9347 -1.7758 -2.7632
 4565SOL     OW25327   3.124   0.248  12.140  0.3479  0.3311 -0.1684
 4565SOL    HW125328   3.157   0.218  12.055 -0.7318 -3.3717  0.7253
 4565SOL    HW225329   3.135   0.173  12.198  1.0507  1.5653  1.3281
 4566SOL     OW25330   4.133   0.611   9.259 -0.0397  0.2936 -0.3298
 4566SOL    HW125331   4.197   0.589   9.327 -1.8081 -1.4751  0.7265
 4566SOL    HW225332   4.114   0.703   9.277  3.1487  0.4918  2.0861
 4567SOL     OW25333   0.913   2.699   3.598  0.0369  0.1486  0.1538
 4567SOL    HW125334   0.977   2.769   3.583  0.6503 -0.5708 -0.5721
 4567SOL    HW225335   0.970   2.623   3.586  1.4519  1.2676 -0.1607
 4568SOL     OW25336   2.277   0.292   7.961 -0.0157  0.5644 -0.5320
 4568SOL    HW125337   2.226   0.247   7.894  1.5465 -0.7116 -0.8744
 4568SOL    HW225338   2.351   0.314   7.904  0.0293  3.3760  0.6468
 4569SOL     OW25339   1.390   3.414   2.424 -0.8375 -0.4408  0.1595
 4569SOL    HW125340   1.440   3.411   2.342 -0.5680  1.2121  0.2514
 4569SOL    HW225341   1.303   3.389   2.393 -0.3183 -2.1512  0.0925
 4570SOL     OW25342   3.923   2.818   2.953  0.1135 -0.1765  0.0698
 4570SOL    HW125343   3.869   2.755   2.906 -1.3234 -0.1896  1.7130
 4570SOL    HW225344   3.991   2.754   2.975 -0.3998 -0.7312  0.0315
 4571SOL     OW25345   2.810   0.608   1.832  0.0162  0.0754 -0.4878
 4571SOL    HW125346   2.856   0.529   1.861  1.1358  0.7219 -0.4809
 4571SOL    HW225347   2.736   0.576   1.780  0.2770  0.5732 -1.1760
 4572SOL     OW25348   3.589   0.078  10.454 -0.2334 -0.1666  0.0165
 4572SOL    HW125349   3.621   0.168  10.440  0.2074 -0.3863 -0.3757
 4572SOL    HW225350   3.635   0.050  10.533 -1.7816 -1.0514  0.5849
 4573SOL     OW25351   0.348   2.987   8.276  0.1163 -0.3193  0.6394
 4573SOL    HW125352   0.255   3.002   8.291 -0.0628  1.1294 -2.0081
 4573SOL    HW225353   0.375   2.981   8.367 -1.2445 -0.7023  1.0227
 4574SOL     OW25354   3.322   3.913   9.855  0.4329 -0.3746 -0.3299
 4574SOL    HW125355   3.352   3.827   9.826 -0.1741 -0.4838 -0.6340
 4574SOL    HW225356   3.293   3.904   9.946 -1.0630  0.5644 -0.7211
 4575SOL     OW25357   3.724   3.799   5.031  0.9888 -0.3256 -0.5173
 4575SOL    HW125358   3.654   3.742   5.061  1.2175 -1.5178 -2.2145
 4575SOL    HW225359   3.679   3.877   4.997 -0.9544 -1.3160 -0.1720
 4576SOL     OW25360   1.635   2.799  10.761 -0.3967 -0.3090 -0.3448
 4576SOL    HW125361   1.573   2.853  10.811  0.7076  0.5987  0.0421
 4576SOL    HW225362   1.615   2.838  10.675  0.4404 -0.3255 -0.5533
 4577SOL     OW25363   3.119   3.387   9.253 -0.1112 -0.1140  0.6964
 4577SOL    HW125364   3.139   3.367   9.345 -2.1104  3.2735  1.9058
 4577SOL    HW225365   3.206   3.404   9.215 -0.1798 -1.6068 -0.0899
 4578SOL     OW25366   3.345   3.633  14.674  0.0052  0.2569  0.5310
 4578SOL    HW125367   3.326   3.539  14.672 -0.1255  0.2997  0.0037
 4578SOL    HW225368   3.265   3.675  14.642 -0.6497 -0.6219  1.0112
 4579SOL     OW25369   4.600   3.497   3.488 -0.1685 -0.7104 -0.3544
 4579SOL    HW125370   4.613   3.438   3.561 -0.6957  1.6886  1.6877
 4579SOL    HW225371   4.689   3.501   3.452  0.5691 -1.2370  1.4411
 4580SOL     OW25372   3.483   4.332   4.191 -0.5440  0.0453 -0.2441
 4580SOL    HW125373   3.460   4.340   4.098  3.0307  2.3558 -0.9194
 4580SOL    HW225374   3.402   4.372   4.223 -0.9843  1.4895 -3.1596
 4581SOL     OW25375   4.431   2.018   5.917  0.3417  0.2339 -0.7020
 4581SOL    HW125376   4.498   2.062   5.864  1.3360 -0.0913  0.2653
 4581SOL    HW225377   4.435   1.931   5.878  1.3877 -0.5263  1.0801
 4582SOL     OW25378   2.459   2.968   8.917  0.5840 -0.3132 -0.3263
 4582SOL    HW125379   2.378   3.013   8.937  0.4494 -1.1168  1.0215
 4582SOL    HW225380   2.424   2.891   8.872  0.8865  0.0602 -1.2008
 4583SOL     OW25381   3.765   1.734   4.334 -0.4129 -0.5776  0.1187
 4583SOL    HW125382   3.831   1.740   4.264  1.2073  0.7406  1.7748
 4583SOL    HW225383   3.687   1.753   4.281 -1.9493 -2.1675  1.7982
 4584SOL     OW25384   1.965   1.670  15.464 -0.2746  0.2457 -0.3710
 4584SOL    HW125385   2.034   1.685  15.529  0.7368 -2.2933 -0.8862
 4584SOL    HW225386   1.981   1.578  15.446 -1.5240  0.7375 -4.1128
 4585SOL     OW25387   2.763   0.859   9.192  0.2808 -0.1153  0.0699
 4585SOL    HW125388   2.807   0.785   9.233  1.6943  0.7889  0.1617
 4585SOL    HW225389   2.757   0.926   9.261  0.4889  1.1789 -1.1759
 4586SOL     OW25390   3.144   1.960   4.002  0.3792  0.0184 -0.0537
 4586SOL    HW125391   3.093   2.007   3.935  0.0866  0.1927  0.2940
 4586SOL    HW225392   3.107   1.994   4.084  1.2707  2.8514 -0.7990
 4587SOL     OW25393   1.137   0.782  14.060  0.1501 -0.2505 -0.4223
 4587SOL    HW125394   1.118   0.851  13.996 -0.2115  0.9626  1.0087
 4587SOL    HW225395   1.052   0.739  14.055  1.5699 -3.0219 -0.4358
 4588SOL     OW25396   4.196   4.472   6.456  0.3252 -0.0435  0.4033
 4588SOL    HW125397   4.101   4.470   6.470  0.5843 -0.0292  2.1864
 4588SOL    HW225398   4.212   4.556   6.500  2.0745  0.3692 -1.0244
 4589SOL     OW25399   1.981   4.311   5.827 -0.0249  0.0438  0.2373
 4589SOL    HW125400   2.026   4.229   5.808  0.6510  0.1205  1.4725
 4589SOL    HW225401   2.051   4.365   5.864  0.3617 -1.3770  1.5652
 4590SOL     OW25402   1.202   3.966   8.903 -0.1369  0.2278  0.2820
 4590SOL    HW125403   1.262   3.983   8.831  0.2767 -2.4743 -0.0233
 4590SOL    HW225404   1.224   3.882   8.943 -0.9832 -0.3398 -0.4494
 4591SOL     OW25405   4.437   4.241  10.443 -0.4805  0.4845 -0.0269
 4591SOL    HW125406   4.343   4.235  10.458 -0.7951 -0.1045 -2.2156
 4591SOL    HW225407   4.457   4.205  10.357  1.6618  1.0399  0.2278
 4592SOL     OW25408   4.014   2.560  16.671  0.5315  0.3717  0.5170
 4592SOL    HW125409   4.102   2.522  16.678  1.2397  1.8818 -0.2567
 4592SOL    HW225410   3.980   2.526  16.754 -1.1310  0.1893 -0.2537
 4593SOL     OW25411   2.989   0.879   4.382 -0.3075  0.1926  0.5662
 4593SOL    HW125412   2.924   0.935   4.424  0.1988  0.9114  0.4088
 4593SOL    HW225413   3.014   0.921   4.299 -1.3899  2.2294  1.2854
 4594SOL     OW25414   4.666   1.020   7.032  0.5965 -0.4959  0.5849
 4594SOL    HW125415   4.732   0.957   7.060  1.8529  0.0624 -1.0897
 4594SOL    HW225416   4.595   0.956   7.033 -0.0689  0.2402  0.3693
 4595SOL     OW25417   1.037   4.698   6.801  0.4107 -0.0147  0.1245
 4595SOL    HW125418   1.081   0.011   6.869 -0.4099  0.8530 -0.0017
 4595SOL    HW225419   1.074   4.735   6.721 -0.3415  1.9503  0.6869
 4596SOL     OW25420   1.231   1.600   2.476  0.3069  0.0829 -0.1856
 4596SOL    HW125421   1.232   1.516   2.521 -1.2218 -0.2393 -0.7285
 4596SOL    HW225422   1.317   1.600   2.434  1.1555 -0.4494  1.5961
 4597SOL     OW25423   1.853   4.290   5.404 -0.1322 -0.4676  0.0910
 4597SOL    HW125424   1.829   4.233   5.332  0.1917 -1.7014  0.9622
 4597SOL    HW225425   1.851   4.224   5.473 -0.3850 -0.3166  0.2288
 4598SOL     OW25426   2.187   1.771   4.639  0.0829 -0.3707  0.1149
 4598SOL    HW125427   2.197   1.763   4.734 -0.0082  3.9108  0.4599
 4598SOL    HW225428   2.127   1.697   4.626  0.3344 -0.4169 -0.7762
 4599SOL     OW25429   2.423   4.522   5.528 -0.0586 -0.1819  0.3646
 4599SOL    HW125430   2.400   4.528   5.620 -0.6549  2.0609  0.0614
 4599SOL    HW225431   2.451   4.613   5.519 -1.8318  0.1976 -1.3329
 4600SOL     OW25432   3.534   4.340   6.249  0.0571  0.3421  0.4819
 4600SOL    HW125433   3.610   4.329   6.191 -1.7865 -1.7249 -1.5409
 4600SOL    HW225434   3.452   4.338   6.200  0.5440  1.7273 -0.3943
 4601SOL     OW25435   1.474   4.124   8.248 -0.5768 -0.5827 -0.4804
 4601SOL    HW125436   1.518   4.168   8.321  0.7104 -1.9330 -0.4361
 4601SOL    HW225437   1.463   4.033   8.276  2.2257 -0.5779  0.6926
 4602SOL     OW25438   2.643   3.479  10.021  0.0192 -0.4762 -0.0931
 4602SOL    HW125439   2.619   3.404  10.074 -0.5094 -0.7211 -0.6771
 4602SOL    HW225440   2.637   3.550  10.085 -2.3286 -0.0675 -0.7756
 4603SOL     OW25441   0.406   2.834   2.684 -0.1096 -0.2951 -0.2323
 4603SOL    HW125442   0.322   2.876   2.667  0.8742  1.6471 -0.2464
 4603SOL    HW225443   0.453   2.868   2.608  0.2113  1.9479  0.9889
 4604SOL     OW25444   0.827   4.169   1.605  0.9207  0.0798  0.1617
 4604SOL    HW125445   0.830   4.075   1.587 -0.2047 -0.1115  0.9306
 4604SOL    HW225446   0.869   4.207   1.528 -1.7874 -1.1521 -1.9149
 4605SOL     OW25447   3.657   0.769   3.146 -0.0036 -0.0126 -0.2063
 4605SOL    HW125448   3.668   0.795   3.054  1.9573  0.1205  0.0831
 4605SOL    HW225449   3.748   0.769   3.175 -0.1442  1.0329  0.2520
 4606SOL     OW25450   3.689   1.269   3.058  0.5260 -0.1498 -0.1366
 4606SOL    HW125451   3.744   1.255   3.136  0.0456 -0.6177  0.1199
 4606SOL    HW225452   3.617   1.314   3.102  0.4300 -0.1979 -0.2448
 4607SOL     OW25453   2.284   3.907   1.944 -0.3616  0.1587  0.0154
 4607SOL    HW125454   2.343   3.832   1.933  0.1912  0.7580 -1.0375
 4607SOL    HW225455   2.322   3.932   2.028 -0.4242  0.0735  0.0695
 4608SOL     OW25456   1.275   2.496   5.409  0.3779  0.4105  0.7157
 4608SOL    HW125457   1.320   2.574   5.441  0.0532  0.9424 -0.1136
 4608SOL    HW225458   1.185   2.525   5.426 -0.1502 -1.1814  0.6776
 4609SOL     OW25459   1.572   4.705   8.718 -0.1070  0.0522 -0.3037
 4609SOL    HW125460   1.509   0.036   8.701 -0.5283 -0.9580 -3.0178
 4609SOL    HW225461   1.628   0.019   8.774 -1.5456  1.5509 -0.2772
 4610SOL     OW25462   4.607   4.240   2.903  0.6754  0.3769 -0.1187
 4610SOL    HW125463   4.591   4.176   2.834 -0.4126  0.0151  0.4642
 4610SOL    HW225464   4.635   4.322   2.863  0.7480 -0.0594 -0.9578
 4611SOL     OW25465   3.593   0.128   7.712 -0.2678 -0.5309  0.7434
 4611SOL    HW125466   3.663   0.116   7.776  0.8615  3.1545  0.1576
 4611SOL    HW225467   3.568   0.036   7.700 -2.0615 -0.0309  0.6064
 4612SOL     OW25468   1.692   3.341   9.219  0.2538 -0.0576  0.4242
 4612SOL    HW125469   1.654   3.372   9.301 -1.6255 -4.2163  1.1512
 4612SOL    HW225470   1.771   3.394   9.217 -0.9393  1.6864 -0.5742
 4613SOL     OW25471   2.487   0.975   7.120 -0.2003 -0.0600  0.2784
 4613SOL    HW125472   2.548   0.917   7.075  0.2009  1.1518 -0.7639
 4613SOL    HW225473   2.483   1.051   7.061  1.3871  0.9720  1.5167
 4614SOL     OW25474   3.293   0.927   2.439  0.0717 -0.1874 -0.6454
 4614SOL    HW125475   3.257   0.856   2.493  2.5995 -1.1072 -0.2045
 4614SOL    HW225476   3.213   0.966   2.402 -0.8870 -0.8738  0.7071
 4615SOL     OW25477   4.368   4.702  15.162  0.0489 -0.2023  0.0889
 4615SOL    HW125478   4.281   4.689  15.124  0.7278 -0.6432 -1.3372
 4615SOL    HW225479   4.412   4.633  15.111  0.5993  0.0826  0.1724
 4616SOL     OW25480   1.035   0.164   0.516  0.1667  0.2155 -1.1294
 4616SOL    HW125481   0.960   0.157   0.456  0.5334 -0.2865 -1.5339
 4616SOL    HW225482   1.068   0.250   0.493 -0.1898  0.1657 -1.8507
 4617SOL     OW25483   3.547   2.402   9.573  0.5081  1.0128 -0.1014
 4617SOL    HW125484   3.634   2.416   9.609  0.8050  0.4195 -0.5984
 4617SOL    HW225485   3.494   2.387   9.651  0.4608  2.1337  0.0810
 4618SOL     OW25486   2.813   1.113   7.042 -0.4596  0.4097  0.1350
 4618SOL    HW125487   2.877   1.182   7.023  0.1846  0.1669  1.4599
 4618SOL    HW225488   2.731   1.159   7.023  0.3542  2.5749  1.7597
 4619SOL     OW25489   4.056   0.827  16.806  0.1905 -0.3980  0.1008
 4619SOL    HW125490   4.104   0.750  16.777  0.8487  0.8151 -1.9977
 4619SOL    HW225491   3.972   0.793  16.836 -0.1117  0.6504  0.4575
 4620SOL     OW25492   4.697   0.175   6.086  0.2252 -0.3891  0.2678
 4620SOL    HW125493   4.638   0.121   6.139 -1.7688  0.0982 -1.4555
 4620SOL    HW225494   0.011   0.116   6.033  0.8390 -1.1833  1.7871
 4621SOL     OW25495   4.057   0.306  17.584 -0.0444 -0.5092  0.1657
 4621SOL    HW125496   4.100   0.231  17.543 -0.6216 -0.2122 -0.9674
 4621SOL    HW225497   4.054   0.368  17.511 -1.7469  0.1498  0.7886
 4622SOL     OW25498   2.315   2.868   5.767 -0.4460 -0.2412  0.1392
 4622SOL    HW125499   2.357   2.943   5.809 -0.3911  0.8118 -1.8064
 4622SOL    HW225500   2.343   2.798   5.826  1.8528 -0.2294 -0.9313
 4623SOL     OW25501   1.321   0.164  17.498  0.2065  0.0576 -0.3376
 4623SOL    HW125502   1.329   0.079  17.455  0.0471 -0.7012  1.1275
 4623SOL    HW225503   1.235   0.200  17.475  0.0457  0.7258  1.2555
 4624SOL     OW25504   1.055   0.595  12.119 -0.4441 -0.3077  0.6331
 4624SOL    HW125505   1.013   0.542  12.187 -2.5696 -0.6715 -0.9757
 4624SOL    HW225506   1.002   0.675  12.123 -0.3399 -0.2749  1.5227
 4625SOL     OW25507   3.900   3.508   3.470  0.3183  0.5798 -0.2015
 4625SOL    HW125508   3.805   3.513   3.473  0.3321  0.1230  0.9262
 4625SOL    HW225509   3.924   3.584   3.522  1.1878  1.8985 -2.5534
 4626SOL     OW25510   0.777   3.219   0.458 -0.1258 -0.1414  0.0446
 4626SOL    HW125511   0.703   3.164   0.484  0.6063 -0.8333  0.6786
 4626SOL    HW225512   0.731   3.279   0.400 -1.9624  0.3885  2.0487
 4627SOL     OW25513   2.020   0.386   9.709  0.1766  0.3822  0.6702
 4627SOL    HW125514   1.957   0.339   9.653  1.6691 -3.3778  2.1014
 4627SOL    HW225515   2.051   0.459   9.656  2.4057 -1.3587 -0.4452
 4628SOL     OW25516   4.203   4.037  16.501 -0.3239 -0.1144  0.2907
 4628SOL    HW125517   4.116   4.033  16.461 -1.4907 -1.9718  3.0267
 4628SOL    HW225518   4.232   3.947  16.488  3.6908  1.1079  0.6950
 4629SOL     OW25519   1.339   4.238   7.989 -0.2203  0.6241 -0.3322
 4629SOL    HW125520   1.377   4.325   7.998 -1.3515  1.0768  0.0873
 4629SOL    HW225521   1.369   4.194   8.069  0.2701  0.1097 -0.7978
 4630SOL     OW25522   1.638   1.009   2.664  0.4326 -0.3085 -0.1685
 4630SOL    HW125523   1.576   0.937   2.652 -0.7423  0.7071 -0.1762
 4630SOL    HW225524   1.670   1.025   2.575  0.7153  0.5961  0.0906
 4631SOL     OW25525   1.147   0.376   8.622 -0.4420  0.9207  0.2545
 4631SOL    HW125526   1.169   0.394   8.713 -1.6313  1.8378  0.3641
 4631SOL    HW225527   1.104   0.457   8.595  0.8593  1.9803  1.3992
 4632SOL     OW25528   2.223   1.289   5.578 -0.4153  0.0923 -0.4900
 4632SOL    HW125529   2.129   1.279   5.569 -0.7349  0.7730  1.9935
 4632SOL    HW225530   2.232   1.287   5.673  0.5823 -3.0295 -0.6366
 4633SOL     OW25531   0.749   4.595   8.646 -0.0550  0.3275 -0.4360
 4633SOL    HW125532   0.796   4.528   8.697 -1.1871  0.7843  1.1577
 4633SOL    HW225533   0.744   4.556   8.558  0.0538 -0.9518  0.1217
 4634SOL     OW25534   1.247   0.434   7.804 -0.0279 -0.2911  0.0456
 4634SOL    HW125535   1.156   0.410   7.785 -0.5068  1.2100  0.3934
 4634SOL    HW225536   1.267   0.401   7.891  0.5732 -0.7312 -0.2619
 4635SOL     OW25537   1.092   0.590  13.818  0.5126 -0.5847  0.2971
 4635SOL    HW125538   1.028   0.524  13.843 -2.2408  1.1542 -2.1723
 4635SOL    HW225539   1.062   0.600  13.728  0.9134  0.1511  0.2441
 4636SOL     OW25540   2.351   0.503   8.702 -0.3373 -0.5319  0.0373
 4636SOL    HW125541   2.378   0.415   8.726 -0.7965 -0.1439  2.0045
 4636SOL    HW225542   2.410   0.553   8.758 -0.7699  0.5404 -0.4600
 4637SOL     OW25543   0.842   2.045  13.652  0.0732 -0.2661  0.4604
 4637SOL    HW125544   0.771   2.066  13.592  0.4434 -1.9485 -0.5849
 4637SOL    HW225545   0.859   1.954  13.627  1.5747  0.2697 -0.5023
 4638SOL     OW25546   3.492   0.750   9.337  0.1715 -0.2677 -0.1186
 4638SOL    HW125547   3.421   0.701   9.296 -0.5091 -0.0799  0.8350
 4638SOL    HW225548   3.475   0.718   9.426  0.9433 -1.2433 -0.3128
 4639SOL     OW25549   2.005   0.703   8.669  0.5779  0.1692 -0.3608
 4639SOL    HW125550   2.025   0.609   8.669  2.4301  0.5717 -0.2296
 4639SOL    HW225551   1.956   0.703   8.586  0.2813  0.6312 -0.1833
 4640SOL     OW25552   3.217   4.018   3.547 -0.2519  0.5752 -0.2451
 4640SOL    HW125553   3.198   4.017   3.453  1.9380  0.6607 -0.6844
 4640SOL    HW225554   3.163   4.094   3.569 -0.0350 -0.1450  2.7259
 4641SOL     OW25555   0.433   3.992   4.211  0.2995 -0.2076  0.3297
 4641SOL    HW125556   0.438   4.046   4.132  1.4473  0.0105  0.5554
 4641SOL    HW225557   0.367   3.927   4.189 -1.6129  1.9544 -0.2980
 4642SOL     OW25558   2.526   1.763   3.638 -0.5147  0.1954 -0.1528
 4642SOL    HW125559   2.598   1.808   3.595 -0.0914  0.7741  1.1883
 4642SOL    HW225560   2.494   1.825   3.703  2.3363  0.2121  1.2347
 4643SOL     OW25561   1.353   0.284   5.369  0.3263 -0.0486  0.4072
 4643SOL    HW125562   1.265   0.298   5.335  0.3258 -0.9775  0.0305
 4643SOL    HW225563   1.377   0.200   5.329  0.4448  0.2258 -0.1060
 4644SOL     OW25564   3.753   2.054   7.040 -0.1628  0.3946 -0.6857
 4644SOL    HW125565   3.748   2.077   6.948  1.7950 -2.7583 -1.5761
 4644SOL    HW225566   3.742   1.960   7.027 -4.4463  1.0925 -2.0728
 4645SOL     OW25567   4.244   0.229   1.293 -0.3359  0.0091 -0.2137
 4645SOL    HW125568   4.296   0.186   1.225 -1.3270 -0.4330 -0.6798
 4645SOL    HW225569   4.255   0.157   1.355  1.9677  0.7992  0.2921
 4646SOL     OW25570   2.223   2.960   8.352  0.3140 -0.4219  0.1808
 4646SOL    HW125571   2.195   3.047   8.380  0.1120 -0.0484 -1.1767
 4646SOL    HW225572   2.217   2.908   8.432 -4.1160 -0.6322 -0.2846
 4647SOL     OW25573   1.537   0.694   4.788 -0.5010  0.4121  0.0989
 4647SOL    HW125574   1.493   0.609   4.781 -0.2676  0.2683  0.3979
 4647SOL    HW225575   1.541   0.722   4.696 -0.7555  1.1097  0.3020
 4648SOL     OW25576   1.124   2.510   3.078  0.5429  0.6380 -0.6465
 4648SOL    HW125577   1.192   2.577   3.084 -1.6409  2.5108  3.1530
 4648SOL    HW225578   1.090   2.516   3.167  1.2722  0.1081 -0.3332
 4649SOL     OW25579   4.714   4.359  15.526 -0.8733 -0.3490 -0.1531
 4649SOL    HW125580   4.695   4.270  15.495 -2.3468  0.3741 -1.3655
 4649SOL    HW225581   4.642   4.411  15.489  1.1654  1.3242 -1.8164
 4650SOL     OW25582   3.410   0.017   9.440 -0.0379  0.2764  0.2158
 4650SOL    HW125583   3.496   4.714   9.438 -0.8988 -1.4203 -0.3704
 4650SOL    HW225584   3.370   4.699   9.505 -3.0756  2.8173  0.6073
 4651SOL     OW25585   2.140   2.955  10.986  0.3350  0.1509  0.4889
 4651SOL    HW125586   2.161   2.862  10.994  2.3381  0.3889 -2.1741
 4651SOL    HW225587   2.200   2.973  10.914  1.1164 -1.1437  0.8168
 4652SOL     OW25588   0.595   3.452   3.407 -0.3169  0.2216  0.2565
 4652SOL    HW125589   0.630   3.372   3.445 -0.8849  1.1186  2.6697
 4652SOL    HW225590   0.610   3.514   3.478 -0.9182  2.5543 -1.6344
 4653SOL     OW25591   4.262   0.967   3.525  0.5245 -0.1975  0.4788
 4653SOL    HW125592   4.353   0.960   3.555  0.6951  0.0948  0.0348
 4653SOL    HW225593   4.245   1.061   3.529 -0.4298 -0.4315  1.8904
 4654SOL     OW25594   2.946   4.284   8.549  0.0442 -0.4302 -0.1085
 4654SOL    HW125595   2.960   4.308   8.640 -1.0749  2.8446 -0.8347
 4654SOL    HW225596   3.002   4.343   8.499 -1.1201  0.6741 -0.0836
 4655SOL     OW25597   1.651   1.144   5.249 -0.2326 -0.0478 -0.0210
 4655SOL    HW125598   1.657   1.221   5.306 -2.0142 -0.2258  0.4002
 4655SOL    HW225599   1.602   1.179   5.175  1.5132  1.3360 -0.5388
 4656SOL     OW25600   3.038   1.020   5.593 -0.6923  0.6951  1.2805
 4656SOL    HW125601   2.947   0.993   5.606 -0.7353  0.9316  1.4642
 4656SOL    HW225602   3.029   1.114   5.608  1.6244  1.7043 -3.4521
 4657SOL     OW25603   0.801   2.885   9.672 -0.0444  0.4749 -0.3447
 4657SOL    HW125604   0.812   2.848   9.760 -0.1642 -0.6716 -0.8080
 4657SOL    HW225605   0.820   2.977   9.686 -0.1765  0.3097  0.9180
 4658SOL     OW25606   4.519   4.583   5.153 -0.1073  0.0112 -0.0557
 4658SOL    HW125607   4.538   4.549   5.065  0.4257 -0.5915  0.2903
 4658SOL    HW225608   4.559   4.669   5.142  1.4234 -0.4992  1.4687
 4659SOL     OW25609   4.536   3.932   9.039  0.7022 -0.1623 -0.0069
 4659SOL    HW125610   4.566   3.945   9.129  1.0788  2.9841 -0.6062
 4659SOL    HW225611   4.565   3.841   9.026  0.9006 -0.2780  1.2473
 4660SOL     OW25612   4.633   1.507   7.195 -0.3431  0.3701 -0.3504
 4660SOL    HW125613   4.670   1.593   7.212  0.8732 -0.2020 -0.1148
 4660SOL    HW225614   4.591   1.507   7.109 -0.2299  0.8435 -0.4024
 4661SOL     OW25615   1.434   2.065   4.627  0.4934  0.3371 -0.1871
 4661SOL    HW125616   1.489   2.111   4.563 -0.3913 -1.3114 -2.1172
 4661SOL    HW225617   1.472   1.979   4.643 -1.3655 -0.2044  1.3099
 4662SOL     OW25618   4.001   4.196   9.019  0.0038 -0.4091 -0.1540
 4662SOL    HW125619   4.034   4.120   9.067  0.3328  0.9135  1.7112
 4662SOL    HW225620   4.078   4.252   9.010 -1.3422  1.4929  0.1518
 4663SOL     OW25621   2.995   1.341  17.645 -0.0484 -0.1299 -0.1771
 4663SOL    HW125622   3.017   1.343  17.552  0.7715  0.6416  0.0333
 4663SOL    HW225623   3.054   1.405  17.684 -3.1812  3.3463 -1.1169
 4664SOL     OW25624   2.224   4.574   4.569 -0.0835  0.1324 -0.1903
 4664SOL    HW125625   2.244   4.642   4.505 -1.1862  2.4192  1.8892
 4664SOL    HW225626   2.280   4.503   4.539 -0.9129 -1.5078  2.1497
 4665SOL     OW25627   1.302   2.543   7.489 -0.0522  0.1591  0.0912
 4665SOL    HW125628   1.311   2.451   7.463 -1.1773 -0.1664  0.8617
 4665SOL    HW225629   1.207   2.532   7.501 -0.0929  0.3694 -0.0409
 4666SOL     OW25630   0.331   3.299  16.574 -0.0732 -0.1274  0.2005
 4666SOL    HW125631   0.315   3.264  16.661 -0.2863  0.7106  0.4961
 4666SOL    HW225632   0.250   3.278  16.528 -0.2982 -3.1259  1.9686
 4667SOL     OW25633   3.289   4.143   4.344 -0.4902  0.6164  0.2038
 4667SOL    HW125634   3.273   4.049   4.352 -0.9727  0.7429  0.7357
 4667SOL    HW225635   3.303   4.161   4.251 -0.2790 -0.5302  0.0102
 4668SOL     OW25636   2.998   3.875   5.861  0.3397 -0.6521  0.2427
 4668SOL    HW125637   2.904   3.861   5.849  0.6564 -0.3006 -2.5414
 4668SOL    HW225638   3.030   3.874   5.771  2.5425 -0.8336  1.0338
 4669SOL     OW25639   0.518   0.215   2.635  0.6286  0.1925  0.2634
 4669SOL    HW125640   0.553   0.275   2.701 -0.1692  0.3185  0.5715
 4669SOL    HW225641   0.427   0.245   2.634  1.1485  1.8046  1.3166
 4670SOL     OW25642   2.609   1.614  15.680 -0.0590  0.4009  0.1216
 4670SOL    HW125643   2.518   1.642  15.672 -0.7608 -2.2578 -1.0189
 4670SOL    HW225644   2.603   1.527  15.641 -1.1148  1.1337 -1.3425
 4671SOL     OW25645   0.679   4.180  10.429 -0.5606  0.3300  0.1177
 4671SOL    HW125646   0.671   4.088  10.457  1.3860  0.2757  0.4514
 4671SOL    HW225647   0.620   4.220  10.492 -0.5145 -2.4893  1.9486
 4672SOL     OW25648   3.200   1.322  12.013  0.2931 -0.6592 -0.1953
 4672SOL    HW125649   3.218   1.318  12.107 -2.1092 -2.1835  0.1957
 4672SOL    HW225650   3.182   1.416  12.006  1.5633 -0.4655 -0.8068
 4673SOL     OW25651   2.935   2.648   0.414 -0.3490  0.0554 -0.5715
 4673SOL    HW125652   2.941   2.571   0.470 -2.0637  0.0514 -0.3912
 4673SOL    HW225653   2.847   2.641   0.376 -0.4994 -0.1395 -0.1867
 4674SOL     OW25654   3.806   3.291  14.208  0.0193 -0.2043  0.1163
 4674SOL    HW125655   3.722   3.289  14.254  0.4497  1.4784  0.9689
 4674SOL    HW225656   3.866   3.234  14.257  1.2165 -0.2851 -1.4522
 4675SOL     OW25657   2.293   2.649   6.420 -0.0633 -0.1350 -0.1393
 4675SOL    HW125658   2.220   2.674   6.477  0.9658  1.0591  0.6678
 4675SOL    HW225659   2.350   2.722   6.446 -1.1475  1.0375 -1.0898
 4676SOL     OW25660   3.002   4.340  14.393  0.1763  0.1508 -0.3678
 4676SOL    HW125661   2.939   4.397  14.350 -3.3730 -4.0208 -0.6574
 4676SOL    HW225662   3.028   4.282  14.322 -0.7531  1.0903 -1.4828
 4677SOL     OW25663   4.591   0.946   0.743 -0.3609  0.2917  0.0064
 4677SOL    HW125664   4.687   0.937   0.740 -0.4476 -0.9031  0.6420
 4677SOL    HW225665   4.573   0.937   0.649  0.3581 -0.3748 -0.0749
 4678SOL     OW25666   3.096   0.351   4.755 -0.0997 -0.1324 -0.4062
 4678SOL    HW125667   3.075   0.408   4.829  1.1427  1.0884 -1.0178
 4678SOL    HW225668   3.169   0.401   4.722  0.1325 -0.2545 -0.0831
 4679SOL     OW25669   2.377   0.751   6.942  0.2338  0.4437  0.2775
 4679SOL    HW125670   2.356   0.842   6.921 -0.0377 -0.0083 -1.4200
 4679SOL    HW225671   2.349   0.742   7.033  0.8686  0.9225  0.5230
 4680SOL     OW25672   0.663   3.614   2.939  0.6400  0.1897  0.1771
 4680SOL    HW125673   0.639   3.525   2.963 -2.5056  0.6717 -1.1134
 4680SOL    HW225674   0.577   3.655   2.923  1.5068  1.5322 -1.1177
 4681SOL     OW25675   1.652   0.541   0.732  1.0149 -0.3874 -0.0401
 4681SOL    HW125676   1.619   0.472   0.675 -1.3409 -0.6614  1.6253
 4681SOL    HW225677   1.594   0.537   0.808  2.3291 -1.4419  0.8986
 4682SOL     OW25678   0.055   0.418   5.494  0.1565 -0.0534 -0.0621
 4682SOL    HW125679   0.104   0.338   5.512  0.3071  0.2057  0.6775
 4682SOL    HW225680   0.098   0.436   5.410 -0.6165  1.0322 -0.2271
 4683SOL     OW25681   2.201   0.712   7.910  0.1806  0.2557  0.0103
 4683SOL    HW125682   2.248   0.788   7.876  1.7348 -2.1225 -3.2024
 4683SOL    HW225683   2.115   0.714   7.869 -0.5265 -0.3791  1.4797
 4684SOL     OW25684   3.012   3.551  10.212 -0.7846 -0.0659  0.1181
 4684SOL    HW125685   3.037   3.550  10.304 -2.5688 -0.3603  0.6048
 4684SOL    HW225686   3.098   3.540  10.172 -1.6191 -0.7619 -1.4858
 4685SOL     OW25687   4.196   0.934  17.156  0.4030 -0.7284 -0.6159
 4685SOL    HW125688   4.107   0.928  17.122  1.0131 -2.0581 -1.9306
 4685SOL    HW225689   4.246   0.946  17.075 -1.8900 -3.1236 -2.3708
 4686SOL     OW25690   1.147   0.356  15.301  0.2159  0.2599 -0.1210
 4686SOL    HW125691   1.064   0.310  15.318  0.9493 -0.3236  1.8328
 4686SOL    HW225692   1.105   0.433  15.262  0.0598 -0.0845 -0.6319
 4687SOL     OW25693   0.209   0.513  14.578  0.0509 -0.3715  0.4990
 4687SOL    HW125694   0.209   0.569  14.655 -1.1713 -0.9491  0.9162
 4687SOL    HW225695   0.218   0.568  14.500  1.6660  0.5719  1.3576
 4688SOL     OW25696   3.966   1.120   2.678 -0.0900 -0.5213 -0.7106
 4688SOL    HW125697   3.937   1.150   2.764  1.7523 -0.9595  0.0683
 4688SOL    HW225698   4.060   1.116   2.695 -0.0691  3.5313  0.0334
 4689SOL     OW25699   1.815   2.441   9.718  0.4702  0.0878  0.0567
 4689SOL    HW125700   1.840   2.529   9.746 -0.5262  0.3510  0.1099
 4689SOL    HW225701   1.822   2.443   9.623 -0.9361 -3.0390 -0.1055
 4690SOL     OW25702   1.916   1.469   8.192  0.1449 -0.7491 -0.0319
 4690SOL    HW125703   1.990   1.504   8.142 -1.1031  1.6334 -0.1770
 4690SOL    HW225704   1.851   1.538   8.181  0.4761 -0.6356 -1.2940
 4691SOL     OW25705   2.728   2.754  11.073  0.1434  0.1076 -0.9279
 4691SOL    HW125706   2.694   2.751  10.984 -2.7368 -0.0668  0.1553
 4691SOL    HW225707   2.690   2.674  11.111 -0.7867  0.1888 -1.6833
 4692SOL     OW25708   0.493   3.014  10.626  0.5099 -0.2376 -0.0559
 4692SOL    HW125709   0.477   2.997  10.718 -2.6913 -1.1863 -0.8027
 4692SOL    HW225710   0.547   2.938  10.605  1.4835  0.8601 -1.5132
 4693SOL     OW25711   3.229   2.450   6.509 -0.4181 -0.1097 -0.1952
 4693SOL    HW125712   3.138   2.478   6.500  0.1739  1.7856 -0.2462
 4693SOL    HW225713   3.265   2.538   6.499 -2.9706  0.9550 -0.0091
 4694SOL     OW25714   3.337   4.150   7.789  0.7262  0.3544 -0.6950
 4694SOL    HW125715   3.312   4.059   7.803  0.6087 -0.3767 -5.5462
 4694SOL    HW225716   3.402   4.146   7.720  1.2426 -1.4700 -0.0871
 4695SOL     OW25717   1.906   3.323   6.842 -0.1056 -0.0084 -0.3321
 4695SOL    HW125718   1.882   3.414   6.856  0.7564 -0.0434  1.3068
 4695SOL    HW225719   1.887   3.287   6.928  1.5433  1.2777  0.5544
 4696SOL     OW25720   4.156   3.625  15.155 -0.0280  0.5177  0.2283
 4696SOL    HW125721   4.218   3.690  15.187 -0.5245  0.3174  1.6108
 4696SOL    HW225722   4.143   3.651  15.064  1.1284 -1.8118 -0.6068
 4697SOL     OW25723   4.426   2.681   1.918  0.3494 -0.0633 -0.2931
 4697SOL    HW125724   4.341   2.719   1.896  0.6310  0.6775 -0.0940
 4697SOL    HW225725   4.400   2.589   1.922  2.1457 -0.6127 -1.5744
 4698SOL     OW25726   3.878   4.679   9.296 -0.2267 -0.2889 -0.1390
 4698SOL    HW125727   3.953   4.700   9.352 -0.7938  2.4508 -0.4057
 4698SOL    HW225728   3.914   4.713   9.214  0.1286  0.0359  0.1490
 4699SOL     OW25729   2.330   3.738   4.547 -0.0583 -0.5174  0.7155
 4699SOL    HW125730   2.393   3.807   4.530  2.7372 -3.5069 -0.9593
 4699SOL    HW225731   2.248   3.786   4.563 -0.5739 -1.7514  1.8184
 4700SOL     OW25732   0.232   4.360   4.489  0.3668 -0.3576  0.5743
 4700SOL    HW125733   0.243   4.266   4.475  0.2059 -0.3662  0.5108
 4700SOL    HW225734   0.137   4.367   4.493  0.5963  1.1219  3.0850
 4701SOL     OW25735   0.962   0.782   8.130  0.2405 -0.3358 -0.9793
 4701SOL    HW125736   0.968   0.851   8.063  1.3044  1.4052  0.9325
 4701SOL    HW225737   0.974   0.705   8.075  0.3299 -0.3659 -0.9158
 4702SOL     OW25738   2.743   2.492   3.910 -0.1775 -0.3950  0.4518
 4702SOL    HW125739   2.666   2.481   3.854 -1.4284  1.0070  1.8908
 4702SOL    HW225740   2.786   2.563   3.864 -0.4447  1.2507  2.7815
 4703SOL     OW25741   3.024   2.833   4.636 -0.4412 -0.2333  0.7919
 4703SOL    HW125742   2.983   2.747   4.649 -0.3919 -0.4977 -0.7958
 4703SOL    HW225743   2.941   2.881   4.642 -0.1278  0.5632 -1.2827
 4704SOL     OW25744   1.608   1.440  11.760 -0.2279  0.3358  0.5229
 4704SOL    HW125745   1.659   1.451  11.840  1.2623 -0.4631 -0.3239
 4704SOL    HW225746   1.679   1.406  11.706  0.4016 -0.5493  1.9310
 4705SOL     OW25747   2.987   3.121   9.372 -0.2024  0.1039 -0.0617
 4705SOL    HW125748   3.060   3.160   9.420 -0.7609 -0.2814  1.1290
 4705SOL    HW225749   3.022   3.102   9.286  0.6155 -2.5326  0.8563
 4706SOL     OW25750   1.428   0.228   8.695 -0.0607 -0.1595  0.1792
 4706SOL    HW125751   1.393   0.248   8.782  0.0848  1.9895 -0.2688
 4706SOL    HW225752   1.354   0.255   8.641  0.4453  1.8231  0.4804
 4707SOL     OW25753   2.394   3.083   6.353  0.7956 -0.0629 -0.0170
 4707SOL    HW125754   2.397   3.016   6.285  0.7884 -0.8447  0.7474
 4707SOL    HW225755   2.470   3.058   6.406  0.9140  0.5059  0.0761
 4708SOL     OW25756   2.771   0.107  11.252  0.4619  0.0490  0.4660
 4708SOL    HW125757   2.832   0.140  11.318  2.2863 -0.3725 -1.0166
 4708SOL    HW225758   2.759   0.183  11.195  1.1319  1.0607  1.6838
 4709SOL     OW25759   2.752   3.672  13.092 -0.1972 -0.1147 -0.2939
 4709SOL    HW125760   2.833   3.622  13.085 -1.0529 -1.3582 -1.2162
 4709SOL    HW225761   2.740   3.690  12.998  0.1659  0.9126 -0.1399
 4710SOL     OW25762   1.322   0.730   8.926  0.6301  0.1469  0.0619
 4710SOL    HW125763   1.283   0.749   8.841 -0.2586  1.3076  0.7137
 4710SOL    HW225764   1.375   0.807   8.948  0.6969  0.0146  0.3626
 4711SOL     OW25765   0.116   0.077   2.716 -0.3523  0.1898  0.4905
 4711SOL    HW125766   0.138   4.725   2.697 -0.5866  0.3292 -0.4638
 4711SOL    HW225767   0.110   0.091   2.811 -1.3914  2.6807  0.0539
 4712SOL     OW25768   2.121   1.978   6.336 -0.2806  0.6017  0.0463
 4712SOL    HW125769   2.171   1.964   6.417  0.9217  0.5235 -0.7102
 4712SOL    HW225770   2.093   1.888   6.319 -1.5997  0.5903  2.2936
 4713SOL     OW25771   3.315   1.369   6.850  0.2145 -0.1392  0.5946
 4713SOL    HW125772   3.385   1.335   6.906  2.3466  2.4500 -0.5242
 4713SOL    HW225773   3.360   1.417   6.781  0.3681  0.9555  1.4476
 4714SOL     OW25774   0.535   4.412  10.295 -0.1567 -0.1419  0.6500
 4714SOL    HW125775   0.451   4.458  10.302  0.2119  0.5254  0.6798
 4714SOL    HW225776   0.511   4.332  10.343 -1.5874  0.3607  0.7634
 4715SOL     OW25777   2.134   4.293   6.396 -0.1078 -0.4369 -0.8295
 4715SOL    HW125778   2.206   4.318   6.454 -2.8922 -0.0162  2.4191
 4715SOL    HW225779   2.081   4.246   6.460  0.6697  1.0151  0.8634
 4716SOL     OW25780   4.070   0.154   6.252 -0.2858  0.2354  0.1387
 4716SOL    HW125781   4.005   0.123   6.315 -0.0987 -0.9915 -0.2765
 4716SOL    HW225782   4.043   0.246   6.244 -1.4807  0.0784  2.3603
 4717SOL     OW25783   1.827   0.357   7.522  0.7949 -0.0598 -0.4046
 4717SOL    HW125784   1.786   0.335   7.606  2.0252  0.7271  0.3938
 4717SOL    HW225785   1.838   0.269   7.485  1.1451  0.9033 -2.5822
 4718SOL     OW25786   3.913   4.422  15.550  0.1983  0.2780 -0.1111
 4718SOL    HW125787   3.901   4.486  15.621  1.8401  0.0432  0.3774
 4718SOL    HW225788   3.930   4.486  15.482  0.9830 -0.6254 -0.7513
 4719SOL     OW25789   0.525   0.412   3.778  0.1422 -0.4138 -0.3388
 4719SOL    HW125790   0.497   0.443   3.864 -2.5101 -3.7028 -0.0069
 4719SOL    HW225791   0.583   0.485   3.757  1.0786 -1.5260 -1.6724
 4720SOL     OW25792   1.833   0.127  15.030 -0.0897  0.1693  0.0696
 4720SOL    HW125793   1.928   0.118  15.044  0.1780  1.5105 -0.8105
 4720SOL    HW225794   1.825   0.079  14.948  0.3133  0.2363 -0.0131
 4721SOL     OW25795   1.982   0.011  12.677  0.4218  0.4759  0.1019
 4721SOL    HW125796   1.920   4.726  12.745  1.1679  0.3897  0.7629
 4721SOL    HW225797   2.055   0.046  12.730  0.0127  1.3654  0.0797
 4722SOL     OW25798   1.761   2.953   9.436  0.0695  0.1946  0.2245
 4722SOL    HW125799   1.760   2.975   9.529  0.1216  1.5228 -0.0955
 4722SOL    HW225800   1.850   2.974   9.406  0.5578 -1.7030  0.3565
 4723SOL     OW25801   2.163   0.532   0.400 -0.1913  0.1631 -0.2732
 4723SOL    HW125802   2.243   0.564   0.442 -0.7021  0.8076  0.2053
 4723SOL    HW225803   2.177   0.439   0.383 -1.6795  0.0475 -0.9105
 4724SOL     OW25804   0.432   0.026   0.614  0.2633  0.0268 -0.0114
 4724SOL    HW125805   0.504   4.736   0.558  1.5494  1.4880  0.8777
 4724SOL    HW225806   0.358   0.009   0.556 -0.1567  0.4191  0.4069
 4725SOL     OW25807   3.606   4.629   3.101  0.0875 -0.5426 -0.0752
 4725SOL    HW125808   3.595   4.536   3.125 -0.6469 -0.6023 -0.6686
 4725SOL    HW225809   3.516   4.659   3.097  0.7669  1.8613  2.4189
 4726SOL     OW25810   2.200   0.436   6.809 -0.3369 -0.0817  0.0450
 4726SOL    HW125811   2.223   0.385   6.731 -0.1555 -1.2327  0.8590
 4726SOL    HW225812   2.203   0.526   6.776 -3.0546  0.3544  1.0130
 4727SOL     OW25813   3.722   2.566  16.529 -1.2332  0.8293 -0.2320
 4727SOL    HW125814   3.796   2.611  16.570  1.0821 -1.4132 -1.8785
 4727SOL    HW225815   3.711   2.489  16.584 -4.2476  1.7901  0.4842
 4728SOL     OW25816   0.259   3.553   0.597 -0.0316  0.4286 -0.0430
 4728SOL    HW125817   0.217   3.522   0.517 -0.9861  1.5805  0.0033
 4728SOL    HW225818   0.203   3.625   0.626 -1.9740 -0.5536 -1.3621
 4729SOL     OW25819   1.940   2.242   6.426 -0.0924 -0.4223  0.4770
 4729SOL    HW125820   1.905   2.259   6.338  1.7501  0.9861  0.0114
 4729SOL    HW225821   1.966   2.150   6.428 -1.5947 -0.8384  0.5822
 4730SOL     OW25822   0.872   3.525   7.385 -0.3000 -0.2781  0.0118
 4730SOL    HW125823   0.787   3.551   7.349  0.4651  2.3320  0.0904
 4730SOL    HW225824   0.866   3.431   7.367 -0.5029 -0.0717 -0.9634
 4731SOL     OW25825   2.632   1.102   9.311 -0.4298  0.1693 -0.0123
 4731SOL    HW125826   2.647   1.147   9.394  0.7677  1.6427 -1.0180
 4731SOL    HW225827   2.660   1.172   9.252 -0.9827  1.0975  0.8383
 4732SOL     OW25828   3.070   4.509   1.829  0.6958  0.1388  0.1643
 4732SOL    HW125829   3.006   4.577   1.851 -0.2838 -0.2708 -1.4323
 4732SOL    HW225830   3.054   4.485   1.738  1.1939 -0.3063  0.1931
 4733SOL     OW25831   0.331   4.329   4.741  0.3761  0.1959  0.3738
 4733SOL    HW125832   0.341   4.421   4.764 -2.2010  0.6225 -0.2751
 4733SOL    HW225833   0.302   4.342   4.651 -0.1718 -0.2735  0.4878
 4734SOL     OW25834   2.164   1.707   5.930 -0.1525  0.2902  0.0642
 4734SOL    HW125835   2.142   1.656   6.008  0.2452  1.1206  0.7142
 4734SOL    HW225836   2.195   1.791   5.964 -0.7959  0.3979  0.3782
 4735SOL     OW25837   3.471   0.661   2.453  0.0640 -0.3878 -0.1742
 4735SOL    HW125838   3.424   0.586   2.416  0.3783 -1.0073  0.6727
 4735SOL    HW225839   3.422   0.679   2.534  0.4674  1.3804 -0.3211
 4736SOL     OW25840   3.041   3.315  13.998  0.7042  0.1869  0.6220
 4736SOL    HW125841   3.106   3.373  14.037 -0.1891  0.9182  1.0129
 4736SOL    HW225842   2.957   3.359  14.011  0.8143  0.8151 -0.7784
 4737SOL     OW25843   2.019   3.296   6.072  0.0332 -0.5534 -0.0123
 4737SOL    HW125844   2.020   3.329   6.162  0.2758 -0.7328  0.0501
 4737SOL    HW225845   1.938   3.335   6.038  1.2695  2.3670  0.4505
 4738SOL     OW25846   2.940   0.732   7.793 -0.6096 -0.4092  0.3674
 4738SOL    HW125847   2.898   0.791   7.856  0.4455 -0.7294  1.3778
 4738SOL    HW225848   3.017   0.781   7.764 -0.6715  0.3372  1.4823
 4739SOL     OW25849   4.432   3.992   4.813  1.1617  0.6856  0.0526
 4739SOL    HW125850   4.471   3.915   4.854  0.2938  1.2788  2.0012
 4739SOL    HW225851   4.343   3.960   4.795  1.3141 -0.2452  0.9539
 4740SOL     OW25852   1.288   0.463   5.562 -0.1180 -0.0546 -0.2981
 4740SOL    HW125853   1.198   0.431   5.573  0.2485 -1.4455 -1.3279
 4740SOL    HW225854   1.309   0.391   5.503 -1.7710 -0.1914 -0.7233
 4741SOL     OW25855   3.450   1.915   2.068  0.3629  0.4990 -0.5143
 4741SOL    HW125856   3.393   1.844   2.096  3.4330 -2.0154 -0.7364
 4741SOL    HW225857   3.400   1.991   2.099  0.4113  0.2102  0.2741
 4742SOL     OW25858   0.444   4.641   7.335 -0.3876 -0.2485  0.0216
 4742SOL    HW125859   0.502   4.614   7.263  0.3310  3.6605 -0.8710
 4742SOL    HW225860   0.369   4.669   7.283 -2.1683 -0.1707  2.6675
 4743SOL     OW25861   3.074   0.880  14.372  0.3051  0.4737 -0.1067
 4743SOL    HW125862   2.992   0.835  14.392  0.6146 -0.2822 -0.5076
 4743SOL    HW225863   3.053   0.970  14.349  1.1961 -0.0700 -3.0380
 4744SOL     OW25864   1.492   2.597  13.698  0.0892  0.2826  0.4280
 4744SOL    HW125865   1.454   2.679  13.731 -2.0682  0.2058 -1.8583
 4744SOL    HW225866   1.423   2.534  13.714 -0.8381  0.9889 -0.7768
 4745SOL     OW25867   2.999   4.044  12.432 -0.3259 -0.4056 -0.7701
 4745SOL    HW125868   2.969   4.091  12.354  0.2518 -0.1492 -0.8413
 4745SOL    HW225869   3.032   3.961  12.397  1.9178 -0.7851  2.2176
 4746SOL     OW25870   1.202   4.419   6.759 -0.0862  0.1476 -1.0391
 4746SOL    HW125871   1.154   4.351   6.711 -1.4406 -0.7629  1.6147
 4746SOL    HW225872   1.142   4.492   6.747  0.2207  0.5701  0.0055
 4747SOL     OW25873   2.739   0.143   3.091 -0.0371  0.7499  0.3095
 4747SOL    HW125874   2.761   0.118   3.181 -1.3775 -1.1901  0.1112
 4747SOL    HW225875   2.645   0.125   3.086  0.1234 -0.1336  0.4467
 4748SOL     OW25876   1.348   4.693   6.388  0.2492 -0.2666 -0.3602
 4748SOL    HW125877   1.265   4.712   6.433  0.2036  1.2913 -1.0986
 4748SOL    HW225878   1.369   4.601   6.400 -1.5681 -0.7994 -1.2317
 4749SOL     OW25879   1.974   1.157   3.853 -0.3759  0.1195  0.2018
 4749SOL    HW125880   2.004   1.214   3.923  2.1674 -0.3432 -0.5287
 4749SOL    HW225881   2.036   1.182   3.784 -0.7037 -1.0074 -0.5021
 4750SOL     OW25882   1.588   4.518   8.506  0.0390 -0.0695 -0.2473
 4750SOL    HW125883   1.580   4.571   8.585 -2.0476  1.5784 -1.5533
 4750SOL    HW225884   1.655   4.561   8.453  1.5034 -0.1030  1.5995
 4751SOL     OW25885   2.222   1.363   1.709 -0.3578 -0.3359 -0.2774
 4751SOL    HW125886   2.209   1.273   1.679 -0.8700  0.0888 -1.3350
 4751SOL    HW225887   2.174   1.358   1.792  0.9026  0.2675  0.4990
 4752SOL     OW25888   4.068   3.891   2.132  0.5136 -0.6397  0.2844
 4752SOL    HW125889   4.090   3.956   2.198 -1.9990  0.9209 -0.3901
 4752SOL    HW225890   4.045   3.938   2.052 -1.7758 -0.8480  0.8174
 4753SOL     OW25891   1.858   2.973  11.993  0.4053  0.0760 -0.4716
 4753SOL    HW125892   1.801   2.903  11.961  2.7623 -3.0522  2.1779
 4753SOL    HW225893   1.823   3.050  11.949 -0.0891 -0.2017 -0.5609
 4754SOL     OW25894   1.461   2.485   1.758 -0.4345 -0.6981  0.0264
 4754SOL    HW125895   1.518   2.542   1.810  0.8493 -1.6263 -0.3700
 4754SOL    HW225896   1.372   2.502   1.790 -1.2480 -1.1549 -2.0236
 4755SOL     OW25897   3.631   0.264   0.265  0.4660  0.5511 -0.5976
 4755SOL    HW125898   3.647   0.188   0.209  0.3373 -0.3672  0.6202
 4755SOL    HW225899   3.652   0.218   0.346  0.4749 -0.0062 -0.9128
 4756SOL     OW25900   1.883   2.136  16.455  0.0356  0.0486 -0.4525
 4756SOL    HW125901   1.898   2.044  16.436  0.6067  0.2790 -1.0968
 4756SOL    HW225902   1.807   2.122  16.513  0.4158 -0.6742 -0.1361
 4757SOL     OW25903   0.955   3.174   6.425  0.8348  0.3061 -0.1786
 4757SOL    HW125904   0.862   3.190   6.443  1.0488 -1.1819  2.3699
 4757SOL    HW225905   0.987   3.191   6.514 -2.9981  0.5822  1.1563
 4758SOL     OW25906   4.609   2.661   2.365  0.7928  0.6208 -0.0524
 4758SOL    HW125907   4.569   2.673   2.279 -0.7432 -0.3491  0.5216
 4758SOL    HW225908   4.682   2.722   2.365  0.2289  1.3009  2.5007
 4759SOL     OW25909   1.587   2.975  17.224 -0.1114  0.7130 -0.1298
 4759SOL    HW125910   1.511   2.918  17.218  0.3000  0.2407 -0.8843
 4759SOL    HW225911   1.611   2.984  17.316 -2.1095  2.4314  0.2358
 4760SOL     OW25912   2.240   1.918   4.235  0.2704  0.0904  0.2733
 4760SOL    HW125913   2.224   2.001   4.192  1.0401 -0.1365 -0.4437
 4760SOL    HW225914   2.166   1.864   4.207 -1.5788  1.3976  2.6516
 4761SOL     OW25915   0.777   4.593   8.353  0.2947  0.5633  0.0820
 4761SOL    HW125916   0.865   4.624   8.330  0.6913  0.1984  1.0930
 4761SOL    HW225917   0.736   4.625   8.273 -1.0361 -1.0428  0.1379
 4762SOL     OW25918   0.308   4.511   5.507  0.1285 -0.0989 -0.0862
 4762SOL    HW125919   0.373   4.444   5.487 -0.0740  0.2798 -1.9966
 4762SOL    HW225920   0.256   4.467   5.574 -0.3207  0.6082  0.0228
 4763SOL     OW25921   2.313   0.035   5.796 -0.4756 -0.3879  0.0787
 4763SOL    HW125922   2.299   0.110   5.739  4.5759 -0.4283 -1.1437
 4763SOL    HW225923   2.238   0.047   5.854 -1.8067 -0.0060 -1.6965
 4764SOL     OW25924   0.183   1.242   4.399 -0.1753  0.0981 -0.2054
 4764SOL    HW125925   0.196   1.312   4.462  1.3055 -1.3015  1.0469
 4764SOL    HW225926   0.090   1.247   4.378 -0.1330  0.4146 -0.3070
 4765SOL     OW25927   3.849   4.649   5.360  0.2223 -0.0981  0.2686
 4765SOL    HW125928   3.822   4.710   5.428 -0.9004 -1.2820  0.8799
 4765SOL    HW225929   3.910   4.699   5.306 -0.9250  1.5548  0.4636
 4766SOL     OW25930   2.415   0.910  11.546 -0.5821 -0.1967  0.3312
 4766SOL    HW125931   2.478   0.838  11.537  0.7817  1.3091 -2.2437
 4766SOL    HW225932   2.359   0.869  11.611  0.2107 -0.0693  1.0900
 4767SOL     OW25933   1.128   2.540   4.636  0.2992  0.1447 -0.2572
 4767SOL    HW125934   1.034   2.556   4.628  0.4108  1.4202  0.8918
 4767SOL    HW225935   1.139   2.482   4.711  3.5445  1.4759  0.2871
 4768SOL     OW25936   4.305   3.941   8.392  0.8281  0.1997  0.1363
 4768SOL    HW125937   4.282   3.849   8.385 -0.7893  0.5716  0.5512
 4768SOL    HW225938   4.295   3.970   8.301 -0.9560  1.8740  0.8549
 4769SOL     OW25939   3.143   4.046   0.969 -0.0225 -0.7731 -0.2020
 4769SOL    HW125940   3.231   4.017   0.944 -0.7774 -2.0609 -1.3199
 4769SOL    HW225941   3.149   4.056   1.064 -2.3562 -0.9065 -0.0516
 4770SOL     OW25942   0.485   2.712   8.569  0.3738  0.4174  0.5403
 4770SOL    HW125943   0.401   2.758   8.560  0.3673  0.3589  0.3056
 4770SOL    HW225944   0.504   2.718   8.663 -1.2021 -0.2206  0.9136
 4771SOL     OW25945   4.166   2.798  16.647 -0.2365  0.1107 -0.1428
 4771SOL    HW125946   4.204   2.722  16.691  0.2335  0.3847 -0.0870
 4771SOL    HW225947   4.152   2.862  16.717  0.5408  0.2120 -0.0873
 4772SOL     OW25948   1.683   2.319   0.825 -0.0082  0.0657 -0.4032
 4772SOL    HW125949   1.749   2.303   0.892 -1.0313 -0.7428  0.3978
 4772SOL    HW225950   1.712   2.257   0.758 -2.2938 -0.8026 -0.5991
 4773SOL     OW25951   2.592   1.394   1.586 -0.1358  0.5543 -0.8135
 4773SOL    HW125952   2.562   1.309   1.553 -0.0494 -0.8027  2.6741
 4773SOL    HW225953   2.550   1.456   1.526 -3.8002 -0.9097  0.2975
 4774SOL     OW25954   2.322   2.464   4.233  0.0769 -0.0503 -0.7504
 4774SOL    HW125955   2.330   2.502   4.146 -1.5198  1.9633 -0.0206
 4774SOL    HW225956   2.232   2.484   4.257 -0.1986  0.6991 -2.3952
 4775SOL     OW25957   1.778   0.030  14.785  0.1554 -0.3000 -0.6139
 4775SOL    HW125958   1.757   0.114  14.744 -0.9697 -0.6976 -0.8681
 4775SOL    HW225959   1.692   4.727  14.781 -0.4234  0.7654  0.6344
 4776SOL     OW25960   2.035   1.548  16.137  0.3811  0.1025 -0.3496
 4776SOL    HW125961   1.974   1.492  16.185  0.6774 -0.4055 -0.5605
 4776SOL    HW225962   2.003   1.625  16.184  0.8082  0.5278 -0.7679
 4777SOL     OW25963   2.043   1.954   4.469  0.1572 -0.2848  0.6161
 4777SOL    HW125964   2.112   2.016   4.445 -1.3618  1.7946  1.5772
 4777SOL    HW225965   2.094   1.898   4.527  0.8077 -0.8605 -0.5222
 4778SOL     OW25966   0.130   0.339   7.857  0.1579 -0.1329  0.0325
 4778SOL    HW125967   0.042   0.309   7.835 -0.4137  1.0404  0.6911
 4778SOL    HW225968   0.162   0.251   7.873  0.4481  0.0653  0.5490
 4779SOL     OW25969   1.594   4.000   2.206 -0.5173 -0.7246 -0.3831
 4779SOL    HW125970   1.518   3.971   2.258 -2.0710 -0.1295 -2.3282
 4779SOL    HW225971   1.656   4.031   2.273 -2.0704  0.2075  0.6343
 4780SOL     OW25972   0.390   3.924   9.497  0.2252  0.6370 -0.0657
 4780SOL    HW125973   0.405   4.003   9.446 -0.0991  2.2182  2.2594
 4780SOL    HW225974   0.295   3.931   9.495  0.0730 -1.1579  0.6086
 4781SOL     OW25975   4.710   0.422   8.201  0.0767 -0.4015  0.1179
 4781SOL    HW125976   4.708   0.502   8.148 -0.9752 -2.2888 -2.6890
 4781SOL    HW225977   4.704   0.460   8.289  0.1500  0.0631 -0.0773
 4782SOL     OW25978   3.494   4.320   6.657  0.0077  0.2226 -0.1009
 4782SOL    HW125979   3.575   4.315   6.606 -0.4402 -0.1301 -0.7936
 4782SOL    HW225980   3.433   4.293   6.587 -0.8321  0.8060  0.4004
 4783SOL     OW25981   4.245   4.498   0.784  0.6012 -0.0225  0.3572
 4783SOL    HW125982   4.257   4.589   0.810 -0.8901 -0.7762  3.6173
 4783SOL    HW225983   4.234   4.505   0.689  0.8892 -1.2694  0.2283
 4784SOL     OW25984   3.323   3.487  11.393  0.0837 -0.5900  0.2591
 4784SOL    HW125985   3.377   3.554  11.352  1.7921 -0.2977  3.0095
 4784SOL    HW225986   3.263   3.462  11.323 -0.6290  0.9245  0.3297
 4785SOL     OW25987   2.510   0.779   7.457 -0.0589  0.0658  0.2561
 4785SOL    HW125988   2.501   0.854   7.515 -1.9438 -0.8800  1.1647
 4785SOL    HW225989   2.596   0.758   7.494  0.4911  1.0361 -0.4695
 4786SOL     OW25990   0.384   2.320  13.770  0.3766  0.1452 -0.0168
 4786SOL    HW125991   0.423   2.406  13.786  0.7222 -0.0224  0.0547
 4786SOL    HW225992   0.463   2.266  13.763  0.9638  1.1707 -1.2422
 4787SOL     OW25993   0.984   1.615  16.859 -0.1932  0.2403 -0.1753
 4787SOL    HW125994   0.959   1.534  16.816 -2.6820  1.1258 -0.4068
 4787SOL    HW225995   0.905   1.669  16.849 -0.2031  0.0230 -1.1817
 4788SOL     OW25996   2.270   3.132   9.950 -0.5902 -0.3562 -0.0410
 4788SOL    HW125997   2.355   3.145   9.907 -0.9093  1.9275  0.0193
 4788SOL    HW225998   2.277   3.043   9.985  2.1346 -0.7968 -1.6917
 4789SOL     OW25999   2.329   0.805   3.947 -0.2529 -0.1533  0.6280
 4789SOL    HW126000   2.314   0.712   3.965  0.5680 -0.9296 -2.6110
 4789SOL    HW226001   2.414   0.818   3.988  0.4429 -0.0913 -0.8390
 4790SOL     OW26002   1.867   2.459   9.441 -0.4283  0.0490  0.0435
 4790SOL    HW126003   1.908   2.545   9.432  1.7189 -1.0689 -0.9327
 4790SOL    HW226004   1.945   2.404   9.447 -0.4218 -0.0326 -0.7424
 4791SOL     OW26005   4.128   3.599  11.054 -0.2033  0.7481  0.1870
 4791SOL    HW126006   4.076   3.627  11.129 -0.6369  2.3416 -0.6994
 4791SOL    HW226007   4.208   3.646  11.077  0.0814  1.5024 -2.3159
 4792SOL     OW26008   3.292   1.214   3.966 -0.0697  0.1193  0.0073
 4792SOL    HW126009   3.323   1.299   3.935  3.0458 -0.6418  0.9956
 4792SOL    HW226010   3.341   1.179   4.041 -0.5823  1.6995  1.0912
 4793SOL     OW26011   2.046   2.752  10.081 -0.2095 -0.0934 -0.0835
 4793SOL    HW126012   1.954   2.777  10.079 -0.4399 -1.1743 -3.0258
 4793SOL    HW226013   2.048   2.659  10.059  1.1173 -0.0086 -0.3314
 4794SOL     OW26014   4.432   0.583  12.015 -0.0171 -0.1350  0.5659
 4794SOL    HW126015   4.412   0.525  12.088 -1.1943 -1.3331 -0.7102
 4794SOL    HW226016   4.363   0.646  12.038  1.0892  1.2593  0.0263
 4795SOL     OW26017   1.652   3.188   2.125 -0.1697  0.2261  0.1233
 4795SOL    HW126018   1.602   3.270   2.134  1.0542  1.0738 -0.8120
 4795SOL    HW226019   1.672   3.167   2.216 -0.0160 -2.2297 -0.4868
 4796SOL     OW26020   0.329   0.937   5.521 -0.4978  0.0369 -0.4340
 4796SOL    HW126021   0.286   1.014   5.559 -1.2503 -0.7327  0.2759
 4796SOL    HW226022   0.254   0.878   5.508 -2.5530  2.5439  0.0503
 4797SOL     OW26023   1.584   1.309   5.464  0.3945 -0.3895 -0.2194
 4797SOL    HW126024   1.521   1.374   5.432  0.2308 -1.2830 -1.7336
 4797SOL    HW226025   1.525   1.259   5.521  2.5191  0.6728  2.9105
 4798SOL     OW26026   2.605   3.991  13.782 -0.0087  0.1354 -0.6984
 4798SOL    HW126027   2.526   4.038  13.756  0.3492  0.8781 -0.4451
 4798SOL    HW226028   2.675   4.040  13.738  0.9619 -0.1536  0.5210
 4799SOL     OW26029   2.827   0.490   8.808 -0.6761  0.1255  0.2087
 4799SOL    HW126030   2.873   0.421   8.856  0.4220  1.5498  1.1654
 4799SOL    HW226031   2.833   0.562   8.870  0.6312  0.7290 -0.6073
 4800SOL     OW26032   3.561   1.335   6.504  0.4057 -0.1411  0.1815
 4800SOL    HW126033   3.563   1.285   6.422  0.9761 -1.0706  0.7611
 4800SOL    HW226034   3.560   1.429   6.490 -1.5826 -0.1964  0.0092
 4801SOL     OW26035   1.325   4.315   3.174  0.1355  0.0535 -0.1282
 4801SOL    HW126036   1.265   4.302   3.247  0.7669  0.6360  0.4863
 4801SOL    HW226037   1.387   4.379   3.207 -1.8937  1.6879  0.5046
 4802SOL     OW26038   3.379   4.241   2.174  1.0608  0.5590 -0.3548
 4802SOL    HW126039   3.340   4.322   2.140 -2.7874 -1.7282 -1.3561
 4802SOL    HW226040   3.367   4.201   2.088  0.4127  3.5056 -1.6400
 4803SOL     OW26041   3.181   1.381   4.981  0.2027 -0.3704 -0.0236
 4803SOL    HW126042   3.100   1.427   4.958  0.5710 -0.2211 -1.0093
 4803SOL    HW226043   3.156   1.304   5.031 -2.6054 -0.4018 -1.4945
 4804SOL     OW26044   2.880   3.172   2.763 -0.1155 -0.1760 -0.2340
 4804SOL    HW126045   2.846   3.237   2.824  2.9573  0.9261  0.2720
 4804SOL    HW226046   2.971   3.200   2.754 -0.0697 -0.5255 -0.9425
 4805SOL     OW26047   0.525   0.673  12.528  0.1054  0.3007  0.2317
 4805SOL    HW126048   0.488   0.585  12.531  0.1886  0.2758  0.6016
 4805SOL    HW226049   0.572   0.666  12.612 -0.6786  1.4661  0.7614
 4806SOL     OW26050   2.803   1.869   4.470 -0.3807 -0.2633 -0.5618
 4806SOL    HW126051   2.798   1.833   4.381  0.0275  1.9298 -1.4615
 4806SOL    HW226052   2.848   1.950   4.445  1.7570 -0.6612  2.0031
 4807SOL     OW26053   3.710   0.510   7.263  0.1376 -0.0700  0.1172
 4807SOL    HW126054   3.687   0.601   7.249 -2.3650 -1.1125 -2.4818
 4807SOL    HW226055   3.655   0.494   7.339 -0.2257  0.2168 -0.0885
 4808SOL     OW26056   3.734   4.466   5.797 -0.4203  0.0095 -0.9447
 4808SOL    HW126057   3.776   4.542   5.836 -1.3738 -0.3466  0.7906
 4808SOL    HW226058   3.785   4.470   5.717 -0.5969 -1.1760 -1.1260
 4809SOL     OW26059   4.229   0.720   3.424 -0.1288  0.5060 -0.0658
 4809SOL    HW126060   4.266   0.786   3.483 -0.2626  1.6397 -1.2461
 4809SOL    HW226061   4.177   0.659   3.477 -1.0400 -0.1159 -1.6816
 4810SOL     OW26062   1.960   1.236   5.226  0.6079  0.1554  0.2193
 4810SOL    HW126063   1.940   1.232   5.133 -0.6614 -2.1577  0.6016
 4810SOL    HW226064   2.055   1.224   5.228  0.8272  2.0183  1.3255
 4811SOL     OW26065   2.371   2.955   4.752 -0.0611 -0.0547 -0.4151
 4811SOL    HW126066   2.388   2.876   4.701 -2.2947 -0.2668 -0.8252
 4811SOL    HW226067   2.449   3.000   4.720 -0.6484  1.2250 -0.0353
 4812SOL     OW26068   4.340   1.117   5.749  0.1925 -0.5408  0.1720
 4812SOL    HW126069   4.245   1.108   5.743  0.4381 -3.1504  0.1963
 4812SOL    HW226070   4.342   1.213   5.748 -0.3054 -0.5352 -1.1080
 4813SOL     OW26071   1.196   3.168   6.934  0.0506  0.0609  0.0283
 4813SOL    HW126072   1.189   3.092   6.992  0.2328 -0.3958 -0.5514
 4813SOL    HW226073   1.134   3.229   6.974  0.6125  1.0513 -0.5870
 4814SOL     OW26074   0.506   2.937   3.603 -0.4576 -0.3684  0.2390
 4814SOL    HW126075   0.544   2.863   3.554 -0.5535 -1.2362  1.4789
 4814SOL    HW226076   0.514   3.003   3.535 -2.1834  0.0566  0.4336
 4815SOL     OW26077   2.646   1.114   1.172  0.5215 -0.5250 -0.2419
 4815SOL    HW126078   2.637   1.035   1.225 -0.1496 -1.4032 -1.6637
 4815SOL    HW226079   2.564   1.117   1.122  0.1330 -2.4040  0.2639
 4816SOL     OW26080   1.239   0.340   2.948  0.1079 -0.1453 -0.3321
 4816SOL    HW126081   1.308   0.314   3.008 -1.7519  1.4681  2.5196
 4816SOL    HW226082   1.194   0.256   2.951  0.2672 -0.1755  1.4997
 4817SOL     OW26083   2.658   1.141   6.038  0.7605  0.3443  0.2809
 4817SOL    HW126084   2.720   1.068   6.037  1.6238  1.1272 -2.6372
 4817SOL    HW226085   2.576   1.101   6.009 -0.1851  0.2514  3.1075
 4818SOL     OW26086   1.933   1.808   3.788  0.4514  0.0205  0.1138
 4818SOL    HW126087   1.950   1.888   3.738 -2.8487  1.1167  0.7678
 4818SOL    HW226088   2.008   1.752   3.765 -0.4973 -0.8482 -0.8658
 4819SOL     OW26089   3.324   2.172   1.778  0.0224 -0.0908  0.2616
 4819SOL    HW126090   3.256   2.123   1.731  0.4494 -0.9230  0.4995
 4819SOL    HW226091   3.277   2.181   1.861 -0.5884 -0.0922 -0.0878
 4820SOL     OW26092   2.904   4.140   9.420  0.6456 -0.3268 -0.3914
 4820SOL    HW126093   2.918   4.223   9.375  0.5704  0.8630  1.7456
 4820SOL    HW226094   2.812   4.124   9.397  0.5892 -1.0982  0.3328
 4821SOL     OW26095   2.466   2.098   9.122  0.0422  0.0960  0.5552
 4821SOL    HW126096   2.450   2.006   9.145  0.2140  0.0684  0.5626
 4821SOL    HW226097   2.413   2.139   9.190  1.5295 -0.3255  1.9638
 4822SOL     OW26098   2.863   3.473  17.550 -0.3685  0.2453  0.2587
 4822SOL    HW126099   2.817   3.550  17.583 -1.1699  0.2028 -0.7372
 4822SOL    HW226100   2.849   3.412  17.622  1.6664 -0.7863 -0.2247
 4823SOL     OW26101   2.565   1.313   0.855 -0.7889 -0.0839 -0.2163
 4823SOL    HW126102   2.564   1.260   0.775  0.4108 -1.8908  0.9671
 4823SOL    HW226103   2.640   1.364   0.825 -0.8412 -0.1960 -0.5453
 4824SOL     OW26104   1.490   2.508   2.915 -0.1343  0.3560  0.4281
 4824SOL    HW126105   1.514   2.585   2.863  1.1633 -0.0114  0.4673
 4824SOL    HW226106   1.429   2.548   2.976 -2.7857  0.9397 -2.6441
 4825SOL     OW26107   3.124   1.408   2.342  0.1056  0.2421 -0.3815
 4825SOL    HW126108   3.066   1.354   2.395 -0.7454 -0.0959 -1.6561
 4825SOL    HW226109   3.065   1.459   2.286  0.1849  1.7647  0.9165
 4826SOL     OW26110   2.491   2.381   1.702 -0.8639 -0.4385 -0.2863
 4826SOL    HW126111   2.478   2.383   1.796  2.5775  1.1547  0.1619
 4826SOL    HW226112   2.412   2.336   1.674 -2.1049  1.7449 -0.3232
 4827SOL     OW26113   1.200   1.339   0.035 -0.5224  0.2979 -0.0154
 4827SOL    HW126114   1.206   1.399  17.716  1.1848 -0.8101 -0.7754
 4827SOL    HW226115   1.279   1.291   0.011  0.1287  0.6479  1.4931
 4828SOL     OW26116   1.705   4.356   4.248 -0.8329  0.2491  0.3805
 4828SOL    HW126117   1.620   4.315   4.232 -0.9565  0.8821 -0.6079
 4828SOL    HW226118   1.686   4.435   4.299  1.4711 -0.2813  2.0518
 4829SOL     OW26119   4.069   3.694   5.917 -0.1048  0.3306  0.3068
 4829SOL    HW126120   4.020   3.673   5.996 -0.2398  1.4324  0.5218
 4829SOL    HW226121   4.158   3.682   5.949  0.5958 -2.4420 -2.6873
 4830SOL     OW26122   2.341   3.945   5.805  0.0117 -0.1449 -0.5006
 4830SOL    HW126123   2.376   3.929   5.717  0.3903  2.6740 -0.8845
 4830SOL    HW226124   2.260   3.985   5.774 -0.3208  0.7311  1.5350
 4831SOL     OW26125   4.231   4.681   2.919 -0.0663  0.1373 -0.0881
 4831SOL    HW126126   4.280   4.724   2.849  0.3904  0.0951  0.2120
 4831SOL    HW226127   4.280   4.599   2.921  2.4117  1.7356  3.2052
 4832SOL     OW26128   0.490   3.871   3.192 -0.4082  0.2185 -0.1756
 4832SOL    HW126129   0.488   3.779   3.165  2.6380 -0.2341  1.1219
 4832SOL    HW226130   0.538   3.867   3.275  0.4635 -1.2836 -0.7530
 4833SOL     OW26131   1.642   1.266   6.488  0.2904  0.2688  0.1020
 4833SOL    HW126132   1.648   1.171   6.487  3.3846  0.4585 -0.4220
 4833SOL    HW226133   1.719   1.287   6.435  1.4659 -0.2908  1.5819
 4834SOL     OW26134   3.489   3.217   9.765 -0.0800  0.4615  0.0170
 4834SOL    HW126135   3.556   3.215   9.834  0.6976  4.2247 -0.6322
 4834SOL    HW226136   3.523   3.155   9.701  0.9379  0.7622  0.2727
 4835SOL     OW26137   1.410   0.519   9.103 -0.1488  0.0954  0.0148
 4835SOL    HW126138   1.344   0.519   9.172  0.6871  2.6011  0.8358
 4835SOL    HW226139   1.379   0.596   9.057  1.3964 -0.0070 -1.2062
 4836SOL     OW26140   0.576   0.130   0.236  0.3277  0.2949 -0.4785
 4836SOL    HW126141   0.634   0.144   0.311 -1.2162  0.8975  0.5967
 4836SOL    HW226142   0.646   0.104   0.177  0.1700 -1.5447  0.1236
 4837SOL     OW26143   1.828   1.015   2.861  0.8518  0.2271 -0.5236
 4837SOL    HW126144   1.757   1.023   2.797 -0.6952 -2.4728  0.8679
 4837SOL    HW226145   1.867   0.939   2.819  0.6007 -0.4474  0.4870
 4838SOL     OW26146   3.959   3.453  15.991  0.0157 -0.1674  0.3695
 4838SOL    HW126147   3.912   3.525  15.948 -1.5945 -1.5919 -0.2621
 4838SOL    HW226148   4.041   3.498  16.010  0.8931 -0.8258 -1.9266
 4839SOL     OW26149   3.885   1.503  16.298  0.3619 -0.0444 -0.6332
 4839SOL    HW126150   3.799   1.470  16.272  0.2257 -0.2739  0.1272
 4839SOL    HW226151   3.885   1.588  16.254 -1.2661 -0.2690 -1.0827
 4840SOL     OW26152   1.550   0.478  16.269 -0.2363  0.4499  0.0952
 4840SOL    HW126153   1.545   0.393  16.314 -0.0995  0.1816 -0.3929
 4840SOL    HW226154   1.469   0.476  16.218 -0.9668 -1.8022  1.3287
 4841SOL     OW26155   3.135   0.597   9.648 -0.0284 -1.2488  0.1596
 4841SOL    HW126156   3.206   0.571   9.590  0.6646  0.7717  0.1203
 4841SOL    HW226157   3.115   0.684   9.614  1.4025 -1.0279 -0.1132
 4842SOL     OW26158   4.345   2.257   9.464 -0.0006  0.0199  0.2320
 4842SOL    HW126159   4.256   2.293   9.458  0.3725  0.6536 -1.5663
 4842SOL    HW226160   4.381   2.245   9.376 -1.1241 -1.4940 -0.0197
 4843SOL     OW26161   4.226   3.011   7.255 -0.1773 -0.1202 -0.1720
 4843SOL    HW126162   4.181   3.007   7.170 -1.5385  1.8130  0.4519
 4843SOL    HW226163   4.158   2.990   7.318  0.6299 -0.1214  0.6866
 4844SOL     OW26164   2.027   0.034   4.546  0.0599 -0.0109 -0.4756
 4844SOL    HW126165   1.967   0.014   4.474  0.4127 -1.8960 -0.2670
 4844SOL    HW226166   2.074   4.690   4.553 -0.4070 -0.2827 -0.5267
 4845SOL     OW26167   0.960   2.352   9.431  0.0084  0.0458 -0.0417
 4845SOL    HW126168   0.984   2.442   9.453  2.7619 -0.4230 -1.0721
 4845SOL    HW226169   1.042   2.316   9.397  0.2081  0.2035  0.2693
 4846SOL     OW26170   2.304   3.672   7.140  0.3376  0.2904  0.1980
 4846SOL    HW126171   2.396   3.701   7.142 -0.5223  3.0224 -0.2553
 4846SOL    HW226172   2.320   3.584   7.106  2.4687  1.7446 -2.6193
 4847SOL     OW26173   2.531   3.001   8.549 -0.3953 -0.2997  0.4118
 4847SOL    HW126174   2.565   3.007   8.639 -0.3996 -0.3435  0.4165
 4847SOL    HW226175   2.446   3.044   8.552 -0.3171 -0.1880  1.0344
 4848SOL     OW26176   2.418   3.268   5.001 -0.0917 -0.0694  0.3059
 4848SOL    HW126177   2.398   3.202   4.935  0.3763 -0.6174  0.7153
 4848SOL    HW226178   2.494   3.225   5.040 -0.6681 -2.2292 -0.9548
 4849SOL     OW26179   3.436   4.639   7.550  0.0772 -0.3555 -0.2418
 4849SOL    HW126180   3.509   4.589   7.513 -0.0242 -0.8427  0.2241
 4849SOL    HW226181   3.405   4.678   7.469  1.2450 -2.6542 -1.7891
 4850SOL     OW26182   3.211   0.110  12.451 -0.3155  0.4399 -0.0252
 4850SOL    HW126183   3.250   0.027  12.477 -1.4423 -0.2971 -0.6668
 4850SOL    HW226184   3.293   0.160  12.453 -1.2953  2.0626 -0.2490
 4851SOL     OW26185   0.906   2.599   4.383 -0.0436 -0.7149 -0.2304
 4851SOL    HW126186   0.876   2.639   4.302  0.3646  0.0789  0.0112
 4851SOL    HW226187   0.906   2.678   4.436  1.7048 -0.6117 -0.3532
 4852SOL     OW26188   2.846   1.127   4.160  0.4691 -0.1475  0.2852
 4852SOL    HW126189   2.822   1.079   4.081  0.9250 -2.2547  1.4438
 4852SOL    HW226190   2.907   1.195   4.131 -0.5567 -0.2517 -2.1487
 4853SOL     OW26191   3.176   4.557  10.331 -0.0150  0.4093  0.5213
 4853SOL    HW126192   3.210   4.638  10.370 -1.1004  0.8184  0.6115
 4853SOL    HW226193   3.097   4.541  10.384 -0.1722 -1.9056 -0.4194
 4854SOL     OW26194   4.421   2.956  17.629  0.4846 -0.2669 -0.6534
 4854SOL    HW126195   4.363   2.880  17.620  0.2361 -0.1508 -0.0007
 4854SOL    HW226196   4.347   3.015  17.641 -0.5446 -1.8803  0.8644
 4855SOL     OW26197   2.574   0.067   4.082  0.6092 -0.7367  0.3001
 4855SOL    HW126198   2.555   4.714   4.095  0.1277 -0.5675  0.7968
 4855SOL    HW226199   2.542   0.092   3.995  1.3861 -0.2834  0.1459
 4856SOL     OW26200   2.896   2.589   2.001  0.3938  0.6293 -0.4172
 4856SOL    HW126201   2.946   2.508   2.008  1.7348  1.6205  1.6664
 4856SOL    HW226202   2.938   2.644   2.068 -0.1062  1.4354 -0.7643
 4857SOL     OW26203   4.709   3.008   5.006  0.2125 -0.1427 -0.5079
 4857SOL    HW126204   0.020   2.930   4.986 -1.1212 -1.3089  0.6858
 4857SOL    HW226205   4.710   3.005   5.102  0.3671 -0.2056 -0.5123
 4858SOL     OW26206   1.068   1.288  15.987 -0.1167 -0.9134 -0.1820
 4858SOL    HW126207   1.008   1.353  16.024 -0.0310 -1.1201  0.3144
 4858SOL    HW226208   1.097   1.344  15.915  2.4919 -0.6107  1.1217
 4859SOL     OW26209   0.396   4.694   8.255  0.0925 -0.4458  0.1816
 4859SOL    HW126210   0.446   4.716   8.334  1.0468 -2.9585  0.2530
 4859SOL    HW226211   0.452   4.633   8.207 -0.2112 -0.8968  0.4002
 4860SOL     OW26212   0.406   2.676   5.571  0.0878 -0.7317  0.0721
 4860SOL    HW126213   0.344   2.638   5.509  0.7428  0.2571 -1.1912
 4860SOL    HW226214   0.371   2.680   5.660 -0.2908  0.7327 -0.1620
 4861SOL     OW26215   3.061   1.394   1.665  0.6764  0.4367  0.6751
 4861SOL    HW126216   2.975   1.358   1.643  0.9080  0.0499  0.4015
 4861SOL    HW226217   3.106   1.357   1.589  1.1443  0.0198  1.1702
 4862SOL     OW26218   2.062   1.396   0.569 -0.4542  0.2062 -0.7495
 4862SOL    HW126219   2.131   1.330   0.570  1.9733  2.6907 -3.3354
 4862SOL    HW226220   2.089   1.462   0.634  0.2018 -0.3088 -0.5021
 4863SOL     OW26221   1.724   1.071  12.889  0.0659  0.0646  0.2591
 4863SOL    HW126222   1.697   1.019  12.814  0.3458  1.6406 -0.9250
 4863SOL    HW226223   1.808   1.035  12.917  0.4107  0.0877 -0.7369
 4864SOL     OW26224   1.468   0.720   8.433 -0.1658 -0.0528 -0.2487
 4864SOL    HW126225   1.432   0.757   8.352  0.3361  0.3943 -0.2648
 4864SOL    HW226226   1.440   0.629   8.435 -0.2469 -0.0266 -0.1929
 4865SOL     OW26227   2.232   1.529   1.335 -0.1592 -0.0490  0.3899
 4865SOL    HW126228   2.205   1.520   1.426 -0.3640 -1.9571  0.1437
 4865SOL    HW226229   2.173   1.596   1.301  0.3082 -0.3571 -1.0225
 4866SOL     OW26230   1.574   0.120   2.635 -0.0850  0.3843  0.9144
 4866SOL    HW126231   1.500   0.082   2.588  0.8489 -1.0030  0.5930
 4866SOL    HW226232   1.568   0.078   2.720 -1.6100 -0.2117  0.5156
 4867SOL     OW26233   3.530   1.565   5.030 -0.2689 -0.2753 -0.6959
 4867SOL    HW126234   3.561   1.648   5.069  0.5791 -1.8181  1.9640
 4867SOL    HW226235   3.485   1.600   4.954  0.5898  0.3337 -0.9309
 4868SOL     OW26236   4.398   1.600  10.695 -0.2989 -0.3782 -0.0202
 4868SOL    HW126237   4.396   1.692  10.722  0.3990 -0.9229  1.9363
 4868SOL    HW226238   4.459   1.572  10.763  0.7110  0.0403 -0.7484
 4869SOL     OW26239   3.936   2.937   4.468  0.2251  0.0685  0.5398
 4869SOL    HW126240   3.876   2.963   4.397 -1.4038 -1.7577  1.2451
 4869SOL    HW226241   3.906   3.005   4.528 -1.7978  1.9786 -2.6204
 4870SOL     OW26242   2.978   4.665   3.956 -0.2065 -0.1008 -0.0113
 4870SOL    HW126243   2.922   4.639   4.029 -0.4566 -0.2129 -0.2461
 4870SOL    HW226244   2.990   0.021   3.959  0.8985 -0.1406 -4.2286
 4871SOL     OW26245   0.626   1.694  12.576 -0.6699  0.0501  0.2279
 4871SOL    HW126246   0.682   1.676  12.500  0.9184 -0.0940  1.4321
 4871SOL    HW226247   0.626   1.790  12.571 -0.0369  0.0581  0.2844
 4872SOL     OW26248   2.221   2.024   7.409  0.0991  0.4574  0.6974
 4872SOL    HW126249   2.277   2.068   7.473 -1.0933  0.7501  1.5374
 4872SOL    HW226250   2.287   2.005   7.342 -1.2067 -1.7465  0.0076
 4873SOL     OW26251   3.324   3.287  14.943 -0.1032  0.3108 -0.0409
 4873SOL    HW126252   3.262   3.354  14.973  1.5907  2.5353 -1.4815
 4873SOL    HW226253   3.317   3.294  14.848  0.0408 -1.0543 -0.1458
 4874SOL     OW26254   2.685   2.179   1.670 -0.3259 -0.4821  0.4044
 4874SOL    HW126255   2.636   2.100   1.693  0.2278 -1.0241 -0.2798
 4874SOL    HW226256   2.614   2.231   1.632 -0.4354 -0.4784  0.6064
 4875SOL     OW26257   0.842   0.061  17.419  0.2110  0.0406 -0.1141
 4875SOL    HW126258   0.792   0.116  17.479 -1.5219 -1.1380 -0.4785
 4875SOL    HW226259   0.799   4.716  17.427  1.3085 -0.4961  0.1532
 4876SOL     OW26260   1.453   1.117   1.688  0.0822 -0.1485 -0.0894
 4876SOL    HW126261   1.483   1.199   1.726 -1.0152 -0.2445  0.9804
 4876SOL    HW226262   1.435   1.063   1.765 -0.5560  0.8118  0.4304
 4877SOL     OW26263   4.734   1.622   3.242  0.5251  0.1006 -0.2799
 4877SOL    HW126264   0.031   1.709   3.227  0.7117  0.1968  0.7919
 4877SOL    HW226265   4.709   1.627   3.334  1.8641 -1.1259  0.1561
 4878SOL     OW26266   3.122   0.247   2.508  0.3968 -0.9153 -0.2393
 4878SOL    HW126267   3.057   0.198   2.459 -0.9014 -0.3046  0.8716
 4878SOL    HW226268   3.156   0.170   2.555 -0.7117  0.2366  2.4348
 4879SOL     OW26269   1.311   3.950  13.973 -0.0984 -0.1264  0.2978
 4879SOL    HW126270   1.290   3.858  13.959  0.1504 -0.5321  2.6429
 4879SOL    HW226271   1.406   3.959  13.974 -0.2244  1.2671 -0.2965
 4880SOL     OW26272   1.990   3.193  10.586  0.0545 -0.5454 -1.0294
 4880SOL    HW126273   2.023   3.146  10.509 -1.7819 -2.0838 -0.8658
 4880SOL    HW226274   1.936   3.125  10.626  0.8914  0.0492  1.0994
 4881SOL     OW26275   3.915   0.735   2.403 -0.2836 -0.1322  0.0628
 4881SOL    HW126276   3.922   0.680   2.482  2.5855  1.7269  1.0747
 4881SOL    HW226277   4.005   0.761   2.385 -0.4679 -0.3082 -1.0695
 4882SOL     OW26278   4.032   0.500   0.763  0.6114 -0.0306 -0.0941
 4882SOL    HW126279   4.087   0.499   0.684  0.5243 -1.9250 -0.1298
 4882SOL    HW226280   3.942   0.524   0.742  0.7240  0.4171 -0.0644
 4883SOL     OW26281   0.389   4.003  10.016  0.8592 -0.5529 -0.0036
 4883SOL    HW126282   0.468   3.958  10.044 -0.0286 -0.9831  1.8288
 4883SOL    HW226283   0.405   4.029   9.925  1.3558  1.1338  0.5692
 4884SOL     OW26284   0.225   0.482   7.636  0.2085  0.3617 -0.3591
 4884SOL    HW126285   0.148   0.434   7.607 -0.7289  1.1751  0.7451
 4884SOL    HW226286   0.231   0.462   7.730  0.8894 -0.3710 -0.5587
 4885SOL     OW26287   3.163   3.156   6.033  0.1629  0.0407  0.2443
 4885SOL    HW126288   3.120   3.219   6.091  1.6807  0.2180  1.1689
 4885SOL    HW226289   3.257   3.169   6.045  0.0415 -1.0345  2.2429
 4886SOL     OW26290   1.101   4.292  15.265 -0.3203  0.8138 -0.3636
 4886SOL    HW126291   1.041   4.232  15.220 -1.5064  0.7916  1.2518
 4886SOL    HW226292   1.063   4.378  15.244  0.5240  0.9832 -1.2070
 4887SOL     OW26293   1.732   0.496  12.659 -0.9211 -0.4462  0.2225
 4887SOL    HW126294   1.707   0.404  12.669  3.0520 -1.6699 -1.2041
 4887SOL    HW226295   1.798   0.497  12.591 -0.6910 -1.2708  0.4347
 4888SOL     OW26296   0.072   1.355   5.088  0.7394  0.2374 -0.5148
 4888SOL    HW126297   4.729   1.402   5.101  0.8841  0.4082 -0.2135
 4888SOL    HW226298   0.110   1.366   5.176  0.5792 -0.7100 -0.3285
 4889SOL     OW26299   3.890   4.231   6.725 -0.2549  0.5304 -0.1291
 4889SOL    HW126300   3.981   4.216   6.698 -0.3933 -2.0138  0.8282
 4889SOL    HW226301   3.854   4.156   6.678 -2.0272  1.8000 -0.7987
 4890SOL     OW26302   4.254   2.746   7.977 -0.0463 -0.0123  0.2223
 4890SOL    HW126303   4.252   2.838   7.951 -1.0412 -0.0404  0.2120
 4890SOL    HW226304   4.161   2.732   7.995  0.5090 -0.2255  2.8965
 4891SOL     OW26305   4.157   2.743   5.421  0.1455  0.2137  0.4363
 4891SOL    HW126306   4.118   2.725   5.336 -2.9693  1.9982  1.4952
 4891SOL    HW226307   4.082   2.739   5.481  0.3382  0.7538  0.7141
 4892SOL     OW26308   3.074   2.558   5.338  0.2160  0.3154 -0.6234
 4892SOL    HW126309   3.029   2.634   5.375 -0.8100 -0.5683 -0.0476
 4892SOL    HW226310   3.058   2.570   5.244 -0.2458 -1.4950 -0.7696
 4893SOL     OW26311   0.752   4.725   7.190 -0.1796 -0.0827  0.7775
 4893SOL    HW126312   0.713   0.002   7.276 -0.5620  1.4890  0.3128
 4893SOL    HW226313   0.841   4.707   7.221 -0.3485 -1.3365  0.5359
 4894SOL     OW26314   0.637   3.938   4.830  0.3525 -1.4485 -0.6138
 4894SOL    HW126315   0.683   4.022   4.832  0.5312 -1.6684  3.2897
 4894SOL    HW226316   0.694   3.867   4.857  2.2239  0.5053  0.6116
 4895SOL     OW26317   0.290   4.338   7.172  0.2685 -0.2279 -0.0887
 4895SOL    HW126318   0.371   4.389   7.180 -1.4038  2.6592 -1.4245
 4895SOL    HW226319   0.282   4.332   7.076  0.0225 -0.8814 -0.0254
 4896SOL     OW26320   0.796   2.510  16.657 -0.4312  0.1642 -0.4543
 4896SOL    HW126321   0.855   2.561  16.602  0.9868  0.3013  1.2138
 4896SOL    HW226322   0.847   2.458  16.719  3.0290 -0.5759 -3.9573
 4897SOL     OW26323   4.371   1.836  15.924 -0.4155 -0.3787 -0.1649
 4897SOL    HW126324   4.310   1.766  15.949 -0.3635  0.8451  3.4090
 4897SOL    HW226325   4.330   1.909  15.969  0.6917  1.5351 -2.2616
 4898SOL     OW26326   0.551   3.815   7.459 -0.5983 -0.4470 -0.1892
 4898SOL    HW126327   0.552   3.721   7.446 -0.6137 -0.3585 -0.8394
 4898SOL    HW226328   0.588   3.813   7.547  1.2909 -0.6076 -0.9808
 4899SOL     OW26329   3.257   4.460   4.219 -0.3822  0.1998  0.4590
 4899SOL    HW126330   3.183   4.467   4.158  0.1120  0.4243 -0.1112
 4899SOL    HW226331   3.222   4.475   4.307 -0.9618 -0.0527  0.2744
 4900SOL     OW26332   1.168   4.511   3.845  0.2017 -0.4836  0.5242
 4900SOL    HW126333   1.195   4.602   3.854 -0.4276 -0.2170 -0.2522
 4900SOL    HW226334   1.108   4.501   3.919  2.4978  1.4006  2.6322
 4901SOL     OW26335   1.983   1.186   8.102 -0.5836  0.3094  0.0959
 4901SOL    HW126336   1.999   1.275   8.136 -2.1931  0.6905 -0.1405
 4901SOL    HW226337   2.000   1.124   8.173 -1.7908 -0.5341 -0.3658
 4902SOL     OW26338   1.843   0.417   5.497  0.1818 -0.8134 -0.1886
 4902SOL    HW126339   1.760   0.394   5.538 -0.1114 -0.2910 -0.4827
 4902SOL    HW226340   1.832   0.512   5.500 -1.5458 -1.0049 -0.5594
 4903SOL     OW26341   0.107   3.955   7.311  0.2059  0.0945 -0.1465
 4903SOL    HW126342   0.073   4.045   7.317  1.3612  0.4898  0.6021
 4903SOL    HW226343   0.175   3.949   7.379 -0.4692 -0.5131  0.4853
 4904SOL     OW26344   2.281   3.330   2.568  0.2526  0.0903 -0.3245
 4904SOL    HW126345   2.229   3.372   2.500 -0.2953 -2.4051 -1.4265
 4904SOL    HW226346   2.337   3.287   2.504  1.8965  1.4200  0.2082
 4905SOL     OW26347   3.492   2.699   4.040 -0.3106  0.0333 -0.1310
 4905SOL    HW126348   3.488   2.658   3.954  1.2803  1.6053 -0.9531
 4905SOL    HW226349   3.459   2.625   4.091  0.1591 -1.1504 -1.5524
 4906SOL     OW26350   0.148   1.344  15.235 -0.6012 -0.1980  0.5227
 4906SOL    HW126351   0.059   1.371  15.212 -0.8976 -0.4237  1.4125
 4906SOL    HW226352   0.182   1.322  15.148  2.1024  1.6120  1.0925
 4907SOL     OW26353   2.351   1.441  10.402 -0.2222 -0.2315 -0.0277
 4907SOL    HW126354   2.383   1.442  10.312  0.7062 -0.1184  0.2994
 4907SOL    HW226355   2.412   1.382  10.445  1.6264  2.2200  0.7695
 4908SOL     OW26356   3.005   3.142   3.898 -0.4401  0.0880  0.8204
 4908SOL    HW126357   3.078   3.149   3.837 -1.2976 -1.0562 -0.3357
 4908SOL    HW226358   3.028   3.205   3.966 -1.4278  0.4193  0.8480
 4909SOL     OW26359   0.747   0.039   4.766  0.6841 -0.3245  0.4841
 4909SOL    HW126360   0.690   0.111   4.738 -0.1760 -1.0645  0.3667
 4909SOL    HW226361   0.830   0.070   4.729 -0.2369  0.3802 -0.9967
 4910SOL     OW26362   2.450   3.984   3.346 -0.7372 -0.3271 -0.2130
 4910SOL    HW126363   2.357   4.004   3.344 -0.8487 -0.6943  1.4438
 4910SOL    HW226364   2.468   3.956   3.256 -2.3730  1.3703 -1.0584
 4911SOL     OW26365   3.690   3.487   6.910 -0.6533 -0.4362  0.1786
 4911SOL    HW126366   3.628   3.554   6.938  0.1879  1.1619 -1.8142
 4911SOL    HW226367   3.649   3.462   6.828  0.3593 -1.3454 -0.0487
 4912SOL     OW26368   4.267   3.202   2.259 -0.6539 -0.1248 -0.6394
 4912SOL    HW126369   4.186   3.152   2.267  1.0636 -2.4056  2.2036
 4912SOL    HW226370   4.286   3.227   2.349 -1.7698  0.5769 -0.5919
 4913SOL     OW26371   3.811   0.076   2.474 -0.5119  0.2454 -0.2517
 4913SOL    HW126372   3.804   0.049   2.383  1.4941 -2.0667  0.2809
 4913SOL    HW226373   3.814   0.170   2.456  1.0815  0.4860  1.2248
 4914SOL     OW26374   3.390   1.787  12.348 -0.1008 -0.0792  0.1117
 4914SOL    HW126375   3.328   1.860  12.338  0.3414  0.2370 -0.3445
 4914SOL    HW226376   3.465   1.816  12.400  0.6072  0.1285 -1.0237
 4915SOL     OW26377   2.746   3.164   3.749  0.7135 -0.5301  0.0440
 4915SOL    HW126378   2.828   3.171   3.798 -0.0989  0.6712  1.2120
 4915SOL    HW226379   2.747   3.241   3.694 -0.8231  0.1707  1.0104
 4916SOL     OW26380   1.443   0.092   9.069  0.3657  0.3341 -0.2226
 4916SOL    HW126381   1.431   0.072   9.162 -0.1079 -1.1204 -0.5922
 4916SOL    HW226382   1.371   0.049   9.022 -0.1862 -0.5581  1.4180
 4917SOL     OW26383   3.329   0.504   8.698  0.0377  0.2031 -0.5502
 4917SOL    HW126384   3.282   0.425   8.674 -0.5838  0.3127  0.3079
 4917SOL    HW226385   3.254   0.555   8.729  0.2794  0.5517 -0.5322
 4918SOL     OW26386   3.153   3.436  11.599  0.0567  0.0855 -0.2141
 4918SOL    HW126387   3.138   3.527  11.622  0.9417  0.1730  0.0008
 4918SOL    HW226388   3.230   3.448  11.544 -0.4748  1.6248 -0.6132
 4919SOL     OW26389   1.933   0.524   7.781  0.2318  0.2221 -0.1227
 4919SOL    HW126390   1.889   0.542   7.863 -0.6871 -0.0541 -0.5581
 4919SOL    HW226391   1.890   0.581   7.717 -0.9990  0.6377  1.1025
 4920SOL     OW26392   4.054   1.572   6.362  0.8236  0.5358 -0.0756
 4920SOL    HW126393   4.092   1.548   6.447 -1.1065 -0.7804  0.4059
 4920SOL    HW226394   4.041   1.486   6.322 -0.4071 -0.5700  2.6386
 4921SOL     OW26395   0.539   4.577   4.659 -0.5994 -0.3953  0.4174
 4921SOL    HW126396   0.446   4.577   4.679 -1.1819 -2.0002 -2.4365
 4921SOL    HW226397   0.560   4.670   4.665 -2.4316  0.0152  0.2269
 4922SOL     OW26398   4.472   0.711  15.612 -0.4897 -0.2293  0.1844
 4922SOL    HW126399   4.389   0.683  15.650 -0.9129  1.6873  0.7142
 4922SOL    HW226400   4.494   0.797  15.648  1.5509 -0.0836 -1.4684
 4923SOL     OW26401   2.999   1.662   3.585  0.0192 -0.6823 -0.0120
 4923SOL    HW126402   2.911   1.627   3.581 -0.5658  0.8598 -0.5930
 4923SOL    HW226403   3.022   1.641   3.676 -1.0506 -1.6738  0.0227
 4924SOL     OW26404   0.730   4.519   7.467  0.2214 -0.4316 -0.2592
 4924SOL    HW126405   0.755   4.488   7.380  0.2021 -0.1031 -0.3812
 4924SOL    HW226406   0.765   4.443   7.514  0.3785 -0.5248 -0.5225
 4925SOL     OW26407   2.580   1.175   7.753  0.1755  0.4604  0.1399
 4925SOL    HW126408   2.572   1.247   7.690  1.6693 -0.7333 -1.3853
 4925SOL    HW226409   2.606   1.221   7.834 -2.2806  1.8163  0.1479
 4926SOL     OW26410   4.640   3.568   9.579 -0.3680  0.5580  0.2589
 4926SOL    HW126411   4.545   3.558   9.584 -0.0128 -2.6222  0.6494
 4926SOL    HW226412   4.667   3.498   9.520  1.6660  1.0049  0.6696
 4927SOL     OW26413   2.157   1.551  11.081  0.2173 -0.2246 -0.2422
 4927SOL    HW126414   2.079   1.604  11.095 -0.6614 -1.3624 -0.8030
 4927SOL    HW226415   2.200   1.560  11.166 -1.3293  3.4928  0.1205
 4928SOL     OW26416   0.316   3.910   7.505  0.3702 -0.1854 -0.0381
 4928SOL    HW126417   0.360   3.991   7.529 -0.8316  1.1412 -2.3215
 4928SOL    HW226418   0.395   3.858   7.491  0.7257  0.2440  0.3538
 4929SOL     OW26419   0.635   3.612   4.311  0.3011  0.1115 -0.0698
 4929SOL    HW126420   0.653   3.608   4.217 -0.2115 -0.7072 -0.1383
 4929SOL    HW226421   0.639   3.520   4.339  3.1923 -0.3137 -1.8368
 4930SOL     OW26422   4.604   4.474   6.614 -0.7529  0.1541  0.1279
 4930SOL    HW126423   4.625   4.382   6.629 -2.2636 -0.5345 -1.9139
 4930SOL    HW226424   4.586   4.510   6.700  0.5486  0.5049  0.2643
 4931SOL     OW26425   0.982   3.014   8.471  0.1386  0.4052 -0.1552
 4931SOL    HW126426   1.053   3.037   8.531 -0.1868 -1.3694  0.9090
 4931SOL    HW226427   1.023   2.957   8.405  0.7814 -0.4871  1.0066
 4932SOL     OW26428   2.617   3.886  16.935 -0.1533 -0.4416 -0.3388
 4932SOL    HW126429   2.594   3.793  16.937  0.3600 -0.5680 -0.2416
 4932SOL    HW226430   2.657   3.887  16.848 -1.1037  1.4479 -0.7466
 4933SOL     OW26431   0.931   4.003   6.238  0.3865 -0.1694 -0.3722
 4933SOL    HW126432   0.870   4.013   6.165 -0.8619 -0.9519  0.5625
 4933SOL    HW226433   0.950   3.910   6.243 -0.3861 -0.3276 -0.3912
 4934SOL     OW26434   3.225   2.754  14.722  0.2508  0.3972  0.5008
 4934SOL    HW126435   3.290   2.823  14.715  1.2513 -0.4222  1.7455
 4934SOL    HW226436   3.279   2.681  14.691 -0.0922  0.1688  0.4279
 4935SOL     OW26437   0.075   0.097   3.132 -0.7802 -0.7064  0.0258
 4935SOL    HW126438   0.103   0.166   3.192  0.6029 -0.9327 -0.3683
 4935SOL    HW226439   0.137   0.123   3.064 -1.0690 -0.2227 -0.0538
 4936SOL     OW26440   2.270   2.156   2.165  0.2272  0.1790 -0.2312
 4936SOL    HW126441   2.220   2.099   2.222  2.1511 -1.9423 -0.6402
 4936SOL    HW226442   2.222   2.238   2.161 -0.8460 -0.6085 -3.5700
 4937SOL     OW26443   3.769   3.006   1.837  0.6285 -0.1586 -0.9478
 4937SOL    HW126444   3.797   2.943   1.770  1.0633 -0.6713 -0.2913
 4937SOL    HW226445   3.681   2.973   1.856  1.0046 -2.0973 -2.5329
 4938SOL     OW26446   0.020   1.887   7.496  0.3512  0.7727 -0.0364
 4938SOL    HW126447   4.675   1.880   7.540  2.2053  1.5703  3.5944
 4938SOL    HW226448   0.030   1.981   7.508  1.7106  0.8140 -1.5629
 4939SOL     OW26449   1.548   2.090   8.847  0.2227  0.4218 -0.6533
 4939SOL    HW126450   1.565   2.000   8.817  2.3273  1.7146 -3.2864
 4939SOL    HW226451   1.583   2.145   8.778 -1.9282  1.7133 -0.7099
 4940SOL     OW26452   0.011   1.590   6.489 -0.6718  0.5589 -0.0499
 4940SOL    HW126453   4.708   1.653   6.547 -1.2674 -0.6103  0.7861
 4940SOL    HW226454   0.085   1.568   6.545 -1.4725  0.1509  0.8502
 4941SOL     OW26455   4.386   3.571  15.791 -0.4512 -0.5159 -0.4369
 4941SOL    HW126456   4.393   3.653  15.840 -1.0578  0.1069 -1.3980
 4941SOL    HW226457   4.345   3.519  15.860  0.3998 -0.9267 -0.2439
 4942SOL     OW26458   0.397   3.916  17.030  0.8887 -0.2875  0.0297
 4942SOL    HW126459   0.370   3.970  17.105 -1.6423 -0.0400 -1.0473
 4942SOL    HW226460   0.339   3.840  17.040  2.9375 -1.5897  1.8638
 4943SOL     OW26461   3.406   2.434  10.304  0.7403 -0.9083  0.2677
 4943SOL    HW126462   3.427   2.495  10.374  0.0197 -1.5672  1.0596
 4943SOL    HW226463   3.315   2.416  10.327  1.0400 -0.7578  1.5380
 4944SOL     OW26464   4.587   1.057  16.785 -0.1261 -1.0071 -0.6439
 4944SOL    HW126465   4.492   1.059  16.778  0.0687  0.9114 -2.5209
 4944SOL    HW226466   4.612   1.035  16.695 -0.0321 -0.8481 -0.6570
 4945SOL     OW26467   3.182   0.332   5.111 -0.0532  0.0070 -0.6995
 4945SOL    HW126468   3.265   0.357   5.071  1.2070 -2.0198  0.6014
 4945SOL    HW226469   3.204   0.279   5.188  2.2440 -2.2564 -2.8875
 4946SOL     OW26470   1.625   1.998   9.744  0.4183 -0.3321 -0.1664
 4946SOL    HW126471   1.659   2.019   9.658  2.3799 -0.8674  0.4881
 4946SOL    HW226472   1.633   2.082   9.788  0.3470 -0.1940 -0.4207
 4947SOL     OW26473   4.365   1.108   4.323 -0.1501  0.0626  0.5833
 4947SOL    HW126474   4.288   1.134   4.373 -1.2818 -0.4729 -0.9155
 4947SOL    HW226475   4.330   1.103   4.235  1.4960 -1.0424 -0.0019
 4948SOL     OW26476   3.998   1.123   5.007 -0.5123  0.4386  0.1280
 4948SOL    HW126477   4.085   1.146   4.974  0.1750 -0.3983  1.3323
 4948SOL    HW226478   3.951   1.204   4.990  0.9762  0.8524 -2.0245
 4949SOL     OW26479   3.766   2.608   2.842  0.1434  0.2685  0.7144
 4949SOL    HW126480   3.678   2.602   2.806  0.4390 -1.4981  0.2736
 4949SOL    HW226481   3.780   2.520   2.878 -0.5643  0.1399  0.6590
 4950SOL     OW26482   0.981   3.873   2.418 -0.0979 -0.2179  0.2271
 4950SOL    HW126483   0.921   3.865   2.492 -1.6323 -1.2239 -1.1204
 4950SOL    HW226484   0.979   3.782   2.388 -0.1646 -0.1481  0.0197
 4951SOL     OW26485   2.404   3.916  10.140 -0.4291  0.3288 -0.0258
 4951SOL    HW126486   2.342   3.978  10.102 -1.0561  0.7783  1.7342
 4951SOL    HW226487   2.423   3.960  10.223  1.4531  0.4410 -0.5273
 4952SOL     OW26488   3.726   3.797   5.995 -0.0845 -0.1164  0.0165
 4952SOL    HW126489   3.697   3.882   5.963  0.3812 -0.2936 -0.8829
 4952SOL    HW226490   3.644   3.750   5.983  1.7095 -3.2267  0.0172
 4953SOL     OW26491   0.283   3.936   2.298  0.0260 -0.8898 -0.3071
 4953SOL    HW126492   0.363   3.978   2.266 -0.1400 -0.0975  0.2950
 4953SOL    HW226493   0.221   3.951   2.227 -0.3203 -1.1620 -0.0614
 4954SOL     OW26494   0.940   0.356   6.832  0.3717 -0.1750 -0.2310
 4954SOL    HW126495   0.936   0.365   6.927 -0.5205 -0.0138 -0.2836
 4954SOL    HW226496   1.026   0.316   6.820 -0.4928 -2.3733  0.7829
 4955SOL     OW26497   1.041   3.730   2.731  0.2618 -0.5677  0.0638
 4955SOL    HW126498   0.966   3.772   2.690 -0.2996 -1.3410  0.3032
 4955SOL    HW226499   1.003   3.724   2.818  1.9790 -1.0568  0.7705
 4956SOL     OW26500   4.467   3.856  12.697 -0.1074 -0.0381 -0.1389
 4956SOL    HW126501   4.478   3.887  12.606  1.0589 -0.2511 -0.0696
 4956SOL    HW226502   4.531   3.914  12.739  0.1802 -0.1552 -0.4117
 4957SOL     OW26503   2.247   0.935   5.085 -0.0767 -0.2854 -0.2748
 4957SOL    HW126504   2.193   0.975   5.152  0.8440  1.5960 -0.6478
 4957SOL    HW226505   2.264   1.010   5.028  1.2987 -2.2878 -2.5143
 4958SOL     OW26506   3.431   0.033  13.252 -0.3447 -0.6975 -0.4274
 4958SOL    HW126507   3.517   0.031  13.294 -0.2907 -0.3806 -0.5290
 4958SOL    HW226508   3.386   0.058  13.332 -0.7436 -1.0470 -0.5436
 4959SOL     OW26509   4.556   0.242   8.044 -0.0310  0.7178 -0.2699
 4959SOL    HW126510   4.491   0.213   8.107  1.9555  1.9241  2.3371
 4959SOL    HW226511   4.604   0.311   8.091 -1.2718  0.5881  1.1844
 4960SOL     OW26512   1.513   3.332   6.760  0.1362  0.3982 -0.0213
 4960SOL    HW126513   1.485   3.389   6.831 -1.0723  1.9350 -1.7631
 4960SOL    HW226514   1.537   3.397   6.695  2.5146 -1.6723 -1.2398
 4961SOL     OW26515   3.868   1.143   7.056  0.2689  0.1872 -0.6364
 4961SOL    HW126516   3.812   1.079   7.101 -0.0206 -0.0600 -1.3272
 4961SOL    HW226517   3.844   1.227   7.095 -1.6812 -1.7129  2.2061
 4962SOL     OW26518   3.019   2.085   3.808 -0.1544  0.2806 -0.1229
 4962SOL    HW126519   3.012   2.030   3.730  0.4230 -1.9477  1.3871
 4962SOL    HW226520   2.936   2.132   3.802  0.2857  1.0212 -0.2899
 4963SOL     OW26521   4.271   3.249   8.561  0.3078 -0.4067  0.0778
 4963SOL    HW126522   4.180   3.236   8.585  0.0639 -0.8944 -1.0953
 4963SOL    HW226523   4.278   3.237   8.466 -0.3618  0.2996 -0.0683
 4964SOL     OW26524   3.096   2.917   7.024  0.1890  0.9144 -0.3089
 4964SOL    HW126525   3.064   2.882   7.108  2.2615  1.0267  0.5379
 4964SOL    HW226526   3.035   2.991   7.027 -1.4294 -0.4459  0.8050
 4965SOL     OW26527   4.140   1.755  17.483 -0.4263  0.3123  0.1907
 4965SOL    HW126528   4.206   1.694  17.450  0.2601  0.3916  1.4168
 4965SOL    HW226529   4.179   1.842  17.485 -0.5406  0.3533  0.9084
 4966SOL     OW26530   3.163   1.744   8.154 -0.1446 -0.2038 -0.0652
 4966SOL    HW126531   3.180   1.725   8.062  1.5741  0.3441  0.1330
 4966SOL    HW226532   3.142   1.836   8.143  1.1993 -0.0329 -1.1495
 4967SOL     OW26533   1.150   1.158   3.101 -0.3778  0.0081 -0.2030
 4967SOL    HW126534   1.168   1.196   3.015 -0.8781  0.3413 -0.1573
 4967SOL    HW226535   1.151   1.241   3.149  0.0662  1.0238 -1.9863
 4968SOL     OW26536   2.778   3.585  13.761 -0.1817 -0.1799  0.1031
 4968SOL    HW126537   2.802   3.496  13.734 -0.4656 -1.3555  3.7095
 4968SOL    HW226538   2.735   3.620  13.683 -2.4429 -0.7008  1.1125
 4969SOL     OW26539   1.798   3.119   0.652 -0.4971  0.1320 -0.2119
 4969SOL    HW126540   1.804   3.213   0.635  1.5653  0.3509  1.7602
 4969SOL    HW226541   1.713   3.117   0.696 -0.2429  0.8743  0.2997
 4970SOL     OW26542   0.677   0.190  14.703 -0.2236 -0.2954 -0.4633
 4970SOL    HW126543   0.604   0.240  14.668  0.4466  0.8722 -0.1818
 4970SOL    HW226544   0.734   0.234  14.640  0.6432 -0.9509 -0.1363
 4971SOL     OW26545   4.346   1.398   7.944 -0.1218 -0.4753 -0.4023
 4971SOL    HW126546   4.284   1.358   8.005 -0.8084 -0.3076 -0.9994
 4971SOL    HW226547   4.386   1.464   8.001 -2.0107  1.7161 -1.6187
 4972SOL     OW26548   0.012   2.065   8.221 -0.2301  0.0064  0.2463
 4972SOL    HW126549   0.090   2.011   8.236 -0.3506 -0.6173 -1.4125
 4972SOL    HW226550   0.040   2.138   8.165 -1.3620 -0.3084 -0.7251
 4973SOL     OW26551   1.812   0.545   0.286  0.5808 -0.5409 -0.1560
 4973SOL    HW126552   1.780   0.633   0.304 -0.4794 -1.3169  1.7380
 4973SOL    HW226553   1.729   0.496   0.285 -0.4448  1.2082 -0.4328
 4974SOL     OW26554   4.375   3.237   5.764 -0.9112 -0.4110 -0.2440
 4974SOL    HW126555   4.341   3.159   5.808 -0.2384 -0.7667 -0.3592
 4974SOL    HW226556   4.327   3.236   5.682  1.9958 -1.7584 -1.9270
 4975SOL     OW26557   2.058   2.885   9.845 -0.1985  0.1713 -0.3248
 4975SOL    HW126558   2.024   2.974   9.853  1.0281  0.5811  0.3874
 4975SOL    HW226559   2.019   2.843   9.922  1.5692  0.9667  1.0040
 4976SOL     OW26560   2.838   3.020   4.663 -0.0013  0.1635  0.1191
 4976SOL    HW126561   2.750   3.048   4.638 -0.4196 -0.7792  0.5456
 4976SOL    HW226562   2.882   3.053   4.585  1.3090 -0.1318  0.7486
 4977SOL     OW26563   1.262   2.995   4.077 -0.5846  0.0586  0.0622
 4977SOL    HW126564   1.306   3.079   4.080 -2.6877  1.0931  2.5637
 4977SOL    HW226565   1.216   2.992   4.161  0.1332  0.2455  0.4623
 4978SOL     OW26566   0.830   0.208   5.055  0.3296  0.4725  0.5459
 4978SOL    HW126567   0.824   0.272   4.984  1.5122 -0.4196 -0.3559
 4978SOL    HW226568   0.768   0.240   5.121 -2.0356 -1.6813 -0.6362
 4979SOL     OW26569   1.323   3.296  14.361 -0.2955  0.1245  0.0121
 4979SOL    HW126570   1.365   3.378  14.335 -1.0602  0.5100 -0.0161
 4979SOL    HW226571   1.333   3.262  14.272 -0.5398 -1.1372  0.4783
 4980SOL     OW26572   4.628   0.166   5.725  0.0966 -0.0216 -0.4304
 4980SOL    HW126573   4.580   0.243   5.755 -0.3289 -0.8511  1.0423
 4980SOL    HW226574   4.668   0.124   5.801  0.1130 -0.4643 -0.6839
 4981SOL     OW26575   1.839   0.803   3.411  0.2691 -0.3040 -0.4169
 4981SOL    HW126576   1.869   0.887   3.445 -1.6183 -0.2978  1.2226
 4981SOL    HW226577   1.830   0.820   3.317  0.9530  3.2342  0.1669
 4982SOL     OW26578   3.848   4.516   6.781 -0.6594 -0.4345 -0.1556
 4982SOL    HW126579   3.872   4.426   6.800  0.4746  0.1538  1.1967
 4982SOL    HW226580   3.858   4.509   6.686  0.9709  1.2308 -0.0981
 4983SOL     OW26581   1.518   3.627   3.840 -0.6181 -0.5649 -0.1630
 4983SOL    HW126582   1.526   3.534   3.820  0.8220 -0.7733  1.3653
 4983SOL    HW226583   1.432   3.645   3.802 -1.0057 -2.6948 -0.2891
 4984SOL     OW26584   2.635   2.075   5.802  0.2763 -0.4912  0.0321
 4984SOL    HW126585   2.726   2.097   5.821 -0.4103  3.3719 -1.0481
 4984SOL    HW226586   2.618   2.026   5.882  2.5648 -1.3382 -0.0140
 4985SOL     OW26587   4.711   0.309   4.363 -0.0320 -0.2135 -0.4404
 4985SOL    HW126588   0.041   0.367   4.397  0.6460  0.9895 -3.8771
 4985SOL    HW226589   4.739   0.219   4.380 -1.4055 -0.5182  0.1579
 4986SOL     OW26590   2.100   3.636   1.917 -0.7605 -0.1313  0.1939
 4986SOL    HW126591   2.081   3.719   1.962  0.3982 -0.5395  1.4471
 4986SOL    HW226592   2.167   3.668   1.857 -0.1876 -0.7458  0.5139
 4987SOL     OW26593   1.794   1.904   7.805 -0.3474  0.2321 -0.1414
 4987SOL    HW126594   1.706   1.901   7.843  0.4288  2.0380  1.7875
 4987SOL    HW226595   1.775   1.907   7.712  1.1009 -0.5920 -0.4725
 4988SOL     OW26596   2.338   1.572   3.822  0.0975  0.2747 -0.2502
 4988SOL    HW126597   2.429   1.600   3.826  0.0385  0.4722 -0.2952
 4988SOL    HW226598   2.343   1.481   3.794 -2.0042 -0.3953  1.5673
 4989SOL     OW26599   1.366   0.694   4.089  0.1361 -0.5778  0.4499
 4989SOL    HW126600   1.313   0.630   4.137  3.5167 -1.6457  2.7534
 4989SOL    HW226601   1.314   0.771   4.114  0.0120 -0.5488  0.0969
 4990SOL     OW26602   0.329   3.881  11.848 -0.1190 -0.1811 -0.8406
 4990SOL    HW126603   0.240   3.914  11.865 -0.1092  0.6512 -2.4299
 4990SOL    HW226604   0.307   3.818  11.780 -1.6213 -1.1707  0.5473
 4991SOL     OW26605   2.212   2.945   4.973 -0.3014  0.6286 -0.9381
 4991SOL    HW126606   2.286   2.951   4.913  0.0702  1.3300 -0.4187
 4991SOL    HW226607   2.151   2.887   4.929  0.4275 -0.3337 -0.6680
 4992SOL     OW26608   2.789   4.733   3.517  0.4709  0.2572 -0.1815
 4992SOL    HW126609   2.762   0.078   3.482  0.1037  2.0486  4.4222
 4992SOL    HW226610   2.830   0.038   3.590  1.4197 -0.0726 -0.5115
 4993SOL     OW26611   1.160   3.552   3.534 -0.0508  0.1377 -0.1021
 4993SOL    HW126612   1.220   3.528   3.604  1.8360 -1.1432 -2.1317
 4993SOL    HW226613   1.175   3.480   3.473 -0.7817 -0.1805  0.1029
 4994SOL     OW26614   3.948   1.853   8.602  0.0028  0.4168  0.7996
 4994SOL    HW126615   3.980   1.778   8.653  0.2345 -0.4114 -0.5799
 4994SOL    HW226616   3.903   1.897   8.675 -0.7701 -2.3508  1.9886
 4995SOL     OW26617   2.679   2.995  15.482  0.6329  0.2295  0.2987
 4995SOL    HW126618   2.666   3.067  15.419 -0.1622 -1.1421 -1.0970
 4995SOL    HW226619   2.762   2.960  15.450 -0.0814 -2.7580  1.7877
 4996SOL     OW26620   3.564   1.394   0.700  0.2486  0.1208 -0.1289
 4996SOL    HW126621   3.643   1.405   0.755  0.8232  0.9939 -1.1295
 4996SOL    HW226622   3.514   1.330   0.750 -0.0441  0.3605 -0.1150
 4997SOL     OW26623   4.293   3.928   8.119  0.1876 -0.3281  0.0729
 4997SOL    HW126624   4.323   4.017   8.100  0.0750 -0.1857  0.5684
 4997SOL    HW226625   4.228   3.907   8.051  0.6806 -0.2253 -0.4322
 4998SOL     OW26626   3.151   4.428  11.881 -0.3464 -0.6099  0.0509
 4998SOL    HW126627   3.224   4.379  11.843 -1.3250 -0.8613 -1.4743
 4998SOL    HW226628   3.074   4.373  11.863 -2.5133  2.5096 -0.1772
 4999SOL     OW26629   2.371   3.819   3.737 -0.1107 -0.2929  0.2972
 4999SOL    HW126630   2.436   3.817   3.806  1.3868 -1.4007 -1.1316
 4999SOL    HW226631   2.302   3.761   3.769  1.0513 -1.1916  1.1634
 5000SOL     OW26632   2.032   0.797   4.903 -0.4307 -0.2863  0.1791
 5000SOL    HW126633   1.946   0.839   4.906 -0.5406 -0.4994 -0.0128
 5000SOL    HW226634   2.079   0.832   4.979  1.7517 -3.8587  0.4824
 5001SOL     OW26635   1.814   1.833  16.496 -0.7149 -1.0337  0.2234
 5001SOL    HW126636   1.738   1.816  16.552 -1.1141  0.0267  0.0250
 5001SOL    HW226637   1.823   1.745  16.460  2.7273 -0.4940 -0.2239
 5002SOL     OW26638   0.832   0.298   6.092 -0.7038  0.2005 -0.1343
 5002SOL    HW126639   0.807   0.285   6.183  1.2007  0.8933  0.4884
 5002SOL    HW226640   0.915   0.345   6.093 -0.4838 -0.2033  0.3928
 5003SOL     OW26641   1.633   2.602   2.004  0.2517  0.7062 -0.2214
 5003SOL    HW126642   1.557   2.616   2.060  0.8954 -2.7224  1.5501
 5003SOL    HW226643   1.681   2.685   2.013  2.8124 -0.7542 -0.2914
 5004SOL     OW26644   0.054   3.314   2.436  0.1264  0.1260  0.4234
 5004SOL    HW126645   4.720   3.252   2.444 -0.8048  1.2911  0.8228
 5004SOL    HW226646   0.072   3.306   2.342  1.8401 -3.2332  1.0266
 5005SOL     OW26647   1.007   3.147   9.395 -0.8689 -0.2063 -0.1105
 5005SOL    HW126648   0.941   3.206   9.357 -1.5756 -0.7679  0.2426
 5005SOL    HW226649   1.029   3.090   9.322 -0.8660  0.3060 -0.5064
 5006SOL     OW26650   2.424   1.039   7.575  0.2048  0.1312  0.3710
 5006SOL    HW126651   2.473   1.093   7.637  0.1558 -0.4704  0.9392
 5006SOL    HW226652   2.461   1.073   7.494 -2.0921  1.4018 -0.1517
 5007SOL     OW26653   3.483   0.875   2.143 -0.6227 -0.0972  0.3014
 5007SOL    HW126654   3.517   0.961   2.122 -0.6322  0.3337  2.0626
 5007SOL    HW226655   3.522   0.860   2.229 -0.1250 -0.9308 -0.0671
 5008SOL     OW26656   0.627   0.406  12.447  0.2219  0.3200 -0.2529
 5008SOL    HW126657   0.672   0.443  12.522  2.6343 -1.2437 -0.9064
 5008SOL    HW226658   0.658   0.317  12.427 -1.5458 -0.2354 -0.5474
 5009SOL     OW26659   0.087   3.110   3.125 -0.6313  0.3963  0.3115
 5009SOL    HW126660   0.009   3.160   3.149 -0.3288  1.0121  0.0065
 5009SOL    HW226661   0.117   3.085   3.212  1.4335 -0.2972 -0.6091
 5010SOL     OW26662   3.433   2.563   7.571  0.6547  0.2631 -0.1208
 5010SOL    HW126663   3.480   2.629   7.520  3.3434 -1.8206 -0.3985
 5010SOL    HW226664   3.503   2.500   7.590 -0.6917 -1.3595 -0.5047
 5011SOL     OW26665   1.454   1.212   2.495  0.1165  0.1805  0.2798
 5011SOL    HW126666   1.373   1.166   2.517  0.6286 -1.8008 -1.9106
 5011SOL    HW226667   1.466   1.255   2.580  0.0081  0.2214  0.2736
 5012SOL     OW26668   3.959   0.583  15.221 -0.0730  0.1401 -0.1297
 5012SOL    HW126669   3.958   0.633  15.139  3.5508  1.3998  0.5682
 5012SOL    HW226670   4.052   0.593  15.241 -1.1873  1.0200  4.4238
 5013SOL     OW26671   2.428   4.052   6.400  0.1709 -0.0055  0.2149
 5013SOL    HW126672   2.393   4.069   6.312  0.8308  0.6808  0.0901
 5013SOL    HW226673   2.441   4.141   6.435  0.9752  0.1930 -0.5932
 5014SOL     OW26674   0.901   0.266   7.367 -0.1464  0.0886  0.1831
 5014SOL    HW126675   0.840   0.329   7.406 -1.7481  0.5290 -2.9885
 5014SOL    HW226676   0.888   0.186   7.418  0.3445  0.3652  0.7353
 5015SOL     OW26677   4.144   2.225   5.190 -0.0033  0.2861 -0.1070
 5015SOL    HW126678   4.052   2.218   5.165 -0.2920  2.2631  0.4172
 5015SOL    HW226679   4.167   2.269   5.108  1.3048  0.8376  0.5446
 5016SOL     OW26680   2.340   2.539   3.970 -0.1799  0.4389 -0.7654
 5016SOL    HW126681   2.417   2.553   3.915  1.6905  1.1381  2.0809
 5016SOL    HW226682   2.271   2.563   3.907  0.4678 -1.5422 -2.2457
 5017SOL     OW26683   2.251   4.604   7.545 -0.0072  0.6893  0.6333
 5017SOL    HW126684   2.172   4.570   7.502 -0.0695  0.2068  1.1206
 5017SOL    HW226685   2.284   4.642   7.463  0.6232 -1.6322 -0.2134
 5018SOL     OW26686   2.312   4.681   4.326 -0.0793 -0.3301 -0.8762
 5018SOL    HW126687   2.301   0.020   4.272 -0.3656  0.0459 -0.2683
 5018SOL    HW226688   2.233   4.630   4.310 -0.1950  0.3133 -2.3558
 5019SOL     OW26689   1.862   0.686   8.943  0.1721  0.0056  0.2170
 5019SOL    HW126690   1.950   0.663   8.972 -0.0874  0.5459  1.4330
 5019SOL    HW226691   1.876   0.718   8.854 -0.1345  0.9398  0.5013
 5020SOL     OW26692   2.202   0.900   5.980 -0.3526 -0.1474 -0.8000
 5020SOL    HW126693   2.204   0.850   5.898 -1.0186  1.2889 -1.7063
 5020SOL    HW226694   2.138   0.856   6.036  1.6524 -0.7703  0.9664
 5021SOL     OW26695   1.315   0.547  11.280 -0.3584  0.3614 -0.4206
 5021SOL    HW126696   1.291   0.633  11.315  2.8807  0.8769  0.4812
 5021SOL    HW226697   1.226   0.523  11.255 -0.7460 -0.5159  1.7653
 5022SOL     OW26698   3.036   3.145   1.128  0.0945 -0.5719 -0.0454
 5022SOL    HW126699   3.116   3.163   1.178  0.8607  0.6288 -1.6924
 5022SOL    HW226700   3.011   3.060   1.164  2.9484 -1.0785  0.7658
 5023SOL     OW26701   2.851   1.531  14.147  0.0488 -0.6048  0.0800
 5023SOL    HW126702   2.806   1.554  14.066 -2.2026 -0.7124  1.3232
 5023SOL    HW226703   2.874   1.617  14.181  2.1300 -0.2298 -2.2537
 5024SOL     OW26704   2.016   1.723   6.239 -0.5437 -0.1014 -0.4238
 5024SOL    HW126705   1.976   1.678   6.313 -0.5382  2.2724  1.0503
 5024SOL    HW226706   2.088   1.662   6.220 -1.9227 -2.1996  1.1002
 5025SOL     OW26707   0.157   3.461   6.815  0.0257  0.0901  0.3963
 5025SOL    HW126708   0.161   3.457   6.910  0.3900  0.9734  0.4217
 5025SOL    HW226709   0.093   3.531   6.799 -0.2464 -0.8343 -2.4899
 5026SOL     OW26710   3.293   1.686   6.932 -0.0341  0.0202  0.3006
 5026SOL    HW126711   3.316   1.649   6.846  1.3218 -0.1991  0.7575
 5026SOL    HW226712   3.345   1.628   6.988  0.4539  0.3397  0.1827
 5027SOL     OW26713   2.306   2.766   7.953  0.1510  0.0186 -0.4420
 5027SOL    HW126714   2.385   2.767   8.006 -0.1526 -0.4349  0.0266
 5027SOL    HW226715   2.252   2.698   7.994 -0.8316  2.0339  1.6463
 5028SOL     OW26716   4.375   2.108  16.251 -0.0203 -0.0848 -0.7135
 5028SOL    HW126717   4.348   2.137  16.338  0.0259 -0.0299 -0.7179
 5028SOL    HW226718   4.409   2.190  16.218 -0.2963  0.6446  0.7836
 5029SOL     OW26719   3.497   0.524   9.868  0.4071  0.0073  0.0888
 5029SOL    HW126720   3.437   0.524   9.942 -1.0716  1.9540 -1.0957
 5029SOL    HW226721   3.587   0.537   9.900  0.3115 -0.5058  0.5649
 5030SOL     OW26722   3.152   0.595   3.476  0.2324  0.0536 -0.3673
 5030SOL    HW126723   3.070   0.556   3.505 -1.5414  2.5310 -2.1718
 5030SOL    HW226724   3.157   0.676   3.526  0.5360  0.9042 -1.7988
 5031SOL     OW26725   2.419   2.188   7.809 -0.8672 -0.2242  0.5826
 5031SOL    HW126726   2.456   2.276   7.813 -0.6316 -0.3422  1.0656
 5031SOL    HW226727   2.385   2.176   7.721 -2.6467 -1.0113  1.3562
 5032SOL     OW26728   4.659   4.297  17.709 -0.3722  0.2096 -0.8096
 5032SOL    HW126729   4.639   4.273   0.043 -0.9058  0.6670 -0.8072
 5032SOL    HW226730   0.006   4.258  17.699 -0.9067 -1.2076  0.2090
 5033SOL     OW26731   4.628   2.825   9.820 -0.5071 -0.3580 -0.0681
 5033SOL    HW126732   4.654   2.910   9.855  1.9768 -0.4252 -1.7580
 5033SOL    HW226733   4.709   2.801   9.775 -0.0585 -0.2760  0.6930
 5034SOL     OW26734   1.231   3.314   9.482  0.0744 -0.1346 -0.4097
 5034SOL    HW126735   1.184   3.397   9.495 -1.3458 -1.2795  1.8678
 5034SOL    HW226736   1.167   3.259   9.437 -2.0648  0.5233  1.8101
 5035SOL     OW26737   4.395   0.315   5.062  0.4544 -0.1313  0.6387
 5035SOL    HW126738   4.437   0.373   5.125 -1.4758  0.3496  1.4821
 5035SOL    HW226739   4.470   0.262   5.034 -0.8661 -0.7658 -1.7866
 5036SOL     OW26740   3.456   0.276  12.423 -0.3889 -0.1761 -0.4616
 5036SOL    HW126741   3.413   0.339  12.366  2.5893 -0.0700 -2.6028
 5036SOL    HW226742   3.484   0.326  12.499  0.2626 -0.7718 -0.3018
 5037SOL     OW26743   3.646   3.037   2.795  0.2603 -0.1720  0.1967
 5037SOL    HW126744   3.665   3.130   2.809  0.4082 -0.2940  0.7972
 5037SOL    HW226745   3.646   2.998   2.882  0.5072  1.2654  0.8418
 5038SOL     OW26746   3.489   2.836   9.139  0.0111  0.3365 -0.1779
 5038SOL    HW126747   3.410   2.812   9.090  0.2538 -1.9054  0.5128
 5038SOL    HW226748   3.558   2.820   9.075 -0.2273 -1.3880 -0.0178
 5039SOL     OW26749   2.371   0.013   9.129  0.1705  0.2667  0.3083
 5039SOL    HW126750   2.334   4.672   9.166  2.3801 -0.8962 -0.0026
 5039SOL    HW226751   2.308   0.029   9.059  1.1979 -1.3320 -0.9953
 5040SOL     OW26752   0.064   4.480   0.248  0.1638 -0.5651 -0.5012
 5040SOL    HW126753   0.129   4.458   0.182  1.2181 -0.7329  0.5927
 5040SOL    HW226754   0.067   4.573   0.224 -0.7331 -0.4080 -0.0181
 5041SOL     OW26755   3.148   4.205   7.578 -0.0182  0.0683 -0.5470
 5041SOL    HW126756   3.176   4.295   7.559 -1.9540  0.9295  0.6054
 5041SOL    HW226757   3.192   4.192   7.662  0.1526 -0.5201 -0.7316
 5042SOL     OW26758   4.358   3.178   6.910 -0.0632 -1.1360  0.3900
 5042SOL    HW126759   4.436   3.132   6.881  1.7418  3.5821 -2.1929
 5042SOL    HW226760   4.407   3.250   6.949  2.2513 -1.8170 -1.3228
 5043SOL     OW26761   4.682   2.977  13.760 -0.0801 -0.4706  0.0771
 5043SOL    HW126762   4.739   3.048  13.788 -0.7264 -0.3119  0.9892
 5043SOL    HW226763   4.657   3.023  13.680  2.0070  0.5566  0.0184
 5044SOL     OW26764   0.742   2.023   3.061 -0.1429  0.6384  0.9787
 5044SOL    HW126765   0.776   1.934   3.053 -0.9021  0.4652 -0.2222
 5044SOL    HW226766   0.663   1.991   3.106  1.9300 -2.3419  2.4914
 5045SOL     OW26767   0.152   2.203  16.403  0.4538  0.3246 -0.0973
 5045SOL    HW126768   0.194   2.127  16.363  0.8619  0.4390  0.1148
 5045SOL    HW226769   0.235   2.236  16.437  0.3657  0.5443 -0.0913
 5046SOL     OW26770   3.355   2.986   4.746 -0.5329  0.4764  0.0759
 5046SOL    HW126771   3.291   2.957   4.810 -0.4216  0.4971  0.1962
 5046SOL    HW226772   3.438   2.972   4.791  0.2668 -0.4587 -1.6673
 5047SOL     OW26773   2.329   1.967   2.922 -0.4361  0.2126 -0.4036
 5047SOL    HW126774   2.296   2.015   2.846  0.8505  0.3057 -0.9208
 5047SOL    HW226775   2.243   1.936   2.950  1.4677 -3.6242  1.2434
 5048SOL     OW26776   4.588   3.424   5.053 -0.4645  0.2448  1.3585
 5048SOL    HW126777   4.682   3.407   5.058 -0.1332  1.7413  0.3445
 5048SOL    HW226778   4.570   3.363   4.981  2.3053 -1.1944  1.8957
 5049SOL     OW26779   0.372   4.278   3.217  0.0057 -0.0163  0.2749
 5049SOL    HW126780   0.281   4.287   3.187 -0.3738 -0.7002  1.2052
 5049SOL    HW226781   0.405   4.353   3.167 -1.1467  0.5717  0.3857
 5050SOL     OW26782   2.333   1.357   9.740  0.1070 -0.7916 -0.0428
 5050SOL    HW126783   2.422   1.389   9.759 -0.2593  1.1017 -1.5871
 5050SOL    HW226784   2.287   1.383   9.820  1.1423 -0.3237  0.4103
 5051SOL     OW26785   1.762   1.083   5.885 -0.2694 -0.0564  0.1263
 5051SOL    HW126786   1.845   1.062   5.843 -1.8801  0.7817 -3.4601
 5051SOL    HW226787   1.717   1.001   5.866 -2.5623  1.4394 -0.9307
 5052SOL     OW26788   0.114   3.386   1.168 -0.2418  0.3600 -0.5905
 5052SOL    HW126789   0.032   3.355   1.206  0.2021 -0.0717  0.0056
 5052SOL    HW226790   0.154   3.429   1.244 -1.3566 -0.9513  0.7136
 5053SOL     OW26791   3.196   2.679   2.680  0.0096  0.4660 -0.3090
 5053SOL    HW126792   3.283   2.646   2.706  0.7295  0.8802 -2.2309
 5053SOL    HW226793   3.153   2.661   2.764 -1.5378 -1.8252 -1.6148
 5054SOL     OW26794   0.015   3.282  12.626 -0.1381  0.1650 -0.2445
 5054SOL    HW126795   4.728   3.292  12.534  2.7306  0.1815 -1.0614
 5054SOL    HW226796   4.681   3.308  12.682 -0.1052 -0.6325  0.1591
 5055SOL     OW26797   0.163   4.347  17.256  0.6620  0.4221 -0.4500
 5055SOL    HW126798   0.151   4.418  17.319 -1.7384  0.2820 -0.7760
 5055SOL    HW226799   0.097   4.370  17.191  0.8747  1.9007 -0.1347
 5056SOL     OW26800   4.175   1.655   3.145 -0.5690 -0.1953 -0.0589
 5056SOL    HW126801   4.235   1.583   3.167  0.8340  0.6472 -1.0921
 5056SOL    HW226802   4.107   1.605   3.101 -0.0075  0.0890 -1.2540
 5057SOL     OW26803   3.356   1.464  17.510 -0.2049 -0.0175  0.0417
 5057SOL    HW126804   3.279   1.505  17.471 -0.1232  0.4435  0.3613
 5057SOL    HW226805   3.307   1.391  17.548 -1.0367 -0.0614 -1.1231
 5058SOL     OW26806   2.086   2.489  10.007 -0.0620  0.0383  0.2601
 5058SOL    HW126807   1.991   2.499  10.002 -0.2391 -0.8394  1.9013
 5058SOL    HW226808   2.095   2.398  10.035  0.2426 -0.2059 -0.6608
 5059SOL     OW26809   0.783   4.177   5.208 -0.0010  0.3667  0.1485
 5059SOL    HW126810   0.851   4.238   5.239  0.2972  0.1564 -0.0899
 5059SOL    HW226811   0.705   4.225   5.235 -0.7551 -0.8372  0.0957
 5060SOL     OW26812   3.560   1.961  16.201 -0.1243 -0.1060 -0.5177
 5060SOL    HW126813   3.507   1.912  16.263  0.1790 -0.5599 -0.6183
 5060SOL    HW226814   3.548   2.054  16.222  1.4212 -0.3856  1.5633
 5061SOL     OW26815   2.706   2.899   4.318 -0.2019 -0.2464 -0.6438
 5061SOL    HW126816   2.751   2.968   4.366  1.8209 -0.9921 -1.4726
 5061SOL    HW226817   2.761   2.903   4.239  0.3966 -2.0649 -0.3155
 5062SOL     OW26818   2.027   0.264   7.736 -0.3832  0.5470 -0.3285
 5062SOL    HW126819   2.105   0.281   7.682 -1.2625 -1.5055 -2.2573
 5062SOL    HW226820   2.002   0.348   7.773 -1.1058  0.7071 -1.1965
 5063SOL     OW26821   2.532   2.749   3.739  0.0854  0.8931  0.6369
 5063SOL    HW126822   2.591   2.765   3.813  0.6432 -3.6925  1.2193
 5063SOL    HW226823   2.574   2.794   3.666 -0.4431  3.1061  1.6901
 5064SOL     OW26824   4.323   4.622   3.774  0.1600  0.0189  0.5003
 5064SOL    HW126825   4.317   4.717   3.763 -1.9124 -0.2387 -0.7206
 5064SOL    HW226826   4.352   4.597   3.686 -0.3337 -1.1723  0.6762
 5065SOL     OW26827   2.317   1.858   7.038 -0.2713  0.7370 -0.3439
 5065SOL    HW126828   2.241   1.821   6.993  1.7648 -0.4691 -2.8088
 5065SOL    HW226829   2.334   1.942   6.995 -0.8245  0.4932 -1.0426
 5066SOL     OW26830   1.356   3.556  15.068 -0.5893  0.2321  0.0853
 5066SOL    HW126831   1.333   3.640  15.028 -0.8121  1.1212  2.0522
 5066SOL    HW226832   1.307   3.496  15.012 -1.8206  0.0497  1.3684
 5067SOL     OW26833   1.651   3.205   6.446 -0.6834 -0.1598 -0.0713
 5067SOL    HW126834   1.584   3.221   6.512  2.0708  0.0130  2.7112
 5067SOL    HW226835   1.659   3.111   6.463  0.1542 -0.3391 -1.4003
 5068SOL     OW26836   2.756   3.488   7.194  0.4849  0.2382 -0.2019
 5068SOL    HW126837   2.714   3.515   7.112 -1.1805 -1.9811 -0.0659
 5068SOL    HW226838   2.705   3.409   7.210  1.9677 -0.3331  1.7646
 5069SOL     OW26839   1.340   4.188   9.153  0.2521  0.0609 -0.3778
 5069SOL    HW126840   1.402   4.228   9.214 -0.2310 -2.0554  1.4840
 5069SOL    HW226841   1.277   4.259   9.151 -1.2256 -1.2483 -0.0539
 5070SOL     OW26842   4.105   2.778   5.127 -0.5772  0.2603  0.4339
 5070SOL    HW126843   4.103   2.864   5.085 -1.8607 -0.1458 -0.3187
 5070SOL    HW226844   4.043   2.734   5.069 -0.2278 -0.6077  0.7158
 5071SOL     OW26845   2.169   3.526   4.943  0.2971  0.2105  0.0674
 5071SOL    HW126846   2.109   3.452   4.933 -0.2453  0.7022 -0.3007
 5071SOL    HW226847   2.176   3.553   4.851 -0.8711  1.5606  0.3633
 5072SOL     OW26848   2.776   0.489  14.413  0.2212  0.4154  0.7181
 5072SOL    HW126849   2.817   0.409  14.445  0.6920  0.9612  1.4904
 5072SOL    HW226850   2.799   0.480  14.320  0.6621 -0.0364  0.8722
 5073SOL     OW26851   2.278   2.744   1.632  0.3939 -0.1736  0.4627
 5073SOL    HW126852   2.323   2.718   1.713 -0.0046  0.9738  1.0531
 5073SOL    HW226853   2.192   2.716   1.661  0.5513 -1.3064 -0.1531
 5074SOL     OW26854   3.838   1.999   4.525  0.4408  0.0817 -0.0179
 5074SOL    HW126855   3.803   2.063   4.464 -1.1012 -0.9256 -0.2072
 5074SOL    HW226856   3.827   1.921   4.471  0.4580  1.2665 -1.7195
 5075SOL     OW26857   2.575   0.158   3.826  0.1062 -0.3066 -0.1709
 5075SOL    HW126858   2.544   0.158   3.735 -0.3892  1.6047 -0.0060
 5075SOL    HW226859   2.537   0.244   3.847 -1.1790 -1.0874  0.7423
 5076SOL     OW26860   0.742   3.856  13.717  0.4544  0.1797  0.3534
 5076SOL    HW126861   0.796   3.777  13.723  1.8206  0.7944 -3.7507
 5076SOL    HW226862   0.690   3.839  13.796  0.3942 -1.8669 -0.1199
 5077SOL     OW26863   2.455   4.417   2.674 -0.4273  0.0556  0.4844
 5077SOL    HW126864   2.416   4.430   2.761  0.5696  1.6573  0.6931
 5077SOL    HW226865   2.376   4.412   2.620  0.7479  0.1226 -1.2429
 5078SOL     OW26866   0.892   3.328  10.011 -0.1448 -0.3935 -0.3881
 5078SOL    HW126867   0.847   3.248   9.983 -0.9312 -0.4388  1.0112
 5078SOL    HW226868   0.839   3.356  10.085 -0.1490  2.5391 -1.5247
 5079SOL     OW26869   0.967   0.492   2.190 -0.2438 -0.1116  0.2628
 5079SOL    HW126870   1.050   0.446   2.180  0.7119  1.6079  0.1610
 5079SOL    HW226871   0.945   0.499   2.097 -5.8725  0.1722  1.5724
 5080SOL     OW26872   4.004   3.798   2.911 -0.0793 -0.1737  0.4151
 5080SOL    HW126873   3.975   3.751   2.832 -0.3427 -1.7777  1.4654
 5080SOL    HW226874   3.981   3.885   2.878 -0.2316 -0.1437  0.6069
 5081SOL     OW26875   2.341   3.648   9.314  0.5714  0.8940 -0.5069
 5081SOL    HW126876   2.382   3.629   9.399  2.8203 -0.6684 -1.9645
 5081SOL    HW226877   2.426   3.661   9.272  0.2950  3.6499 -0.2481
 5082SOL     OW26878   1.367   3.979  17.401 -0.2914 -0.0056  0.7921
 5082SOL    HW126879   1.309   4.044  17.440  0.5553  0.1803  1.7189
 5082SOL    HW226880   1.340   3.898  17.443  1.1086  0.7283  3.0451
 5083SOL     OW26881   3.582   3.516   4.182  0.3588 -0.2227  0.7054
 5083SOL    HW126882   3.588   3.560   4.097  0.4592 -0.7516  0.4382
 5083SOL    HW226883   3.487   3.520   4.196  0.3430  2.0482 -0.0582
 5084SOL     OW26884   2.129   2.496   8.115 -0.1327 -0.5641  0.2240
 5084SOL    HW126885   2.126   2.491   8.019  0.2723  0.6910  0.1519
 5084SOL    HW226886   2.038   2.471   8.131 -0.8080  2.4314  0.9643
 5085SOL     OW26887   4.527   3.760   4.926  0.0312  0.7567  0.1727
 5085SOL    HW126888   4.532   3.712   5.009  2.2786  1.9316  0.7201
 5085SOL    HW226889   4.583   3.705   4.870  1.3205 -0.2515  2.4583
 5086SOL     OW26890   3.431   0.647   4.539  0.0055  0.3377  0.5370
 5086SOL    HW126891   3.437   0.625   4.446 -0.3295  1.6061  0.2185
 5086SOL    HW226892   3.335   0.646   4.549 -0.0135  1.0125  0.3655
 5087SOL     OW26893   1.147   2.205  13.706 -0.0530  0.1254  0.1126
 5087SOL    HW126894   1.055   2.226  13.694 -0.1103 -0.8985 -1.1578
 5087SOL    HW226895   1.142   2.113  13.733  2.2751 -0.5246 -1.6742
 5088SOL     OW26896   1.470   2.024   7.827  0.7942  0.0746  0.2010
 5088SOL    HW126897   1.378   2.029   7.801  0.6696  0.1977  0.6728
 5088SOL    HW226898   1.470   2.021   7.923 -2.3954 -2.2868  0.1551
 5089SOL     OW26899   4.699   3.571   6.306 -0.6133 -0.4234 -0.4343
 5089SOL    HW126900   0.033   3.597   6.250 -0.0367  1.1636  1.0693
 5089SOL    HW226901   4.729   3.488   6.343  2.3867  0.7806 -0.1545
 5090SOL     OW26902   3.865   3.004  12.868 -0.4572  0.4652 -0.2184
 5090SOL    HW126903   3.852   2.951  12.946 -1.4141 -0.6141 -1.1147
 5090SOL    HW226904   3.872   3.090  12.909  1.8665  0.1842 -0.0326
 5091SOL     OW26905   1.615   3.437   7.040  0.1989  0.4519 -0.3262
 5091SOL    HW126906   1.644   3.355   6.999 -0.1229  0.5422 -0.7413
 5091SOL    HW226907   1.521   3.423   7.050  0.0935  0.0139 -1.8419
 5092SOL     OW26908   0.549   3.859   9.199 -0.2903 -0.3867 -0.1091
 5092SOL    HW126909   0.466   3.892   9.163  1.0718  0.9282 -2.0379
 5092SOL    HW226910   0.540   3.765   9.213  0.5529 -0.4724 -0.1836
 5093SOL     OW26911   2.672   1.367   3.763 -0.3726 -0.2900  0.8667
 5093SOL    HW126912   2.683   1.410   3.848  2.1607  2.7368 -0.9577
 5093SOL    HW226913   2.761   1.331   3.756 -1.1744 -2.3120  1.3871
 5094SOL     OW26914   2.631   0.734  11.540 -0.6013  0.2577  0.0948
 5094SOL    HW126915   2.631   0.671  11.611  1.2871 -0.2962 -0.4139
 5094SOL    HW226916   2.669   0.695  11.461 -1.4001  0.2336 -0.2792
 5095SOL     OW26917   3.050   0.512   2.656 -0.0534 -0.1287  0.2177
 5095SOL    HW126918   3.099   0.591   2.680 -0.6483  0.4314 -0.4218
 5095SOL    HW226919   3.110   0.456   2.607 -0.0572  0.7212 -0.7603
 5096SOL     OW26920   2.542   0.052   4.978  0.6582  0.0298 -0.4955
 5096SOL    HW126921   2.547   0.146   4.996 -1.4280  0.0088  0.1715
 5096SOL    HW226922   2.547   0.013   5.065 -0.0648 -1.7047 -1.2219
 5097SOL     OW26923   3.981   4.328   0.309  0.0318 -0.6671  0.1195
 5097SOL    HW126924   3.963   4.290   0.223  2.3357  1.3197 -1.2578
 5097SOL    HW226925   4.071   4.361   0.296 -0.3022  0.2149  0.0136
 5098SOL     OW26926   4.350   4.704  11.881  0.5123  0.2141  0.0535
 5098SOL    HW126927   4.436   4.692  11.841  0.6545 -0.6553  0.6185
 5098SOL    HW226928   4.342   0.059  11.885  0.8876  0.1365  2.5380
 5099SOL     OW26929   2.734   2.088   0.204 -0.1761 -0.0281 -0.2444
 5099SOL    HW126930   2.668   2.061   0.268 -0.3396  1.2955  0.1668
 5099SOL    HW226931   2.794   2.014   0.205 -2.4165 -1.7992  2.7137
 5100SOL     OW26932   0.052   3.077   1.216  0.2680 -0.9327 -0.0551
 5100SOL    HW126933   0.049   3.112   1.305  1.8421 -1.0426  0.0337
 5100SOL    HW226934   0.108   3.003   1.238  1.0517 -0.3817 -0.2196
 5101SOL     OW26935   0.452   2.909  11.138  0.3900 -0.0525  0.2118
 5101SOL    HW126936   0.448   2.814  11.135  1.6800 -0.0968  0.1167
 5101SOL    HW226937   0.367   2.922  11.181  0.6867 -0.4714  0.9182
 5102SOL     OW26938   3.258   3.678   4.967  0.5960  0.2236  0.2770
 5102SOL    HW126939   3.311   3.676   5.047 -0.1254  0.8831  0.7597
 5102SOL    HW226940   3.243   3.769   4.945 -0.4383 -0.3658 -1.4796
 5103SOL     OW26941   0.122   4.680   5.405 -0.3061  0.5079  0.2721
 5103SOL    HW126942   0.059   4.608   5.402  0.4824 -0.1542 -0.3686
 5103SOL    HW226943   0.202   4.629   5.419 -1.3186 -1.6044 -1.5109
 5104SOL     OW26944   4.113   1.183   3.231  0.4208 -0.4292  0.0445
 5104SOL    HW126945   4.078   1.246   3.294  1.3645 -0.0829  0.2118
 5104SOL    HW226946   4.124   1.242   3.156 -0.1846 -1.4014 -0.8259
 5105SOL     OW26947   4.109   2.529   6.836 -0.0454  0.3320  0.5792
 5105SOL    HW126948   4.023   2.567   6.816  0.3971  0.3690 -1.3166
 5105SOL    HW226949   4.117   2.445   6.791  1.9165  1.7706 -1.7865
 5106SOL     OW26950   0.565   4.537   5.478  0.7877 -0.5396 -0.6490
 5106SOL    HW126951   0.596   4.594   5.548 -1.7541  1.3322 -1.0206
 5106SOL    HW226952   0.474   4.566   5.468  1.0081  0.9169  1.8053
 5107SOL     OW26953   3.416   2.476   4.171 -0.4392 -0.2966  0.3345
 5107SOL    HW126954   3.467   2.442   4.244  0.3232  2.6278  1.1564
 5107SOL    HW226955   3.427   2.399   4.115 -0.3251  1.4020 -1.9696
 5108SOL     OW26956   4.117   2.521  17.136 -0.0782  0.7326 -0.0925
 5108SOL    HW126957   4.195   2.499  17.187  0.5699  0.9946 -0.9683
 5108SOL    HW226958   4.090   2.598  17.187  0.5891  0.3069  0.9124
 5109SOL     OW26959   1.321   1.391  10.824  0.0618  0.3643  0.0085
 5109SOL    HW126960   1.238   1.349  10.846 -0.4595  0.1672 -2.2661
 5109SOL    HW226961   1.382   1.326  10.860 -1.2154 -1.3237 -0.8844
 5110SOL     OW26962   4.663   1.830  13.968  0.3916 -0.0606  0.2986
 5110SOL    HW126963   4.592   1.873  14.016 -0.7851 -2.2289  0.4892
 5110SOL    HW226964   4.667   1.747  14.015 -1.8045 -0.2576  0.1062
 5111SOL     OW26965   2.991   1.163   9.220  0.1238  0.4302 -0.2194
 5111SOL    HW126966   2.969   1.246   9.263 -0.0136 -0.5412  1.5878
 5111SOL    HW226967   3.053   1.123   9.281  0.5708  0.3508 -0.7275
 5112SOL     OW26968   4.359   3.383   3.373 -0.4437 -0.5378  0.3606
 5112SOL    HW126969   4.428   3.435   3.415  0.9536 -2.7811  0.8276
 5112SOL    HW226970   4.370   3.419   3.285 -2.7752 -0.6767  0.0225
 5113SOL     OW26971   2.949   0.098   2.297  0.1776 -0.2219 -0.2456
 5113SOL    HW126972   2.922   0.008   2.317  0.5689 -0.4890 -0.9062
 5113SOL    HW226973   2.894   0.140   2.231  0.5789 -1.2795 -1.2520
 5114SOL     OW26974   0.798   1.614   2.451  0.0591  0.3156  0.2826
 5114SOL    HW126975   0.743   1.566   2.389  1.1011  0.1747 -0.5479
 5114SOL    HW226976   0.755   1.698   2.467 -0.0335  0.6113 -1.4427
 5115SOL     OW26977   2.677   4.342   7.702  0.4774  0.2042  0.1275
 5115SOL    HW126978   2.696   4.430   7.670  0.6435  0.4582  0.9160
 5115SOL    HW226979   2.584   4.331   7.685  0.6421  0.1558 -0.7123
 5116SOL     OW26980   1.965   4.290  15.064  0.2847  0.3634  0.1473
 5116SOL    HW126981   2.036   4.293  15.128  0.0786 -0.4704  0.4192
 5116SOL    HW226982   1.918   4.369  15.092  1.0894  0.2473  1.8174
 5117SOL     OW26983   0.530   3.518  15.853  0.0320 -0.2481  0.1151
 5117SOL    HW126984   0.544   3.556  15.767 -0.9449 -1.2192 -0.4660
 5117SOL    HW226985   0.558   3.597  15.901  0.1498 -1.0495  1.3675
 5118SOL     OW26986   2.802   2.766   7.428 -0.1239  0.2301  0.2634
 5118SOL    HW126987   2.839   2.736   7.511  0.9047  0.0153 -0.2762
 5118SOL    HW226988   2.769   2.684   7.392 -0.3012 -0.0047  0.9526
 5119SOL     OW26989   4.127   0.278   2.832  0.1601  0.2297  0.0916
 5119SOL    HW126990   4.162   0.352   2.783 -0.3281 -0.9003 -1.9562
 5119SOL    HW226991   4.047   0.265   2.781 -0.2390 -0.9288  0.9938
 5120SOL     OW26992   1.649   2.361  15.231 -0.0851  0.1862  0.3658
 5120SOL    HW126993   1.612   2.448  15.246  0.1221  0.6868 -2.0322
 5120SOL    HW226994   1.582   2.308  15.275  0.7954 -0.1645  1.2973
 5121SOL     OW26995   2.825   3.372  13.363  0.6772 -0.1079 -0.2627
 5121SOL    HW126996   2.797   3.388  13.273 -2.2688 -0.6651  0.5353
 5121SOL    HW226997   2.919   3.365  13.350  1.0997  3.1759  1.1575
 5122SOL     OW26998   4.631   0.673   6.799 -0.0146  0.4672 -0.2465
 5122SOL    HW126999   4.692   0.707   6.734  1.9997 -0.4004  1.2072
 5122SOL    HW227000   4.659   0.716   6.880  1.6731  1.9513 -1.6300
 5123SOL     OW27001   1.339   3.424   3.660 -0.0787 -0.3593  0.4017
 5123SOL    HW127002   1.321   3.400   3.751 -1.6913  1.8896  0.6796
 5123SOL    HW227003   1.384   3.353   3.615  0.2508 -0.8163  1.4463
 5124SOL     OW27004   1.532   1.744  10.378 -0.5590  0.4671  0.0493
 5124SOL    HW127005   1.514   1.763  10.286 -1.4613  0.7769  0.2881
 5124SOL    HW227006   1.452   1.694  10.396 -0.0524 -0.1978  0.4785
 5125SOL     OW27007   0.256   2.779  11.541  0.1746  0.2769 -0.5806
 5125SOL    HW127008   0.338   2.761  11.587  0.2300  0.6581 -0.5308
 5125SOL    HW227009   0.204   2.702  11.563 -0.2562  0.8474  0.3650
 5126SOL     OW27010   1.763   4.132   9.510 -0.2702 -0.4869  0.0775
 5126SOL    HW127011   1.678   4.141   9.467 -1.0088 -0.2912  1.5635
 5126SOL    HW227012   1.788   4.039   9.506  0.4057 -0.2031 -2.3719
 5127SOL     OW27013   1.574   0.313   4.147  0.2147  0.8326 -0.5376
 5127SOL    HW127014   1.594   0.407   4.145  0.7815  0.6763 -2.4464
 5127SOL    HW227015   1.646   0.282   4.202 -0.0862  0.1579 -0.5302
 5128SOL     OW27016   4.317   3.736   7.173  0.3078  1.2000  0.1350
 5128SOL    HW127017   4.231   3.739   7.133  0.9725  0.2532 -1.3558
 5128SOL    HW227018   4.317   3.808   7.237  3.0409 -1.7026  3.4071
 5129SOL     OW27019   0.062   1.134   1.762 -0.1132  0.5582 -0.6311
 5129SOL    HW127020   0.117   1.109   1.836 -1.0644  0.0423 -0.0897
 5129SOL    HW227021   0.018   1.049   1.756  0.9844 -0.1865  1.7754
 5130SOL     OW27022   4.665   2.149   5.823 -0.0436  0.1586 -0.5495
 5130SOL    HW127023   4.684   2.159   5.730 -1.5344  0.2991 -0.8445
 5130SOL    HW227024   0.011   2.142   5.865  0.0863 -0.6984 -0.9699
 5131SOL     OW27025   0.103   4.087  13.672  0.5694 -0.2635  0.6483
 5131SOL    HW127026   0.161   4.017  13.640 -3.2277 -2.4929 -1.3204
 5131SOL    HW227027   0.090   4.144  13.596 -1.8614  0.2216  1.4238
 5132SOL     OW27028   3.058   0.094   4.282 -0.1650  0.1817  0.4777
 5132SOL    HW127029   3.105   0.114   4.200 -1.5122 -0.3255 -0.4218
 5132SOL    HW227030   3.113   0.138   4.347 -2.4964  0.8773  1.9425
 5133SOL     OW27031   1.518   0.171   2.204  0.1400  0.1230  0.1810
 5133SOL    HW127032   1.567   0.131   2.132 -0.8737  2.0094 -1.5607
 5133SOL    HW227033   1.588   0.183   2.267 -0.4830  1.8183  0.5479
 5134SOL     OW27034   1.020   4.732   5.458  0.3496 -0.6181 -0.7000
 5134SOL    HW127035   1.015   0.028   5.370  1.5223 -1.4294 -1.1063
 5134SOL    HW227036   0.988   0.066   5.510  2.5948  0.4855 -0.8672
 5135SOL     OW27037   2.533   2.440   4.951  0.5941 -0.7469 -0.3853
 5135SOL    HW127038   2.554   2.436   5.044  0.9542  0.0076 -0.4361
 5135SOL    HW227039   2.437   2.437   4.951  0.5671  0.0436  2.3726
 5136SOL     OW27040   0.630   3.424  13.085  0.1358  0.4568  0.0554
 5136SOL    HW127041   0.706   3.373  13.057  1.1768  0.8137  2.2289
 5136SOL    HW227042   0.660   3.510  13.056 -1.1804  0.7326 -0.4922
 5137SOL     OW27043   3.157   2.425   8.994  0.3727  0.1493 -0.5845
 5137SOL    HW127044   3.162   2.377   8.911 -0.5105  0.1930 -0.6620
 5137SOL    HW227045   3.111   2.364   9.051  1.3117  0.8621  0.9173
 5138SOL     OW27046   3.203   2.519   3.675  0.0595 -0.8068  0.5186
 5138SOL    HW127047   3.258   2.534   3.598  0.2288 -0.4510  0.7110
 5138SOL    HW227048   3.124   2.541   3.626  0.2681 -0.5070  0.3228
 5139SOL     OW27049   1.756   0.372   6.962  0.2112  0.5131 -0.2404
 5139SOL    HW127050   1.780   0.456   6.922 -0.1892  1.0193  0.5713
 5139SOL    HW227051   1.829   0.354   7.021  0.8095  0.1305 -1.1047
 5140SOL     OW27052   2.746   1.170   9.565 -0.3157  0.4940 -0.5135
 5140SOL    HW127053   2.829   1.123   9.552  0.5813  1.8837  0.1976
 5140SOL    HW227054   2.770   1.258   9.594 -2.3314  0.9187 -0.1707
 5141SOL     OW27055   2.279   2.181   1.635  0.0910  0.5522 -0.1579
 5141SOL    HW127056   2.196   2.141   1.611 -0.8067  1.5603  1.2603
 5141SOL    HW227057   2.322   2.176   1.549 -3.2287 -0.4999 -1.7555
 5142SOL     OW27058   3.727   3.212   6.538 -0.3143 -0.1827  0.3367
 5142SOL    HW127059   3.818   3.194   6.564  0.4949 -0.2463 -2.4673
 5142SOL    HW227060   3.741   3.238   6.447  0.4155 -1.5125  0.0701
 5143SOL     OW27061   2.571   1.192  14.416 -0.4307  0.7500  0.6331
 5143SOL    HW127062   2.586   1.144  14.497  1.5753 -1.5079 -1.0660
 5143SOL    HW227063   2.656   1.230  14.396 -0.1385 -0.8935 -1.3298
 5144SOL     OW27064   3.946   4.297   1.760 -0.3106  0.0530 -0.8135
 5144SOL    HW127065   3.883   4.228   1.739 -1.2578  0.4935  0.5140
 5144SOL    HW227066   4.034   4.277   1.732 -0.8636 -0.5823 -2.0541
 5145SOL     OW27067   4.684   4.716   3.939 -0.2800 -0.1699 -0.2544
 5145SOL    HW127068   4.653   0.056   3.895  1.0417  0.7498  0.4993
 5145SOL    HW227069   4.599   4.673   3.950 -0.7344  0.6251 -0.6815
 5146SOL     OW27070   1.840   4.469   4.052 -0.0295  0.1111  0.4739
 5146SOL    HW127071   1.835   4.389   4.000 -1.0577  0.4219  0.0926
 5146SOL    HW227072   1.791   4.444   4.130  0.3948  0.3047  0.8045
 5147SOL     OW27073   3.783   1.481   9.099  0.2401 -0.6582  0.7776
 5147SOL    HW127074   3.752   1.391   9.105  1.1803 -0.9092  1.7252
 5147SOL    HW227075   3.825   1.473   9.013  1.9490  0.4989  1.5103
 5148SOL     OW27076   2.318   4.168   7.229 -0.0787 -0.0814 -0.3341
 5148SOL    HW127077   2.246   4.222   7.261  0.0364  0.3971 -0.8770
 5148SOL    HW227078   2.388   4.221   7.266  1.5855 -1.0965 -1.9841
 5149SOL     OW27079   2.942   0.906   2.130  0.4310  0.2398  0.1552
 5149SOL    HW127080   3.026   0.872   2.100  0.1805  1.2003 -1.6045
 5149SOL    HW227081   2.970   0.947   2.212 -0.9620  1.9070 -0.1794
 5150SOL     OW27082   2.345   0.805   0.611 -0.4449 -0.5267  0.2701
 5150SOL    HW127083   2.404   0.852   0.553  0.7978 -1.7693  0.5593
 5150SOL    HW227084   2.341   0.722   0.565 -1.1192 -1.1726  1.4729
 5151SOL     OW27085   0.299   4.709   1.518  0.0732 -0.1422 -0.7654
 5151SOL    HW127086   0.329   0.056   1.546 -0.2132  1.1335 -4.3929
 5151SOL    HW227087   0.341   4.702   1.432  0.7093 -0.6243 -0.4165
 5152SOL     OW27088   0.231   2.817  13.874 -0.3633  0.9970  0.3884
 5152SOL    HW127089   0.183   2.896  13.899 -1.9268  0.6152 -1.4414
 5152SOL    HW227090   0.186   2.743  13.915  1.8802 -0.7166 -0.2219
 5153SOL     OW27091   1.460   0.863   6.745 -0.6919  0.2036 -0.0709
 5153SOL    HW127092   1.420   0.808   6.678 -0.7766 -1.6746  1.5137
 5153SOL    HW227093   1.377   0.881   6.790 -0.7905 -1.3015  0.3606
 5154SOL     OW27094   1.704   4.543   6.324 -0.1881 -0.2263 -0.2999
 5154SOL    HW127095   1.628   4.524   6.379 -0.4317  2.2615  0.2386
 5154SOL    HW227096   1.666   4.565   6.238 -1.1743 -1.7841 -0.2658
 5155SOL     OW27097   2.449   0.846   3.332 -0.5181  0.1226  0.4293
 5155SOL    HW127098   2.370   0.815   3.288 -0.7378  2.8703 -1.1159
 5155SOL    HW227099   2.487   0.763   3.362  0.6494  0.4728 -0.1007
 5156SOL     OW27100   1.311   3.552   8.189 -0.0104 -0.2494 -0.1945
 5156SOL    HW127101   1.275   3.639   8.177 -1.4468 -0.7121  0.7735
 5156SOL    HW227102   1.256   3.501   8.129  0.3964 -2.2801  1.1301
 5157SOL     OW27103   0.463   1.064   2.271 -0.0218  0.2824 -0.5989
 5157SOL    HW127104   0.463   1.044   2.365  0.2169 -0.4326 -0.7539
 5157SOL    HW227105   0.491   0.977   2.245  0.7495  0.0470  0.9837
 5158SOL     OW27106   4.480   1.746   3.631  0.2343 -0.3309  0.2044
 5158SOL    HW127107   4.405   1.686   3.627  1.1358 -1.5214  1.2445
 5158SOL    HW227108   4.450   1.837   3.638 -1.7067 -0.9099 -0.5454
 5159SOL     OW27109   0.021   0.272   4.799 -0.3604  0.2151  0.2299
 5159SOL    HW127110   0.094   0.228   4.755 -1.8667 -0.3160 -1.7245
 5159SOL    HW227111   4.700   0.198   4.798  0.0069 -0.0857  0.0293
 5160SOL     OW27112   2.118   3.274   1.248  0.2014  0.5674  0.4566
 5160SOL    HW127113   2.083   3.261   1.336 -1.1739  2.4773  0.1814
 5160SOL    HW227114   2.162   3.189   1.241  0.4380  0.8224 -1.3392
 5161SOL     OW27115   1.462   0.807   2.580  0.2468 -0.5077  0.0865
 5161SOL    HW127116   1.366   0.804   2.575  0.3256  2.0885 -2.7492
 5161SOL    HW227117   1.473   0.791   2.487  1.4198 -1.0900  0.3284
 5162SOL     OW27118   0.588   4.534   6.685 -0.3423  0.5675  0.7398
 5162SOL    HW127119   0.493   4.542   6.679 -0.5742 -3.7237 -1.1702
 5162SOL    HW227120   0.608   4.574   6.600 -0.0523 -3.9757 -1.3001
 5163SOL     OW27121   4.186   4.518   9.263 -0.2206  0.6850  0.3572
 5163SOL    HW127122   4.112   4.460   9.246  1.3756 -0.5913 -2.3020
 5163SOL    HW227123   4.258   4.480   9.213  0.1799 -3.7532  4.2658
 5164SOL     OW27124   3.582   0.744   7.813 -0.8822 -0.1473  0.3288
 5164SOL    HW127125   3.638   0.807   7.858 -0.5651  0.3670 -0.7636
 5164SOL    HW227126   3.533   0.710   7.887 -0.6536  1.7913  1.3790
 5165SOL     OW27127   1.840   0.637   6.869  0.0452 -0.1277 -0.3611
 5165SOL    HW127128   1.893   0.659   6.945 -0.1509  3.0851 -1.1105
 5165SOL    HW227129   1.867   0.708   6.810 -0.6973 -1.3491 -2.1658
 5166SOL     OW27130   4.070   0.689   6.528  0.0128 -0.3556 -0.1277
 5166SOL    HW127131   4.100   0.780   6.533 -0.0923 -0.2983 -0.5151
 5166SOL    HW227132   4.087   0.673   6.435 -1.5706  0.1977 -0.5107
 5167SOL     OW27133   2.951   2.645   7.620 -0.4997 -0.0843 -0.1807
 5167SOL    HW127134   2.964   2.553   7.600 -2.7184 -0.7181  1.3014
 5167SOL    HW227135   3.043   2.666   7.634 -0.1996 -2.5038  1.3179
 5168SOL     OW27136   1.724   2.229   1.869  0.7097 -0.3519 -0.4085
 5168SOL    HW127137   1.733   2.172   1.946  0.6464 -0.8793 -0.7907
 5168SOL    HW227138   1.651   2.187   1.823 -0.8702  1.7787  0.1353
 5169SOL     OW27139   2.210   3.329  16.912 -0.6134 -0.0229  0.2202
 5169SOL    HW127140   2.217   3.424  16.903  1.4337 -0.3005 -1.0153
 5169SOL    HW227141   2.214   3.297  16.822 -1.4343 -0.4345  0.3279
 5170SOL     OW27142   3.270   0.451   2.376 -0.1065 -0.4014 -0.4199
 5170SOL    HW127143   3.214   0.512   2.327  1.4220  0.7556 -0.7131
 5170SOL    HW227144   3.204   0.398   2.420  0.1441 -1.2281 -1.0261
 5171SOL     OW27145   2.688   3.068   9.248  0.2171 -0.2131 -0.7230
 5171SOL    HW127146   2.712   3.065   9.155 -1.5864 -0.7182 -1.1767
 5171SOL    HW227147   2.752   3.132   9.279  1.4591 -1.8144 -0.0321
 5172SOL     OW27148   3.096   0.744   1.313  0.6033 -0.1128 -0.0455
 5172SOL    HW127149   3.070   0.700   1.232  3.7578  0.7767 -1.5112
 5172SOL    HW227150   3.009   0.775   1.339  1.1654  0.1508  1.5016
 5173SOL     OW27151   0.651   0.118   9.796 -0.3503 -0.1239  0.1036
 5173SOL    HW127152   0.728   0.095   9.848 -0.1471 -2.8863 -1.3971
 5173SOL    HW227153   0.645   0.213   9.798 -0.4076 -0.1291  0.1924
 5174SOL     OW27154   3.088   2.223   6.623 -1.0206  0.1334  0.4088
 5174SOL    HW127155   3.155   2.277   6.581 -1.0323 -0.7871 -0.8152
 5174SOL    HW227156   3.091   2.255   6.713  0.2517  0.7160  0.1559
 5175SOL     OW27157   1.327   2.417   3.657  0.4118 -0.1470  0.4665
 5175SOL    HW127158   1.364   2.504   3.670  2.6410 -0.7183 -2.0722
 5175SOL    HW227159   1.403   2.378   3.614 -1.5237 -1.2776 -1.9561
 5176SOL     OW27160   3.767   2.677   7.518  0.4225 -0.2975  0.1541
 5176SOL    HW127161   3.701   2.744   7.535 -0.8561 -1.2736 -0.9786
 5176SOL    HW227162   3.828   2.693   7.591 -0.0735 -1.9552  0.9479
 5177SOL     OW27163   3.780   1.483   8.822 -0.0242 -0.1460 -0.2379
 5177SOL    HW127164   3.769   1.512   8.731 -1.8916  0.3279  0.1397
 5177SOL    HW227165   3.712   1.415   8.819 -1.0887  0.8706  0.9161
 5178SOL     OW27166   2.343   0.654   2.565  0.0930 -0.1093 -0.4793
 5178SOL    HW127167   2.404   0.673   2.494  0.2324  0.9709 -0.0667
 5178SOL    HW227168   2.380   0.576   2.606  0.5792  0.2313 -0.2756
 5179SOL     OW27169   4.686   3.835   2.998  0.1231 -0.0198  0.3676
 5179SOL    HW127170   4.616   3.787   2.954  0.2345 -3.1837  3.6094
 5179SOL    HW227171   4.638   3.917   3.000  2.4501  1.2950  2.0420
 5180SOL     OW27172   1.278   0.520  16.153 -0.7116  0.2900 -0.0329
 5180SOL    HW127173   1.250   0.543  16.242 -0.4695 -0.5030  0.2448
 5180SOL    HW227174   1.218   0.574  16.101 -2.2884  0.1389  1.6195
 5181SOL     OW27175   0.328   0.270   1.187  0.2367 -0.3720  0.2549
 5181SOL    HW127176   0.374   0.200   1.233  2.3542  0.2408 -0.9133
 5181SOL    HW227177   0.239   0.253   1.219  0.6207  1.3202  2.2422
 5182SOL     OW27178   3.468   2.222   5.150 -0.3248 -0.4177 -0.5039
 5182SOL    HW127179   3.388   2.273   5.135 -0.8432 -1.0127  0.2305
 5182SOL    HW227180   3.522   2.267   5.085 -0.0461 -0.1471 -0.0868
 5183SOL     OW27181   1.280   0.380   3.877  0.0607 -0.0840 -0.5325
 5183SOL    HW127182   1.366   0.394   3.837 -0.1539  2.3188 -0.1768
 5183SOL    HW227183   1.261   0.291   3.849 -1.1860 -0.7790  2.4776
 5184SOL     OW27184   3.788   3.007   7.442 -0.3538  0.2393  0.2471
 5184SOL    HW127185   3.855   3.074   7.427 -1.0877  0.9331  0.0354
 5184SOL    HW227186   3.708   3.054   7.466  0.4172  0.6678  1.9964
 5185SOL     OW27187   0.307   3.842   2.553  0.1789 -0.3577 -0.3951
 5185SOL    HW127188   0.222   3.867   2.590 -0.6252 -1.7735 -1.2792
 5185SOL    HW227189   0.277   3.860   2.464 -0.9926  1.4216  0.3520
 5186SOL     OW27190   2.733   1.597   5.316  0.1016  0.6627 -0.6824
 5186SOL    HW127191   2.654   1.651   5.318 -0.6732 -0.4022 -1.6935
 5186SOL    HW227192   2.795   1.647   5.368  0.6872 -2.2524  1.4475
 5187SOL     OW27193   3.504   2.013   4.911 -0.2090  0.1063 -0.0816
 5187SOL    HW127194   3.563   2.088   4.911 -0.1464  0.0575  0.2098
 5187SOL    HW227195   3.448   2.020   4.989 -0.0406  1.3738 -0.0816
 5188SOL     OW27196   1.269   0.906  10.026 -0.0202  0.3894  0.5909
 5188SOL    HW127197   1.350   0.920  10.075  0.4233 -2.2283  0.5934
 5188SOL    HW227198   1.218   0.984  10.047  1.8222  2.0616 -1.1518
 5189SOL     OW27199   0.959   3.322   7.030  0.5210 -0.1402 -0.0736
 5189SOL    HW127200   0.903   3.313   6.952 -1.5524 -0.5443  1.4772
 5189SOL    HW227201   0.917   3.262   7.090  1.3290 -1.4122 -0.7840
 5190SOL     OW27202   0.836   1.164   2.870 -0.6014  0.1319 -0.1771
 5190SOL    HW127203   0.857   1.073   2.893 -2.1811  0.5210  2.8962
 5190SOL    HW227204   0.909   1.216   2.903 -1.4678  0.0532  1.8671
 5191SOL     OW27205   3.768   4.519   0.225 -0.1156  0.1514 -0.1388
 5191SOL    HW127206   3.762   4.534   0.319  1.1695  1.5591 -0.2838
 5191SOL    HW227207   3.856   4.483   0.212 -0.5045 -1.3461  1.3834
 5192SOL     OW27208   0.987   3.636   7.115  0.5296 -0.0927 -0.3893
 5192SOL    HW127209   1.027   3.550   7.099 -0.7084 -0.5484 -1.0464
 5192SOL    HW227210   0.953   3.621   7.203  1.0550  4.4789  0.5972
 5193SOL     OW27211   3.212   2.351   9.571 -0.4598  0.1188  0.2927
 5193SOL    HW127212   3.211   2.447   9.576 -3.5598  0.1438 -0.9211
 5193SOL    HW227213   3.271   2.340   9.646 -1.8318 -0.9433  1.2107
 5194SOL     OW27214   3.633   1.362   3.422  0.8847  0.1724  0.0681
 5194SOL    HW127215   3.615   1.432   3.360 -0.2981 -0.7209 -0.6120
 5194SOL    HW227216   3.645   1.412   3.503  0.5840  0.1907  0.1018
 5195SOL     OW27217   1.978   2.031   2.236  0.8775  0.2322 -0.3794
 5195SOL    HW127218   1.903   2.063   2.286  1.1657 -1.1055  0.8995
 5195SOL    HW227219   1.964   2.082   2.157  1.7750  1.4358  0.2385
 5196SOL     OW27220   3.823   4.690  17.604  0.5938 -0.3839 -0.0365
 5196SOL    HW127221   3.880   0.009  17.554  0.1441 -1.9660 -2.3715
 5196SOL    HW227222   3.732   4.711  17.581  0.3711 -0.7961  0.4559
 5197SOL     OW27223   2.988   3.299  11.828  0.8274 -0.4957 -0.3685
 5197SOL    HW127224   3.027   3.360  11.765  0.5416  0.6339  0.5507
 5197SOL    HW227225   2.911   3.263  11.782  0.2761  1.2867 -0.8563
 5198SOL     OW27226   1.521   2.824   1.824 -0.0007  0.2092 -0.1439
 5198SOL    HW127227   1.520   2.918   1.805  1.2247  0.5516  1.5530
 5198SOL    HW227228   1.426   2.814   1.837 -0.0278  1.1886  0.4419
 5199SOL     OW27229   2.016   3.200   2.637 -0.2755  0.2329 -0.5831
 5199SOL    HW127230   2.082   3.261   2.602  2.3544 -3.1452 -1.4893
 5199SOL    HW227231   2.019   3.130   2.572  0.2332 -0.2094 -0.0829
 5200SOL     OW27232   1.336   1.022   2.246  0.5476 -0.0202  0.6882
 5200SOL    HW127233   1.331   1.095   2.308  0.2755 -0.0751  0.7311
 5200SOL    HW227234   1.288   0.950   2.288  0.0012 -0.3917 -0.5522
 5201SOL     OW27235   4.560   0.477  15.179  0.4791  0.1287  0.7303
 5201SOL    HW127236   4.508   0.459  15.257 -1.0100 -4.2081 -1.2353
 5201SOL    HW227237   4.641   0.433  15.206  1.0733  1.2570  0.7631
 5202SOL     OW27238   2.876   1.862   4.744 -0.4163  0.4294 -0.1064
 5202SOL    HW127239   2.861   1.945   4.700 -2.4534  1.1240  1.8718
 5202SOL    HW227240   2.858   1.804   4.670  1.6183  1.5345 -1.4418
 5203SOL     OW27241   2.981   4.594   4.948 -0.5435  0.3495 -0.4726
 5203SOL    HW127242   3.046   4.653   4.987  0.1107 -0.4139 -0.4065
 5203SOL    HW227243   2.986   4.515   5.002 -0.3415  0.5630 -0.1825
 5204SOL     OW27244   3.346   4.164   9.920 -0.5269 -0.1409 -0.2710
 5204SOL    HW127245   3.298   4.142  10.000  1.4075  1.1561  1.2090
 5204SOL    HW227246   3.344   4.083   9.868  0.3806 -0.8273  0.7578
 5205SOL     OW27247   2.568   3.062   6.589 -0.2318  0.2167 -0.4395
 5205SOL    HW127248   2.590   3.101   6.674  0.2144 -0.4639 -0.2383
 5205SOL    HW227249   2.642   3.094   6.536  0.8234  1.1623  1.5914
 5206SOL     OW27250   4.571   1.798   8.504 -0.3400  0.4777  0.8313
 5206SOL    HW127251   4.644   1.740   8.522  1.1563  1.1805 -3.0550
 5206SOL    HW227252   4.616   1.881   8.487  0.3466  0.1029  0.8467
 5207SOL     OW27253   1.280   2.165   2.423 -0.1764 -0.5399  0.4816
 5207SOL    HW127254   1.301   2.205   2.339  0.6002  3.1641  2.4394
 5207SOL    HW227255   1.209   2.106   2.395 -0.6514 -0.0829  0.7206
 5208SOL     OW27256   3.516   1.473   4.119 -0.1848  0.0373 -0.3256
 5208SOL    HW127257   3.574   1.402   4.146 -2.6305 -0.0043  4.8709
 5208SOL    HW227258   3.458   1.468   4.196 -0.7383  1.7312 -0.6342
 5209SOL     OW27259   0.036   3.912  11.842 -0.2087  0.1990 -0.0654
 5209SOL    HW127260   4.702   3.852  11.854  0.3394 -0.4254  0.1613
 5209SOL    HW227261   0.044   3.946  11.752 -0.0814  1.1322  0.2948
 5210SOL     OW27262   2.702   1.684   7.711  0.7979  0.5460  0.1356
 5210SOL    HW127263   2.629   1.675   7.650  1.3595  1.8233 -0.7081
 5210SOL    HW227264   2.678   1.612   7.770 -1.2651  0.1768 -1.1777
 5211SOL     OW27265   2.948   4.473   5.304  0.4747  0.8193 -0.0346
 5211SOL    HW127266   2.930   4.415   5.230  2.0118 -1.1550  1.1345
 5211SOL    HW227267   3.042   4.488   5.304  0.8132 -1.3301 -0.4051
 5212SOL     OW27268   2.023   2.826   7.015  0.1405 -0.5425  0.3716
 5212SOL    HW127269   2.040   2.778   7.096 -0.1786 -0.7857  0.2965
 5212SOL    HW227270   2.064   2.768   6.952 -2.0604 -0.8775 -0.7551
 5213SOL     OW27271   0.420   0.045  16.698 -0.2761  0.2433 -0.5707
 5213SOL    HW127272   0.421   0.091  16.782  0.9726  0.9470 -0.9699
 5213SOL    HW227273   0.512   0.019  16.694 -0.5538 -0.8588  0.0232
 5214SOL     OW27274   3.080   3.160  11.520 -0.3041  0.6389 -0.5911
 5214SOL    HW127275   3.132   3.233  11.555 -0.0058  0.0936  0.1103
 5214SOL    HW227276   3.126   3.123  11.446 -0.5638 -2.1963  0.6540
 5215SOL     OW27277   3.819   2.116  10.396 -0.1155 -0.0985 -0.6494
 5215SOL    HW127278   3.842   2.056  10.467 -1.0280  2.3822  1.7419
 5215SOL    HW227279   3.751   2.166  10.442  1.9425 -0.0607  2.3682
 5216SOL     OW27280   0.329   3.179   2.034 -0.2482 -0.4389  0.3425
 5216SOL    HW127281   0.300   3.189   1.943  1.8850 -2.0728 -0.5123
 5216SOL    HW227282   0.412   3.227   2.035 -0.2904 -0.3545 -0.1889
 5217SOL     OW27283   4.710   1.314  14.806  0.1882  0.4797 -0.0765
 5217SOL    HW127284   4.690   1.363  14.885 -1.5076  1.0944 -0.8659
 5217SOL    HW227285   4.622   1.290  14.775  0.0039  2.3296 -1.0351
 5218SOL     OW27286   2.137   0.219  14.562 -0.1140  0.6165  0.0114
 5218SOL    HW127287   2.174   0.271  14.491  0.1647  0.0681 -0.2455
 5218SOL    HW227288   2.180   0.134  14.560  1.1730  1.2671 -0.0525
 5219SOL     OW27289   0.008   3.940   7.605 -0.5649  0.4049 -0.1017
 5219SOL    HW127290   0.053   4.021   7.627  0.3395  0.0365 -0.5858
 5219SOL    HW227291   0.077   3.875   7.621 -0.1322  1.2884  1.6452
 5220SOL     OW27292   2.545   2.792   8.397  0.7941 -0.3999 -0.0064
 5220SOL    HW127293   2.552   2.876   8.442  2.0709 -1.6172  2.0576
 5220SOL    HW227294   2.451   2.774   8.407  0.9706 -1.4427 -0.2831
 5221SOL     OW27295   2.940   3.510   7.405  0.0099 -0.1078  0.2389
 5221SOL    HW127296   2.905   3.507   7.495  0.3836 -2.2665  0.3226
 5221SOL    HW227297   2.859   3.542   7.365  0.0034 -0.3791  0.0339
 5222SOL     OW27298   0.197   2.348   1.272 -0.4622  0.5069 -0.2384
 5222SOL    HW127299   0.265   2.302   1.322  1.7452 -0.0756 -3.7412
 5222SOL    HW227300   0.127   2.364   1.335 -0.9651 -0.5385 -0.5166
 5223SOL     OW27301   1.981   0.688   7.094 -0.4293  0.7104 -0.1583
 5223SOL    HW127302   1.995   0.594   7.104 -1.0923  0.7798  1.3886
 5223SOL    HW227303   1.999   0.712   7.185  1.1657  1.1462 -0.5804
 5224SOL     OW27304   2.110   0.809   7.526 -0.5090 -0.3426 -0.2974
 5224SOL    HW127305   2.066   0.825   7.442  0.7035 -0.6968 -0.9993
 5224SOL    HW227306   2.141   0.896   7.551  1.1364 -0.4660 -1.9453
 5225SOL     OW27307   4.644   4.019   6.850 -0.1189 -0.4129  0.4728
 5225SOL    HW127308   4.658   3.940   6.797  0.2220  1.0262 -1.5925
 5225SOL    HW227309   4.735   4.046   6.858 -0.3881  0.0287  2.0199
 5226SOL     OW27310   2.720   0.620  11.781 -0.2117  0.2113 -0.9935
 5226SOL    HW127311   2.652   0.656  11.838 -0.4711  0.1883 -1.2954
 5226SOL    HW227312   2.787   0.688  11.792  3.2259 -3.2892  0.1130
 5227SOL     OW27313   1.768   3.683   8.181  0.0154 -0.4193  0.0260
 5227SOL    HW127314   1.723   3.603   8.209 -0.3330 -0.3174 -0.2430
 5227SOL    HW227315   1.706   3.755   8.179 -0.2174 -0.6351 -0.6069
 5228SOL     OW27316   0.869   4.143   2.295 -0.2116  0.0304  0.9626
 5228SOL    HW127317   0.916   4.165   2.214 -3.4120 -1.4143 -1.2547
 5228SOL    HW227318   0.878   4.048   2.303 -1.3073  0.0185  2.0436
 5229SOL     OW27319   2.049   4.243   9.866  0.6383  0.1420  0.4595
 5229SOL    HW127320   2.055   4.327   9.910 -0.2509 -0.4243  1.6672
 5229SOL    HW227321   2.029   4.270   9.776 -1.1950 -3.1609 -0.1270
 5230SOL     OW27322   3.768   1.342   5.611 -0.3910  0.1355  0.4970
 5230SOL    HW127323   3.674   1.353   5.622 -0.2989  0.1786  1.2311
 5230SOL    HW227324   3.781   1.247   5.599  0.9724  0.5299 -1.1749
 5231SOL     OW27325   0.713   0.848   5.571 -0.0113 -0.1607 -0.2830
 5231SOL    HW127326   0.669   0.932   5.578  1.2691  0.6334 -1.9813
 5231SOL    HW227327   0.752   0.842   5.658 -0.1618  0.0970 -0.2002
 5232SOL     OW27328   2.384   4.134   6.913  0.0654 -0.3383 -0.6553
 5232SOL    HW127329   2.389   4.095   7.001 -0.2241 -0.7454 -0.8139
 5232SOL    HW227330   2.474   4.165   6.906  0.4159 -1.4583 -1.2175
 5233SOL     OW27331   0.908   0.765   1.645  0.3033  0.5405 -0.0868
 5233SOL    HW127332   0.945   0.843   1.683  0.7562  0.4085 -0.2616
 5233SOL    HW227333   0.848   0.799   1.578 -1.2706 -1.6085  0.2053
 5234SOL     OW27334   3.447   4.348   7.308  0.4722 -0.1696  0.2521
 5234SOL    HW127335   3.384   4.280   7.331  2.3314 -1.1454  2.4158
 5234SOL    HW227336   3.400   4.386   7.233  0.7343 -1.1245 -0.4045
 5235SOL     OW27337   2.115   3.367   2.326 -0.4596  0.4322 -0.3024
 5235SOL    HW127338   2.024   3.388   2.307 -0.8645  0.3053  1.4820
 5235SOL    HW227339   2.144   3.305   2.259  0.5142 -1.2254  1.6355
 5236SOL     OW27340   3.892   3.729   3.657 -0.0599 -0.1516 -0.7314
 5236SOL    HW127341   3.901   3.791   3.729  2.5094  1.1866 -2.1772
 5236SOL    HW227342   3.930   3.779   3.585  0.0991  2.1848  0.9930
 5237SOL     OW27343   4.653   1.496  11.673  0.3292 -0.8388 -0.0690
 5237SOL    HW127344   4.725   1.453  11.718 -0.0796 -0.8584  0.5712
 5237SOL    HW227345   4.596   1.419  11.680 -0.1313 -0.6127 -1.3409
 5238SOL     OW27346   3.155   0.835  11.944 -0.6858 -0.0675 -0.4602
 5238SOL    HW127347   3.172   0.875  11.859  2.0782  0.4447  0.3226
 5238SOL    HW227348   3.179   0.743  11.932 -0.9024 -0.2673  0.6550
 5239SOL     OW27349   1.407   3.815   2.023  0.1417  0.1511 -0.3585
 5239SOL    HW127350   1.404   3.771   1.938 -0.4098 -2.0787  0.8202
 5239SOL    HW227351   1.364   3.899   2.004  1.0966  0.7016 -0.1202
 5240SOL     OW27352   2.613   0.778   3.956 -0.2737 -0.6274  0.5585
 5240SOL    HW127353   2.663   0.697   3.971  0.1674 -0.2922  0.9420
 5240SOL    HW227354   2.649   0.798   3.870 -0.7000  0.2839  0.5969
 5241SOL     OW27355   3.016   3.816   4.367  0.3760 -0.3242 -0.5301
 5241SOL    HW127356   2.924   3.822   4.393  0.1505  0.7006 -1.5155
 5241SOL    HW227357   3.030   3.871   4.289 -1.8574 -1.3307 -1.6385
 5242SOL     OW27358   3.543   2.713  15.985 -0.3096  0.3860 -0.5071
 5242SOL    HW127359   3.555   2.780  15.918  0.8026  1.5492  0.8630
 5242SOL    HW227360   3.537   2.763  16.067 -1.1754  1.1764 -1.0507
 5243SOL     OW27361   2.935   2.828  17.196 -0.1198  0.3116 -0.3243
 5243SOL    HW127362   2.896   2.904  17.152  0.3638  0.6757 -0.1277
 5243SOL    HW227363   2.964   2.774  17.123 -1.3493  1.2778 -1.5437
 5244SOL     OW27364   2.492   2.376   6.843 -0.0476  0.1066 -0.1389
 5244SOL    HW127365   2.513   2.297   6.892 -0.1549 -0.1188 -0.4498
 5244SOL    HW227366   2.436   2.426   6.902  2.1904  0.4046  1.7210
 5245SOL     OW27367   3.279   4.512   4.735  0.0028 -0.0787 -0.5196
 5245SOL    HW127368   3.215   4.463   4.787  0.1908 -0.7092 -0.8702
 5245SOL    HW227369   3.310   4.439   4.680  2.5329  1.3648 -1.0087
 5246SOL     OW27370   3.347   3.948   2.233  0.0431  0.1131  0.2259
 5246SOL    HW127371   3.372   3.912   2.148  1.5653 -0.1148  0.7797
 5246SOL    HW227372   3.356   4.042   2.217 -1.6073  0.6334  2.3170
 5247SOL     OW27373   1.460   4.026  13.545  0.3808  0.6183  0.0894
 5247SOL    HW127374   1.524   3.972  13.592  1.4791  1.0438 -0.9343
 5247SOL    HW227375   1.470   4.109  13.592 -3.1328  1.1883 -0.1594
 5248SOL     OW27376   2.115   3.944   7.693  0.0979  0.1851  0.0152
 5248SOL    HW127377   2.104   3.855   7.661  2.0805 -0.7874  2.0241
 5248SOL    HW227378   2.171   3.977   7.623 -2.5253  1.8898 -1.2907
 5249SOL     OW27379   1.048   2.917  11.160  0.1516 -0.0233  0.1178
 5249SOL    HW127380   1.127   2.964  11.186  0.5338 -0.4885 -0.2171
 5249SOL    HW227381   1.076   2.892  11.072 -2.8449  0.4714 -1.0054
 5250SOL     OW27382   4.010   3.225   6.876  0.1819  0.2455  0.4913
 5250SOL    HW127383   4.010   3.205   6.783 -2.0806  0.1289  0.5108
 5250SOL    HW227384   4.077   3.293   6.883  0.7829 -0.1915 -1.0922
 5251SOL     OW27385   2.745   0.820   6.702 -0.1655 -0.4972 -0.7885
 5251SOL    HW127386   2.768   0.728   6.688  0.6431 -0.3533 -0.4023
 5251SOL    HW227387   2.835   0.854   6.706 -0.3963  0.0441 -0.0340
 5252SOL     OW27388   4.711   2.229   2.307 -0.1321  0.1867  0.6543
 5252SOL    HW127389   4.688   2.165   2.239  1.9550 -0.3173  0.4466
 5252SOL    HW227390   4.625   2.270   2.318 -0.6897 -0.3976 -1.4241
 5253SOL     OW27391   2.867   3.235   8.051 -0.2624  0.4865  0.3973
 5253SOL    HW127392   2.940   3.187   8.013 -1.8501 -0.2567 -1.6696
 5253SOL    HW227393   2.792   3.182   8.024 -1.3067  0.5842  3.0867
 5254SOL     OW27394   0.568   3.460  12.103 -0.7947  0.4167  0.1634
 5254SOL    HW127395   0.554   3.527  12.036  0.2477  1.6269  1.1525
 5254SOL    HW227396   0.647   3.488  12.149 -0.0944  1.1038 -1.4507
 5255SOL     OW27397   1.480   2.403   8.705  0.1889  0.2265  0.6004
 5255SOL    HW127398   1.392   2.374   8.728 -0.6513  0.9650 -1.6482
 5255SOL    HW227399   1.512   2.446   8.784 -0.9131  0.6579  0.8053
 5256SOL     OW27400   0.841   2.785   4.143 -0.0841  0.0694  0.2472
 5256SOL    HW127401   0.887   2.740   4.073 -1.0280 -1.6432  0.7160
 5256SOL    HW227402   0.840   2.872   4.104 -0.8948 -0.1083 -0.1348
 5257SOL     OW27403   1.871   0.486   3.147  0.2018 -0.3056 -0.2319
 5257SOL    HW127404   1.921   0.567   3.141  0.2815 -0.4979 -1.9641
 5257SOL    HW227405   1.788   0.490   3.100 -0.8694 -0.6341  1.6150
 5258SOL     OW27406   0.849   3.818  15.914  0.2799  0.0423 -0.5312
 5258SOL    HW127407   0.937   3.841  15.945 -0.8696  0.0785  2.6460
 5258SOL    HW227408   0.862   3.781  15.827 -0.2022 -1.9036  0.2420
 5259SOL     OW27409   2.915   1.423  12.243 -0.4821  0.0220  0.0289
 5259SOL    HW127410   2.874   1.421  12.157  0.8710  2.4076 -0.6436
 5259SOL    HW227411   2.916   1.516  12.263 -1.4126 -0.4292  2.2112
 5260SOL     OW27412   3.328   0.634   1.093 -0.4249  0.7658 -0.5740
 5260SOL    HW127413   3.391   0.589   1.037  3.1104  1.0260  3.1729
 5260SOL    HW227414   3.245   0.596   1.063 -0.2203 -1.1968  1.3532
 5261SOL     OW27415   2.114   0.061  17.130 -0.2575  0.7513 -0.3861
 5261SOL    HW127416   2.056   0.090  17.201 -0.7618 -1.9982  0.3008
 5261SOL    HW227417   2.071   4.726  17.088  1.6409 -2.2311  2.9966
 5262SOL     OW27418   4.411   1.097   5.431  0.1681  0.2539 -0.3716
 5262SOL    HW127419   4.348   1.033   5.397  0.2931 -0.9318  1.6273
 5262SOL    HW227420   4.348   1.169   5.431 -1.0191 -0.7790 -1.6689
 5263SOL     OW27421   1.040   0.217   0.069 -0.1546 -0.1131 -0.1000
 5263SOL    HW127422   1.062   0.129   0.041  0.1529 -0.3322  0.8175
 5263SOL    HW227423   1.063   0.266  17.746 -2.8455  1.2921 -0.0193
 5264SOL     OW27424   0.401   3.313  12.243 -0.2187  0.6184  0.2801
 5264SOL    HW127425   0.464   3.362  12.191 -1.1943 -0.5347 -1.9746
 5264SOL    HW227426   0.412   3.362  12.325 -1.1455  1.1108  0.1078
 5265SOL     OW27427   2.220   4.018   4.764 -0.3251 -0.2679 -0.0820
 5265SOL    HW127428   2.297   4.044   4.714  0.4166  0.2654  1.3455
 5265SOL    HW227429   2.223   4.094   4.822  2.3559  0.7681 -1.6001
 5266SOL     OW27430   0.580   1.662  12.162 -0.9152 -0.0533 -0.1122
 5266SOL    HW127431   0.632   1.672  12.082  0.9219 -2.5997  0.7525
 5266SOL    HW227432   0.491   1.660  12.128 -0.8374 -0.8650 -0.2848
 5267SOL     OW27433   1.662   4.086   0.634 -0.1646  0.2931 -0.0671
 5267SOL    HW127434   1.625   4.117   0.717 -0.6877  0.1994 -0.2624
 5267SOL    HW227435   1.606   4.138   0.576 -2.3629  0.8078  2.5218
 5268SOL     OW27436   2.605   3.632   1.883  0.5301 -0.2489  0.2007
 5268SOL    HW127437   2.614   3.682   1.802  0.9432  0.1944  0.5202
 5268SOL    HW227438   2.557   3.559   1.845 -0.3823  1.3502 -1.7302
 5269SOL     OW27439   3.035   4.347   8.173  0.2888 -0.3464 -0.4175
 5269SOL    HW127440   3.126   4.331   8.148 -0.1467 -1.9818 -0.9371
 5269SOL    HW227441   2.986   4.339   8.091  0.2573  0.1446 -0.4484
 5270SOL     OW27442   1.046   4.230   6.629 -0.0427  0.3645 -0.6137
 5270SOL    HW127443   0.966   4.184   6.657 -0.1392 -0.3670 -2.0904
 5270SOL    HW227444   1.051   4.215   6.534  2.7046 -1.8892 -0.1071
 5271SOL     OW27445   0.875   3.005  10.085  0.3489 -0.0248 -0.1020
 5271SOL    HW127446   0.886   2.975  10.176 -0.7700 -1.6840 -0.5372
 5271SOL    HW227447   0.784   3.031  10.072 -0.4999 -1.0093  3.6200
 5272SOL     OW27448   0.000   3.997  12.831  0.2318  0.3851  0.1345
 5272SOL    HW127449   0.077   3.986  12.774  0.8703 -0.8965  1.2403
 5272SOL    HW227450   0.026   4.080  12.871 -2.6388  1.6022 -0.5233
 5273SOL     OW27451   4.483   3.675   5.683 -0.3816 -0.1345 -0.2904
 5273SOL    HW127452   4.521   3.759   5.660  1.9339 -0.6866  1.5337
 5273SOL    HW227453   4.391   3.702   5.691 -0.0564  0.9729 -0.2967
 5274SOL     OW27454   4.488   2.812   8.543  0.4711  0.2011 -0.5475
 5274SOL    HW127455   4.453   2.752   8.477 -1.7919  1.4845 -0.5214
 5274SOL    HW227456   4.489   2.889   8.486 -1.2473 -0.2630 -1.1917
 5275SOL     OW27457   1.959   2.480  10.341  0.3774  0.2505  0.2975
 5275SOL    HW127458   1.902   2.440  10.275  0.4499  0.8553 -0.1318
 5275SOL    HW227459   2.048   2.454  10.318 -0.0708 -0.9449 -0.0993
 5276SOL     OW27460   3.268   2.591  17.002 -0.0918 -0.0299 -0.0659
 5276SOL    HW127461   3.345   2.567  17.055 -1.3824 -2.2959  0.7962
 5276SOL    HW227462   3.299   2.569  16.914 -0.3001  0.1673 -0.1867
 5277SOL     OW27463   0.919   3.432   2.495  0.4407 -0.4801 -0.1882
 5277SOL    HW127464   0.835   3.436   2.448  0.9628 -0.8226 -1.1512
 5277SOL    HW227465   0.969   3.501   2.452 -1.5863  0.4582 -1.0510
 5278SOL     OW27466   1.454   0.997   3.819 -0.1694 -0.0732  0.4426
 5278SOL    HW127467   1.518   1.006   3.749 -0.2160 -1.8486  0.1637
 5278SOL    HW227468   1.422   1.087   3.828 -1.5141 -0.2216 -2.8646
 5279SOL     OW27469   3.850   3.272   2.136 -0.1043  0.0845  0.3289
 5279SOL    HW127470   3.854   3.292   2.042  3.0785 -0.7435  0.2895
 5279SOL    HW227471   3.833   3.178   2.139 -2.4446  0.5399  1.1448
 5280SOL     OW27472   0.222   3.806   2.018  0.4157 -0.8602  0.1566
 5280SOL    HW127473   0.188   3.782   1.932 -0.9866  1.5630  0.0444
 5280SOL    HW227474   0.246   3.898   2.012 -3.2678  0.0023 -1.4634
 5281SOL     OW27475   0.788   1.982   6.939 -0.0752  0.3820  0.2639
 5281SOL    HW127476   0.833   1.995   6.855 -0.0858 -0.3176  0.1493
 5281SOL    HW227477   0.821   2.052   6.994  0.2896 -2.0569  3.1139
 5282SOL     OW27478   1.730   0.954   4.865 -0.3679 -0.3415  0.4880
 5282SOL    HW127479   1.700   0.892   4.800  2.9577 -0.1520 -1.2342
 5282SOL    HW227480   1.695   1.036   4.830 -1.0048 -1.2613 -1.0042
 5283SOL     OW27481   4.499   2.821   6.529 -0.6993  0.6670  0.2619
 5283SOL    HW127482   4.525   2.730   6.537 -1.1914  0.6218  1.4702
 5283SOL    HW227483   4.576   2.868   6.498 -0.7414 -0.5308 -1.6225
 5284SOL     OW27484   3.456   0.569   3.701  0.5517  0.0507 -0.2172
 5284SOL    HW127485   3.440   0.525   3.618  2.6561 -2.9390  0.9980
 5284SOL    HW227486   3.469   0.658   3.667 -0.6565  0.3769  0.1375
 5285SOL     OW27487   3.934   0.137   7.533 -0.1492  0.3821 -0.7125
 5285SOL    HW127488   3.965   0.164   7.619  0.6956 -1.4887 -0.4540
 5285SOL    HW227489   3.938   0.222   7.488  1.0505 -1.0296 -3.2355
 5286SOL     OW27490   2.232   4.060   6.711 -0.1332  0.3800  0.2810
 5286SOL    HW127491   2.267   4.127   6.652 -1.0355  1.9390  1.5151
 5286SOL    HW227492   2.285   4.076   6.790  2.5909 -1.1298 -1.2298
 5287SOL     OW27493   1.723   3.556   2.661 -0.3725 -0.3589  0.1593
 5287SOL    HW127494   1.647   3.599   2.700  1.0384 -0.3399  2.8710
 5287SOL    HW227495   1.751   3.629   2.607  1.6905 -1.6513 -0.5324
 5288SOL     OW27496   4.324   1.334  15.056  0.1371 -0.3703  0.5263
 5288SOL    HW127497   4.247   1.389  15.042 -1.0856 -2.0806  0.5002
 5288SOL    HW227498   4.310   1.328  15.151  0.4724 -3.8231  0.3527
 5289SOL     OW27499   3.989   1.489   0.170  0.7595  0.3394  0.4507
 5289SOL    HW127500   3.923   1.456   0.109  0.1056  1.9453  0.2738
 5289SOL    HW227501   3.999   1.570   0.119  0.6457  0.0536 -0.0237
 5290SOL     OW27502   1.385   0.135   4.087  0.1342  0.1019 -0.3746
 5290SOL    HW127503   1.342   0.164   4.168  0.8098 -1.1480  0.4443
 5290SOL    HW227504   1.465   0.187   4.091  1.3582 -1.8244  0.3783
 5291SOL     OW27505   1.898   0.719  17.006 -0.2345  0.3129 -0.4174
 5291SOL    HW127506   1.870   0.794  16.954 -1.3782 -0.6069 -1.1270
 5291SOL    HW227507   1.902   0.661  16.930 -0.5392 -1.3629  0.8656
 5292SOL     OW27508   0.708   2.186   6.493  0.0641  0.1986  0.0887
 5292SOL    HW127509   0.691   2.123   6.563 -0.9769 -0.4639 -0.7670
 5292SOL    HW227510   0.628   2.234   6.471 -0.8102 -0.6510  1.4465
 5293SOL     OW27511   1.919   2.419  16.424 -0.1097  0.1314  0.0498
 5293SOL    HW127512   1.901   2.335  16.466  0.3406 -0.6357 -1.2725
 5293SOL    HW227513   1.898   2.402  16.332 -0.0669  2.6994 -0.4252
 5294SOL     OW27514   2.100   4.575   0.888 -0.3966 -0.1454  0.4154
 5294SOL    HW127515   2.147   4.596   0.969  0.4564 -0.2777 -0.0459
 5294SOL    HW227516   2.178   4.542   0.843 -0.1118 -0.1477  0.9080
 5295SOL     OW27517   4.341   4.173   8.016  0.4915  0.1211 -0.2144
 5295SOL    HW127518   4.340   4.184   7.920  1.6307  3.3575  0.1414
 5295SOL    HW227519   4.268   4.230   8.039 -0.1580 -0.7968  0.0104
 5296SOL     OW27520   3.009   4.049  16.951 -0.3084  0.0752 -0.4709
 5296SOL    HW127521   2.915   4.060  16.963 -0.2069  1.3785 -0.8772
 5296SOL    HW227522   3.013   4.028  16.858 -1.5878  1.8152 -0.9178
 5297SOL     OW27523   2.372   3.084   5.299  0.6053 -0.1408  0.9060
 5297SOL    HW127524   2.456   3.125   5.276  0.1795 -0.2212 -0.7926
 5297SOL    HW227525   2.397   2.993   5.316 -0.7880 -0.8631 -0.9586
 5298SOL     OW27526   0.003   3.796  17.529  0.5862  0.0312  0.6489
 5298SOL    HW127527   4.705   3.754  17.606 -1.7026  0.0018 -0.4761
 5298SOL    HW227528   4.674   3.773  17.467  3.0218  1.5170 -2.6143
 5299SOL     OW27529   0.915   0.449   3.966 -0.6637  0.3847 -0.1504
 5299SOL    HW127530   0.921   0.385   3.895 -0.2802  0.8126 -0.5032
 5299SOL    HW227531   0.862   0.396   4.025 -0.3379 -2.0239 -2.0199
 5300SOL     OW27532   0.107   3.026   8.763 -0.0441 -0.5138  0.5219
 5300SOL    HW127533   0.059   3.104   8.793 -1.4746 -1.0657 -0.3430
 5300SOL    HW227534   0.164   3.018   8.839  0.7837  0.7298  0.0481
 5301SOL     OW27535   2.937   2.029   8.044  0.0692 -0.5527 -0.0400
 5301SOL    HW127536   2.890   1.994   7.968 -1.8074 -1.1937  1.4165
 5301SOL    HW227537   2.895   1.975   8.111  2.5262  0.2164  2.1651
 5302SOL     OW27538   3.156   3.226  12.014 -0.1654  0.4743 -0.4144
 5302SOL    HW127539   3.235   3.260  11.973  1.2740  0.8259  2.6442
 5302SOL    HW227540   3.100   3.250  11.940 -0.9815  1.7340  0.6086
 5303SOL     OW27541   4.321   4.712   4.374  0.0025  0.2639  0.8416
 5303SOL    HW127542   4.244   0.022   4.345 -0.2573  0.4144  1.7851
 5303SOL    HW227543   4.389   0.038   4.383  0.5282 -0.3055  0.9854
 5304SOL     OW27544   2.049   4.451   4.725  0.1523  0.5558 -0.0955
 5304SOL    HW127545   2.056   4.362   4.690 -1.5551  0.4891 -0.2391
 5304SOL    HW227546   2.113   4.497   4.671  2.6907 -2.3351  0.4189
 5305SOL     OW27547   3.403   3.202  10.102 -0.3307 -0.5793  0.2600
 5305SOL    HW127548   3.353   3.241  10.030  0.4572 -1.0906 -0.5636
 5305SOL    HW227549   3.380   3.250  10.181  1.3425 -1.5764  1.3564
 5306SOL     OW27550   2.742   3.076  15.213  0.2038 -0.4745 -0.3608
 5306SOL    HW127551   2.792   3.037  15.141  0.0497 -1.5865  0.1336
 5306SOL    HW227552   2.803   3.148  15.226 -1.6486  1.2624 -1.3965
 5307SOL     OW27553   0.918   2.336   8.813 -0.1277  0.1109  0.3436
 5307SOL    HW127554   0.915   2.319   8.907  0.4861 -2.6732 -0.1425
 5307SOL    HW227555   0.890   2.428   8.811  2.2069  0.8305  1.1680
 5308SOL     OW27556   3.360   4.644   1.586 -0.3208 -0.3103 -0.2455
 5308SOL    HW127557   3.344   4.737   1.603  1.5777  0.0617 -0.4781
 5308SOL    HW227558   3.342   4.604   1.671 -0.7571  1.5435  0.5434
 5309SOL     OW27559   4.142   1.657   3.948 -0.4155 -0.1663  0.0541
 5309SOL    HW127560   4.205   1.681   4.016  0.3465 -0.8392 -0.4008
 5309SOL    HW227561   4.169   1.566   3.964 -2.4072 -0.7364  0.0962
 5310SOL     OW27562   3.936   0.752  14.998  0.5422 -0.0113  0.2252
 5310SOL    HW127563   3.910   0.755  14.906 -0.7025 -3.4707  0.4723
 5310SOL    HW227564   3.861   0.789  15.045  1.6007  0.8271  1.2670
 5311SOL     OW27565   4.648   0.909   7.470 -0.6645  0.6210  0.5546
 5311SOL    HW127566   4.590   0.956   7.409 -1.1653 -0.6138  0.0794
 5311SOL    HW227567   4.720   0.971   7.478 -0.5887  0.6540 -0.3285
 5312SOL     OW27568   1.297   3.548   9.823 -0.0194  0.2364 -0.5512
 5312SOL    HW127569   1.283   3.598   9.903 -4.5790  1.9839 -2.4089
 5312SOL    HW227570   1.220   3.491   9.819 -0.3867  0.6115  1.6778
 5313SOL     OW27571   2.112   3.961   8.226  0.0235 -0.1629  0.4929
 5313SOL    HW127572   2.060   3.889   8.190 -0.5492  0.8074 -0.6456
 5313SOL    HW227573   2.140   4.008   8.146  2.1717 -1.0748  0.7114
 5314SOL     OW27574   3.832   2.298   9.086 -0.3583  0.1761 -0.5653
 5314SOL    HW127575   3.868   2.254   9.164 -1.3372  1.6525  0.7267
 5314SOL    HW227576   3.795   2.377   9.125  1.0338  0.6779 -0.2631
 5315SOL     OW27577   1.204   2.675   6.458 -0.1213  0.0212  0.1767
 5315SOL    HW127578   1.198   2.770   6.474  0.8981  0.1554 -0.2624
 5315SOL    HW227579   1.237   2.684   6.368 -0.2208 -1.7848 -0.0400
 5316SOL     OW27580   1.471   4.358   1.657 -0.5563 -0.0260  0.4630
 5316SOL    HW127581   1.499   4.417   1.587 -0.3335 -0.1681  0.4329
 5316SOL    HW227582   1.427   4.425   1.710 -0.8628  1.1195 -1.2523
 5317SOL     OW27583   2.402   0.949   9.400  0.0198  0.0530  0.0424
 5317SOL    HW127584   2.487   0.952   9.356 -0.7758 -0.2696 -1.4834
 5317SOL    HW227585   2.406   1.032   9.449 -2.1779  0.4818 -0.5126
 5318SOL     OW27586   2.848   1.323   5.384 -0.2071 -0.3128 -0.1653
 5318SOL    HW127587   2.807   1.408   5.370 -2.6747 -1.1664  2.0415
 5318SOL    HW227588   2.773   1.268   5.361 -1.2104  0.4360  1.3910
 5319SOL     OW27589   3.441   4.455   2.447 -0.1818 -0.4201  0.1130
 5319SOL    HW127590   3.468   4.502   2.526 -3.2128 -0.0499  0.9163
 5319SOL    HW227591   3.349   4.479   2.447 -0.2850 -0.8053  1.0475
 5320SOL     OW27592   4.555   0.199   3.765  0.2151  0.7567 -0.4748
 5320SOL    HW127593   4.579   0.242   3.683 -2.2569 -0.5797 -1.9124
 5320SOL    HW227594   4.460   0.195   3.751  0.3766  0.3780 -1.4895
 5321SOL     OW27595   2.451   3.188   8.283  0.0717  0.0954 -0.6326
 5321SOL    HW127596   2.464   3.269   8.233  1.2668  0.8670  0.9257
 5321SOL    HW227597   2.524   3.187   8.344  1.0766 -1.0736 -1.8722
 5322SOL     OW27598   1.453   0.827   5.365 -0.0100  0.3465 -0.2661
 5322SOL    HW127599   1.467   0.826   5.271 -1.0365  0.9190 -0.4130
 5322SOL    HW227600   1.371   0.876   5.365 -0.9613 -1.2375 -0.3668
 5323SOL     OW27601   3.891   1.318  13.305  0.4669 -0.4285  0.0339
 5323SOL    HW127602   3.888   1.370  13.225  1.6955 -0.7878 -0.2385
 5323SOL    HW227603   3.820   1.256  13.287  0.5073 -0.4647 -0.0002
 5324SOL     OW27604   1.966   1.295  10.122 -0.5075  0.1989  0.1290
 5324SOL    HW127605   1.871   1.305  10.113 -0.5366  0.8005  1.0974
 5324SOL    HW227606   1.986   1.387  10.138  0.1834  0.4853 -2.3400
 5325SOL     OW27607   4.165   1.732  14.586 -0.0056 -0.0181 -0.1109
 5325SOL    HW127608   4.099   1.679  14.542  1.0433 -0.8960 -0.6397
 5325SOL    HW227609   4.110   1.807  14.609 -1.0814 -0.2874 -1.8157
 5326SOL     OW27610   2.146   0.622  11.591  0.3614  0.3130 -0.3801
 5326SOL    HW127611   2.131   0.714  11.571  0.3061  0.6558  1.2859
 5326SOL    HW227612   2.208   0.629  11.663  1.0562  0.7726 -1.0276
 5327SOL     OW27613   2.845   0.730   4.721  0.7747  0.2073  0.1651
 5327SOL    HW127614   2.896   0.655   4.754 -2.7944 -2.7033 -0.9626
 5327SOL    HW227615   2.912   0.793   4.694  1.6344 -1.0092 -0.5690
 5328SOL     OW27616   1.329   1.593   6.704 -0.1175  0.3634 -0.1288
 5328SOL    HW127617   1.363   1.529   6.642  2.3445 -0.1126  1.7232
 5328SOL    HW227618   1.289   1.661   6.650  1.7013  0.9445 -0.7327
 5329SOL     OW27619   3.590   3.687  14.616 -0.2182 -0.0203 -0.1458
 5329SOL    HW127620   3.597   3.690  14.712 -3.6216 -0.2142  0.1038
 5329SOL    HW227621   3.495   3.687  14.615 -0.2508 -1.7997  2.2499
 5330SOL     OW27622   1.925   4.188   4.311  0.3821 -0.3674  0.1334
 5330SOL    HW127623   1.846   4.225   4.271 -0.4903 -3.5049 -1.0589
 5330SOL    HW227624   1.926   4.104   4.264  0.2106 -0.9521  1.1709
 5331SOL     OW27625   3.246   0.166   4.066 -0.6196  0.2809 -0.3133
 5331SOL    HW127626   3.314   0.120   4.115  0.3122  1.4817 -0.4643
 5331SOL    HW227627   3.219   0.108   3.994  0.3669 -2.1753  1.2940
 5332SOL     OW27628   2.783   3.680   9.293 -0.1715  0.2670 -0.1785
 5332SOL    HW127629   2.738   3.686   9.377  0.7312 -0.7319  0.3672
 5332SOL    HW227630   2.845   3.753   9.300 -0.1139  0.3592 -1.5489
 5333SOL     OW27631   3.093   4.526   3.254 -0.6676  0.2185 -0.0530
 5333SOL    HW127632   3.122   4.548   3.343  1.0563 -0.5925 -0.4259
 5333SOL    HW227633   3.001   4.511   3.277 -0.6142 -1.3097 -0.8885
 5334SOL     OW27634   1.997   4.226   4.587  0.1190  0.5286  0.2592
 5334SOL    HW127635   1.947   4.221   4.505  0.7223 -2.3710  0.0682
 5334SOL    HW227636   1.973   4.141   4.623  0.8402 -0.3818 -1.4012
 5335SOL     OW27637   2.519   0.521  14.502  0.0091 -0.2725  0.1687
 5335SOL    HW127638   2.608   0.514  14.468 -0.7219  0.3854 -1.8870
 5335SOL    HW227639   2.477   0.474  14.431  0.2702 -0.1243 -0.0852
 5336SOL     OW27640   3.117   2.971  17.343 -0.1496 -0.5655 -1.0432
 5336SOL    HW127641   3.201   2.953  17.302 -0.5953 -4.6367 -0.1474
 5336SOL    HW227642   3.063   2.909  17.295 -2.3166 -0.0578  0.7279
 5337SOL     OW27643   1.753   2.550   6.834 -0.1778  0.2875  0.1456
 5337SOL    HW127644   1.725   2.489   6.766  0.2278  1.3236 -0.9612
 5337SOL    HW227645   1.718   2.634   6.805 -0.8567  0.2995  1.0091
 5338SOL     OW27646   4.150   0.405  12.396 -0.1467 -0.5037 -0.0774
 5338SOL    HW127647   4.218   0.420  12.331  2.4742  2.0972  3.2407
 5338SOL    HW227648   4.066   0.376  12.361 -0.7114  0.7584  0.2433
 5339SOL     OW27649   0.156   3.784   9.817  0.2749 -0.3324 -0.1420
 5339SOL    HW127650   0.233   3.758   9.867  0.7076 -0.7887 -1.0476
 5339SOL    HW227651   0.160   3.747   9.729 -1.6486  0.7156 -0.6604
 5340SOL     OW27652   0.658   3.819  17.077 -0.2273 -0.0489  0.5983
 5340SOL    HW127653   0.573   3.859  17.057 -0.4521 -0.8561 -0.0507
 5340SOL    HW227654   0.650   3.751  17.010  0.0783  1.1432 -0.6490
 5341SOL     OW27655   0.515   0.349   9.102  0.3756 -0.3024 -0.9625
 5341SOL    HW127656   0.475   0.293   9.169  0.7478 -1.4294 -1.6821
 5341SOL    HW227657   0.563   0.281   9.055  0.2962  0.0119 -1.4881
 5342SOL     OW27658   3.146   2.836  16.731  0.6531 -0.7703 -0.0802
 5342SOL    HW127659   3.211   2.767  16.714  1.3678 -0.4860  1.5090
 5342SOL    HW227660   3.070   2.783  16.708 -0.3426  1.0158 -0.8865
 5343SOL     OW27661   4.522   2.764   2.155  0.1479  0.3381 -0.2975
 5343SOL    HW127662   4.510   2.713   2.075  2.7387  1.7444 -1.5868
 5343SOL    HW227663   4.474   2.843   2.130 -0.3163  0.0103 -0.4456
 5344SOL     OW27664   3.438   4.169   3.605 -0.4597  0.9740 -0.4894
 5344SOL    HW127665   3.374   4.103   3.631  0.7658  0.4528  1.1693
 5344SOL    HW227666   3.509   4.107   3.621 -2.2916 -1.3399 -1.4333
 5345SOL     OW27667   2.786   1.486   7.218 -0.8183  0.1969  0.0090
 5345SOL    HW127668   2.807   1.453   7.131  0.8726  1.0964  0.0904
 5345SOL    HW227669   2.724   1.557   7.203 -2.2206 -0.7795  1.1332
 5346SOL     OW27670   0.157   3.230   5.312 -0.1973 -0.4148  0.4166
 5346SOL    HW127671   0.174   3.156   5.253  1.7799  1.3422 -1.1980
 5346SOL    HW227672   0.189   3.195   5.395  1.0913 -1.2847 -0.4588
 5347SOL     OW27673   0.813   4.569   7.984 -0.2537 -0.1469 -0.0740
 5347SOL    HW127674   0.725   4.532   7.977 -0.4578  0.7449 -2.1692
 5347SOL    HW227675   0.791   4.652   7.940 -1.3216  0.9425  2.4971
 5348SOL     OW27676   4.719   1.476   2.676 -0.1852 -0.7051 -0.2798
 5348SOL    HW127677   4.697   1.439   2.591  1.6407 -1.5978 -0.3603
 5348SOL    HW227678   0.032   1.411   2.722 -1.4942 -0.6168  1.3382
 5349SOL     OW27679   3.759   0.038   8.169  0.0996 -0.4328  0.5106
 5349SOL    HW127680   3.831   0.062   8.227  1.5283 -1.4021 -0.8709
 5349SOL    HW227681   3.734   4.699   8.218  0.3187 -0.6682  0.2434
 5350SOL     OW27682   0.646   2.308   4.243  0.6526  0.0456 -0.2704
 5350SOL    HW127683   0.644   2.385   4.187  2.3404 -1.0983 -1.9021
 5350SOL    HW227684   0.620   2.339   4.330 -0.1274  0.1867 -0.5532
 5351SOL     OW27685   2.599   3.749   7.189  0.2570 -0.1634  0.2397
 5351SOL    HW127686   2.665   3.708   7.133  1.2579  1.7914 -0.0092
 5351SOL    HW227687   2.620   3.842   7.198  1.0069 -0.5460  2.3957
 5352SOL     OW27688   2.247   2.730   2.601  0.3958 -0.1095 -0.0654
 5352SOL    HW127689   2.195   2.651   2.587 -0.9192  0.9494 -1.0888
 5352SOL    HW227690   2.194   2.768   2.671  0.4759 -0.6404  0.2924
 5353SOL     OW27691   4.070   4.078   7.331  0.1450 -0.1347 -0.2990
 5353SOL    HW127692   4.060   4.084   7.426 -0.5465  1.8954 -0.5005
 5353SOL    HW227693   4.149   4.132   7.322 -1.1498  1.5438 -1.4280
 5354SOL     OW27694   0.785   4.090   7.321 -0.5816 -0.4459 -0.1603
 5354SOL    HW127695   0.826   4.058   7.402  1.4985 -1.0284 -1.4288
 5354SOL    HW227696   0.693   4.068   7.331 -0.1283 -1.7707  1.2247
 5355SOL     OW27697   4.145   4.221  17.529 -0.1619 -0.6470 -0.6814
 5355SOL    HW127698   4.108   4.173  17.602 -1.7677  1.3628 -0.1737
 5355SOL    HW227699   4.077   4.284  17.505 -0.7796  0.1723  3.1846
 5356SOL     OW27700   2.495   1.420   7.685  0.7511  0.1417 -0.2776
 5356SOL    HW127701   2.402   1.442   7.687 -0.3583 -4.4305 -1.4433
 5356SOL    HW227702   2.512   1.456   7.599  0.2516  0.3193 -0.3027
 5357SOL     OW27703   3.611   2.286  11.032 -0.3732  0.1382 -0.1788
 5357SOL    HW127704   3.654   2.357  10.984  1.1840 -0.1315  0.8170
 5357SOL    HW227705   3.584   2.339  11.108  0.0577 -1.7291  1.2909
 5358SOL     OW27706   3.972   3.042   2.851  0.9337  0.7788 -0.1837
 5358SOL    HW127707   3.953   2.963   2.901 -1.7142  2.9881  2.3280
 5358SOL    HW227708   3.993   3.105   2.920  0.9666 -0.9868  1.4107
 5359SOL     OW27709   3.657   4.109   0.662 -0.4245  0.0076 -0.6082
 5359SOL    HW127710   3.741   4.154   0.654  0.2601 -1.6316 -2.5334
 5359SOL    HW227711   3.601   4.185   0.679 -0.8433 -0.3041 -0.5877
 5360SOL     OW27712   0.990   2.195   0.232  0.3844 -0.0535 -0.4794
 5360SOL    HW127713   0.961   2.244   0.155 -1.4557 -0.2743  0.0755
 5360SOL    HW227714   0.965   2.253   0.304 -3.1837  1.4096 -2.9097
 5361SOL     OW27715   3.679   1.737   5.791 -0.1878  0.2443 -0.0858
 5361SOL    HW127716   3.750   1.792   5.826 -0.2060 -0.2419  0.7132
 5361SOL    HW227717   3.638   1.798   5.731 -0.1270  4.3178  3.9852
 5362SOL     OW27718   4.051   1.471   3.518 -0.3286 -0.2554 -0.1384
 5362SOL    HW127719   4.007   1.491   3.600  0.6031  2.0181 -0.1796
 5362SOL    HW227720   3.974   1.487   3.463 -0.6199  0.0315  0.3565
 5363SOL     OW27721   4.614   1.295   6.156  0.0648 -0.1513  0.2896
 5363SOL    HW127722   4.607   1.292   6.060  2.9998  3.0387 -0.0286
 5363SOL    HW227723   4.607   1.202   6.177 -1.7950  0.1271  0.9147
 5364SOL     OW27724   2.485   3.269   5.645  0.4534 -0.9026  0.3264
 5364SOL    HW127725   2.430   3.245   5.570  0.5293 -0.1444  0.0266
 5364SOL    HW227726   2.554   3.296   5.584  0.4445 -0.5832  0.4578
 5365SOL     OW27727   1.552   0.772   4.365 -0.4761  0.0941 -0.0399
 5365SOL    HW127728   1.462   0.803   4.361 -0.5021  0.6167  4.3571
 5365SOL    HW227729   1.586   0.811   4.446  0.1901 -0.5922  0.0163
 5366SOL     OW27730   3.038   3.951   7.350 -0.2394 -0.3647 -0.2173
 5366SOL    HW127731   3.121   3.983   7.316 -1.2696  2.9267  0.4497
 5366SOL    HW227732   2.999   3.920   7.268 -1.5224 -1.9342  0.9860
 5367SOL     OW27733   3.027   0.304   3.136 -0.1706  0.1660  0.4376
 5367SOL    HW127734   2.971   0.347   3.200  0.2505  0.4512  0.6101
 5367SOL    HW227735   3.017   0.212   3.160  0.8174 -0.0844 -0.1118
 5368SOL     OW27736   2.470   3.562   4.362  0.2865 -0.0138  0.4742
 5368SOL    HW127737   2.502   3.479   4.399  0.9303  0.3302  0.6830
 5368SOL    HW227738   2.395   3.585   4.418  0.2879 -0.3086  0.6015
 5369SOL     OW27739   0.272   0.061  17.583 -0.1325 -0.1436 -0.9167
 5369SOL    HW127740   0.357   0.086  17.548  0.4626  1.3406  1.5756
 5369SOL    HW227741   0.222   0.140  17.560 -2.7330 -1.8337 -1.1115
 5370SOL     OW27742   2.697   0.451   5.892  0.8858  0.0831 -0.4077
 5370SOL    HW127743   2.680   0.531   5.941 -2.4187 -1.8925  1.7565
 5370SOL    HW227744   2.791   0.455   5.876  0.7435  1.0884 -0.9782
 5371SOL     OW27745   2.974   3.654   7.947 -0.1475 -0.1676 -0.4675
 5371SOL    HW127746   2.971   3.610   8.032 -0.5361  0.2319 -0.2722
 5371SOL    HW227747   2.904   3.718   7.959  0.2587  0.0453  0.7548
 5372SOL     OW27748   0.916   4.612   0.241  0.2344  0.0805 -0.6620
 5372SOL    HW127749   0.924   4.545   0.309  1.1327  1.2462  0.3826
 5372SOL    HW227750   0.908   4.692   0.293  2.4383  0.5030 -0.9666
 5373SOL     OW27751   4.095   1.501  12.770  0.1459 -0.3610  0.0774
 5373SOL    HW127752   4.133   1.431  12.717  1.0485  2.0716 -2.4658
 5373SOL    HW227753   4.149   1.501  12.848 -0.2004  0.2168  0.3188
 5374SOL     OW27754   4.630   1.815   2.508  0.5531 -0.7920 -0.6597
 5374SOL    HW127755   4.630   1.895   2.562  2.1404 -0.1692 -1.5674
 5374SOL    HW227756   4.723   1.791   2.499  1.2339  0.9125  1.8415
 5375SOL     OW27757   3.086   3.681   8.600 -0.0246  0.0928 -0.0089
 5375SOL    HW127758   3.076   3.775   8.609 -0.1100  0.0417  0.4182
 5375SOL    HW227759   3.169   3.685   8.553  0.5378  1.6787  1.1307
 5376SOL     OW27760   2.036   3.642   3.245 -0.0408  0.0724 -0.3061
 5376SOL    HW127761   1.943   3.659   3.260 -0.2018 -1.4931  0.4662
 5376SOL    HW227762   2.073   3.719   3.202 -0.7555  0.1804 -0.7220
 5377SOL     OW27763   1.360   4.366   5.038 -0.4543 -0.0151 -0.0599
 5377SOL    HW127764   1.312   4.430   4.986 -1.0322 -0.1092  0.3508
 5377SOL    HW227765   1.307   4.385   5.116 -0.8227 -0.8820 -0.0913
 5378SOL     OW27766   0.368   1.719  10.260  0.0538 -0.2747  0.3023
 5378SOL    HW127767   0.410   1.803  10.243  0.4245 -0.4012  0.5961
 5378SOL    HW227768   0.276   1.744  10.275 -0.3548  0.2270 -3.0516
 5379SOL     OW27769   0.899   2.386  13.689  0.0044 -0.2758 -0.2382
 5379SOL    HW127770   0.882   2.446  13.616 -2.0586 -2.1237 -1.2743
 5379SOL    HW227771   0.971   2.429  13.734  0.7172  0.4112 -2.0202
 5380SOL     OW27772   1.214   3.916   9.770  0.1815 -0.0769 -0.3674
 5380SOL    HW127773   1.160   3.931   9.847  1.8271  1.7196  0.4352
 5380SOL    HW227774   1.303   3.920   9.805  0.8317 -3.0468 -1.6665
 5381SOL     OW27775   1.405   0.925   2.920  0.2769 -0.1721 -0.3962
 5381SOL    HW127776   1.417   1.012   2.957  1.3293 -1.5678  2.5343
 5381SOL    HW227777   1.465   0.876   2.976  2.0220  0.9365 -1.2959
 5382SOL     OW27778   3.738   4.418   3.432 -0.0388  0.0904  0.3076
 5382SOL    HW127779   3.661   4.374   3.397 -0.9309  0.5389  1.7005
 5382SOL    HW227780   3.717   4.506   3.465  1.3334  0.6323 -0.2467
 5383SOL     OW27781   2.099   0.216  12.159 -0.0207  0.1236  0.1810
 5383SOL    HW127782   2.018   0.266  12.143 -0.3505 -0.4390  0.0940
 5383SOL    HW227783   2.068   0.126  12.167 -0.6464  0.4808  1.8969
 5384SOL     OW27784   1.624   3.862   9.472  0.1574  0.1042  0.1372
 5384SOL    HW127785   1.594   3.797   9.536 -0.7972  1.1074  0.7274
 5384SOL    HW227786   1.582   3.832   9.392  2.9367 -0.0504 -1.2241
 5385SOL     OW27787   2.193   2.023   8.981  0.0354  0.1854  0.2296
 5385SOL    HW127788   2.288   2.016   8.990  0.0053  0.2912  0.6660
 5385SOL    HW227789   2.188   2.025   8.886 -0.9479 -0.8314  0.2548
 5386SOL     OW27790   3.823   4.105   8.024 -0.2817 -0.3393  0.1039
 5386SOL    HW127791   3.852   4.170   8.088 -0.3708  0.3142 -0.5276
 5386SOL    HW227792   3.751   4.069   8.077  1.2975  0.5717  2.8596
 5387SOL     OW27793   4.653   4.530   3.333 -0.3449  0.0544 -0.0666
 5387SOL    HW127794   4.647   4.460   3.397 -2.4094  0.5709  0.3010
 5387SOL    HW227795   4.588   4.487   3.277 -1.1164 -0.0470  0.9151
 5388SOL     OW27796   3.252   0.193   5.842  0.2749  0.4633 -0.0974
 5388SOL    HW127797   3.178   0.212   5.901 -1.2366 -0.5961 -1.6525
 5388SOL    HW227798   3.240   0.272   5.789 -1.7506  1.5542  1.9673
 5389SOL     OW27799   3.687   0.610  13.183  0.4638  0.3674  0.4474
 5389SOL    HW127800   3.608   0.566  13.152  0.9615  0.0040 -0.2952
 5389SOL    HW227801   3.744   0.533  13.182 -0.5577 -0.3933  0.6410
 5390SOL     OW27802   0.215   1.461   6.896 -0.2135 -0.2091  0.0656
 5390SOL    HW127803   0.302   1.495   6.918  0.2969 -1.0913 -0.6240
 5390SOL    HW227804   0.220   1.368   6.917  1.0402 -0.7280 -2.4388
 5391SOL     OW27805   0.871   4.083   7.928 -0.2902  0.5493  0.1453
 5391SOL    HW127806   0.966   4.076   7.940 -0.2245  0.0600 -0.6450
 5391SOL    HW227807   0.844   4.169   7.960 -1.8958  0.1597 -0.1437
 5392SOL     OW27808   2.250   0.103  16.237  0.2388 -1.4995 -0.5456
 5392SOL    HW127809   2.171   0.053  16.215  0.1969 -1.0921 -1.3368
 5392SOL    HW227810   2.322   0.056  16.195  0.2828 -1.5555 -0.4057
 5393SOL     OW27811   0.833   2.269   8.354 -0.0087  0.8055 -0.2156
 5393SOL    HW127812   0.807   2.292   8.442 -1.2835  1.3537 -0.7425
 5393SOL    HW227813   0.746   2.246   8.322  0.3979 -1.4694  0.3282
 5394SOL     OW27814   0.001   1.782   7.238 -0.2230 -0.0598  0.6735
 5394SOL    HW127815   0.023   1.779   7.331 -0.9671 -0.7981  0.8278
 5394SOL    HW227816   0.028   1.870   7.213  0.9072 -1.1439 -2.0105
 5395SOL     OW27817   4.523   1.810   5.113 -0.6924  0.6478 -0.5659
 5395SOL    HW127818   4.485   1.896   5.093 -2.1347 -0.1643 -1.3666
 5395SOL    HW227819   4.542   1.781   5.023  0.6733 -0.2840  0.0364
 5396SOL     OW27820   3.473   3.003  11.424 -0.4155 -0.3186 -0.3686
 5396SOL    HW127821   3.476   2.926  11.481 -0.1513 -1.1727 -1.5513
 5396SOL    HW227822   3.382   2.980  11.405  0.2497 -2.6512 -0.7498
 5397SOL     OW27823   3.956   4.486   2.094  0.6121 -0.1414 -0.5216
 5397SOL    HW127824   3.934   4.540   2.170 -1.0492 -0.6176 -0.6766
 5397SOL    HW227825   3.890   4.516   2.031  0.9174  1.3361 -0.1419
 5398SOL     OW27826   1.527   0.730   1.376 -0.4959 -0.5039  0.1597
 5398SOL    HW127827   1.471   0.703   1.449  0.8506  1.6569  1.9822
 5398SOL    HW227828   1.577   0.799   1.419 -2.0116  0.2468  0.7280
 5399SOL     OW27829   1.208   0.584  16.406 -0.0549 -0.8853  0.0772
 5399SOL    HW127830   1.207   0.625  16.492 -1.3579 -0.3790 -0.1843
 5399SOL    HW227831   1.119   0.552  16.420 -0.3111 -0.1321  0.1332
 5400SOL     OW27832   1.335   1.915   6.479 -0.2688  0.4144  0.0307
 5400SOL    HW127833   1.331   2.004   6.516 -1.4175 -0.4086  1.8612
 5400SOL    HW227834   1.259   1.881   6.526 -1.6065  0.9417 -1.7413
 5401SOL     OW27835   1.516   2.556   3.987  0.2456 -0.1125  0.5557
 5401SOL    HW127836   1.500   2.462   3.991  0.2728 -0.1660 -0.4831
 5401SOL    HW227837   1.438   2.588   3.941  0.7901  1.2242  0.5651
 5402SOL     OW27838   0.825   0.871   5.297  0.0015 -0.3148  0.3460
 5402SOL    HW127839   0.787   0.956   5.279  1.9124  0.6528  0.8584
 5402SOL    HW227840   0.759   0.824   5.348 -0.4651  0.7465  0.7179
 5403SOL     OW27841   1.922   1.625   4.643 -0.8002 -0.4445 -0.2881
 5403SOL    HW127842   1.888   1.568   4.713  0.8444 -0.5983  0.3781
 5403SOL    HW227843   1.940   1.553   4.583  1.7210 -0.3855  0.4029
 5404SOL     OW27844   3.642   0.690   0.149 -0.4388  0.5496  0.1800
 5404SOL    HW127845   3.620   0.597   0.141 -1.0015  0.7166 -0.2308
 5404SOL    HW227846   3.670   0.711   0.060 -2.3115  0.4470 -0.4406
 5405SOL     OW27847   2.531   1.910   6.739  0.4540 -0.1490  0.1350
 5405SOL    HW127848   2.553   1.824   6.776  1.0920 -0.8967 -1.9557
 5405SOL    HW227849   2.582   1.914   6.658  0.0397  1.4343 -0.0332
 5406SOL     OW27850   2.114   2.428   6.334 -0.0753 -0.3227  0.2772
 5406SOL    HW127851   2.112   2.502   6.396 -1.0845 -0.8674  0.8948
 5406SOL    HW227852   2.043   2.373   6.369 -0.0853 -1.0044 -0.8217
 5407SOL     OW27853   3.185   3.463  11.152  0.1024  0.0872 -0.3504
 5407SOL    HW127854   3.164   3.370  11.143  0.5124  0.0911 -1.3142
 5407SOL    HW227855   3.248   3.472  11.081  0.7832 -0.7151  0.1583
 5408SOL     OW27856   1.296   3.851   4.637 -0.4809 -0.2567 -0.6261
 5408SOL    HW127857   1.332   3.770   4.672 -1.9335 -1.9784 -3.0759
 5408SOL    HW227858   1.332   3.911   4.702  1.6558 -2.6630  0.4454
 5409SOL     OW27859   0.610   3.805  10.038  0.5267  0.6239  0.2894
 5409SOL    HW127860   0.680   3.747  10.007 -0.1459  0.2541 -0.5312
 5409SOL    HW227861   0.673   3.863  10.081 -0.0673  2.1785 -0.9306
 5410SOL     OW27862   3.459   0.327   1.935  0.2830  0.3528 -0.3361
 5410SOL    HW127863   3.533   0.310   1.878  2.4132 -0.2079  2.5813
 5410SOL    HW227864   3.505   0.319   2.019  0.6811  0.5427 -0.5403
 5411SOL     OW27865   3.115   0.880  10.599  0.4039  0.6179  0.1440
 5411SOL    HW127866   3.204   0.873  10.565  0.4650 -1.5659  0.7367
 5411SOL    HW227867   3.117   0.948  10.666 -1.4364 -0.3575  1.1869
 5412SOL     OW27868   0.928   2.589  10.053 -0.4719  0.4927  0.0782
 5412SOL    HW127869   0.849   2.550  10.090 -0.8579  0.4694 -0.7636
 5412SOL    HW227870   0.986   2.514  10.040  2.5254  3.0473 -1.4396
 5413SOL     OW27871   3.761   2.740  13.891 -1.0864 -0.5752  0.0855
 5413SOL    HW127872   3.699   2.758  13.962 -1.2113  0.9790 -0.4226
 5413SOL    HW227873   3.812   2.821  13.885 -0.8843 -0.4942  2.7123
 5414SOL     OW27874   3.481   4.154   7.590  0.4471  0.0323  0.7752
 5414SOL    HW127875   3.574   4.169   7.577  0.4087  0.3827  0.8985
 5414SOL    HW227876   3.482   4.079   7.530 -0.4387  1.2108 -0.7395
 5415SOL     OW27877   3.796   3.479   3.061  0.3870  0.4088  0.1614
 5415SOL    HW127878   3.868   3.522   3.107 -0.4045  0.0036  1.8126
 5415SOL    HW227879   3.750   3.555   3.026  0.1541 -0.2384 -0.9405
 5416SOL     OW27880   2.562   4.260   8.535  0.1772 -0.1036  0.2942
 5416SOL    HW127881   2.489   4.242   8.594 -0.0432 -0.6258 -0.1489
 5416SOL    HW227882   2.618   4.184   8.548  2.6177  1.9136  1.5302
 5417SOL     OW27883   1.016   1.336   2.935 -0.0714 -0.2485  0.0773
 5417SOL    HW127884   1.021   1.377   3.022 -0.7219 -1.4437  0.6825
 5417SOL    HW227885   1.000   1.411   2.878  0.6131  0.6616  1.0773
 5418SOL     OW27886   3.060   1.653   8.908 -0.2512  0.3199  0.4007
 5418SOL    HW127887   2.996   1.721   8.886 -0.4527  0.3876  1.2216
 5418SOL    HW227888   3.095   1.686   8.990  1.7299  0.5794 -0.5456
 5419SOL     OW27889   1.347   4.219   4.209  0.1744  0.1966  0.3989
 5419SOL    HW127890   1.257   4.203   4.180  0.6533  0.3948 -1.1692
 5419SOL    HW227891   1.357   4.136   4.255  2.2713  1.2564  1.8553
 5420SOL     OW27892   0.299   0.997   4.063  0.1329  0.0646 -0.0238
 5420SOL    HW127893   0.349   1.078   4.050 -2.5272  1.4838 -1.4691
 5420SOL    HW227894   0.366   0.959   4.120 -0.3241 -1.2640 -0.3806
 5421SOL     OW27895   1.300   3.319  10.162 -0.6051  0.4180 -0.1909
 5421SOL    HW127896   1.381   3.319  10.213  0.2555  0.9795 -1.5442
 5421SOL    HW227897   1.264   3.239  10.201 -1.4814 -0.8286 -3.5287
 5422SOL     OW27898   1.824   3.299   3.984  0.3414 -0.0541  0.1561
 5422SOL    HW127899   1.755   3.360   4.012 -0.2562  0.0021 -1.4575
 5422SOL    HW227900   1.874   3.293   4.066  0.0748  3.8722  0.6393
 5423SOL     OW27901   3.539   3.198  16.821  0.0912 -0.0735  0.0514
 5423SOL    HW127902   3.535   3.221  16.728  2.6146  0.3539  0.0247
 5423SOL    HW227903   3.496   3.278  16.852 -0.9954  0.3253 -2.4928
 5424SOL     OW27904   2.555   3.321  10.490  0.3264  0.1554  0.8820
 5424SOL    HW127905   2.570   3.415  10.494 -0.6541  0.4409 -2.4356
 5424SOL    HW227906   2.547   3.313  10.395  2.7394  1.0389  0.6128
 5425SOL     OW27907   1.497   4.083   8.949 -0.1783  0.1529  0.0533
 5425SOL    HW127908   1.414   4.114   8.987  0.4970  2.1135 -0.0519
 5425SOL    HW227909   1.514   4.012   9.010  1.8232 -0.3417 -1.0856
 5426SOL     OW27910   3.078   3.947   6.785  0.3233  0.3760 -0.3551
 5426SOL    HW127911   3.128   4.015   6.739  1.9446  0.1885  1.1535
 5426SOL    HW227912   2.994   3.993   6.791 -0.3338 -0.6962 -1.4529
 5427SOL     OW27913   0.257   4.505   4.093 -1.0908 -0.1932 -0.6279
 5427SOL    HW127914   0.187   4.465   4.041 -1.6649 -0.8776  0.6603
 5427SOL    HW227915   0.234   4.596   4.074  0.2666 -0.3539 -3.0520
 5428SOL     OW27916   1.999   0.557  13.128 -0.0732  0.3479  0.5680
 5428SOL    HW127917   2.094   0.563  13.129  0.0046 -0.0407 -2.8963
 5428SOL    HW227918   1.980   0.534  13.219  0.9915 -1.1282  0.4126
 5429SOL     OW27919   1.911   1.085   3.519 -0.2056  0.5659  0.3148
 5429SOL    HW127920   1.953   1.126   3.444  0.8879 -2.5149 -0.7617
 5429SOL    HW227921   1.987   1.067   3.575  1.7062  0.9294 -2.1785
 5430SOL     OW27922   1.260   1.571  16.784  0.3284 -0.0843 -0.3001
 5430SOL    HW127923   1.185   1.625  16.808  2.1604  2.2914  0.0768
 5430SOL    HW227924   1.273   1.596  16.693  0.4300 -2.6941 -1.0181
 5431SOL     OW27925   3.958   1.782   3.576  0.0853  0.6026  0.6617
 5431SOL    HW127926   3.972   1.689   3.595 -1.2886  0.4265  0.8407
 5431SOL    HW227927   4.017   1.793   3.502  0.7119  0.8804  1.2137
 5432SOL     OW27928   0.044   1.945   3.943  0.0682  0.4463 -0.0349
 5432SOL    HW127929   4.717   1.880   3.921 -1.7300  2.6847 -1.3638
 5432SOL    HW227930   4.724   2.015   3.969  1.9763  2.5536 -1.3128
 5433SOL     OW27931   1.237   2.865   1.841 -0.6357  0.3230  0.0546
 5433SOL    HW127932   1.196   2.950   1.852 -0.3780  0.2627  1.4987
 5433SOL    HW227933   1.178   2.807   1.890 -0.3441  0.2820  0.3547
 5434SOL     OW27934   3.296   4.016   7.297  0.0403  0.1567  0.0603
 5434SOL    HW127935   3.300   3.930   7.254  3.9301 -0.2343  1.1920
 5434SOL    HW227936   3.371   4.011   7.356 -0.8036 -0.1330  1.0898
 5435SOL     OW27937   1.528   0.254   3.492 -0.6712  0.1846  0.1817
 5435SOL    HW127938   1.452   0.234   3.438 -0.4833  2.4343 -0.9121
 5435SOL    HW227939   1.598   0.279   3.431  1.0657 -2.1028  1.2049
 5436SOL     OW27940   0.379   3.262   1.193 -0.9977 -0.1053  0.2554
 5436SOL    HW127941   0.288   3.235   1.201  0.0853 -3.5818  0.6422
 5436SOL    HW227942   0.377   3.353   1.223  1.1061 -0.4950  1.5624
 5437SOL     OW27943   2.362   2.698   5.531 -0.2155 -0.3436  0.4717
 5437SOL    HW127944   2.356   2.763   5.600 -0.9261 -0.9786  1.0133
 5437SOL    HW227945   2.397   2.749   5.458  1.2552 -0.1953  1.2891
 5438SOL     OW27946   4.231   4.626   2.645  0.0478  0.5211  0.5003
 5438SOL    HW127947   4.179   4.648   2.567 -2.3267 -0.9707  1.6560
 5438SOL    HW227948   4.288   4.702   2.651  2.0455 -1.0335  1.1622
 5439SOL     OW27949   1.648   3.220   8.847  0.0895  0.0674 -0.1398
 5439SOL    HW127950   1.715   3.165   8.807 -1.0347 -0.8667 -0.7340
 5439SOL    HW227951   1.640   3.285   8.777 -0.0875  0.7476  0.5168
 5440SOL     OW27952   0.325   2.048  14.965 -0.7999 -0.1423 -0.2176
 5440SOL    HW127953   0.284   2.110  14.904 -1.4581 -0.5721 -0.2168
 5440SOL    HW227954   0.263   1.974  14.966  2.5977 -2.9668  1.4871
 5441SOL     OW27955   4.021   1.846   8.915  0.1702 -0.4856 -0.1620
 5441SOL    HW127956   3.952   1.910   8.896 -0.6695 -1.5251 -0.6293
 5441SOL    HW227957   4.095   1.897   8.882  0.0186 -1.1242 -1.4896
 5442SOL     OW27958   3.435   2.411   9.135  0.0712  0.1006 -0.5803
 5442SOL    HW127959   3.343   2.438   9.125  0.0364 -0.2162 -1.1010
 5442SOL    HW227960   3.428   2.326   9.092 -0.9709 -0.7860  1.3364
 5443SOL     OW27961   1.809   4.358   9.657 -0.3127  0.1215 -0.8306
 5443SOL    HW127962   1.807   4.279   9.602  1.5313  1.1833 -2.4348
 5443SOL    HW227963   1.725   4.349   9.702 -0.6930  3.6621 -0.7942
 5444SOL     OW27964   4.116   4.261   4.189  0.0485  0.7514 -0.4859
 5444SOL    HW127965   4.167   4.183   4.211  0.1337 -0.0958 -3.6019
 5444SOL    HW227966   4.064   4.270   4.268 -0.2939  0.2566 -0.6512
 5445SOL     OW27967   0.612   0.413   5.718 -0.0909 -0.1005 -0.4045
 5445SOL    HW127968   0.554   0.364   5.660 -0.6246 -1.4598  1.2804
 5445SOL    HW227969   0.599   0.355   5.793 -0.5140  0.1355 -0.2952
 5446SOL     OW27970   2.230   0.360   3.896 -0.3986  0.1785  0.1030
 5446SOL    HW127971   2.182   0.412   3.832 -0.3938 -0.4040 -0.3785
 5446SOL    HW227972   2.280   0.423   3.947 -0.5566  0.8685 -0.6084
 5447SOL     OW27973   3.856   1.107  16.359  0.0354  0.3204 -0.1428
 5447SOL    HW127974   3.929   1.168  16.353 -3.6847  4.6681 -1.2238
 5447SOL    HW227975   3.880   1.055  16.435 -0.1829  0.0964 -0.2275
 5448SOL     OW27976   3.505   3.588  10.081 -0.4349 -0.2914 -0.3897
 5448SOL    HW127977   3.570   3.639  10.034  1.0639  0.5264  2.5553
 5448SOL    HW227978   3.561   3.562  10.155 -0.2373 -0.9198 -0.7611
 5449SOL     OW27979   1.044   1.808   6.912  0.4632  0.4464 -0.3844
 5449SOL    HW127980   0.974   1.870   6.931 -1.1740 -1.3981 -0.4416
 5449SOL    HW227981   1.059   1.767   6.997 -1.9744 -0.1710 -0.2624
 5450SOL     OW27982   4.564   0.486  14.255  0.2820 -0.1485  0.4887
 5450SOL    HW127983   4.652   0.483  14.218 -0.1813 -1.9194 -0.4241
 5450SOL    HW227984   4.586   0.432  14.331 -0.5025 -0.2097  0.6804
 5451SOL     OW27985   2.139   4.502   6.224 -0.0777 -0.0882  0.1054
 5451SOL    HW127986   2.106   4.557   6.295  2.3462 -0.4597  1.5069
 5451SOL    HW227987   2.136   4.417   6.266 -1.2852  1.2451  2.7207
 5452SOL     OW27988   4.427   2.979   2.965  0.1148 -0.4429 -0.4694
 5452SOL    HW127989   4.474   3.061   2.950 -0.5238  0.0748  0.3778
 5452SOL    HW227990   4.455   2.960   3.054  0.7084  0.0378 -0.5593
 5453SOL     OW27991   2.131   2.655  12.588  0.2764  0.0356 -0.2320
 5453SOL    HW127992   2.068   2.727  12.597 -0.7381 -1.0746  1.4412
 5453SOL    HW227993   2.081   2.595  12.532 -0.8035 -0.0911  0.8647
 5454SOL     OW27994   3.535   1.646   0.628  0.0700  0.4564  0.1605
 5454SOL    HW127995   3.528   1.551   0.639 -0.6169  0.5885  0.8325
 5454SOL    HW227996   3.598   1.668   0.697 -1.3236  1.4947  1.0830
 5455SOL     OW27997   1.819   4.675   3.678 -0.0617  0.6099 -0.9467
 5455SOL    HW127998   1.736   4.664   3.630 -0.2863  2.2424 -0.9493
 5455SOL    HW227999   1.881   4.669   3.605  1.2795 -0.8681  0.3212
 5456SOL     OW28000   2.477   1.497   6.065 -0.2733  0.8892  0.6939
 5456SOL    HW128001   2.473   1.545   5.983  3.6071 -0.8787 -0.5527
 5456SOL    HW228002   2.449   1.410   6.037 -0.1892  2.0915 -3.0449
 5457SOL     OW28003   4.285   3.570   1.294 -0.0223  0.2544  0.0953
 5457SOL    HW128004   4.205   3.584   1.244  0.7395  2.9437 -0.3278
 5457SOL    HW228005   4.284   3.475   1.278  0.1577  0.1161  0.9053
 5458SOL     OW28006   3.511   0.285   5.202  0.0937 -0.5170 -0.3817
 5458SOL    HW128007   3.594   0.242   5.183  0.9093  0.6372  0.5558
 5458SOL    HW228008   3.465   0.277   5.118  1.1764 -0.7127 -0.9510
 5459SOL     OW28009   0.061   1.118   3.683 -0.2949 -0.1972 -0.3338
 5459SOL    HW128010   0.148   1.114   3.643 -0.4751  0.1572 -0.7518
 5459SOL    HW228011   0.064   1.036   3.733 -3.0628 -0.2659 -0.3102
 5460SOL     OW28012   0.477   3.454   8.395 -0.1771  0.5272  0.1857
 5460SOL    HW128013   0.504   3.486   8.481  1.6762 -1.3563  0.2981
 5460SOL    HW228014   0.477   3.537   8.347  0.9162  0.6457  0.3838
 5461SOL     OW28015   2.205   3.130   3.630 -0.5169 -0.3613 -0.4928
 5461SOL    HW128016   2.292   3.148   3.595 -1.2899 -0.1427 -2.3103
 5461SOL    HW228017   2.169   3.219   3.634 -0.9619 -0.5044 -1.4068
 5462SOL     OW28018   1.476   3.032  10.773 -0.0381 -0.7491 -0.5661
 5462SOL    HW128019   1.556   3.076  10.802 -0.5194 -0.3578  0.1780
 5462SOL    HW228020   1.416   3.076  10.834 -1.6943 -1.4904 -1.6583
 5463SOL     OW28021   2.784   4.186   5.989  0.2189  0.1536  0.1927
 5463SOL    HW128022   2.825   4.110   5.947  1.1891  0.8952 -0.1907
 5463SOL    HW228023   2.714   4.194   5.924  1.7168  0.4696 -1.3951
 5464SOL     OW28024   1.288   2.940  10.594  0.4742 -0.5727 -0.1987
 5464SOL    HW128025   1.275   2.945  10.688  0.8521 -0.1693 -0.1694
 5464SOL    HW228026   1.374   2.980  10.582  0.3370 -0.2273 -0.0059
 5465SOL     OW28027   0.025   0.762  17.236  0.6453  0.1139  0.4393
 5465SOL    HW128028   0.041   0.828  17.303 -0.7258  1.2782 -0.3909
 5465SOL    HW228029   0.032   0.826  17.166  1.6174 -0.8262 -0.3268
 5466SOL     OW28030   0.189   0.151   5.067  0.1565  0.3802 -0.1276
 5466SOL    HW128031   0.243   0.104   5.003  0.9968  1.3748 -0.1408
 5466SOL    HW228032   0.160   0.220   5.007  0.1198 -0.3279 -0.9203
 5467SOL     OW28033   0.070   3.151   1.479  0.1205  0.1246 -0.7631
 5467SOL    HW128034   0.021   3.225   1.515 -0.2733  0.3057 -1.6692
 5467SOL    HW228035   0.016   3.080   1.514  0.1245  0.1858 -0.6335
 5468SOL     OW28036   2.600   3.637   2.913  0.5077 -0.4602 -0.1117
 5468SOL    HW128037   2.591   3.676   2.826  1.3985 -0.9746 -0.4412
 5468SOL    HW228038   2.544   3.560   2.901  0.5040 -0.4004 -0.4676
 5469SOL     OW28039   4.047   1.938   6.189  0.4765 -0.5581 -0.0462
 5469SOL    HW128040   4.073   2.024   6.221  0.4564  0.2187 -2.1268
 5469SOL    HW228041   3.952   1.940   6.178  0.6585  0.8962 -1.3185
 5470SOL     OW28042   0.556   3.985  15.726  0.5489  0.4935  0.0624
 5470SOL    HW128043   0.531   4.018  15.640  1.5861  3.1577  0.7770
 5470SOL    HW228044   0.613   3.913  15.699 -0.7882 -0.6656  0.3634
 5471SOL     OW28045   4.267   3.548  13.960  0.3295 -0.4002 -0.2067
 5471SOL    HW128046   4.257   3.464  13.916 -1.0120  0.1294 -0.8974
 5471SOL    HW228047   4.219   3.534  14.042  1.1758  3.1679  0.8991
 5472SOL     OW28048   2.448   3.244   3.996 -0.2190  0.2027  0.1397
 5472SOL    HW128049   2.516   3.219   4.059 -0.6382 -3.7113 -0.9636
 5472SOL    HW228050   2.370   3.222   4.047 -1.4003  1.1699 -1.2688
 5473SOL     OW28051   0.669   2.364  14.819 -0.4739 -0.0977 -0.5373
 5473SOL    HW128052   0.583   2.389  14.853  1.2125  1.0662  2.9017
 5473SOL    HW228053   0.720   2.339  14.896  0.6508  0.6807 -1.0148
 5474SOL     OW28054   3.900   3.871  12.163 -0.1125  0.5014 -0.0644
 5474SOL    HW128055   3.905   3.862  12.259  3.1928  0.2678 -0.2895
 5474SOL    HW228056   3.922   3.783  12.134 -0.1435  0.8144 -1.0454
 5475SOL     OW28057   1.205   3.772  15.477 -0.4771  0.1571  0.0697
 5475SOL    HW128058   1.279   3.823  15.444  0.8241 -0.2819  2.2772
 5475SOL    HW228059   1.184   3.717  15.402  1.4870  0.7620 -0.9312
 5476SOL     OW28060   4.485   2.745   6.184  0.2017  0.5251 -0.0912
 5476SOL    HW128061   4.469   2.725   6.092  0.9363  1.1618 -0.3562
 5476SOL    HW228062   4.549   2.675   6.198  0.0257  0.4704  0.4444
 5477SOL     OW28063   0.911   3.615   8.341  0.4241  0.6540  0.0033
 5477SOL    HW128064   0.920   3.577   8.253 -0.5117  0.2106  0.0936
 5477SOL    HW228065   0.903   3.542   8.401  2.5406  1.3147  1.0748
 5478SOL     OW28066   3.992   3.584   3.206  0.0426  0.2693  0.8399
 5478SOL    HW128067   3.994   3.566   3.300 -0.8196 -0.1611  0.7738
 5478SOL    HW228068   4.065   3.645   3.195 -0.3735  0.0521 -3.1607
 5479SOL     OW28069   0.877   4.321   8.362  0.2516 -0.0838  0.2925
 5479SOL    HW128070   0.866   4.413   8.384 -0.9890 -0.7332  2.4674
 5479SOL    HW228071   0.927   4.300   8.441 -2.7212  0.6183  2.3407
 5480SOL     OW28072   1.411   2.781   8.117 -0.1032 -0.3845  0.4050
 5480SOL    HW128073   1.448   2.803   8.032 -0.0309  0.4111  0.6372
 5480SOL    HW228074   1.320   2.809   8.109  0.3550  0.9893  0.1086
 5481SOL     OW28075   3.965   3.444  14.037  0.6254  0.0771 -0.2586
 5481SOL    HW128076   4.013   3.374  13.993 -0.4933 -0.2882 -0.8918
 5481SOL    HW228077   3.887   3.401  14.072 -0.3226  1.2626 -0.9210
 5482SOL     OW28078   4.073   1.948   4.030  0.1513  0.4210  0.6726
 5482SOL    HW128079   4.131   1.991   4.092 -0.1562  1.4440  0.2656
 5482SOL    HW228080   4.042   1.869   4.074  1.5684  0.6608  2.0863
 5483SOL     OW28081   1.827   1.710   5.544  0.4216  0.0700 -0.5644
 5483SOL    HW128082   1.790   1.622   5.552  1.5205 -0.3709 -0.3919
 5483SOL    HW228083   1.756   1.766   5.575  0.8785  1.0021 -1.2134
 5484SOL     OW28084   1.937   3.432  10.460  0.3797  0.4024  0.3804
 5484SOL    HW128085   2.020   3.468  10.490  1.6280 -2.1216 -0.0200
 5484SOL    HW228086   1.930   3.354  10.515 -0.9001 -1.2834 -2.1522
 5485SOL     OW28087   4.623   1.799   6.608 -0.0403  0.6578  0.8643
 5485SOL    HW128088   4.682   1.857   6.657  1.5876  0.5972 -1.0222
 5485SOL    HW228089   4.545   1.852   6.591  0.2204  1.1176  1.1162
 5486SOL     OW28090   2.697   4.323  12.792  0.1295  0.3488  0.1515
 5486SOL    HW128091   2.757   4.288  12.858  1.1111 -1.7027 -1.7993
 5486SOL    HW228092   2.739   4.286  12.714  0.3646 -1.2260  1.0152
 5487SOL     OW28093   1.668   2.067   2.077  0.3336  0.8162 -0.3541
 5487SOL    HW128094   1.679   2.031   2.165 -0.3554  1.5640  0.0376
 5487SOL    HW228095   1.574   2.051   2.075  0.4507  0.0872  0.0983
 5488SOL     OW28096   1.341   3.475  16.709  0.1004  0.1422 -0.1737
 5488SOL    HW128097   1.325   3.567  16.730 -0.1033 -0.2636  1.4865
 5488SOL    HW228098   1.346   3.478  16.613  0.1859 -2.1401 -0.2310
 5489SOL     OW28099   4.526   3.010   1.853 -0.2597  1.0292 -0.4503
 5489SOL    HW128100   4.585   2.959   1.909 -1.1127  0.9365  0.3722
 5489SOL    HW228101   4.593   3.068   1.817  0.6051 -0.2729 -0.9685
 5490SOL     OW28102   3.731   2.310  16.245 -0.1036  0.5239  0.1249
 5490SOL    HW128103   3.638   2.294  16.260  0.1165 -1.7910 -1.0423
 5490SOL    HW228104   3.724   2.397  16.206  1.3733  1.7092  2.4829
 5491SOL     OW28105   4.247   2.950   7.743  0.4272 -0.4785  0.1391
 5491SOL    HW128106   4.301   2.947   7.665  0.5940 -2.3422  0.3355
 5491SOL    HW228107   4.163   2.953   7.697 -1.0008 -1.5372  2.6454
 5492SOL     OW28108   1.841   2.470   8.935 -0.4614  0.1136  0.5077
 5492SOL    HW128109   1.862   2.376   8.937  1.4766  0.6169  3.6711
 5492SOL    HW228110   1.926   2.512   8.918 -0.0596 -0.6157  0.7149
 5493SOL     OW28111   0.767   4.596  12.011 -0.2326 -0.3791  0.1792
 5493SOL    HW128112   0.752   4.544  11.933  1.3222 -3.0334  1.6374
 5493SOL    HW228113   0.693   4.575  12.068  0.4665 -0.6067  0.9976
 5494SOL     OW28114   0.629   1.470   2.729 -0.7009 -0.0667  0.2439
 5494SOL    HW128115   0.542   1.453   2.693 -0.7678 -0.3801  0.5556
 5494SOL    HW228116   0.688   1.411   2.681  1.4070  3.1640 -1.1666
 5495SOL     OW28117   3.888   4.303   2.662 -0.0722  0.2807 -0.3204
 5495SOL    HW128118   3.877   4.393   2.630  1.2139  0.4031 -0.4157
 5495SOL    HW228119   3.845   4.248   2.596 -1.6166 -0.5414  1.3703
 5496SOL     OW28120   1.051   4.522   1.799 -0.1285 -0.3130 -0.0014
 5496SOL    HW128121   1.082   4.541   1.710  2.0657 -0.9715  0.6251
 5496SOL    HW228122   1.116   4.455   1.823  1.4022  1.1861  0.0453
 5497SOL     OW28123   4.062   2.776   6.106  0.5272  0.0922  0.2110
 5497SOL    HW128124   3.977   2.774   6.062  1.1922 -1.0629 -1.0145
 5497SOL    HW228125   4.117   2.815   6.038 -0.2983  0.4463 -0.2591
 5498SOL     OW28126   4.596   2.852   2.673 -0.6512 -0.5282 -0.0432
 5498SOL    HW128127   4.532   2.812   2.732 -0.2756  1.6600  1.8329
 5498SOL    HW228128   4.543   2.907   2.615  0.0351 -0.2061 -0.3688
 5499SOL     OW28129   3.639   3.305   2.857 -0.0316  0.2319 -0.4179
 5499SOL    HW128130   3.690   3.364   2.913  0.2375 -0.1511 -0.2564
 5499SOL    HW228131   3.600   3.371   2.799 -1.2850 -0.1713 -0.0285
 5500SOL     OW28132   2.167   0.576   8.896 -0.0650 -0.0727  0.1785
 5500SOL    HW128133   2.198   0.627   8.970  1.4145 -0.3191 -0.2702
 5500SOL    HW228134   2.188   0.646   8.834 -3.3393 -0.5015 -1.4451
 5501SOL     OW28135   2.220   2.516   9.717 -0.6785 -0.3862  0.0236
 5501SOL    HW128136   2.231   2.611   9.713 -0.5967 -0.5375 -2.8955
 5501SOL    HW228137   2.140   2.496   9.768 -0.4075  2.3893  1.5450
 5502SOL     OW28138   2.090   4.230   8.015  0.2332  0.0623 -0.3071
 5502SOL    HW128139   2.166   4.254   8.067 -0.3057 -1.5484  1.2254
 5502SOL    HW228140   2.119   4.234   7.924 -1.0745  0.5128 -0.7068
 5503SOL     OW28141   2.084   4.133   0.778 -0.3468 -0.1414  0.6424
 5503SOL    HW128142   2.042   4.189   0.712  0.0310  2.0046  2.2012
 5503SOL    HW228143   2.091   4.187   0.857  3.3898 -0.2249  0.3856
 5504SOL     OW28144   2.922   0.970   8.591 -0.7603 -0.0552  0.3944
 5504SOL    HW128145   2.899   1.042   8.533 -1.0035 -0.2603  0.2407
 5504SOL    HW228146   2.868   0.900   8.555  2.8372 -2.2359 -0.7554
 5505SOL     OW28147   0.258   3.800   4.132  0.2929 -0.1418  0.3614
 5505SOL    HW128148   0.199   3.777   4.203 -0.0592 -2.1797 -0.5972
 5505SOL    HW228149   0.204   3.765   4.060 -1.9426  0.5766  1.6809
 5506SOL     OW28150   3.325   4.242   4.609 -0.0875  0.0437  0.5284
 5506SOL    HW128151   3.414   4.210   4.622 -0.7791 -2.5461 -0.9423
 5506SOL    HW228152   3.317   4.237   4.513 -2.7316 -0.6972  0.7901
 5507SOL     OW28153   3.049   4.070  16.665 -1.0107  0.2780  0.2395
 5507SOL    HW128154   3.083   3.996  16.616 -0.9642 -0.2475  1.0580
 5507SOL    HW228155   3.126   4.125  16.676  0.0846 -1.5660  1.8491
 5508SOL     OW28156   0.109   1.772  10.328  0.3430  0.3414 -0.0903
 5508SOL    HW128157   0.060   1.776  10.410 -0.7312 -3.1840 -0.5479
 5508SOL    HW228158   0.047   1.731  10.268  2.5390 -1.0037 -1.4777
 5509SOL     OW28159   3.451   0.688   1.935 -0.0222 -0.6080 -0.1044
 5509SOL    HW128160   3.460   0.758   2.000 -4.2765 -0.2176  0.0623
 5509SOL    HW228161   3.541   0.666   1.910 -0.5158  0.9362 -3.2211
 5510SOL     OW28162   0.639   1.440   2.288 -0.6872  0.3105 -0.0226
 5510SOL    HW128163   0.559   1.401   2.252 -1.3390 -0.8358  2.6288
 5510SOL    HW228164   0.704   1.400   2.231 -0.7739  0.2529 -0.0823
 5511SOL     OW28165   2.293   2.664   5.089 -0.1339 -0.4417 -0.3572
 5511SOL    HW128166   2.295   2.593   5.025  1.1771  1.4798 -2.4607
 5511SOL    HW228167   2.232   2.720   5.042  0.1969 -0.0229 -0.2918
 5512SOL     OW28168   2.174   0.205   4.358 -0.0925  0.0142  0.1796
 5512SOL    HW128169   2.124   0.158   4.425  1.3755  1.1097  2.0603
 5512SOL    HW228170   2.145   0.173   4.273  2.0195  1.8972 -1.2505
 5513SOL     OW28171   4.245   4.181   9.345 -0.3106 -0.2105  0.5691
 5513SOL    HW128172   4.151   4.170   9.332 -0.3613  0.3217  0.4580
 5513SOL    HW228173   4.275   4.113   9.285 -0.7887 -0.0997  0.2033
 5514SOL     OW28174   2.880   0.801  13.643  0.0594 -0.2949  0.4307
 5514SOL    HW128175   2.905   0.870  13.581 -0.3658 -0.6828 -0.1811
 5514SOL    HW228176   2.917   0.725  13.597 -1.1097 -1.1571  0.9188
 5515SOL     OW28177   3.974   0.250   2.321 -0.5926 -0.5003  0.4444
 5515SOL    HW128178   4.027   0.310   2.270  0.1172 -1.7094 -0.2388
 5515SOL    HW228179   3.913   0.306   2.369 -1.7750  0.3115 -1.9863
 5516SOL     OW28180   0.347   4.647   2.842 -0.2016  0.2097 -0.1049
 5516SOL    HW128181   0.356   4.729   2.890 -1.3311 -0.5390  1.3595
 5516SOL    HW228182   0.395   4.580   2.891  0.6983  0.0642 -1.1836
 5517SOL     OW28183   0.185   4.613   7.611  0.2436 -0.6074 -0.0662
 5517SOL    HW128184   0.170   4.533   7.560  0.2627 -1.1779  0.8282
 5517SOL    HW228185   0.168   4.674   7.538  0.7043 -0.3664  0.0250
 5518SOL     OW28186   4.170   4.357   2.449 -0.2565 -0.1490  0.4711
 5518SOL    HW128187   4.186   4.431   2.391 -1.9816  1.2252  1.7338
 5518SOL    HW228188   4.126   4.403   2.521  0.8514  0.1612  0.9419
 5519SOL     OW28189   0.221   1.351   4.791  0.0749  0.3093  0.2647
 5519SOL    HW128190   0.243   1.334   4.883  0.5516 -3.4253 -0.5138
 5519SOL    HW228191   0.260   1.277   4.744 -0.5558  1.5029 -2.1147
 5520SOL     OW28192   0.085   3.489  16.660  0.4300  0.2095 -0.0710
 5520SOL    HW128193   0.122   3.412  16.703  0.1063  0.1232  0.0479
 5520SOL    HW228194   0.075   3.540  16.740  0.3067 -0.0468  0.0764
 5521SOL     OW28195   2.147   4.477   5.956 -0.0569 -0.2641 -0.0596
 5521SOL    HW128196   2.118   4.568   5.954  0.8908  0.1245  2.9595
 5521SOL    HW228197   2.164   4.466   6.050  1.7956  0.5105 -0.3087
 5522SOL     OW28198   0.530   2.804   6.677 -0.0053  0.1582  0.1396
 5522SOL    HW128199   0.588   2.733   6.651 -1.2727 -0.7146 -0.3308
 5522SOL    HW228200   0.456   2.799   6.616 -0.7387 -2.1259  1.2036
 5523SOL     OW28201   4.393   3.699   8.667  0.2305  0.1226  0.2162
 5523SOL    HW128202   4.355   3.667   8.586 -0.8413 -1.7308  1.4405
 5523SOL    HW228203   4.479   3.729   8.640 -0.8831  1.0214 -2.2983
 5524SOL     OW28204   1.464   4.083   1.581  0.7289  0.0952  0.0368
 5524SOL    HW128205   1.435   4.158   1.633  0.1248  0.1329 -0.3499
 5524SOL    HW228206   1.418   4.010   1.622 -0.9978 -0.1217 -2.2905
 5525SOL     OW28207   1.781   0.255   2.775  0.5300 -0.0818  0.3425
 5525SOL    HW128208   1.844   0.251   2.703  1.8366  0.4232  1.4554
 5525SOL    HW228209   1.705   0.201   2.756 -0.7233  1.9588 -0.4594
 5526SOL     OW28210   1.206   3.794   8.196 -0.3080 -0.0636 -0.1475
 5526SOL    HW128211   1.209   3.822   8.288  2.8443  0.7274 -0.4918
 5526SOL    HW228212   1.163   3.867   8.152  1.9240  2.0894  1.2207
 5527SOL     OW28213   4.363   1.616  12.905  0.3370  0.3254 -0.2016
 5527SOL    HW128214   4.301   1.582  12.970  1.8038 -0.5081  0.7350
 5527SOL    HW228215   4.449   1.620  12.946  0.0532 -1.8620  0.5865
 5528SOL     OW28216   0.322   1.795   6.812  0.1027  0.0798  0.4445
 5528SOL    HW128217   0.416   1.795   6.831 -0.0315 -3.7381  1.1036
 5528SOL    HW228218   0.299   1.773   6.902  1.5636 -0.6147  0.6455
 5529SOL     OW28219   3.461   1.431  15.273 -0.2807 -0.0313 -0.1595
 5529SOL    HW128220   3.486   1.343  15.300 -0.0581 -0.1835 -0.8612
 5529SOL    HW228221   3.544   1.459  15.233 -1.3164 -0.4573 -2.6303
 5530SOL     OW28222   1.935   2.406   5.106 -0.3246 -0.6813 -0.2780
 5530SOL    HW128223   1.911   2.315   5.089  1.6930 -1.0734 -0.9153
 5530SOL    HW228224   1.921   2.437   5.017  0.2777  0.1429 -0.0839
 5531SOL     OW28225   0.620   3.957  17.311 -0.3248  0.6178 -0.3057
 5531SOL    HW128226   0.526   3.974  17.317 -0.2488  0.6701  0.6636
 5531SOL    HW228227   0.630   3.880  17.256  1.3370  0.2038  0.5698
 5532SOL     OW28228   1.754   2.916   4.625 -0.0440 -0.2212  0.5610
 5532SOL    HW128229   1.798   2.842   4.667 -2.4876 -1.9875 -0.0339
 5532SOL    HW228230   1.748   2.983   4.693  1.8184  0.7195 -0.1883
 5533SOL     OW28231   3.093   2.312   4.991 -0.4630 -0.3319 -0.7831
 5533SOL    HW128232   3.064   2.221   5.000  2.5341 -1.0371  1.7794
 5533SOL    HW228233   3.012   2.344   4.953 -0.5216 -1.2474 -1.4464
 5534SOL     OW28234   2.620   3.033  16.838 -0.5607 -0.3705  0.4928
 5534SOL    HW128235   2.683   3.041  16.910 -1.9732  1.7843  1.5059
 5534SOL    HW228236   2.543   3.048  16.893 -0.2108  0.7640  0.6717
 5535SOL     OW28237   0.702   3.789   2.260  0.7662  0.1640 -0.0150
 5535SOL    HW128238   0.711   3.719   2.324  0.9262 -0.6629 -0.9450
 5535SOL    HW228239   0.619   3.833   2.277  0.5580  0.4295 -1.7361
 5536SOL     OW28240   1.411   0.474   7.366 -0.1303 -0.2521 -0.0267
 5536SOL    HW128241   1.443   0.472   7.456 -0.9421 -2.0383  0.2116
 5536SOL    HW228242   1.469   0.417   7.315 -0.6967 -0.9034  0.0685
 5537SOL     OW28243   2.701   4.119   3.313 -0.0963 -0.0527 -0.3435
 5537SOL    HW128244   2.686   4.177   3.238 -0.3765 -0.1771 -0.3845
 5537SOL    HW228245   2.608   4.104   3.331  0.2948 -0.0517  1.6066
 5538SOL     OW28246   3.361   3.425  13.567  0.1749 -0.2782 -0.2614
 5538SOL    HW128247   3.285   3.407  13.622 -0.4779  0.4096 -0.9292
 5538SOL    HW228248   3.349   3.519  13.559 -0.7629 -0.2560  1.3524
 5539SOL     OW28249   0.150   4.159   7.664  0.8725  0.2121  0.0792
 5539SOL    HW128250   0.147   4.215   7.741  1.8881 -0.6922  0.7685
 5539SOL    HW228251   0.245   4.150   7.658  0.7716  0.2739 -1.6267
 5540SOL     OW28252   3.360   4.625   0.388  0.2392  0.1539  0.2976
 5540SOL    HW128253   3.442   4.641   0.435 -1.2622  1.0275  2.6080
 5540SOL    HW228254   3.370   4.535   0.358  1.5955  0.9849 -1.8278
 5541SOL     OW28255   0.607   3.648  11.349 -0.1011  0.2139 -0.4166
 5541SOL    HW128256   0.558   3.730  11.352 -2.3635 -1.0788 -1.8193
 5541SOL    HW228257   0.611   3.623  11.441  0.7313 -2.2661 -1.1343
 5542SOL     OW28258   2.192   0.328  15.835  0.0789  0.2009  0.3910
 5542SOL    HW128259   2.188   0.401  15.897 -1.3019  1.9011 -1.6642
 5542SOL    HW228260   2.217   0.368  15.751  3.1756 -0.9552  0.7730
 5543SOL     OW28261   1.022   4.721  12.038 -0.1451  0.4345 -0.4135
 5543SOL    HW128262   1.085   4.655  12.010  1.7817  1.4825  1.3612
 5543SOL    HW228263   0.937   4.685  12.014  0.5050 -1.8170  0.6741
 5544SOL     OW28264   3.368   4.697   7.295  0.4612 -0.2869  0.2147
 5544SOL    HW128265   3.306   4.645   7.245  0.1694 -0.5922  0.8840
 5544SOL    HW228266   3.448   4.685   7.244 -0.9743 -0.5207 -1.9509
 5545SOL     OW28267   3.906   2.544   9.389  0.2400  0.2076 -0.0364
 5545SOL    HW128268   3.830   2.523   9.335 -1.2663  1.7302  1.4560
 5545SOL    HW228269   3.870   2.623   9.430  3.0685  0.8911  1.1175
 5546SOL     OW28270   0.904   3.883   4.135  0.7965 -0.3961 -0.5627
 5546SOL    HW128271   0.837   3.890   4.203  2.3761 -0.0938  0.9710
 5546SOL    HW228272   0.857   3.835   4.067  2.0793 -1.0409 -0.9994
 5547SOL     OW28273   2.960   1.201   5.054 -0.5397  0.0026 -0.1147
 5547SOL    HW128274   2.883   1.155   5.087 -0.1500 -1.1024 -0.7735
 5547SOL    HW228275   2.907   1.271   5.015 -0.4919 -0.2248 -0.5811
 5548SOL     OW28276   1.126   3.289  13.923 -0.8742 -0.0109 -0.0099
 5548SOL    HW128277   1.185   3.263  13.853 -2.4670  0.3369 -1.4839
 5548SOL    HW228278   1.047   3.236  13.907 -0.8529  0.6011 -2.1054
 5549SOL     OW28279   2.148   3.624   3.519  0.5601  0.4156  0.3772
 5549SOL    HW128280   2.105   3.698   3.561  1.5696  2.5072 -2.2958
 5549SOL    HW228281   2.095   3.611   3.440 -1.3026 -1.3898  1.8967
 5550SOL     OW28282   0.941   0.317  13.317  0.7830  0.9005  0.1384
 5550SOL    HW128283   0.892   0.348  13.240  3.5267  1.8456 -1.2476
 5550SOL    HW228284   0.950   0.224  13.296 -1.3322  1.3592 -2.8069
 5551SOL     OW28285   0.539   2.579   6.404 -0.3217  0.0592 -0.3714
 5551SOL    HW128286   0.464   2.598   6.348 -1.1045  3.1814  1.7431
 5551SOL    HW228287   0.605   2.640   6.371 -0.8191  0.2551 -0.9942
 5552SOL     OW28288   1.606   2.719  16.546  0.2039  0.0229 -0.1586
 5552SOL    HW128289   1.549   2.740  16.620  0.6596 -1.0724  0.5023
 5552SOL    HW228290   1.647   2.640  16.580 -1.2554 -0.1279  1.2310
 5553SOL     OW28291   0.014   3.568   8.351  0.8640 -0.6482 -0.4212
 5553SOL    HW128292   0.039   3.627   8.280  3.7526 -2.5408 -0.9795
 5553SOL    HW228293   0.068   3.602   8.422  0.4062 -1.4727  0.3215
 5554SOL     OW28294   2.416   0.569   0.980 -0.5272  0.4235  0.6751
 5554SOL    HW128295   2.391   0.481   0.951  0.5482  0.3222  0.0558
 5554SOL    HW228296   2.353   0.623   0.932 -0.9544 -2.2090 -1.7171
 5555SOL     OW28297   3.378   1.679  16.340 -0.0233  0.3506  0.6371
 5555SOL    HW128298   3.335   1.603  16.379 -1.4985  1.7074  1.6721
 5555SOL    HW228299   3.370   1.737  16.416  2.8393  1.7707 -0.1297
 5556SOL     OW28300   0.720   3.350  15.998 -0.3625 -0.0584  0.0124
 5556SOL    HW128301   0.654   3.418  15.985 -1.4835 -1.1677 -0.0433
 5556SOL    HW228302   0.773   3.360  15.919  0.1034 -1.0269  0.1970
 5557SOL     OW28303   2.613   0.473   6.438  0.0649 -0.2100 -0.1497
 5557SOL    HW128304   2.534   0.448   6.486 -0.1384  1.9837  0.6556
 5557SOL    HW228305   2.580   0.463   6.349  0.6870 -0.2778 -0.3711
 5558SOL     OW28306   0.171   2.110   5.940 -1.0325  0.2970  0.0488
 5558SOL    HW128307   0.182   2.025   5.895 -0.3766  0.6209 -0.3948
 5558SOL    HW228308   0.259   2.146   5.948 -0.1725 -1.5319 -1.0910
 5559SOL     OW28309   2.927   0.735   1.637  0.0346  0.1337  0.1330
 5559SOL    HW128310   2.888   0.822   1.629  1.3516  0.8746  1.7371
 5559SOL    HW228311   2.891   0.711   1.722  0.0199  4.0628  1.2156
 5560SOL     OW28312   0.856   2.136   6.264 -0.1300  0.1095  0.5285
 5560SOL    HW128313   0.818   2.158   6.350 -1.8304 -1.7576  0.2562
 5560SOL    HW228314   0.802   2.063   6.234  0.7858  0.1521 -1.1755
 5561SOL     OW28315   4.524   0.230   7.623  0.1574  0.1090 -0.1136
 5561SOL    HW128316   4.456   0.223   7.690 -0.4325  0.6148 -0.6728
 5561SOL    HW228317   4.530   0.140   7.590 -1.4863 -1.0444  2.7282
 5562SOL     OW28318   2.103   2.240   2.474  0.9354 -0.3528 -0.3781
 5562SOL    HW128319   2.100   2.161   2.528  1.2876  0.3681  0.6922
 5562SOL    HW228320   2.163   2.207   2.407  0.3937 -1.0974 -0.4923
 5563SOL     OW28321   0.731   0.567  17.667  0.3860  0.4914  0.0964
 5563SOL    HW128322   0.641   0.550  17.641  0.3639 -2.0604  1.8930
 5563SOL    HW228323   0.741   0.656  17.631 -0.8185  0.6738  0.2061
 5564SOL     OW28324   2.638   2.676   2.871 -0.1464 -0.0156  0.1659
 5564SOL    HW128325   2.582   2.602   2.893  1.7862 -1.5128  0.0131
 5564SOL    HW228326   2.722   2.630   2.865  0.6331  1.4755 -0.3972
 5565SOL     OW28327   2.869   3.353  13.644 -0.4603 -0.2498 -0.0185
 5565SOL    HW128328   2.826   3.275  13.680  2.4545 -0.5815  2.7167
 5565SOL    HW228329   2.832   3.362  13.556 -0.7344 -3.4403 -0.2509
 5566SOL     OW28330   2.036   3.583  17.090  0.8485 -0.4071 -0.0000
 5566SOL    HW128331   2.098   3.525  17.134  0.5858 -1.0998 -0.5345
 5566SOL    HW228332   1.969   3.518  17.069  0.6265 -0.0129 -0.5017
 5567SOL     OW28333   2.148   1.422   9.955  0.1854 -0.1342  0.3497
 5567SOL    HW128334   2.125   1.355  10.019 -1.4680  0.7570  0.6767
 5567SOL    HW228335   2.114   1.387   9.873  1.3100 -0.7728  0.1501
 5568SOL     OW28336   1.088   2.750   9.272  0.0198 -0.4556  0.6644
 5568SOL    HW128337   1.122   2.830   9.233  1.8542 -2.8749 -2.6685
 5568SOL    HW228338   1.035   2.796   9.338  0.4428 -0.6656  1.1519
 5569SOL     OW28339   4.387   0.682   3.713  0.0427 -0.1649 -0.2732
 5569SOL    HW128340   4.368   0.588   3.722 -1.2479  0.2537  1.4525
 5569SOL    HW228341   4.442   0.666   3.636 -0.0480  0.9879 -0.5737
 5570SOL     OW28342   2.786   2.520  16.629  0.6075 -0.8778 -0.2274
 5570SOL    HW128343   2.715   2.561  16.579  0.3114 -2.7806 -1.4002
 5570SOL    HW228344   2.746   2.507  16.715  1.7520  1.2187  0.6040
 5571SOL     OW28345   0.291   1.684   7.885 -0.6045  0.0811  0.3430
 5571SOL    HW128346   0.221   1.630   7.922  0.4505 -1.6102 -0.0885
 5571SOL    HW228347   0.265   1.697   7.794  0.5391 -0.7452 -0.1117
 5572SOL     OW28348   2.966   0.422   9.768  0.3551  0.1837  0.3594
 5572SOL    HW128349   2.915   0.396   9.691  0.5715 -1.7145  0.8567
 5572SOL    HW228350   3.036   0.473   9.727  0.7157 -0.6758 -0.0967
 5573SOL     OW28351   1.579   2.378   3.512  0.2028  0.0566  0.3172
 5573SOL    HW128352   1.593   2.337   3.427  3.5872 -0.7009  1.2343
 5573SOL    HW228353   1.640   2.452   3.508  0.4584 -0.1394  0.5954
 5574SOL     OW28354   0.458   1.037   7.784  0.1345 -0.3708 -0.4795
 5574SOL    HW128355   0.365   1.019   7.802  0.7378 -0.6893  2.2815
 5574SOL    HW228356   0.504   0.954   7.796  1.5090  0.6302  1.1138
 5575SOL     OW28357   3.184   1.344  16.008  0.4499 -0.2584 -0.2131
 5575SOL    HW128358   3.118   1.407  16.036  0.6018 -0.2625  0.1641
 5575SOL    HW228359   3.124   1.279  15.971  0.3970 -1.2694  1.6208
 5576SOL     OW28360   4.039   3.145  10.385  0.3068 -0.3639 -0.3212
 5576SOL    HW128361   4.083   3.209  10.441 -2.8797  0.1246  1.6198
 5576SOL    HW228362   4.068   3.177  10.300 -0.5605  0.8582 -0.1563
 5577SOL     OW28363   2.065   3.241  10.291 -0.2929  0.2288  0.1599
 5577SOL    HW128364   1.998   3.240  10.223  0.9594  3.5554 -1.1258
 5577SOL    HW228365   2.039   3.317  10.343 -0.2862  0.6555 -0.4638
 5578SOL     OW28366   0.409   3.394   4.907 -0.2345 -0.4675  0.6449
 5578SOL    HW128367   0.388   3.302   4.890  1.0841 -0.6598  0.0465
 5578SOL    HW228368   0.420   3.413   4.814  0.9409 -1.4676  0.5842
 5579SOL     OW28369   1.482   0.069   5.685  0.4379 -0.1652 -0.2847
 5579SOL    HW128370   1.431   0.017   5.623  0.6923 -1.2107  0.3730
 5579SOL    HW228371   1.568   0.031   5.664 -0.4806 -1.4825 -1.6767
 5580SOL     OW28372   1.627   2.819  15.998 -0.2804 -0.1955 -0.0777
 5580SOL    HW128373   1.709   2.810  16.048  0.0146  0.1365 -0.5046
 5580SOL    HW228374   1.659   2.800  15.910 -0.8318 -1.5358  0.0210
 5581SOL     OW28375   1.522   1.095  12.437  0.0330 -0.6381 -0.0609
 5581SOL    HW128376   1.528   1.026  12.503  2.3557 -0.5218 -0.1605
 5581SOL    HW228377   1.492   1.045  12.361  2.3090 -1.9948 -0.0684
 5582SOL     OW28378   1.597   0.078   4.497 -1.0646  0.2348  0.3113
 5582SOL    HW128379   1.577   4.727   4.520  0.7593 -0.2920 -0.2225
 5582SOL    HW228380   1.577   0.128   4.576 -2.6770 -2.3709  1.5585
 5583SOL     OW28381   0.204   0.650  12.348 -0.5143 -0.1922 -0.3366
 5583SOL    HW128382   0.257   0.571  12.358  0.8959  0.8756  0.6194
 5583SOL    HW228383   0.268   0.720  12.338 -0.0008 -0.3488  1.8901
 5584SOL     OW28384   2.876   4.137   2.619  0.2347 -0.3482 -0.0222
 5584SOL    HW128385   2.964   4.121   2.652  1.5339  1.0142 -2.8229
 5584SOL    HW228386   2.895   4.186   2.539 -2.9017  1.6171  0.4526
 5585SOL     OW28387   4.683   4.475   5.370 -0.2884 -0.3211  0.1388
 5585SOL    HW128388   4.689   4.391   5.324 -2.2091 -0.8973  0.9598
 5585SOL    HW228389   4.628   4.529   5.314 -0.5395 -1.7920 -1.0278
 5586SOL     OW28390   0.111   0.112   1.891  0.7564 -0.5309 -0.0257
 5586SOL    HW128391   0.099   0.091   1.798  1.1617 -1.4364  0.1300
 5586SOL    HW228392   0.184   0.173   1.881 -0.4722  1.1347  1.0305
 5587SOL     OW28393   2.572   0.320   4.960  0.6032  0.0536 -0.1243
 5587SOL    HW128394   2.491   0.340   4.914  0.4713  1.1628  0.5636
 5587SOL    HW228395   2.618   0.400   4.932  0.2539  0.7394  1.2263
 5588SOL     OW28396   3.772   3.482   5.618  0.0371 -0.5644 -0.1683
 5588SOL    HW128397   3.679   3.477   5.594  0.1154  1.5340 -0.9465
 5588SOL    HW228398   3.778   3.460   5.711  2.0227  0.8809  0.0477
 5589SOL     OW28399   3.527   2.862   1.462 -0.3279  0.6968 -0.1754
 5589SOL    HW128400   3.512   2.914   1.383  0.3473 -0.7763 -1.2846
 5589SOL    HW228401   3.611   2.824   1.436 -0.5316 -0.2114  0.4904
 5590SOL     OW28402   4.131   2.593  14.050  0.4068  0.3430 -0.2127
 5590SOL    HW128403   4.135   2.688  14.050 -2.0465  0.4531 -0.1972
 5590SOL    HW228404   4.096   2.571  14.137  0.0326  0.3177 -0.3694
 5591SOL     OW28405   1.642   2.875   2.852  0.0957 -0.0807  0.5313
 5591SOL    HW128406   1.600   2.883   2.766 -1.0655  0.3575  1.1256
 5591SOL    HW228407   1.643   2.967   2.881  1.3858 -0.0922  0.4874
 5592SOL     OW28408   2.857   3.874  13.191 -0.4654  0.2178  0.2413
 5592SOL    HW128409   2.830   3.949  13.137  1.7829  2.0690  1.6882
 5592SOL    HW228410   2.808   3.808  13.141  3.4191 -2.1935 -0.3659
 5593SOL     OW28411   0.104   1.393   3.761 -0.3321  0.4182 -0.0891
 5593SOL    HW128412   0.077   1.305   3.734 -1.6904  0.0288  2.5882
 5593SOL    HW228413   0.197   1.385   3.742  0.3322  1.7710  2.6348
 5594SOL     OW28414   2.943   0.541   5.818  0.3057  0.5969  0.0836
 5594SOL    HW128415   3.031   0.571   5.838  0.2835  0.3812  0.5111
 5594SOL    HW228416   2.949   0.559   5.724 -1.5295  2.3202  0.2911
 5595SOL     OW28417   3.222   0.446   7.532 -0.3743  0.2081 -0.0750
 5595SOL    HW128418   3.188   0.487   7.612 -0.0498 -0.0898  0.2165
 5595SOL    HW228419   3.277   0.377   7.568 -0.9918 -0.4082 -0.3198
 5596SOL     OW28420   2.564   1.457   1.074  0.1546 -0.2351  0.2574
 5596SOL    HW128421   2.512   1.528   1.037  0.7346  0.1570  0.1932
 5596SOL    HW228422   2.561   1.395   1.001  0.6543 -2.2937  1.9776
 5597SOL     OW28423   3.717   4.002  16.999 -0.3509  0.3181  0.5347
 5597SOL    HW128424   3.623   3.981  16.993 -0.3694  0.8025 -0.9447
 5597SOL    HW228425   3.763   3.920  16.978  2.4073  2.0516 -0.1927
 5598SOL     OW28426   3.626   4.099   1.714 -0.1109 -0.4743 -0.6379
 5598SOL    HW128427   3.677   4.113   1.794 -0.7444 -0.1543 -0.2851
 5598SOL    HW228428   3.691   4.048   1.667 -0.6581 -1.2252 -0.5867
 5599SOL     OW28429   3.956   4.382   3.216 -0.5318  0.0170  0.0161
 5599SOL    HW128430   3.916   4.411   3.134 -0.7601  1.0339  0.4931
 5599SOL    HW228431   3.890   4.318   3.246 -1.4238  0.5189 -0.8869
 5600SOL     OW28432   2.036   3.001   3.456  0.2849  0.8475  0.4707
 5600SOL    HW128433   2.121   3.036   3.482  0.7248  1.4664 -1.7393
 5600SOL    HW228434   1.989   3.084   3.444  4.0756  3.1946  1.7183
 5601SOL     OW28435   1.952   4.403  11.930  0.1003  0.6689  0.0690
 5601SOL    HW128436   1.985   4.441  12.012 -0.4558  0.9606  0.1563
 5601SOL    HW228437   2.039   4.373  11.905  0.5851  1.8383  0.3558
 5602SOL     OW28438   2.060   2.296   3.882  0.4918  0.1464 -0.1540
 5602SOL    HW128439   2.009   2.361   3.929 -1.1096 -0.6281 -0.8206
 5602SOL    HW228440   2.027   2.307   3.792  0.3101 -1.3584 -0.2690
 5603SOL     OW28441   3.549   4.447  17.682  0.1119 -0.4317  0.3377
 5603SOL    HW128442   3.642   4.443  17.703 -0.1309  0.3588  1.5457
 5603SOL    HW228443   3.550   4.471  17.589 -1.6884 -3.1643 -0.4064
 5604SOL     OW28444   0.686   2.914  13.586 -0.4157  0.7340  0.6295
 5604SOL    HW128445   0.662   2.971  13.513  2.4173  0.1064 -0.8214
 5604SOL    HW228446   0.598   2.891  13.615 -0.0804 -0.0455  1.0362
 5605SOL     OW28447   4.582   4.163   4.700 -0.0120  0.8208  0.5848
 5605SOL    HW128448   4.536   4.099   4.754 -0.8327  1.1091  0.2247
 5605SOL    HW228449   4.644   4.104   4.658  0.4515  0.4510  1.8054
 5606SOL     OW28450   2.163   1.974   5.443  0.2267 -0.1021  0.0473
 5606SOL    HW128451   2.213   2.047   5.479 -0.8478  1.1746 -1.0345
 5606SOL    HW228452   2.108   1.964   5.521 -1.7082 -3.2902 -1.7296
 5607SOL     OW28453   0.490   2.666  16.623 -0.3855  0.4656 -0.1878
 5607SOL    HW128454   0.468   2.746  16.576  0.1738  1.8022  1.8418
 5607SOL    HW228455   0.552   2.612  16.573  0.5213  1.2821  0.0558
 5608SOL     OW28456   3.759   3.493   5.897  0.5852 -0.3885 -0.3350
 5608SOL    HW128457   3.797   3.572   5.935  0.5120 -0.1649 -0.7251
 5608SOL    HW228458   3.669   3.519   5.916 -0.1746 -1.2419 -2.8175
 5609SOL     OW28459   0.505   3.025  10.911  0.7661 -0.2792  0.4085
 5609SOL    HW128460   0.517   3.118  10.931 -1.3726 -0.0876  0.8338
 5609SOL    HW228461   0.498   2.987  10.998  0.4657  0.8999  0.9092
 5610SOL     OW28462   4.691   3.617  10.444  0.4005 -0.3277  0.2173
 5610SOL    HW128463   4.738   3.535  10.428  0.8613  0.2408 -1.3268
 5610SOL    HW228464   4.602   3.583  10.457  0.0039  0.6295  0.0118
 5611SOL     OW28465   3.934   1.454  11.396 -0.4138  0.2405  0.3591
 5611SOL    HW128466   3.963   1.381  11.450 -1.0267  0.0594  0.4324
 5611SOL    HW228467   3.948   1.421  11.307  1.7379  0.6742  0.5310
 5612SOL     OW28468   3.908   0.241   2.688 -0.3052  0.2131  0.1380
 5612SOL    HW128469   3.878   0.177   2.624 -2.4503 -1.1961  2.5563
 5612SOL    HW228470   3.845   0.312   2.674  1.5013  2.0325  1.1589
 5613SOL     OW28471   1.525   3.119   7.279 -0.0336  0.4064  0.0347
 5613SOL    HW128472   1.608   3.155   7.312  0.5459  0.3475 -1.3521
 5613SOL    HW228473   1.542   3.026   7.296  1.5984  0.9603  1.4135
 5614SOL     OW28474   2.415   3.305   6.117  0.4490  0.2952  0.2165
 5614SOL    HW128475   2.352   3.324   6.048  0.3000  1.4958  0.6977
 5614SOL    HW228476   2.368   3.243   6.173 -0.3406  2.3195  1.7512
 5615SOL     OW28477   3.453   0.440   8.366  0.0006  0.4052  0.1926
 5615SOL    HW128478   3.399   0.513   8.335 -0.3963 -1.2087 -2.8951
 5615SOL    HW228479   3.464   0.484   8.450 -2.3448  2.2881 -0.4882
 5616SOL     OW28480   2.368   3.513   4.660 -0.0474 -0.2880 -0.0365
 5616SOL    HW128481   2.300   3.465   4.613  2.9981 -1.9815 -2.6472
 5616SOL    HW228482   2.353   3.599   4.620 -0.7585  0.5864  2.0963
 5617SOL     OW28483   2.236   2.777  14.896  0.3714  0.0146 -0.1807
 5617SOL    HW128484   2.224   2.799  14.988 -0.3687 -2.4147  0.2874
 5617SOL    HW228485   2.325   2.742  14.895  0.8570  1.2919 -1.1978
 5618SOL     OW28486   0.215   0.956  15.352 -0.5434  0.2275  0.2314
 5618SOL    HW128487   0.152   0.930  15.420  0.7051  1.7470  1.9664
 5618SOL    HW228488   0.220   1.051  15.362 -0.1701  0.1206  1.0766
 5619SOL     OW28489   4.224   4.690   6.610  0.4026 -0.3168  0.8053
 5619SOL    HW128490   4.145   4.736   6.638 -0.6829 -2.4274  1.2498
 5619SOL    HW228491   4.265   0.022   6.563 -0.4792 -1.1652 -1.2455
 5620SOL     OW28492   1.926   0.658   4.536 -0.2938  0.0994  0.1988
 5620SOL    HW128493   1.991   0.707   4.586 -0.2176  0.0229  0.1738
 5620SOL    HW228494   1.985   0.646   4.461 -0.3518  2.8035 -0.2944
 5621SOL     OW28495   2.817   2.263   8.758 -0.1593  0.1020  0.7731
 5621SOL    HW128496   2.896   2.211   8.776  0.2233  1.2804  2.5593
 5621SOL    HW228497   2.768   2.196   8.710  0.2786 -0.5606  1.2456
 5622SOL     OW28498   3.129   4.514   9.239  0.2766 -0.1147 -0.4591
 5622SOL    HW128499   3.075   4.592   9.252 -0.5100 -0.3739 -2.1253
 5622SOL    HW228500   3.196   4.554   9.184  0.8299 -3.0206 -1.8899
 5623SOL     OW28501   3.149   0.009  11.595 -0.0108 -0.5909  0.1885
 5623SOL    HW128502   3.103   0.015  11.679 -0.5696  0.2640 -0.1755
 5623SOL    HW228503   3.231   4.706  11.620  0.6464  0.6014  0.0716
 5624SOL     OW28504   2.913   2.151   2.727  0.1184  0.0076  0.3464
 5624SOL    HW128505   2.910   2.119   2.637  1.8327  0.2035  0.2153
 5624SOL    HW228506   2.995   2.199   2.737 -0.7839  1.4934  0.6830
 5625SOL     OW28507   0.421   1.504   7.521  0.4496 -0.0087  0.0178
 5625SOL    HW128508   0.411   1.572   7.453 -2.1135  1.2690  1.6974
 5625SOL    HW228509   0.468   1.557   7.585 -0.3986  2.2503 -1.1893
 5626SOL     OW28510   0.571   2.671   7.077 -0.4719  0.2996 -0.1660
 5626SOL    HW128511   0.657   2.641   7.107 -1.8504 -1.3347  2.1795
 5626SOL    HW228512   0.515   2.598   7.102  2.3690 -2.3529 -1.6178
 5627SOL     OW28513   3.025   2.641   0.976 -0.4982  0.5618  0.2843
 5627SOL    HW128514   3.036   2.698   1.052 -0.0920 -0.9917  1.3960
 5627SOL    HW228515   3.116   2.612   0.974 -0.8852 -0.4448 -2.0275
 5628SOL     OW28516   0.466   2.176  12.548  0.6385 -0.2132  0.2294
 5628SOL    HW128517   0.501   2.221  12.625  1.5070 -0.4559 -0.0310
 5628SOL    HW228518   0.504   2.228  12.477  0.5843 -1.8682 -0.9997
 5629SOL     OW28519   2.641   0.254   4.659  1.4902 -0.5701  0.2381
 5629SOL    HW128520   2.716   0.313   4.670  0.9937  0.3560 -1.4577
 5629SOL    HW228521   2.607   0.260   4.749  0.5877  0.7824 -0.1939
 5630SOL     OW28522   3.084   0.788   5.449 -0.4121  0.2833 -0.3489
 5630SOL    HW128523   3.049   0.804   5.361  0.5611  0.5961 -0.6773
 5630SOL    HW228524   3.073   0.869   5.499 -0.8842  0.1116 -0.1813
 5631SOL     OW28525   1.096   1.658   7.795 -0.2749  0.6679 -0.3866
 5631SOL    HW128526   1.132   1.663   7.706 -1.7642 -1.5290 -1.1019
 5631SOL    HW228527   1.003   1.668   7.777 -0.4059  0.0850 -0.0128
 5632SOL     OW28528   0.188   3.205   9.608 -0.8134  0.0230  0.5385
 5632SOL    HW128529   0.153   3.129   9.561  1.8248 -0.8982  0.0214
 5632SOL    HW228530   0.280   3.179   9.612 -0.4423  0.9681 -1.8034
 5633SOL     OW28531   4.557   1.332   5.875 -0.2020 -0.3942  1.2165
 5633SOL    HW128532   4.462   1.341   5.869 -0.2660  0.8932  4.0513
 5633SOL    HW228533   4.591   1.420   5.862  2.3564 -1.4966  0.3958
 5634SOL     OW28534   1.811   2.347  14.967 -0.5867  0.3132  0.3416
 5634SOL    HW128535   1.759   2.267  14.969  0.9990 -0.7132  0.2345
 5634SOL    HW228536   1.771   2.393  15.041 -0.4561  0.2578  0.4443
 5635SOL     OW28537   3.838   0.010   3.246  0.2494 -0.3652  0.0723
 5635SOL    HW128538   3.838   0.090   3.193  0.9997  1.1111  2.2844
 5635SOL    HW228539   3.761   4.714   3.202  0.6293 -1.6775  0.4769
 5636SOL     OW28540   4.592   4.040   7.856 -0.5852 -0.0348  0.0683
 5636SOL    HW128541   4.611   3.954   7.820  1.4372  0.9385 -1.1603
 5636SOL    HW228542   4.608   4.029   7.950 -0.9883  1.4984  0.3293
 5637SOL     OW28543   2.301   3.907   4.023  0.6524 -0.0931  0.0588
 5637SOL    HW128544   2.376   3.854   4.051  0.2367 -0.6035  0.2044
 5637SOL    HW228545   2.230   3.873   4.078 -0.8333  0.0661 -1.7461
 5638SOL     OW28546   4.531   0.071   3.149  0.0609  0.5299  0.3177
 5638SOL    HW128547   4.627   0.066   3.154  0.0640  0.8450  0.5607
 5638SOL    HW228548   4.519   0.070   3.054  0.3351  2.5421  0.2669
 5639SOL     OW28549   4.405   2.139   5.001 -0.0817  0.1411  0.4115
 5639SOL    HW128550   4.467   2.202   5.038 -1.8187  1.0885  1.6958
 5639SOL    HW228551   4.332   2.200   4.992  0.6445  1.0506  0.5834
 5640SOL     OW28552   1.201   3.849   4.142 -0.2351  0.0419  0.3402
 5640SOL    HW128553   1.206   3.934   4.097 -0.9499  0.8427  1.7829
 5640SOL    HW228554   1.137   3.801   4.089 -3.4284  3.2614  1.2601
 5641SOL     OW28555   0.074   0.705  15.246 -0.2033 -0.1358 -0.2413
 5641SOL    HW128556   0.144   0.747  15.295  0.2848  0.2956 -1.3139
 5641SOL    HW228557   0.009   0.689  15.315  0.6248 -1.3731  0.2692
 5642SOL     OW28558   2.469   3.741   7.985  0.2851 -0.7003 -0.1603
 5642SOL    HW128559   2.457   3.703   8.072 -0.4920  0.2808  0.1694
 5642SOL    HW228560   2.411   3.818   7.985  0.8798 -0.2491 -0.7233
 5643SOL     OW28561   3.556   4.589   6.650  0.7706  0.2332 -0.2388
 5643SOL    HW128562   3.533   4.555   6.564  1.8280 -0.2024 -0.3540
 5643SOL    HW228563   3.597   4.512   6.691 -0.8417  0.4679  1.8302
 5644SOL     OW28564   3.142   1.151   3.652 -0.0745 -1.0383  0.2264
 5644SOL    HW128565   3.213   1.131   3.714 -0.9600  1.2403  1.9820
 5644SOL    HW228566   3.181   1.210   3.588 -1.7402 -1.3721 -1.1007
 5645SOL     OW28567   4.370   0.245  10.958  0.2080  0.0017  0.4832
 5645SOL    HW128568   4.388   0.177  10.892 -2.7296 -2.0616  1.8073
 5645SOL    HW228569   4.458   0.266  10.987  0.8867 -0.3852 -1.2787
 5646SOL     OW28570   3.609   2.396   2.206 -0.1490  0.0618  0.2530
 5646SOL    HW128571   3.538   2.436   2.256 -1.4659 -1.4259 -0.4240
 5646SOL    HW228572   3.610   2.461   2.137 -2.7533 -0.1581  0.0018
 5647SOL     OW28573   3.744   3.769   6.271  0.2505  0.6319 -0.0925
 5647SOL    HW128574   3.821   3.715   6.286  1.1966  2.5297  1.8228
 5647SOL    HW228575   3.736   3.766   6.175  1.1591  0.9188 -0.1698
 5648SOL     OW28576   0.381   2.245  10.707  0.2180  0.4390  0.0593
 5648SOL    HW128577   0.456   2.240  10.767 -1.2695  0.0725  1.8791
 5648SOL    HW228578   0.424   2.276  10.627 -1.2541  0.3566 -0.7602
 5649SOL     OW28579   2.770   4.404   9.788  0.5167 -0.2609  0.1138
 5649SOL    HW128580   2.674   4.411   9.783  0.3211 -0.4261  3.1148
 5649SOL    HW228581   2.812   4.466   9.729  1.0258 -1.4314 -0.7275
 5650SOL     OW28582   0.451   2.800   9.073 -0.2315  0.1536  0.6903
 5650SOL    HW128583   0.408   2.765   8.995  1.7866  0.8555 -0.7603
 5650SOL    HW228584   0.487   2.719   9.108  0.2998  0.3752  0.6484
 5651SOL     OW28585   1.551   2.140   3.668 -0.0718 -0.3279  0.3334
 5651SOL    HW128586   1.562   2.215   3.609  1.4113 -1.5373 -0.9122
 5651SOL    HW228587   1.560   2.071   3.602  1.1173 -0.1232  0.2778
 5652SOL     OW28588   4.158   2.974   6.996 -0.1163  0.3457 -0.0034
 5652SOL    HW128589   4.211   3.045   6.960  0.0153 -0.3756 -1.2182
 5652SOL    HW228590   4.205   2.904   6.950  0.0245  1.2798 -1.2937
 5653SOL     OW28591   1.536   1.778   7.820 -0.0084 -0.3536  0.1670
 5653SOL    HW128592   1.447   1.743   7.832 -0.3014 -0.1086 -1.2293
 5653SOL    HW228593   1.517   1.871   7.819 -1.5588 -0.6602  1.4032
 5654SOL     OW28594   1.661   2.038   2.765  0.4070 -0.5469 -0.2543
 5654SOL    HW128595   1.755   2.028   2.749  0.9428  1.7658  1.5444
 5654SOL    HW228596   1.629   2.071   2.681  1.3709 -0.9386 -0.7771
 5655SOL     OW28597   1.579   3.949  11.673  0.0611 -0.7418  0.0555
 5655SOL    HW128598   1.610   3.867  11.634 -0.4778 -0.4307 -1.0328
 5655SOL    HW228599   1.505   3.961  11.613  1.4082 -0.9274 -1.6680
 5656SOL     OW28600   4.601   0.830  15.101  0.1767  0.0028  0.4845
 5656SOL    HW128601   4.627   0.781  15.179 -1.7610  1.7824  2.2476
 5656SOL    HW228602   4.607   0.921  15.129 -1.8899  0.5091 -0.7107
 5657SOL     OW28603   0.943   3.442  13.027 -0.1179 -0.0348 -0.1743
 5657SOL    HW128604   1.020   3.463  12.974 -0.0493 -3.9076 -1.6195
 5657SOL    HW228605   0.905   3.366  12.983  0.0945  0.4353 -1.1656
 5658SOL     OW28606   0.450   2.415   2.944 -0.7788 -0.1389 -0.1326
 5658SOL    HW128607   0.432   2.415   2.850 -0.4384  1.7231 -0.1880
 5658SOL    HW228608   0.475   2.323   2.952  2.3477  0.8142  1.0846
 5659SOL     OW28609   4.270   0.163   5.905 -0.7112 -0.2918 -0.0886
 5659SOL    HW128610   4.321   0.106   5.848  0.4983  0.6550  0.0290
 5659SOL    HW228611   4.296   0.247   5.867 -1.7899 -1.2559 -2.9303
 5660SOL     OW28612   0.409   3.015   8.554  0.2928  0.0704  0.0585
 5660SOL    HW128613   0.436   3.056   8.636 -0.9686 -0.5509  0.7863
 5660SOL    HW228614   0.484   2.956   8.545 -0.0427 -0.3405 -0.0422
 5661SOL     OW28615   0.764   3.004   3.188  0.0429  0.0729  0.3081
 5661SOL    HW128616   0.739   3.020   3.097  2.1616 -0.9841 -0.4684
 5661SOL    HW228617   0.759   2.908   3.184 -1.2053  0.2132 -1.3164
 5662SOL     OW28618   2.597   0.508  10.692  0.7571 -0.0253 -0.1460
 5662SOL    HW128619   2.565   0.531  10.604 -0.2898 -3.1337 -0.6001
 5662SOL    HW228620   2.547   0.572  10.742 -0.2422  0.5847 -1.9371
 5663SOL     OW28621   3.500   0.048   9.833 -0.0096 -0.3039  0.1976
 5663SOL    HW128622   3.441   4.739   9.891 -0.2653  2.1423  1.9635
 5663SOL    HW228623   3.446   0.127   9.834 -0.0272 -0.2814 -1.5927
 5664SOL     OW28624   2.891   2.886   6.408 -0.1748 -0.0543 -0.1491
 5664SOL    HW128625   2.852   2.970   6.385  2.3111  1.4156  0.9491
 5664SOL    HW228626   2.983   2.911   6.412 -0.8292  2.1994  1.1069
 5665SOL     OW28627   3.266   0.292  13.179  0.0399 -0.1084 -0.4229
 5665SOL    HW128628   3.343   0.241  13.205  0.5104  0.2996 -1.0079
 5665SOL    HW228629   3.316   0.371  13.159  1.8593 -0.6204  2.0578
 5666SOL     OW28630   4.738   4.736  11.158  0.0860 -0.0013  0.2965
 5666SOL    HW128631   4.716   4.650  11.122 -0.3065  1.0778 -2.0242
 5666SOL    HW228632   4.653   0.015  11.197 -0.9969 -1.4028 -1.4223
 5667SOL     OW28633   1.276   1.559   7.304  0.1914 -0.6381  0.0545
 5667SOL    HW128634   1.302   1.488   7.362 -1.3142  0.2552  1.8397
 5667SOL    HW228635   1.349   1.618   7.286  1.1331 -2.3806 -1.7924
 5668SOL     OW28636   2.204   1.913   8.104 -0.5357 -0.0318 -0.2635
 5668SOL    HW128637   2.118   1.912   8.063  0.4123 -1.1437 -2.2184
 5668SOL    HW228638   2.259   1.945   8.033  0.9619 -1.3565  0.2958
 5669SOL     OW28639   2.747   0.798  11.115  0.2455  0.4757 -0.0968
 5669SOL    HW128640   2.826   0.851  11.104  1.4138 -1.5649 -1.4697
 5669SOL    HW228641   2.721   0.781  11.025  3.7849 -0.0929 -1.0149
 5670SOL     OW28642   1.720   1.240   7.042  0.7464  0.2179  0.0514
 5670SOL    HW128643   1.689   1.269   6.956 -0.8820  2.4217  1.3641
 5670SOL    HW228644   1.712   1.145   7.030 -0.7094  0.4918 -1.2091
 5671SOL     OW28645   2.734   1.342   9.205  0.7080 -0.0440 -0.4685
 5671SOL    HW128646   2.724   1.387   9.121 -0.6129  1.6939  0.6079
 5671SOL    HW228647   2.820   1.366   9.238 -0.9347  0.5476  3.3818
 5672SOL     OW28648   3.245   0.167   6.748 -0.7581  0.4665 -0.3620
 5672SOL    HW128649   3.265   0.261   6.751  0.1331  0.2629  0.4377
 5672SOL    HW228650   3.228   0.152   6.841 -0.9727 -0.0344 -0.4853
 5673SOL     OW28651   0.900   1.130   5.070  1.0398 -0.0942 -0.0112
 5673SOL    HW128652   0.925   1.187   4.996  0.0376  0.8009  0.3473
 5673SOL    HW228653   0.987   1.115   5.108  1.3534  0.3764 -0.5346
 5674SOL     OW28654   2.775   4.050   1.844  0.9806  0.4375 -0.3216
 5674SOL    HW128655   2.684   4.054   1.814  0.5987 -0.8377  0.6682
 5674SOL    HW228656   2.816   4.122   1.796  1.1968 -0.9450 -2.2107
 5675SOL     OW28657   0.420   3.917   5.044 -0.3320  0.3897  0.0774
 5675SOL    HW128658   0.464   3.955   4.967  1.3860 -0.3520  0.6990
 5675SOL    HW228659   0.469   3.838   5.067  2.6204  1.0357 -3.9329
 5676SOL     OW28660   0.419   2.351  14.113 -0.2104 -0.6908  0.0191
 5676SOL    HW128661   0.359   2.293  14.065  0.0167 -1.1432  0.2824
 5676SOL    HW228662   0.395   2.440  14.086 -1.1140 -0.5459  1.3122
 5677SOL     OW28663   2.486   4.098   1.796  0.2283  0.4276  0.3929
 5677SOL    HW128664   2.402   4.059   1.821 -0.2019  1.6372  0.8331
 5677SOL    HW228665   2.464   4.170   1.736 -0.2822 -0.3002 -0.2923
 5678SOL     OW28666   3.073   4.450   4.445  0.1141  0.0614  0.1816
 5678SOL    HW128667   3.016   4.452   4.522 -3.2806 -1.9719 -2.2224
 5678SOL    HW228668   3.058   4.357   4.426 -2.4259  0.7763 -1.3348
 5679SOL     OW28669   0.886   0.015  14.379  0.1377 -0.0917 -0.2387
 5679SOL    HW128670   0.864   4.718  14.293  1.3952 -0.4056 -0.4187
 5679SOL    HW228671   0.849   0.103  14.370  0.9619  0.3673  0.9402
 5680SOL     OW28672   0.990   4.361   5.252  0.1631 -0.3010 -0.1269
 5680SOL    HW128673   1.083   4.370   5.273 -0.2835  1.5549  1.0773
 5680SOL    HW228674   0.980   4.432   5.190  3.6830  1.8959  1.8225
 5681SOL     OW28675   0.485   2.857   4.156  0.5116 -0.1411 -0.2209
 5681SOL    HW128676   0.512   2.889   4.242 -1.3744  3.7757 -1.0800
 5681SOL    HW228677   0.405   2.910   4.148 -0.6991 -2.1402 -1.2636
 5682SOL     OW28678   3.623   3.545   3.482 -0.2460 -0.3807  0.1325
 5682SOL    HW128679   3.569   3.499   3.418 -3.0422 -0.3207  2.4917
 5682SOL    HW228680   3.607   3.638   3.466  1.0363  0.2117  2.2613
 5683SOL     OW28681   1.763   1.395   7.898 -0.6176 -0.1402  0.0760
 5683SOL    HW128682   1.675   1.379   7.932 -0.5259  0.7277  0.6984
 5683SOL    HW228683   1.792   1.467   7.954 -2.2571  2.1299 -1.9757
 5684SOL     OW28684   2.849   0.221   7.286 -0.9013 -0.3387  0.1037
 5684SOL    HW128685   2.941   0.234   7.308 -1.0741 -0.2957  0.7913
 5684SOL    HW228686   2.822   0.312   7.276 -1.6359 -0.4586  1.0118
 5685SOL     OW28687   3.574   3.490   9.411 -0.7481  0.2250 -0.5943
 5685SOL    HW128688   3.650   3.431   9.406 -0.0001  1.2052 -0.9136
 5685SOL    HW228689   3.529   3.446   9.483 -0.2901 -1.8794 -1.5938
 5686SOL     OW28690   3.464   1.937   1.735  0.2341  0.1068 -0.1485
 5686SOL    HW128691   3.406   1.981   1.798  0.4544 -0.1720  0.2505
 5686SOL    HW228692   3.462   1.992   1.657 -0.8096 -0.1013 -0.2613
 5687SOL     OW28693   1.374   1.480   9.992  0.3001  0.1134  0.5774
 5687SOL    HW128694   1.357   1.387   9.973 -1.1923  0.6452 -0.6057
 5687SOL    HW228695   1.292   1.501  10.036 -0.1808  2.6313 -1.5624
 5688SOL     OW28696   2.007   0.514   0.130 -0.1254  0.0438  0.3319
 5688SOL    HW128697   1.946   0.531   0.201  0.5215 -1.4731  1.2529
 5688SOL    HW228698   2.065   0.452   0.174  2.5294  2.7951  0.7109
 5689SOL     OW28699   2.360   3.660  16.640 -0.2294  0.2929 -0.2078
 5689SOL    HW128700   2.281   3.705  16.614 -0.1742  0.6392  0.2280
 5689SOL    HW228701   2.327   3.608  16.713  0.1985 -0.8178 -0.8042
 5690SOL     OW28702   3.662   2.769   2.331 -0.2571 -0.2016 -0.3939
 5690SOL    HW128703   3.609   2.781   2.411  1.3282 -1.1131  0.7892
 5690SOL    HW228704   3.593   2.752   2.267 -0.0762  0.6974 -0.8304
 5691SOL     OW28705   2.805   1.933   7.834 -0.5961  0.0243  0.3949
 5691SOL    HW128706   2.771   1.848   7.807  1.6348  0.0271 -2.4470
 5691SOL    HW228707   2.725   1.980   7.858 -0.3948  1.2527 -1.3292
 5692SOL     OW28708   1.022   0.089   4.654  0.5049  0.1559  0.4676
 5692SOL    HW128709   1.071   0.074   4.735  2.5364  1.0695 -0.5957
 5692SOL    HW228710   1.054   0.177   4.634  2.9588 -0.2532  2.6399
 5693SOL     OW28711   2.286   1.425   9.448  0.1041 -0.6406  0.1834
 5693SOL    HW128712   2.195   1.426   9.419  0.5303  2.4015 -1.0383
 5693SOL    HW228713   2.268   1.421   9.542 -0.0676 -1.8596  0.1018
 5694SOL     OW28714   1.523   4.430   1.950  0.2942  0.1547  0.1156
 5694SOL    HW128715   1.567   4.483   2.016 -1.7413  3.1143 -0.9168
 5694SOL    HW228716   1.517   4.360   2.015  0.9371 -1.1551 -1.2545
 5695SOL     OW28717   4.678   3.500   7.756 -0.2731  0.6759  0.7456
 5695SOL    HW128718   4.624   3.422   7.773 -0.3752  1.0957  2.3530
 5695SOL    HW228719   0.024   3.459   7.745 -1.7769 -2.8193  1.9059
 5696SOL     OW28720   2.857   2.311   8.105  0.7164  0.0817  0.6024
 5696SOL    HW128721   2.891   2.223   8.125  2.0953  0.4544 -0.0698
 5696SOL    HW228722   2.941   2.353   8.085  1.4253 -2.3956 -1.7501
 5697SOL     OW28723   1.798   4.474   2.784 -0.8226 -0.0947  0.0650
 5697SOL    HW128724   1.893   4.488   2.792 -0.5985 -1.9235  0.6995
 5697SOL    HW228725   1.789   4.474   2.689  0.0176  0.6721 -0.0181
 5698SOL     OW28726   3.494   4.572   6.405  0.3524  0.1019  0.1695
 5698SOL    HW128727   3.438   4.632   6.357  0.7495  0.3135 -0.0280
 5698SOL    HW228728   3.510   4.505   6.338  0.3157 -0.2296  0.4885
 5699SOL     OW28729   1.394   0.866  14.221 -0.0833 -0.3142  0.0179
 5699SOL    HW128730   1.306   0.828  14.212  0.1514 -1.2294  1.6617
 5699SOL    HW228731   1.407   0.894  14.130 -1.9247  0.4827 -0.0143
 5700SOL     OW28732   3.447   4.693   4.151 -0.3987  0.6194 -0.3970
 5700SOL    HW128733   3.531   4.693   4.197 -0.7241 -0.0959  0.1982
 5700SOL    HW228734   3.418   4.604   4.171  0.4958  0.1726 -1.1052
 5701SOL     OW28735   3.137   4.431  14.847  0.1805  0.4758 -0.0465
 5701SOL    HW128736   3.212   4.469  14.893 -0.6252 -2.0105  3.2994
 5701SOL    HW228737   3.064   4.415  14.907  0.5862 -0.2834  0.2365
 5702SOL     OW28738   2.563   0.770   1.639  0.8705 -0.2183  0.0698
 5702SOL    HW128739   2.553   0.677   1.662  0.2925 -0.2891 -0.4681
 5702SOL    HW228740   2.653   0.789   1.666  1.1712  0.5840 -1.5045
 5703SOL     OW28741   4.595   1.367  15.111  0.1013  0.2299  0.3820
 5703SOL    HW128742   4.576   1.458  15.089  0.8433  0.6218  1.3502
 5703SOL    HW228743   4.511   1.322  15.107  0.6042 -0.7146  0.4981
 5704SOL     OW28744   2.636   3.101  16.577  0.4100  0.1323  0.5391
 5704SOL    HW128745   2.608   3.106  16.668  1.4148  0.9413  0.8033
 5704SOL    HW228746   2.707   3.037  16.580  0.0646 -0.3908 -2.4817
 5705SOL     OW28747   2.487   1.574   1.398 -0.3267 -0.4782 -0.2748
 5705SOL    HW128748   2.400   1.553   1.365  0.1792 -1.3133 -1.0717
 5705SOL    HW228749   2.518   1.627   1.324  1.5772  0.1918  0.9980
 5706SOL     OW28750   2.308   2.545   3.382  0.0455  0.2274  0.2703
 5706SOL    HW128751   2.332   2.619   3.326  1.1998  0.0741  0.5628
 5706SOL    HW228752   2.359   2.559   3.462  0.6892 -0.4690 -0.0047
 5707SOL     OW28753   3.032   4.496   8.394  0.7282 -0.1910  0.1142
 5707SOL    HW128754   3.127   4.482   8.400  0.6107 -2.0249 -2.4189
 5707SOL    HW228755   3.012   4.466   8.306  3.1653  1.1615 -0.8927
 5708SOL     OW28756   0.087   2.138  13.628 -0.1625  0.3137 -0.3928
 5708SOL    HW128757   0.054   2.065  13.680 -0.9343  0.2957 -0.9050
 5708SOL    HW228758   0.094   2.205  13.695  0.2977  1.4484 -1.5628
 5709SOL     OW28759   2.523   1.937   8.170 -0.5815  0.2096 -0.8504
 5709SOL    HW128760   2.552   1.912   8.082  0.4832 -0.2950 -0.3533
 5709SOL    HW228761   2.497   2.029   8.163  1.5988  0.8717 -0.2274
 5710SOL     OW28762   4.695   3.602   1.921  0.0655  0.1146 -0.9849
 5710SOL    HW128763   4.675   3.695   1.932  0.6644  0.1739 -0.4058
 5710SOL    HW228764   4.606   3.566   1.913 -0.1803  0.5976 -0.3886
 5711SOL     OW28765   0.121   1.239   6.506  0.0222  0.5326 -0.4755
 5711SOL    HW128766   0.164   1.229   6.591  2.7333 -1.5337 -2.0874
 5711SOL    HW228767   0.201   1.249   6.453  0.8279  0.7996  0.7838
 5712SOL     OW28768   2.307   0.359   1.257  0.3080  0.0549 -0.0386
 5712SOL    HW128769   2.341   0.386   1.171  3.2449 -0.2180  1.0104
 5712SOL    HW228770   2.361   0.280   1.261  1.0722  0.7007  2.5808
 5713SOL     OW28771   4.386   3.248  16.992 -0.6102 -0.2658  0.0660
 5713SOL    HW128772   4.384   3.207  17.079  0.9416 -0.3833  0.0381
 5713SOL    HW228773   4.467   3.211  16.958  0.0253 -0.0263  1.2978
 5714SOL     OW28774   1.974   0.871   2.659 -0.2801  0.4411 -0.1412
 5714SOL    HW128775   2.042   0.834   2.604 -0.8832  0.0926 -0.6478
 5714SOL    HW228776   2.014   0.957   2.675  0.9162 -0.1155 -0.1555
 5715SOL     OW28777   0.522   4.142  14.880 -0.1316  0.0858  0.2934
 5715SOL    HW128778   0.565   4.224  14.856  2.4755 -1.1280  0.8873
 5715SOL    HW228779   0.567   4.088  14.815 -0.6560  1.5572 -1.3051
 5716SOL     OW28780   2.721   0.579   4.307  0.2544 -0.1175  0.4135
 5716SOL    HW128781   2.687   0.631   4.381  0.3013  0.0908  0.2902
 5716SOL    HW228782   2.664   0.503   4.313  0.9146 -0.6275  0.1237
 5717SOL     OW28783   0.559   3.961  11.984 -0.2054 -0.1828  0.7174
 5717SOL    HW128784   0.629   3.986  11.924  0.6295  1.0795  2.2118
 5717SOL    HW228785   0.486   3.945  11.924  0.5105 -0.0581 -0.1887
 5718SOL     OW28786   4.019   3.094   8.166  0.3978  0.2751 -0.3277
 5718SOL    HW128787   4.102   3.136   8.144  1.9025 -2.8952 -0.7581
 5718SOL    HW228788   4.045   3.030   8.232  0.6031 -0.0201 -0.6920
 5719SOL     OW28789   2.848   3.023   4.099 -0.0660  0.3998 -0.4037
 5719SOL    HW128790   2.867   3.060   4.013  1.6222 -1.2656 -0.7451
 5719SOL    HW228791   2.911   3.076   4.148 -0.6130  0.5069  0.1855
 5720SOL     OW28792   4.350   1.442   7.246 -0.2148 -0.1528 -0.4937
 5720SOL    HW128793   4.366   1.485   7.330  1.4062 -1.4196 -0.1384
 5720SOL    HW228794   4.439   1.411   7.227 -0.3599 -1.1454  0.3965
 5721SOL     OW28795   3.373   3.404   6.237 -0.2216 -0.2549 -0.0799
 5721SOL    HW128796   3.424   3.346   6.180  0.8257  1.3207 -0.7337
 5721SOL    HW228797   3.448   3.445   6.279  1.0877 -1.7335 -0.9816
 5722SOL     OW28798   0.825   2.670   4.847  0.0839 -0.1454 -0.1641
 5722SOL    HW128799   0.760   2.661   4.917 -1.5399 -0.5864 -1.7235
 5722SOL    HW228800   0.808   2.592   4.794 -2.1671  0.6595 -0.6400
 5723SOL     OW28801   2.965   1.129  14.451  0.2243  0.1282 -0.5180
 5723SOL    HW128802   2.905   1.202  14.437 -0.7853 -0.7665 -0.9083
 5723SOL    HW228803   2.935   1.106  14.540 -1.7918 -1.4347 -1.5977
 5724SOL     OW28804   2.243   1.190  12.882 -0.6610  0.1722  0.0864
 5724SOL    HW128805   2.338   1.176  12.885 -1.0314 -2.6332 -1.2008
 5724SOL    HW228806   2.215   1.110  12.926 -1.0680 -0.0756 -0.6226
 5725SOL     OW28807   0.906   3.150   2.303  0.4581  0.2410 -0.2037
 5725SOL    HW128808   0.897   3.165   2.397 -0.9971  0.8166 -0.4439
 5725SOL    HW228809   0.818   3.172   2.273  0.8271  1.6880 -0.1915
 5726SOL     OW28810   4.031   3.175   1.579 -0.4586  0.4306 -0.4637
 5726SOL    HW128811   4.047   3.086   1.609  0.7086  0.8040  0.0146
 5726SOL    HW228812   3.949   3.198   1.624 -0.0781 -0.1894  0.5417
 5727SOL     OW28813   1.780   1.721  13.079  0.1804 -0.2953  0.4979
 5727SOL    HW128814   1.830   1.685  13.152  0.4429 -2.2158 -0.6308
 5727SOL    HW228815   1.691   1.738  13.110 -0.7080 -0.0188 -2.2422
 5728SOL     OW28816   4.646   2.154  16.392 -0.4879  0.7980  0.0671
 5728SOL    HW128817   4.736   2.185  16.390 -0.5672  1.1419  1.5254
 5728SOL    HW228818   4.656   2.105  16.310  1.6614 -1.0403  1.4412
 5729SOL     OW28819   1.859   0.445   4.914 -0.5730  0.4431  0.0355
 5729SOL    HW128820   1.818   0.400   4.841  0.3513  1.3645 -1.0483
 5729SOL    HW228821   1.778   0.473   4.958  0.7045  3.9822  0.1926
 5730SOL     OW28822   2.317   1.272   1.194  0.5534 -0.0079 -0.1186
 5730SOL    HW128823   2.248   1.336   1.209  0.3080 -0.3947  0.4046
 5730SOL    HW228824   2.384   1.335   1.166 -0.9370  1.3764 -0.5669
 5731SOL     OW28825   1.721   3.186   2.383  0.0771 -0.2489  0.5750
 5731SOL    HW128826   1.809   3.153   2.398 -0.0366 -1.3642 -1.1427
 5731SOL    HW228827   1.703   3.224   2.469 -0.4687  0.8944 -0.0483
 5732SOL     OW28828   3.436   0.595  14.318  0.1700 -0.4151 -0.2553
 5732SOL    HW128829   3.416   0.582  14.411  0.6577  0.1944 -0.0650
 5732SOL    HW228830   3.426   0.690  14.314  0.4476 -0.3020  2.0539
 5733SOL     OW28831   2.501   0.451   7.500  0.0887 -0.0527 -0.4130
 5733SOL    HW128832   2.447   0.436   7.423  0.9856 -1.0872 -0.8505
 5733SOL    HW228833   2.558   0.525   7.479  1.8339 -0.6727  2.1326
 5734SOL     OW28834   2.009   2.733   2.796 -0.1269 -0.1638 -0.5115
 5734SOL    HW128835   2.039   2.772   2.878 -0.7227  0.2094 -0.4683
 5734SOL    HW228836   2.016   2.640   2.819  1.2663  0.0554 -0.0336
 5735SOL     OW28837   1.077   0.245  12.013 -0.0796 -0.0731 -0.5128
 5735SOL    HW128838   1.126   0.249  12.095 -0.0688  0.5305 -0.5465
 5735SOL    HW228839   1.073   0.150  12.003 -1.7240 -0.0883  0.2665
 5736SOL     OW28840   4.442   3.094  11.988  0.4796 -0.5267 -0.2059
 5736SOL    HW128841   4.381   3.023  11.968 -0.0966 -0.4111  1.1314
 5736SOL    HW228842   4.506   3.057  11.927  2.2256  0.3695  1.0680
 5737SOL     OW28843   1.684   2.228   6.014  0.3552  0.3566 -0.2497
 5737SOL    HW128844   1.687   2.256   5.923 -0.3481  0.7673 -0.1483
 5737SOL    HW228845   1.675   2.133   6.003  0.9499  0.2287  0.3820
 5738SOL     OW28846   4.448   0.199   4.474 -0.8836  1.0612 -0.1669
 5738SOL    HW128847   4.500   0.260   4.423  2.3558  0.1534  2.0700
 5738SOL    HW228848   4.486   0.219   4.560  0.7674  0.0856 -0.6690
 5739SOL     OW28849   4.690   2.623  16.916 -0.5718 -0.0538  0.1283
 5739SOL    HW128850   4.615   2.572  16.946 -1.4504  1.7369  1.0219
 5739SOL    HW228851   4.659   2.660  16.834  0.5747  0.6750  0.0212
 5740SOL     OW28852   3.398   1.970   5.225 -0.7460 -0.1960  0.0411
 5740SOL    HW128853   3.417   2.062   5.204 -0.9834 -0.6940 -2.3537
 5740SOL    HW228854   3.320   1.954   5.172 -0.8146  0.5952 -0.0908
 5741SOL     OW28855   1.655   2.931   8.993 -0.7840  0.1228  0.2164
 5741SOL    HW128856   1.721   2.995   9.021 -1.7471  0.7558  1.0497
 5741SOL    HW228857   1.598   2.947   9.068  0.0335  0.7272  0.6985
 5742SOL     OW28858   1.998   1.486   5.064 -0.2781 -0.9883  0.0746
 5742SOL    HW128859   2.057   1.435   5.119  2.2718  2.7301  0.7880
 5742SOL    HW228860   1.946   1.532   5.130  1.6228  0.6854  0.3846
 5743SOL     OW28861   1.034   2.241   7.893 -0.1098 -0.3038 -0.3448
 5743SOL    HW128862   0.960   2.289   7.856 -1.6580 -2.2132  0.2776
 5743SOL    HW228863   0.996   2.212   7.976 -1.0960  0.4297 -0.5394
 5744SOL     OW28864   2.352   4.303   1.665 -0.5682 -0.3894 -0.2748
 5744SOL    HW128865   2.335   4.350   1.583 -0.1684  0.5516  0.1765
 5744SOL    HW228866   2.308   4.359   1.730 -0.0754 -1.7602  1.2303
 5745SOL     OW28867   2.489   2.563  15.998  0.1419 -0.4400  0.3707
 5745SOL    HW128868   2.454   2.627  15.937 -2.7234 -2.6707 -0.2908
 5745SOL    HW228869   2.406   2.534  16.035  0.0839 -0.9792 -0.1965
 5746SOL     OW28870   1.004   4.693   7.268 -0.4249  0.2812 -0.0974
 5746SOL    HW128871   1.077   4.635   7.291 -1.6098 -0.5365  1.5566
 5746SOL    HW228872   1.047   4.728   7.190  0.7325 -0.2508  0.3052
 5747SOL     OW28873   4.099   2.906   8.361 -0.3660  0.0456  0.5829
 5747SOL    HW128874   4.018   2.854   8.367  0.4928 -1.3206  0.2202
 5747SOL    HW228875   4.140   2.895   8.446  0.6429  0.5131  0.1561
 5748SOL     OW28876   3.262   1.104   9.864  0.4326 -0.2598 -0.2941
 5748SOL    HW128877   3.261   1.063   9.950  0.6519 -0.0385 -0.1849
 5748SOL    HW228878   3.354   1.129   9.859  1.0482 -2.8133 -1.4210
 5749SOL     OW28879   2.839   1.798  15.354 -0.3630 -0.3355  0.0494
 5749SOL    HW128880   2.927   1.767  15.336 -0.1233  0.7681 -0.7040
 5749SOL    HW228881   2.830   1.798  15.449 -0.9125 -0.4555 -0.0036
 5750SOL     OW28882   4.485   4.684  11.257 -0.1043  0.3659  0.6035
 5750SOL    HW128883   4.444   4.728  11.332 -0.2130 -0.9646  1.3205
 5750SOL    HW228884   4.409   4.656  11.206 -0.1513  1.3285  0.1414
 5751SOL     OW28885   3.821   1.741   7.685 -0.3954  0.2331 -0.4720
 5751SOL    HW128886   3.746   1.730   7.628 -1.2367 -2.0770  1.0701
 5751SOL    HW228887   3.818   1.834   7.704 -3.8621  0.4932 -2.4504
 5752SOL     OW28888   0.962   4.513   9.615  0.4844 -0.6539 -0.5052
 5752SOL    HW128889   0.883   4.554   9.580  0.2716 -2.2272 -1.9096
 5752SOL    HW228890   0.982   4.562   9.694 -1.5782 -0.2465 -0.2324
 5753SOL     OW28891   3.426   2.056   8.384 -0.4443 -0.2800 -0.8012
 5753SOL    HW128892   3.433   2.077   8.291  0.9993  1.5069 -0.2749
 5753SOL    HW228893   3.517   2.056   8.413 -0.4411  1.4182 -0.8035
 5754SOL     OW28894   0.124   2.366   4.597  0.1482  0.4785 -0.3217
 5754SOL    HW128895   0.086   2.297   4.542 -2.8982  0.6075  1.6185
 5754SOL    HW228896   0.048   2.382   4.653  1.6860  2.0796  1.2596
 5755SOL     OW28897   2.504   1.110   0.650 -0.3710 -0.7270  0.0584
 5755SOL    HW128898   2.543   1.176   0.593  2.1013 -2.0027  0.2813
 5755SOL    HW228899   2.416   1.147   0.651 -0.6670 -1.3953 -1.6069
 5756SOL     OW28900   1.941   3.168   5.709  0.0180  0.1384 -0.4512
 5756SOL    HW128901   1.956   3.244   5.766  2.9280  0.2142 -1.3359
 5756SOL    HW228902   1.948   3.101   5.777 -1.0197  0.4866  0.0040
 5757SOL     OW28903   4.478   2.342   5.929 -0.0635  0.6913 -0.6790
 5757SOL    HW128904   4.543   2.289   5.883  1.2712  1.2033  0.6181
 5757SOL    HW228905   4.427   2.274   5.973  1.0487 -0.3713 -1.0242
 5758SOL     OW28906   2.027   0.966   1.405 -0.1058 -0.2713 -0.2322
 5758SOL    HW128907   2.020   0.952   1.500  0.5728 -0.6104 -0.2343
 5758SOL    HW228908   2.005   1.059   1.401  1.2261  0.0091 -0.8940
 5759SOL     OW28909   4.221   2.210   8.183  0.3442  0.2951 -0.5156
 5759SOL    HW128910   4.158   2.197   8.111  1.1160 -0.9849 -0.9565
 5759SOL    HW228911   4.199   2.137   8.241 -1.1019  0.2980 -1.0366
 5760SOL     OW28912   0.972   1.498   2.629 -0.2272 -0.4531  0.3557
 5760SOL    HW128913   0.937   1.552   2.558 -0.5489 -1.0614  0.0531
 5760SOL    HW228914   0.889   1.450   2.634  0.7673 -2.2703 -0.8148
 5761SOL     OW28915   0.301   1.160   2.582  0.0558  0.4284  0.8406
 5761SOL    HW128916   0.357   1.097   2.537 -0.9458  0.2837 -0.2044
 5761SOL    HW228917   0.305   1.121   2.669 -2.0607 -1.5330  0.0700
 5762SOL     OW28918   0.287   0.789  10.272  0.0492  0.4616 -0.2528
 5762SOL    HW128919   0.278   0.883  10.254  3.1400  0.6234 -0.9477
 5762SOL    HW228920   0.377   0.776  10.245 -1.0386 -0.4301 -3.4212
 5763SOL     OW28921   1.680   3.411  15.671 -0.6687 -0.8483  0.2896
 5763SOL    HW128922   1.613   3.359  15.627 -0.8272  0.6109 -1.1844
 5763SOL    HW228923   1.643   3.420  15.759 -1.5430 -2.8304  0.1370
 5764SOL     OW28924   1.795   4.345   2.060  0.3673 -0.2060  0.3326
 5764SOL    HW128925   1.722   4.352   2.121  0.5195  0.5162  0.4357
 5764SOL    HW228926   1.808   4.253   2.037  0.8585  0.1848 -0.9853
 5765SOL     OW28927   0.938   1.031   3.209  0.4547  0.5447  0.1703
 5765SOL    HW128928   0.973   0.942   3.202  1.1195  0.8095  0.1429
 5765SOL    HW228929   1.011   1.089   3.189  1.3427 -1.4452 -2.3410
 5766SOL     OW28930   3.920   3.667   2.131  0.0831 -0.3605  0.3837
 5766SOL    HW128931   3.963   3.747   2.163  0.9703  0.2245 -2.3036
 5766SOL    HW228932   3.964   3.667   2.046  0.5875  2.5740  0.6362
 5767SOL     OW28933   4.136   3.844  16.211  0.1768  0.6627 -0.7056
 5767SOL    HW128934   4.123   3.793  16.131  0.5130 -0.5310 -0.0014
 5767SOL    HW228935   4.232   3.833  16.211  0.0195 -0.7123  0.2871
 5768SOL     OW28936   0.098   1.269  11.808 -0.0842  0.2654 -0.2152
 5768SOL    HW128937   0.049   1.220  11.875  1.1475  0.8204  1.0803
 5768SOL    HW228938   0.157   1.336  11.842  1.7366 -2.2069  1.5313
 5769SOL     OW28939   0.139   2.165   6.838  0.3792  0.1933 -0.7628
 5769SOL    HW128940   0.216   2.218   6.854  0.9935 -1.6248  2.3885
 5769SOL    HW228941   0.074   2.234   6.824  1.0659  0.5223 -2.3277
 5770SOL     OW28942   0.958   1.554   5.891  0.2302 -0.1067 -0.5805
 5770SOL    HW128943   0.997   1.629   5.846  3.2120 -1.0287  0.4954
 5770SOL    HW228944   1.035   1.498   5.885 -0.9586 -1.9990  1.7058
 5771SOL     OW28945   2.496   1.324   1.872 -0.9950 -0.5886  0.3518
 5771SOL    HW128946   2.504   1.411   1.831 -1.8085 -0.0615  1.3261
 5771SOL    HW228947   2.402   1.324   1.887 -1.4206 -1.6963 -2.2939
 5772SOL     OW28948   4.049   1.999   2.588 -0.1891 -0.3004 -0.3111
 5772SOL    HW128949   4.073   2.086   2.619 -0.2462 -0.1705 -0.6278
 5772SOL    HW228950   4.008   2.017   2.503 -0.6941  0.8210  0.1762
 5773SOL     OW28951   3.902   3.315   6.054 -0.4696 -0.2319 -0.1432
 5773SOL    HW128952   3.949   3.232   6.045  2.3243  1.4976 -1.2641
 5773SOL    HW228953   3.846   3.332   5.978 -0.0069  0.1766 -0.3885
 5774SOL     OW28954   4.699   0.632  17.473 -0.2757  0.3758  0.2892
 5774SOL    HW128955   4.612   0.639  17.511  0.4175 -0.3177  1.9662
 5774SOL    HW228956   4.676   0.656  17.383  0.3361 -2.0934 -0.5171
 5775SOL     OW28957   1.136   0.543  15.102  0.7351 -0.4787 -0.0938
 5775SOL    HW128958   1.137   0.638  15.103 -1.3549 -0.4560 -1.5164
 5775SOL    HW228959   1.076   0.528  15.029  0.3384 -0.9669  0.3332
 5776SOL     OW28960   1.032   2.862   1.072  0.3227 -1.2670  0.2035
 5776SOL    HW128961   1.066   2.948   1.047 -2.2956  0.5475  2.8247
 5776SOL    HW228962   0.982   2.884   1.151 -0.3031 -2.7345  0.2213
 5777SOL     OW28963   2.782   2.007   9.080  0.2215  0.9503 -0.3662
 5777SOL    HW128964   2.749   1.924   9.045 -1.3152  1.7546 -0.8390
 5777SOL    HW228965   2.699   2.052   9.095 -0.0118  0.7156 -0.9490
 5778SOL     OW28966   4.522   2.857   4.876  0.3917  0.0611  0.2996
 5778SOL    HW128967   4.566   2.938   4.899 -1.1695  1.2993 -1.0905
 5778SOL    HW228968   4.468   2.851   4.955  0.0623 -0.0872  0.0647
 5779SOL     OW28969   3.320   2.680   1.368 -0.0857  0.1601  0.5587
 5779SOL    HW128970   3.332   2.696   1.274 -0.0421 -3.0531  0.0072
 5779SOL    HW228971   3.407   2.689   1.407 -0.0896  0.0337  0.5972
 5780SOL     OW28972   3.560   3.114   9.314 -0.3528 -0.0802 -0.5957
 5780SOL    HW128973   3.617   3.191   9.319 -2.2202  1.1665  1.5983
 5780SOL    HW228974   3.614   3.050   9.267 -2.9912 -1.4143 -1.7907
 5781SOL     OW28975   1.855   1.681   7.373  0.0139  0.2672 -0.0295
 5781SOL    HW128976   1.835   1.596   7.333 -1.5632  0.1727  0.9361
 5781SOL    HW228977   1.843   1.646   7.462 -0.3838  1.0186  0.2152
 5782SOL     OW28978   2.662   2.956   7.689 -0.2165 -0.3982  0.2218
 5782SOL    HW128979   2.698   2.957   7.777  0.6090 -0.5768 -0.1164
 5782SOL    HW228980   2.632   3.047   7.685 -0.9221 -0.6873 -1.0111
 5783SOL     OW28981   3.550   0.248  12.143 -0.3825  0.5589 -0.5805
 5783SOL    HW128982   3.461   0.284  12.145  0.1504  1.7814  1.3917
 5783SOL    HW228983   3.534   0.157  12.119  3.2091 -0.9278  2.6353
 5784SOL     OW28984   4.484   1.757   6.302  0.0402  0.2303  0.1357
 5784SOL    HW128985   4.491   1.685   6.365  0.9408  0.1017 -0.1239
 5784SOL    HW228986   4.399   1.742   6.260  0.1527  1.1199 -0.4068
 5785SOL     OW28987   4.132   1.968   3.767 -0.3837  0.4962 -0.1026
 5785SOL    HW128988   4.070   1.905   3.730  0.2609 -0.1817 -0.0320
 5785SOL    HW228989   4.117   1.951   3.860 -0.4914 -0.6016 -0.3196
 5786SOL     OW28990   3.975   1.557  15.956  0.9226 -0.0680 -0.1248
 5786SOL    HW128991   3.931   1.605  16.026  1.4888 -1.2128  1.0196
 5786SOL    HW228992   3.935   1.584  15.873 -1.0268  0.8831  1.1165
 5787SOL     OW28993   2.977   3.582  14.471 -0.4589  0.2771  0.1534
 5787SOL    HW128994   2.881   3.583  14.474 -0.3898  2.0968  1.7458
 5787SOL    HW228995   2.993   3.667  14.512 -1.6337  1.5919 -2.0692
 5788SOL     OW28996   3.163   0.562   0.814  0.0678 -0.0677  0.1641
 5788SOL    HW128997   3.123   0.542   0.729 -0.4221 -0.5847  0.5179
 5788SOL    HW228998   3.254   0.554   0.787  0.3782  0.5039  1.0412
 5789SOL     OW28999   3.484   4.335   2.778  0.1212  0.1619  0.3564
 5789SOL    HW129000   3.519   4.255   2.817  0.4895  0.2843  0.2715
 5789SOL    HW229001   3.395   4.310   2.753 -0.1056  1.0103  0.3117
 5790SOL     OW29002   1.739   3.338  12.425 -0.1118 -0.0381  0.0839
 5790SOL    HW129003   1.666   3.399  12.428 -0.8045 -0.8008 -1.3486
 5790SOL    HW229004   1.707   3.256  12.463 -0.3499 -0.0328 -0.1071
 5791SOL     OW29005   1.211   3.779   5.887  0.1729 -0.0329 -0.0900
 5791SOL    HW129006   1.149   3.773   5.814 -0.0357  0.6194  0.0332
 5791SOL    HW229007   1.282   3.814   5.834  0.0956 -0.0507 -0.2059
 5792SOL     OW29008   4.538   1.239   2.496  0.1010 -0.1939 -0.2542
 5792SOL    HW129009   4.559   1.209   2.584 -0.1482  0.5334  0.0474
 5792SOL    HW229010   4.459   1.291   2.510  0.7498  0.8724 -0.5637
 5793SOL     OW29011   3.373   0.050   6.052  0.0186  0.3999  0.1485
 5793SOL    HW129012   3.330   0.109   6.114  0.7845  0.7872  0.3183
 5793SOL    HW229013   3.349   0.098   5.973 -0.6876  0.3841  0.3547
 5794SOL     OW29014   3.918   4.454   6.525  0.3897 -0.5958 -1.0299
 5794SOL    HW129015   3.855   4.466   6.454  1.2056  3.9805 -0.9220
 5794SOL    HW229016   3.877   4.376   6.562  0.0699  0.1038  0.0861
 5795SOL     OW29017   3.622   1.577   2.773  0.4250 -0.8540  0.2602
 5795SOL    HW129018   3.638   1.500   2.717 -0.1126 -0.4484 -0.4498
 5795SOL    HW229019   3.624   1.653   2.715 -2.3454 -1.1565 -0.2190
 5796SOL     OW29020   0.535   3.844   6.674  0.5819  0.1623  0.1656
 5796SOL    HW129021   0.582   3.885   6.601 -1.6444  0.8252 -0.8955
 5796SOL    HW229022   0.485   3.921   6.701  0.8319  0.5990 -0.5915
 5797SOL     OW29023   3.908   0.968   7.642 -0.0465  0.1608  0.1573
 5797SOL    HW129024   3.972   0.900   7.665  0.4413  0.0874 -1.3736
 5797SOL    HW229025   3.878   0.925   7.562 -2.5001 -0.2119  1.2982
 5798SOL     OW29026   0.761   0.274   0.680  0.6299 -0.3157  0.0142
 5798SOL    HW129027   0.771   0.200   0.740 -1.4662 -0.0884  0.6237
 5798SOL    HW229028   0.675   0.305   0.707  0.3453  1.3308 -2.7133
 5799SOL     OW29029   3.689   0.281   8.058  0.0642 -0.4234  0.2313
 5799SOL    HW129030   3.758   0.294   7.993  0.1847  0.5612  0.5537
 5799SOL    HW229031   3.727   0.204   8.102  3.2295  0.8186 -0.3374
 5800SOL     OW29032   2.934   0.172   0.643  0.3276 -0.3982 -0.2882
 5800SOL    HW129033   2.980   0.254   0.623  1.5567 -0.5523  1.9530
 5800SOL    HW229034   3.007   0.120   0.610 -0.3210 -0.9917 -0.8014
 5801SOL     OW29035   0.596   2.899   4.899  0.2347  0.4780  0.7516
 5801SOL    HW129036   0.623   2.948   4.977 -1.1492  0.4571  1.2365
 5801SOL    HW229037   0.514   2.865   4.933  0.1608  0.2677  0.3605
 5802SOL     OW29038   1.885   3.687   2.840 -0.0063 -0.3194  0.2507
 5802SOL    HW129039   1.960   3.628   2.842 -0.0852 -0.3422  2.2305
 5802SOL    HW229040   1.829   3.636   2.782  1.9399 -0.9439 -1.0804
 5803SOL     OW29041   4.660   4.478   9.317  0.3625  0.3301  0.3053
 5803SOL    HW129042   4.576   4.502   9.356 -0.3487  0.0394 -1.0554
 5803SOL    HW229043   4.722   4.547   9.342  1.2046 -0.5970  0.7957
 5804SOL     OW29044   0.505   3.111   3.388  0.3597  0.0650  0.1032
 5804SOL    HW129045   0.481   3.052   3.317 -0.6887  2.1660 -1.2824
 5804SOL    HW229046   0.580   3.161   3.355  0.1657  2.3148  2.9833
 5805SOL     OW29047   4.011   1.630   2.655  0.3184  0.4918 -0.3947
 5805SOL    HW129048   4.048   1.547   2.684  0.7981  1.4209  1.7358
 5805SOL    HW229049   4.000   1.633   2.560 -1.3887 -2.2745 -0.2685
 5806SOL     OW29050   3.249   3.525  10.064 -0.4226 -0.3389  0.1021
 5806SOL    HW129051   3.249   3.445  10.011 -0.5287 -1.2919  1.5409
 5806SOL    HW229052   3.337   3.540  10.099 -1.9140  3.1060  2.3837
 5807SOL     OW29053   3.942   2.928  11.677  0.4180 -0.2142  0.0430
 5807SOL    HW129054   3.855   2.892  11.661 -0.0329  0.1631  1.5503
 5807SOL    HW229055   3.972   2.850  11.724 -0.8594  0.0683  1.3441
 5808SOL     OW29056   4.644   2.235  16.852  0.8119 -0.1003  0.3527
 5808SOL    HW129057   4.635   2.208  16.943  0.2509 -0.5415  0.1581
 5808SOL    HW229058   4.551   2.240  16.830  0.5207  2.0105  1.9908
 5809SOL     OW29059   4.538   4.585   4.861 -0.7337  0.2950  0.1865
 5809SOL    HW129060   4.472   4.548   4.803  0.1157 -0.3136 -0.3861
 5809SOL    HW229061   4.608   4.523   4.842 -2.2721 -1.2643 -0.3523
 5810SOL     OW29062   0.715   1.624   7.966  0.0201  0.4811  0.1531
 5810SOL    HW129063   0.783   1.560   7.986 -1.6826 -1.5021 -0.4028
 5810SOL    HW229064   0.778   1.697   7.958  0.2193  0.2748 -0.1909
 5811SOL     OW29065   4.139   1.697   1.241  0.3241  0.0963 -0.2266
 5811SOL    HW129066   4.222   1.718   1.199  2.1300 -0.7962  2.9056
 5811SOL    HW229067   4.075   1.756   1.201 -0.9781 -0.8301  0.4786
 5812SOL     OW29068   2.085   1.514   1.545  0.0785 -0.0265  0.7200
 5812SOL    HW129069   2.015   1.540   1.604 -1.7032 -2.6214 -0.2500
 5812SOL    HW229070   2.139   1.453   1.594  1.0041  1.3897  1.4799
 5813SOL     OW29071   1.341   0.280   4.525 -0.0704 -0.1031 -0.2252
 5813SOL    HW129072   1.428   0.242   4.539  1.1317  2.1411 -1.5694
 5813SOL    HW229073   1.368   0.370   4.506 -0.9501  0.4042  0.9608
 5814SOL     OW29074   2.683   2.625   0.322  0.0634 -0.2240  0.1638
 5814SOL    HW129075   2.660   2.654   0.233  2.0031 -2.3924 -1.0406
 5814SOL    HW229076   2.605   2.646   0.373 -0.9886 -2.5822 -0.4478
 5815SOL     OW29077   3.752   0.426   0.608 -0.2265 -0.1676 -0.2475
 5815SOL    HW129078   3.701   0.361   0.657 -0.2538 -0.4234 -0.6164
 5815SOL    HW229079   3.819   0.371   0.569 -0.0470 -0.5069  0.5495
 5816SOL     OW29080   1.614   1.852   5.805  0.5451  0.4665  0.1619
 5816SOL    HW129081   1.652   1.764   5.809 -2.1418 -0.7333 -0.3895
 5816SOL    HW229082   1.599   1.864   5.899 -0.1768 -1.5394  0.3161
 5817SOL     OW29083   1.909   1.264   2.974  0.0986  0.3906  0.2664
 5817SOL    HW129084   2.001   1.265   2.946  0.7255  0.9840  2.3537
 5817SOL    HW229085   1.880   1.179   2.942  2.8860  0.0494 -1.3179
 5818SOL     OW29086   1.860   4.268  16.728  0.1594  0.2088  0.1787
 5818SOL    HW129087   1.923   4.284  16.658 -0.7665  0.1330 -0.6735
 5818SOL    HW229088   1.832   4.182  16.698 -0.5937 -0.0527  1.6169
 5819SOL     OW29089   2.106   3.367   3.688  0.2658 -0.6809 -0.3080
 5819SOL    HW129090   2.148   3.453   3.692 -0.2225 -0.4883  0.5897
 5819SOL    HW229091   2.019   3.404   3.700  0.3769 -1.1912  2.1111
 5820SOL     OW29092   1.838   2.279  16.191 -0.1168  0.2899 -0.0637
 5820SOL    HW129093   1.866   2.200  16.238 -1.7224 -0.8766 -1.0834
 5820SOL    HW229094   1.755   2.247  16.157 -0.3656  2.8543 -1.8206
 5821SOL     OW29095   3.692   3.248   3.911  0.0932 -0.1573  0.3690
 5821SOL    HW129096   3.779   3.216   3.889  0.3027 -0.8636  2.2795
 5821SOL    HW229097   3.711   3.337   3.942 -2.2673  0.8882 -1.1276
 5822SOL     OW29098   2.950   2.135   7.656  0.0555  0.4100  0.4052
 5822SOL    HW129099   3.001   2.067   7.612 -1.2131  0.4749 -1.2074
 5822SOL    HW229100   2.909   2.087   7.728  1.0267 -0.4648  0.3734
 5823SOL     OW29101   3.436   0.929  17.210 -0.1237 -0.3820  0.1921
 5823SOL    HW129102   3.410   0.841  17.236  1.5873 -0.4429  1.6803
 5823SOL    HW229103   3.348   0.961  17.188 -0.2597 -0.7756  0.1631
 5824SOL     OW29104   2.369   3.077   9.430  0.4748 -0.3637 -0.1688
 5824SOL    HW129105   2.438   3.012   9.415 -1.0312 -1.8249 -0.7073
 5824SOL    HW229106   2.376   3.136   9.355  0.2475  0.7692  0.7085
 5825SOL     OW29107   3.271   0.802  14.170  0.5508  0.3418  0.6534
 5825SOL    HW129108   3.263   0.879  14.112  0.7553 -0.8067 -0.9049
 5825SOL    HW229109   3.239   0.835  14.254 -0.2303  0.3211  0.3602
 5826SOL     OW29110   0.037   2.544   8.852 -0.2566  0.3054  0.0470
 5826SOL    HW129111   0.014   2.572   8.763 -0.1402  0.1951 -0.0170
 5826SOL    HW229112   4.696   2.505   8.887  0.5602  0.2628  1.8527
 5827SOL     OW29113   4.552   0.767   0.964 -0.1853 -0.5755  0.0387
 5827SOL    HW129114   4.461   0.777   0.989 -0.4310 -0.8681 -0.7500
 5827SOL    HW229115   4.566   0.802   0.876 -2.3423 -2.4390 -1.0187
 5828SOL     OW29116   3.515   1.684  17.526  0.6371 -0.7892  0.4066
 5828SOL    HW129117   3.546   1.679  17.616 -0.8096  0.1463  0.9645
 5828SOL    HW229118   3.454   1.610  17.529 -0.5004  0.1409  0.4258
 5829SOL     OW29119   0.565   4.385   3.564 -0.5213 -0.1016  0.5538
 5829SOL    HW129120   0.515   4.304   3.556  0.7109 -0.6633 -1.5490
 5829SOL    HW229121   0.612   4.389   3.481  1.7993  1.5393  1.9237
 5830SOL     OW29122   3.877   2.509   7.318  0.9601 -0.1668 -0.4634
 5830SOL    HW129123   3.793   2.530   7.276 -0.2678 -0.4899  1.8677
 5830SOL    HW229124   3.860   2.566   7.393 -0.7243  1.0866 -1.7859
 5831SOL     OW29125   1.532   4.478  15.991 -0.0544  0.6069  0.8285
 5831SOL    HW129126   1.597   4.451  15.926 -0.1012  0.7245  0.7322
 5831SOL    HW229127   1.502   4.392  16.020 -1.0651  0.2113 -1.4212
 5832SOL     OW29128   0.617   2.568   8.239  0.2048 -0.5697  0.3595
 5832SOL    HW129129   0.525   2.545   8.228 -0.0190 -0.0480  1.1624
 5832SOL    HW229130   0.664   2.486   8.230  0.3063 -0.4802  0.0780
 5833SOL     OW29131   2.504   1.586   4.238 -0.0941  0.0821  0.0937
 5833SOL    HW129132   2.527   1.562   4.328 -4.0176 -0.0352  1.0483
 5833SOL    HW229133   2.505   1.681   4.245 -2.0809  0.0975  0.0545
 5834SOL     OW29134   4.030   4.626  14.191 -0.1824 -0.2023 -0.1813
 5834SOL    HW129135   4.123   4.646  14.201 -0.1572 -1.3253  1.7106
 5834SOL    HW229136   3.994   4.678  14.262  0.9233 -0.8025  0.8109
 5835SOL     OW29137   3.244   0.204   0.350 -0.2615 -0.1739  0.3630
 5835SOL    HW129138   3.297   0.133   0.313  0.5041  1.1026 -0.9846
 5835SOL    HW229139   3.291   0.232   0.429  0.0669 -1.3151  0.5813
 5836SOL     OW29140   0.044   3.586   2.466  0.8434  0.0900 -0.0257
 5836SOL    HW129141   0.058   3.494   2.444  2.0268  0.2952 -0.1388
 5836SOL    HW229142   0.060   3.624   2.379 -0.4172  0.1859 -0.2142
 5837SOL     OW29143   2.351   2.676  10.349 -0.2951  0.1966  0.4465
 5837SOL    HW129144   2.408   2.703  10.277 -1.2486  0.8341 -0.0588
 5837SOL    HW229145   2.270   2.724  10.334 -1.1296 -0.7671  1.7820
 5838SOL     OW29146   2.981   0.530  11.434 -0.8888  0.0291  0.0805
 5838SOL    HW129147   2.904   0.569  11.392 -2.1597 -0.7697  1.6579
 5838SOL    HW229148   3.016   0.595  11.495 -0.4854 -0.5453  0.4587
 5839SOL     OW29149   2.176   4.373  17.282 -0.0224 -0.6679  0.0827
 5839SOL    HW129150   2.228   4.326  17.217 -1.9629  0.9511 -2.6558
 5839SOL    HW229151   2.223   4.454  17.298 -1.8230  0.4446 -0.2035
 5840SOL     OW29152   4.097   4.614   4.671  0.1230 -0.2345 -0.1917
 5840SOL    HW129153   4.175   4.563   4.692 -1.7003 -2.0346  2.1919
 5840SOL    HW229154   4.067   4.647   4.755  0.2280 -0.1438 -0.1899
 5841SOL     OW29155   0.610   3.791  12.438 -0.1092 -0.2735  0.4944
 5841SOL    HW129156   0.587   3.862  12.377  0.0660  0.2568  1.0491
 5841SOL    HW229157   0.533   3.734  12.440  0.4818 -1.0747  0.6414
 5842SOL     OW29158   3.912   4.690   0.864  0.3348 -0.1926  0.0188
 5842SOL    HW129159   3.971   0.015   0.824  0.5507  1.7037  3.4084
 5842SOL    HW229160   3.908   4.724   0.953  0.2448  0.6451 -0.3010
 5843SOL     OW29161   0.193   2.815   3.578 -0.7504  0.2456 -0.0447
 5843SOL    HW129162   0.262   2.749   3.589  0.2662  1.3957  0.4654
 5843SOL    HW229163   0.119   2.760   3.602 -0.7487  0.3334  0.1612
 5844SOL     OW29164   0.243   2.185  11.830  0.0007  0.0323 -0.2174
 5844SOL    HW129165   0.222   2.278  11.815  0.4597  0.1995  0.1685
 5844SOL    HW229166   0.187   2.150  11.761  0.2883  1.4798 -1.2006
 5845SOL     OW29167   3.020   0.780  11.569  0.1386  0.2683 -0.0701
 5845SOL    HW129168   3.002   0.827  11.488 -1.3921  0.7376  0.5404
 5845SOL    HW229169   2.949   0.810  11.626  0.1155  2.9520 -1.5368
 5846SOL     OW29170   4.726   4.229   2.508  0.1277  0.4305  0.7603
 5846SOL    HW129171   4.701   4.321   2.503 -0.1693  0.3282  0.3882
 5846SOL    HW229172   0.043   4.228   2.431 -0.8453  0.8671  0.0451
 5847SOL     OW29173   2.484   0.026   4.575 -0.2053  0.0941  0.0731
 5847SOL    HW129174   2.426   0.040   4.500 -0.2775 -1.3137 -0.1403
 5847SOL    HW229175   2.519   0.114   4.592 -0.6427  0.0177  1.3635
 5848SOL     OW29176   3.506   0.178   2.737 -0.0321  0.2210 -0.2979
 5848SOL    HW129177   3.549   0.107   2.784 -0.1313 -0.1575 -0.7820
 5848SOL    HW229178   3.457   0.211   2.813  2.1559 -0.3867  1.3537
 5849SOL     OW29179   1.089   1.789   2.375 -0.2361 -0.6616 -0.1100
 5849SOL    HW129180   1.008   1.748   2.407 -0.3325  0.3296  0.9438
 5849SOL    HW229181   1.147   1.715   2.391 -2.7027 -1.8234  3.4451
 5850SOL     OW29182   3.267   4.294   8.055  0.2694 -0.2980  0.3784
 5850SOL    HW129183   3.263   4.363   7.990  2.1050  0.5867  1.1947
 5850SOL    HW229184   3.242   4.216   8.006 -0.4390  0.1965 -0.0459
 5851SOL     OW29185   1.863   0.505  17.609 -0.0402  0.8778 -0.2789
 5851SOL    HW129186   1.794   0.443  17.583  0.7734 -0.6502  1.2795
 5851SOL    HW229187   1.886   0.462  17.691 -0.9057  0.5935 -0.1795
 5852SOL     OW29188   3.220   3.044   8.344  0.1853  0.2219 -0.4646
 5852SOL    HW129189   3.297   3.001   8.380  1.2003  1.6518 -0.9363
 5852SOL    HW229190   3.206   3.022   8.252 -0.2883  0.5389 -0.4758
 5853SOL     OW29191   1.257   2.199  11.151  0.2954  0.5478 -0.3381
 5853SOL    HW129192   1.309   2.122  11.131 -0.3650 -0.4671  1.9537
 5853SOL    HW229193   1.303   2.232  11.228 -1.6123  2.8520 -0.1766
 5854SOL     OW29194   3.742   3.280  11.573  0.6720  0.6013 -0.4188
 5854SOL    HW129195   3.672   3.242  11.626  1.9384  0.4453  1.1274
 5854SOL    HW229196   3.700   3.364  11.553  0.9679  0.8148 -0.1510
 5855SOL     OW29197   0.940   3.692   3.001 -0.2649 -0.1120 -0.5209
 5855SOL    HW129198   0.915   3.783   3.017  1.5057  0.1657  0.5656
 5855SOL    HW229199   0.856   3.648   2.990  0.6468 -1.7832 -0.8115
 5856SOL     OW29200   1.883   3.335   8.407  0.2272  0.2862 -0.1283
 5856SOL    HW129201   1.952   3.292   8.458 -0.5791 -1.8080 -0.8058
 5856SOL    HW229202   1.812   3.272   8.395  1.1456 -0.7796 -0.0120
 5857SOL     OW29203   2.849   3.667   8.218  0.3192 -0.2261 -0.8537
 5857SOL    HW129204   2.759   3.658   8.252  0.2054  1.6705 -0.6136
 5857SOL    HW229205   2.884   3.579   8.218  1.2925  0.1570  0.2982
 5858SOL     OW29206   2.793   1.683   9.455  0.3448 -0.3290 -0.6117
 5858SOL    HW129207   2.714   1.682   9.402  0.4899  1.6107 -0.8884
 5858SOL    HW229208   2.857   1.723   9.395 -0.4475  3.2576  0.9620
 5859SOL     OW29209   4.119   3.363   1.842  0.0582  0.3246 -0.0413
 5859SOL    HW129210   4.029   3.334   1.856  0.9532 -1.3417  2.1757
 5859SOL    HW229211   4.162   3.290   1.798  0.7914 -0.7240  2.4108
 5860SOL     OW29212   2.277   3.257  16.593  0.6242 -0.3933  0.2006
 5860SOL    HW129213   2.241   3.179  16.634  1.6870 -1.2828 -0.5444
 5860SOL    HW229214   2.233   3.254  16.508 -0.2864  1.0001  0.6197
 5861SOL     OW29215   1.242   1.978  13.866  0.0742  0.3396 -0.4833
 5861SOL    HW129216   1.326   1.998  13.907 -0.4078  1.0334  0.1433
 5861SOL    HW229217   1.271   1.905  13.811 -2.9676 -0.5479 -0.8899
 5862SOL     OW29218   0.319   1.630   2.901  0.2479 -0.3556 -0.6076
 5862SOL    HW129219   0.414   1.631   2.916  0.2954  1.6672 -1.0600
 5862SOL    HW229220   0.293   1.559   2.960  1.1482 -1.0255 -1.0069
 5863SOL     OW29221   4.438   3.555   7.963 -0.4036 -0.2598 -0.2577
 5863SOL    HW129222   4.462   3.467   7.933  0.4181 -0.5442  1.2395
 5863SOL    HW229223   4.382   3.599   7.899 -0.1508 -0.1384 -0.3968
 5864SOL     OW29224   3.258   3.920   1.561 -0.1401  0.3266  0.2802
 5864SOL    HW129225   3.248   3.984   1.631 -1.4971 -1.2290  1.5044
 5864SOL    HW229226   3.168   3.916   1.530  0.2627  0.2696 -0.8997
 5865SOL     OW29227   2.693   3.922   2.615 -0.1320 -0.3909  0.5367
 5865SOL    HW129228   2.637   3.971   2.555  0.8567  0.0112 -0.0572
 5865SOL    HW229229   2.771   3.977   2.606 -1.5551  1.7454  1.0769
 5866SOL     OW29230   1.151   1.943  16.186  0.4742 -0.6212 -0.2081
 5866SOL    HW129231   1.127   2.018  16.239 -0.1659  0.3841 -1.9136
 5866SOL    HW229232   1.145   1.975  16.096  0.6115  2.4337  0.8555
 5867SOL     OW29233   2.214   0.552   2.133  0.2136 -0.2344  0.3510
 5867SOL    HW129234   2.303   0.582   2.116 -1.0148  3.1116 -0.1475
 5867SOL    HW229235   2.218   0.499   2.213 -1.6762 -0.1612  0.4927
 5868SOL     OW29236   2.203   3.244   8.313  0.5773 -0.4278 -0.1660
 5868SOL    HW129237   2.298   3.232   8.313  0.3592 -2.3705 -2.5311
 5868SOL    HW229238   2.191   3.338   8.321 -2.1198 -0.8951  1.3916
 5869SOL     OW29239   2.615   3.026   1.586 -0.3595 -0.6041 -0.5049
 5869SOL    HW129240   2.633   2.949   1.640 -0.8790  0.5274  1.2579
 5869SOL    HW229241   2.679   3.018   1.515 -0.8023 -0.6568 -0.8948
 5870SOL     OW29242   3.611   0.596   2.723  0.7351  0.4975  0.2293
 5870SOL    HW129243   3.541   0.654   2.753 -0.5123 -0.1253 -1.4886
 5870SOL    HW229244   3.558   0.532   2.676  2.1956 -0.0778 -0.6269
 5871SOL     OW29245   3.883   1.609  14.963 -0.0110 -0.2860  0.0264
 5871SOL    HW129246   3.791   1.619  14.939  0.3564  0.0658 -1.2379
 5871SOL    HW229247   3.903   1.702  14.977 -0.9077 -0.3414  1.7693
 5872SOL     OW29248   3.318   3.985  15.550 -0.2673  0.0437  0.7198
 5872SOL    HW129249   3.242   3.933  15.524 -1.2727  2.0289 -0.2941
 5872SOL    HW229250   3.353   3.945  15.630  1.4379 -0.6508 -0.3871
 5873SOL     OW29251   4.621   0.540   6.470  0.7446 -0.4644  0.6089
 5873SOL    HW129252   4.710   0.514   6.494  0.5353 -4.5082 -2.8933
 5873SOL    HW229253   4.594   0.467   6.413 -2.2641  1.3335 -0.2673
 5874SOL     OW29254   1.062   4.162   4.813  0.0575 -0.1594 -0.0026
 5874SOL    HW129255   1.046   4.086   4.757  0.6812  0.4698 -1.0172
 5874SOL    HW229256   1.103   4.113   4.884 -0.1598  1.6630  1.3651
 5875SOL     OW29257   1.676   2.794   7.639 -0.3733  0.2545  0.2222
 5875SOL    HW129258   1.724   2.725   7.592  3.2796  0.7192  3.2665
 5875SOL    HW229259   1.749   2.846   7.673  0.8060 -1.6854  0.6654
 5876SOL     OW29260   0.292   3.425   2.807 -0.0958 -0.0464  0.0436
 5876SOL    HW129261   0.201   3.452   2.792 -0.5991 -1.5513  0.4437
 5876SOL    HW229262   0.272   3.336   2.778  2.4580 -0.1204 -1.4753
 5877SOL     OW29263   3.638   2.183   9.793  0.2176  0.7341  0.7839
 5877SOL    HW129264   3.695   2.207   9.866  0.8650  0.0705  0.4942
 5877SOL    HW229265   3.586   2.263   9.786  0.3211  0.8430  1.2750
 5878SOL     OW29266   1.928   1.445   8.648  0.3347 -0.5591  0.2471
 5878SOL    HW129267   1.871   1.488   8.583  0.4103 -0.3486  0.3176
 5878SOL    HW229268   1.872   1.403   8.712  0.0648 -2.9695 -1.5714
 5879SOL     OW29269   2.898   3.356   1.203 -0.1244 -0.7841 -0.1405
 5879SOL    HW129270   2.950   3.283   1.167  1.9171  0.8153 -0.4547
 5879SOL    HW229271   2.830   3.304   1.247 -0.3482  0.9770  1.5801
 5880SOL     OW29272   2.542   1.906   0.745  0.9905  0.0517  0.1367
 5880SOL    HW129273   2.471   1.963   0.776  1.3001  0.8203 -0.5881
 5880SOL    HW229274   2.617   1.964   0.738 -0.1201  1.7216  1.9906
 5881SOL     OW29275   3.495   1.919   3.533 -0.3257 -0.5769  0.5620
 5881SOL    HW129276   3.576   1.942   3.578 -0.4475  3.5113 -1.2623
 5881SOL    HW229277   3.520   1.925   3.441 -0.3707  0.1230  0.5883
 5882SOL     OW29278   0.062   3.252   5.924 -0.2327  0.3968  0.6978
 5882SOL    HW129279   4.712   3.285   5.922 -0.4540 -0.3589 -1.5546
 5882SOL    HW229280   0.071   3.242   6.019 -0.0392  1.6004  0.8066
 5883SOL     OW29281   2.589   2.177  12.278  0.1919  0.5733 -0.1149
 5883SOL    HW129282   2.570   2.241  12.347  1.0660 -2.7214  3.1543
 5883SOL    HW229283   2.503   2.133  12.279 -0.1099  1.1746  0.7568
 5884SOL     OW29284   0.892   3.416   8.120 -0.2389  0.1753 -0.2806
 5884SOL    HW129285   0.908   3.323   8.136  3.1788  0.8974  0.6684
 5884SOL    HW229286   0.876   3.402   8.027  0.9389 -0.0437 -0.4523
 5885SOL     OW29287   3.905   4.093  10.407  0.3654 -0.3463  0.0169
 5885SOL    HW129288   3.956   4.108  10.486  2.0977  0.7702 -1.3110
 5885SOL    HW229289   3.927   4.172  10.357 -0.4848  0.3732  0.7721
 5886SOL     OW29290   4.663   2.136   7.422 -0.5818  0.1814 -0.1003
 5886SOL    HW129291   4.590   2.191   7.393 -0.0192 -0.2168 -2.2933
 5886SOL    HW229292   4.686   2.193   7.495  0.7801 -0.7152  0.1679
 5887SOL     OW29293   2.756   4.287  16.499  0.2328  0.7365  0.0891
 5887SOL    HW129294   2.778   4.275  16.591 -0.5012 -0.4713  0.1012
 5887SOL    HW229295   2.729   4.200  16.468  0.5220  0.3573  0.9098
 5888SOL     OW29296   0.284   0.723   5.135 -0.6831 -0.3529 -0.3289
 5888SOL    HW129297   0.250   0.812   5.144  1.7941  0.5670 -0.0628
 5888SOL    HW229298   0.378   0.741   5.144 -0.9824  1.1607 -0.3259
 5889SOL     OW29299   0.274   0.451   8.427 -0.1360 -0.4838 -0.0707
 5889SOL    HW129300   0.229   0.375   8.389  0.0749  0.2610 -1.7805
 5889SOL    HW229301   0.320   0.404   8.497  0.8732  0.2545 -0.2418
 5890SOL     OW29302   1.893   2.362   2.141 -0.1323  0.4794 -0.0095
 5890SOL    HW129303   1.877   2.409   2.058  0.7022 -3.4117 -2.3648
 5890SOL    HW229304   1.978   2.405   2.154  1.4669 -2.4749 -0.7546
 5891SOL     OW29305   0.478   4.540  13.507  0.8848 -0.0568 -0.1545
 5891SOL    HW129306   0.463   4.569  13.417  0.6590  0.4134  0.0304
 5891SOL    HW229307   0.564   4.580  13.518 -0.6071  3.2807 -0.3965
 5892SOL     OW29308   4.698   0.327   8.869 -0.1018  0.1016  0.0681
 5892SOL    HW129309   4.675   0.311   8.961  1.5054  0.6008  0.5577
 5892SOL    HW229310   4.672   0.419   8.857 -0.1688 -0.0815 -1.2314
 5893SOL     OW29311   0.050   2.869   1.935  0.1009 -0.1680 -0.0800
 5893SOL    HW129312   0.031   2.810   1.862  0.9438  0.6286 -0.9461
 5893SOL    HW229313   0.078   2.944   1.882  1.8224 -0.3258  0.5877
 5894SOL     OW29314   0.276   2.200  13.382  0.4782  0.3958 -0.0558
 5894SOL    HW129315   0.209   2.191  13.450 -0.9466  3.0839 -1.1202
 5894SOL    HW229316   0.229   2.254  13.319 -1.8588  0.4374  1.6794
 5895SOL     OW29317   2.768   1.319   2.315 -0.3588  0.6610  0.1355
 5895SOL    HW129318   2.734   1.276   2.236  0.0602  1.3908 -0.4412
 5895SOL    HW229319   2.749   1.411   2.295  0.9741  0.2701 -3.0770
 5896SOL     OW29320   1.022   0.003   2.166 -0.3560  0.4265  0.4939
 5896SOL    HW129321   1.016   0.004   2.070 -0.8104  0.6283  0.5214
 5896SOL    HW229322   1.111   0.033   2.181 -0.1383  0.4390 -0.7969
 5897SOL     OW29323   1.983   1.420   3.992 -0.4066 -0.3978 -0.0926
 5897SOL    HW129324   1.971   1.465   4.076  1.9458  1.1974 -0.6251
 5897SOL    HW229325   2.026   1.480   3.932  0.6370  0.2579  1.3191
 5898SOL     OW29326   3.145   4.368   2.756 -0.4185  0.0075 -0.0829
 5898SOL    HW129327   3.079   4.329   2.813  0.1751  0.3422  0.8204
 5898SOL    HW229328   3.148   4.458   2.789  0.4498 -0.7989  1.9928
 5899SOL     OW29329   1.674   0.595   9.155  0.0777  0.4214 -1.3450
 5899SOL    HW129330   1.594   0.555   9.122 -1.8018  2.6526  0.4786
 5899SOL    HW229331   1.713   0.640   9.081 -0.9215  0.5440 -1.8009
 5900SOL     OW29332   3.555   2.012  13.075  0.1775  1.0602  0.9391
 5900SOL    HW129333   3.584   2.040  13.162 -0.1123  1.6216  0.8518
 5900SOL    HW229334   3.470   1.972  13.095 -0.5169  2.1418  0.1220
 5901SOL     OW29335   0.424   0.785   3.739  0.4740  0.5789  0.1535
 5901SOL    HW129336   0.460   0.847   3.676  1.5692  0.0337  0.2435
 5901SOL    HW229337   0.415   0.710   3.679  2.0227 -0.2958  1.0054
 5902SOL     OW29338   0.109   1.797   2.986  0.4757 -0.0755  0.4460
 5902SOL    HW129339   0.175   1.733   2.960  0.4762  0.3954 -0.6920
 5902SOL    HW229340   0.042   1.744   2.942  0.1208  0.9689 -0.2630
 5903SOL     OW29341   1.366   4.260  12.779 -0.4263  0.3596  0.0628
 5903SOL    HW129342   1.410   4.238  12.697  0.6457  3.6079 -0.2215
 5903SOL    HW229343   1.305   4.322  12.738 -0.8223 -0.9052 -1.2754
 5904SOL     OW29344   0.146   0.514   4.392  0.1832  0.5763  0.7263
 5904SOL    HW129345   0.058   0.544   4.372  0.1631 -0.8680 -1.3542
 5904SOL    HW229346   0.179   0.594   4.433 -1.6974  0.6555  2.0948
 5905SOL     OW29347   0.622   0.544   2.608 -0.0837  0.2561 -0.2247
 5905SOL    HW129348   0.645   0.636   2.622 -0.3269  0.2775  0.0383
 5905SOL    HW229349   0.539   0.543   2.559  0.2168  2.4707 -0.7819
 5906SOL     OW29350   2.938   2.629   9.518  0.5056 -0.8408 -0.0933
 5906SOL    HW129351   2.918   2.584   9.436  1.2952  0.8044 -1.1822
 5906SOL    HW229352   2.902   2.715   9.497  1.3547 -0.3607  0.3958
 5907SOL     OW29353   0.110   3.860   8.820  0.6475  0.3370  0.1562
 5907SOL    HW129354   0.204   3.844   8.818  0.3583 -1.2044 -0.9477
 5907SOL    HW229355   0.087   3.854   8.913 -0.9287 -1.0331 -0.3235
 5908SOL     OW29356   4.723   2.982   6.521  0.4769  0.2367  0.8971
 5908SOL    HW129357   4.703   3.050   6.585  1.0815  0.1925  1.1317
 5908SOL    HW229358   0.078   2.995   6.521  0.0199  3.4928 -1.4463
 5909SOL     OW29359   4.241   1.303   5.394  0.0618 -0.3165  0.1875
 5909SOL    HW129360   4.220   1.361   5.467  0.8295 -0.1226  0.2625
 5909SOL    HW229361   4.151   1.301   5.361 -0.5442 -0.1952  1.8549
 5910SOL     OW29362   2.148   0.167   1.583  0.6184 -0.0388 -0.2690
 5910SOL    HW129363   2.188   0.133   1.663 -0.9594  1.5625  1.1835
 5910SOL    HW229364   2.101   0.245   1.612  0.0268 -0.7348  0.6710
 5911SOL     OW29365   1.370   1.470   8.326 -0.1549 -0.2363  0.0697
 5911SOL    HW129366   1.361   1.516   8.242 -1.8501 -0.9422 -0.1341
 5911SOL    HW229367   1.386   1.385   8.285  1.1776 -0.8624  1.8727
 5912SOL     OW29368   2.089   2.867   9.037  0.2619 -0.3914 -0.0492
 5912SOL    HW129369   2.014   2.821   8.998  0.9712 -1.1554 -0.4896
 5912SOL    HW229370   2.123   2.788   9.078 -2.3196 -1.5948 -0.1898
 5913SOL     OW29371   3.493   4.292   8.208  0.2907  0.5809 -0.3182
 5913SOL    HW129372   3.412   4.311   8.160  0.3418  1.5475 -0.0192
 5913SOL    HW229373   3.475   4.332   8.293  2.4680  0.0617  0.3866
 5914SOL     OW29374   2.731   0.805   1.998  0.2329 -0.3363 -0.1436
 5914SOL    HW129375   2.758   0.733   1.941  1.1381  0.3886 -0.6172
 5914SOL    HW229376   2.811   0.823   2.046 -0.3106  1.7612 -0.0134
 5915SOL     OW29377   1.610   0.353  17.503  0.6148 -0.0805  0.7298
 5915SOL    HW129378   1.604   0.310  17.589 -0.1396  0.2807  0.8526
 5915SOL    HW229379   1.523   0.366  17.467  0.5774 -0.6431  0.6066
 5916SOL     OW29380   2.014   0.120  15.864  0.0972  0.3052 -0.2472
 5916SOL    HW129381   2.079   0.190  15.860  0.5583 -0.0337  1.2078
 5916SOL    HW229382   1.977   0.128  15.777 -1.9897  1.1124  0.7143
 5917SOL     OW29383   4.575   1.273  13.348  0.1114  0.5623  0.0198
 5917SOL    HW129384   4.547   1.194  13.393 -0.4080  0.1156 -1.1024
 5917SOL    HW229385   4.668   1.277  13.372  0.3471 -0.3890 -0.7549
 5918SOL     OW29386   3.239   1.983   7.835 -0.4900  0.7191 -0.2984
 5918SOL    HW129387   3.321   1.984   7.785 -0.2984 -0.4880 -0.0076
 5918SOL    HW229388   3.226   1.890   7.816  2.1397  0.8234 -2.5886
 5919SOL     OW29389   4.547   2.388   9.937 -0.1169  0.1958  0.2022
 5919SOL    HW129390   4.615   2.385  10.004  0.8793  1.4101 -0.7402
 5919SOL    HW229391   4.505   2.471   9.961 -0.3295  0.0479  0.3410
 5920SOL     OW29392   2.894   1.422   6.993 -0.5590 -0.5643 -0.1644
 5920SOL    HW129393   2.911   1.479   6.918 -0.8414 -0.4120 -0.1133
 5920SOL    HW229394   2.977   1.374   6.988 -0.7638 -0.7859 -1.4401
 5921SOL     OW29395   3.755   1.911  13.262  0.4861  0.3057  0.1302
 5921SOL    HW129396   3.819   1.850  13.299 -0.4509 -0.1093  1.0864
 5921SOL    HW229397   3.681   1.852  13.278  0.8801 -0.7734 -1.9921
 5922SOL     OW29398   2.040   4.620   8.984  0.0936 -0.5718 -0.3479
 5922SOL    HW129399   2.110   4.611   9.049  1.3721  0.6979 -1.5710
 5922SOL    HW229400   2.023   4.528   8.965  0.7809 -0.3828 -1.8440
 5923SOL     OW29401   0.813   3.358  10.262 -0.2028 -0.1263  0.0766
 5923SOL    HW129402   0.727   3.318  10.258 -0.6964  0.5734  3.1496
 5923SOL    HW229403   0.865   3.296  10.314 -0.2008 -1.7658 -1.8993
 5924SOL     OW29404   2.899   2.784   6.110 -0.0905 -0.0403  0.3646
 5924SOL    HW129405   2.944   2.772   6.193  1.8666 -0.9034 -0.8396
 5924SOL    HW229406   2.956   2.836   6.053 -0.3987 -0.8950 -0.7158
 5925SOL     OW29407   2.296   2.573   2.013  0.0304 -0.1675  0.4328
 5925SOL    HW129408   2.355   2.600   1.943  0.5102 -1.0372  0.4935
 5925SOL    HW229409   2.326   2.641   2.073  1.4234 -2.1149  1.9265
 5926SOL     OW29410   4.377   4.061   6.645 -0.1515 -0.4008 -0.3377
 5926SOL    HW129411   4.369   3.991   6.580  0.4839 -0.8447  0.0696
 5926SOL    HW229412   4.298   4.113   6.631 -0.1411 -0.2916  0.0109
 5927SOL     OW29413   2.590   2.653   4.279 -0.3618  0.1663  0.5437
 5927SOL    HW129414   2.524   2.690   4.221 -0.4681 -1.4619 -0.3562
 5927SOL    HW229415   2.638   2.729   4.311 -1.5428  1.7781 -1.5595
 5928SOL     OW29416   2.321   2.568   8.304 -0.3349  0.3034 -0.8136
 5928SOL    HW129417   2.241   2.546   8.257 -0.8100  1.9480 -0.7938
 5928SOL    HW229418   2.379   2.581   8.229 -1.2598 -1.3750 -1.8204
 5929SOL     OW29419   1.298   1.324   4.867 -0.0207  0.3009  0.1944
 5929SOL    HW129420   1.225   1.379   4.835  0.1700 -0.6022 -1.7857
 5929SOL    HW229421   1.298   1.357   4.957  1.4069  0.9818 -0.0622
 5930SOL     OW29422   3.866   3.936   5.511 -0.0954 -0.5324  0.0134
 5930SOL    HW129423   3.889   3.993   5.585 -0.6906  2.6360 -2.2340
 5930SOL    HW229424   3.915   3.854   5.519  0.1556 -0.4879 -1.0591
 5931SOL     OW29425   2.512   2.702  14.885  0.5930  0.2922 -0.2153
 5931SOL    HW129426   2.596   2.691  14.930 -0.0719 -0.2363  0.9131
 5931SOL    HW229427   2.524   2.638  14.816  0.3501 -1.7508  1.6483
 5932SOL     OW29428   0.932   1.734   4.993 -0.3299 -0.7924 -0.1045
 5932SOL    HW129429   0.869   1.780   4.937 -1.2116 -1.2917  0.4854
 5932SOL    HW229430   1.013   1.776   4.963 -0.8655  0.0646 -0.3366
 5933SOL     OW29431   0.690   0.520   9.218  0.6130 -0.4107 -0.1220
 5933SOL    HW129432   0.623   0.466   9.178  0.6949 -0.8386  0.3152
 5933SOL    HW229433   0.733   0.547   9.137  1.6828  1.8904  1.1951
 5934SOL     OW29434   4.147   3.748   7.814 -0.8614 -0.7330  0.1593
 5934SOL    HW129435   4.227   3.797   7.793 -2.7223  1.2224 -2.4196
 5934SOL    HW229436   4.080   3.811   7.840 -0.9149 -1.7326  2.4510
 5935SOL     OW29437   3.610   1.939  17.492 -0.2258  0.0370  0.4652
 5935SOL    HW129438   3.599   1.844  17.491 -2.6545  0.3245 -2.2249
 5935SOL    HW229439   3.550   1.963  17.421 -0.7554  0.3340  1.0113
 5936SOL     OW29440   3.918   1.537   6.023  0.0721  0.0331 -0.1372
 5936SOL    HW129441   3.865   1.488   6.086 -0.4073  1.2465  0.4021
 5936SOL    HW229442   3.918   1.626   6.058 -1.3687  0.1848 -0.5134
 5937SOL     OW29443   0.553   0.205   4.667 -0.2576 -0.7508  0.7773
 5937SOL    HW129444   0.508   0.285   4.694 -0.1000 -0.4108  0.0150
 5937SOL    HW229445   0.543   0.209   4.572 -1.8260 -1.4543  0.9070
 5938SOL     OW29446   2.272   4.177   7.517 -0.1733 -0.2974  0.1562
 5938SOL    HW129447   2.210   4.231   7.468  2.5202  1.2095 -1.5318
 5938SOL    HW229448   2.328   4.249   7.544  0.0413  0.3603 -2.1287
 5939SOL     OW29449   0.406   2.428   8.529  0.0245  0.0545  0.4188
 5939SOL    HW129450   0.399   2.413   8.623 -0.4371  1.1079  0.5588
 5939SOL    HW229451   0.449   2.513   8.517  1.1938 -0.7351 -0.9361
 5940SOL     OW29452   3.555   2.178  12.242  0.3968 -0.4812  0.0697
 5940SOL    HW129453   3.574   2.148  12.330  0.5657  0.0522  0.2160
 5940SOL    HW229454   3.556   2.272  12.260 -0.5229 -0.1503 -1.5411
 5941SOL     OW29455   3.606   3.572  11.525 -0.4577 -0.0276  0.1044
 5941SOL    HW129456   3.554   3.622  11.463 -1.2470  0.7302  1.3718
 5941SOL    HW229457   3.560   3.591  11.607 -2.1430  0.6771 -1.0237
 5942SOL     OW29458   2.076   3.800  11.569  0.2432 -0.4405 -0.0333
 5942SOL    HW129459   2.054   3.707  11.564 -3.1084  0.2542  2.1309
 5942SOL    HW229460   1.992   3.844  11.561  1.3794  1.7741  0.1105
 5943SOL     OW29461   0.371   2.008   7.209  0.4428  0.6212 -0.0713
 5943SOL    HW129462   0.282   2.041   7.210  0.4662  0.6594  0.7936
 5943SOL    HW229463   0.407   2.041   7.291  1.3062  2.2973 -1.1168
 5944SOL     OW29464   1.735   0.838   4.588 -0.7984  0.3395  0.1537
 5944SOL    HW129465   1.777   0.904   4.533 -0.8218  0.3676  0.1691
 5944SOL    HW229466   1.798   0.767   4.590 -0.0201  1.0482  0.8006
 5945SOL     OW29467   3.647   2.916   6.895 -0.3922 -0.0535 -0.0723
 5945SOL    HW129468   3.720   2.956   6.942 -0.5393  0.4475 -0.2671
 5945SOL    HW229469   3.585   2.900   6.966  2.6849 -2.4303  2.0574
 5946SOL     OW29470   0.335   4.316   0.844  0.1464 -0.3429  0.4659
 5946SOL    HW129471   0.406   4.290   0.785  0.0229 -0.1954  0.2542
 5946SOL    HW229472   0.275   4.243   0.828 -0.7637  0.2596  1.1343
 5947SOL     OW29473   0.490   2.908   5.936  0.5331 -0.3147 -0.1357
 5947SOL    HW129474   0.571   2.930   5.981  2.3386 -4.9644 -1.0765
 5947SOL    HW229475   0.508   2.821   5.899 -1.3202  0.3577 -2.6645
 5948SOL     OW29476   4.467   0.638   4.561 -0.5261 -0.2607 -0.2994
 5948SOL    HW129477   4.413   0.716   4.550  2.4648  2.1882  2.5828
 5948SOL    HW229478   4.466   0.625   4.656  0.7110  1.7470 -0.0195
 5949SOL     OW29479   1.567   1.862  16.588 -0.5488  0.7262 -0.0094
 5949SOL    HW129480   1.497   1.874  16.525 -2.6226 -2.3097  1.7146
 5949SOL    HW229481   1.570   1.953  16.617  2.8385  1.3604 -2.2792
 5950SOL     OW29482   0.288   4.637   2.219 -0.2644  0.0221 -0.3844
 5950SOL    HW129483   0.351   4.681   2.276  0.8015 -0.4102 -1.2298
 5950SOL    HW229484   0.225   4.708   2.207 -0.9103 -0.2471  1.5388
 5951SOL     OW29485   3.841   2.812   9.569  0.3915  0.1689 -0.3103
 5951SOL    HW129486   3.833   2.836   9.662  0.8510  1.9972 -0.7541
 5951SOL    HW229487   3.756   2.841   9.536  0.5477 -0.5142 -1.3064
 5952SOL     OW29488   3.317   3.180   6.456 -0.5620  0.5124  0.1544
 5952SOL    HW129489   3.303   3.259   6.405  0.9265  1.7482  1.6719
 5952SOL    HW229490   3.405   3.159   6.424 -1.0200  1.5121 -1.7606
 5953SOL     OW29491   0.921   2.157   4.396  0.3301  0.1901  0.8525
 5953SOL    HW129492   0.911   2.236   4.450 -0.2867 -0.1554  1.2411
 5953SOL    HW229493   1.014   2.150   4.373 -0.6811  0.2810 -3.2448
 5954SOL     OW29494   1.565   3.707   8.493  0.5755 -0.2586  0.3158
 5954SOL    HW129495   1.529   3.619   8.496  0.8531 -0.3531  0.9596
 5954SOL    HW229496   1.659   3.701   8.476  0.4941 -0.9291  0.1273
 5955SOL     OW29497   1.414   0.694  17.280 -0.8356 -0.3140  0.2782
 5955SOL    HW129498   1.501   0.669  17.248 -0.8894 -0.8969  0.6006
 5955SOL    HW229499   1.382   0.610  17.311 -0.5896 -0.4362  0.2025
 5956SOL     OW29500   1.218   4.384   8.591 -0.3773 -0.0723 -0.2757
 5956SOL    HW129501   1.171   4.456   8.549 -1.7526 -1.6569 -1.4344
 5956SOL    HW229502   1.259   4.429   8.665 -1.8260 -0.3599  0.6951
 5957SOL     OW29503   1.001   0.331   7.716  0.1520  0.9412 -0.5966
 5957SOL    HW129504   0.923   0.324   7.661 -2.1471 -0.0099  2.7545
 5957SOL    HW229505   1.027   0.239   7.718 -0.4550  0.7350 -2.5201
 5958SOL     OW29506   3.347   0.456   6.312  0.1256 -0.5471  0.2209
 5958SOL    HW129507   3.261   0.499   6.308  1.4812  2.1807  0.0987
 5958SOL    HW229508   3.400   0.512   6.368  0.0276 -0.7604  0.5244
 5959SOL     OW29509   3.048   0.034   9.353 -0.5549 -0.4257  0.5517
 5959SOL    HW129510   3.134   0.073   9.370 -0.9864  1.8112 -2.3894
 5959SOL    HW229511   3.028   0.036   9.446 -0.9721  2.0673  0.4215
 5960SOL     OW29512   0.932   2.835   2.675 -0.2605  0.1427  0.0822
 5960SOL    HW129513   0.988   2.768   2.714 -1.6924 -0.4655  1.0889
 5960SOL    HW229514   0.977   2.918   2.691 -1.4601  1.0879 -1.3823
 5961SOL     OW29515   4.615   3.767   7.800  0.1121 -0.1116 -0.6454
 5961SOL    HW129516   4.675   3.787   7.728 -1.9382 -0.4409 -2.4607
 5961SOL    HW229517   4.615   3.671   7.796 -3.2243 -0.1671 -0.1372
 5962SOL     OW29518   3.736   1.597   0.286 -0.0617 -0.2223  0.0656
 5962SOL    HW129519   3.829   1.591   0.262  0.0402 -1.4818  0.7438
 5962SOL    HW229520   3.728   1.540   0.363 -1.7944 -1.0034 -0.6891
 5963SOL     OW29521   0.334   0.578   5.518 -0.6544  0.3518  0.1794
 5963SOL    HW129522   0.261   0.631   5.485 -0.4378  0.4394 -0.1574
 5963SOL    HW229523   0.284   0.502   5.547 -0.0198 -0.0752  0.1550
 5964SOL     OW29524   2.169   2.956  10.509  0.3180 -0.1776 -0.3100
 5964SOL    HW129525   2.209   2.996  10.432  3.4491 -1.7058  0.5179
 5964SOL    HW229526   2.117   2.887  10.469 -1.1445 -0.6406  2.4119
 5965SOL     OW29527   2.035   1.093   9.401  0.5107 -0.1781 -0.2713
 5965SOL    HW129528   2.022   1.009   9.355  1.6364  0.3417 -1.5554
 5965SOL    HW229529   2.130   1.096   9.410  0.3776 -0.3840  1.2188
 5966SOL     OW29530   4.035   1.959  16.463  0.5050  0.0077  0.7020
 5966SOL    HW129531   4.088   1.896  16.414  0.7960  2.0905 -1.6637
 5966SOL    HW229532   3.994   2.010  16.393  1.0634  1.3744  1.3581
 5967SOL     OW29533   4.609   1.635   2.857 -0.0646 -0.1610  0.1785
 5967SOL    HW129534   4.529   1.671   2.816 -0.6260  0.8962  2.2264
 5967SOL    HW229535   4.645   1.584   2.785 -1.7334  0.1068 -0.8542
 5968SOL     OW29536   2.502   1.608   6.438 -0.5421 -0.0746 -0.2384
 5968SOL    HW129537   2.431   1.644   6.492 -2.3531 -0.0454 -2.6595
 5968SOL    HW229538   2.459   1.612   6.353 -0.1357  0.6816 -0.4054
 5969SOL     OW29539   2.170   2.034   3.829  0.8270  0.1005 -0.0001
 5969SOL    HW129540   2.114   2.111   3.835 -1.2084 -1.5243  1.9903
 5969SOL    HW229541   2.158   2.014   3.736 -0.3091  1.1082 -0.0561
 5970SOL     OW29542   0.870   0.792   7.334  0.1698 -0.0964  0.2589
 5970SOL    HW129543   0.966   0.802   7.330  0.1444  1.2353  2.6234
 5970SOL    HW229544   0.861   0.698   7.348 -0.8706 -0.5075 -3.1620
 5971SOL     OW29545   3.408   1.524  10.837 -0.5136  0.3377 -0.4631
 5971SOL    HW129546   3.481   1.520  10.899  0.1834  1.8266 -1.2071
 5971SOL    HW229547   3.355   1.582  10.891 -0.1711  0.5213 -0.3206
 5972SOL     OW29548   0.068   2.809   7.677 -0.2431 -1.2180 -0.4065
 5972SOL    HW129549   0.090   2.897   7.708  0.0466 -1.2443 -0.5334
 5972SOL    HW229550   4.728   2.822   7.626  0.6673 -1.9095 -2.0253
 5973SOL     OW29551   3.235   2.888   5.487  0.1176 -0.3042  0.3850
 5973SOL    HW129552   3.269   2.961   5.436 -2.5371 -2.0790 -3.9825
 5973SOL    HW229553   3.161   2.920   5.537 -0.7461 -1.2556 -0.2881
 5974SOL     OW29554   3.888   0.554  12.261 -0.2298  0.2741  0.2144
 5974SOL    HW129555   3.843   0.531  12.343  1.9114 -0.0269  1.3042
 5974SOL    HW229556   3.859   0.499  12.189  1.9189  2.3783 -2.2509
 5975SOL     OW29557   3.256   4.454   5.478  0.0445  0.3745 -0.1682
 5975SOL    HW129558   3.239   4.469   5.385  0.8262 -2.2538 -0.7247
 5975SOL    HW229559   3.351   4.450   5.481  0.0971  0.7055 -1.2056
 5976SOL     OW29560   3.581   0.330   4.276  0.1974 -0.2257  0.3997
 5976SOL    HW129561   3.630   0.277   4.338  1.3557 -1.3289 -1.4318
 5976SOL    HW229562   3.494   0.292   4.289 -0.9854  2.8227  1.2871
 5977SOL     OW29563   1.261   3.582  13.107 -0.1760 -0.7157  0.0774
 5977SOL    HW129564   1.355   3.563  13.097 -0.3729 -1.5017 -0.2562
 5977SOL    HW229565   1.231   3.581  13.017 -0.1831  0.6289  0.0579
 5978SOL     OW29566   0.216   3.536   3.142 -0.0957 -0.0131  0.4688
 5978SOL    HW129567   0.207   3.474   3.214 -1.1706 -1.3484 -0.8032
 5978SOL    HW229568   0.309   3.557   3.138 -0.0613 -0.2278  0.0880
 5979SOL     OW29569   0.582   2.825   9.496  0.0855 -0.0069  0.0858
 5979SOL    HW129570   0.549   2.745   9.536 -3.1703  1.4955  0.3585
 5979SOL    HW229571   0.658   2.852   9.548 -0.0517  2.7969 -1.1477
 5980SOL     OW29572   0.664   1.955   0.340 -0.1567 -0.1943 -0.8876
 5980SOL    HW129573   0.752   1.918   0.327  0.0269  0.1236 -0.5742
 5980SOL    HW229574   0.625   1.875   0.374  1.9275 -1.4850 -1.5692
 5981SOL     OW29575   3.137   0.119   7.036 -0.2193 -0.1564  0.1611
 5981SOL    HW129576   3.044   0.100   7.026 -0.3050 -0.1575  1.0058
 5981SOL    HW229577   3.144   0.170   7.117 -1.7643  0.1567  0.0859
 5982SOL     OW29578   2.634   0.686   2.377 -0.7221 -0.0197  0.3431
 5982SOL    HW129579   2.684   0.617   2.420 -0.1565 -0.7723 -1.5182
 5982SOL    HW229580   2.618   0.655   2.288  0.0144 -0.1343  0.2571
 5983SOL     OW29581   2.838   4.200  16.746 -0.6063  0.3400 -0.0709
 5983SOL    HW129582   2.909   4.147  16.711 -0.2896 -0.4955  1.8413
 5983SOL    HW229583   2.785   4.142  16.800 -1.4986  1.8856  0.7191
 5984SOL     OW29584   1.958   3.410  14.652 -0.1018  1.1001 -0.2998
 5984SOL    HW129585   1.895   3.456  14.597  0.2709  2.1896  0.1772
 5984SOL    HW229586   1.953   3.319  14.621 -0.2067  1.1375 -0.3919
 5985SOL     OW29587   0.855   0.522   5.386  0.3325 -0.4947  0.2582
 5985SOL    HW129588   0.834   0.563   5.303  2.9852  0.9364  0.3033
 5985SOL    HW229589   0.769   0.521   5.429  1.1953  2.1942  2.0257
 5986SOL     OW29590   1.884   1.112   7.871 -0.2978  0.4872 -0.1985
 5986SOL    HW129591   1.792   1.107   7.896  0.2306 -0.1108  1.6651
 5986SOL    HW229592   1.918   1.143   7.955  0.7120  1.2348 -0.8773
 5987SOL     OW29593   1.954   0.064   5.413 -0.5933 -0.2484 -0.3834
 5987SOL    HW129594   2.026   0.009   5.380  0.5574  2.6039 -2.6322
 5987SOL    HW229595   2.008   0.135   5.445 -0.0033 -1.0606  0.4260
 5988SOL     OW29596   0.923   1.041   4.141  0.5328 -0.3118  0.5911
 5988SOL    HW129597   1.006   1.082   4.114  0.6124 -1.9212 -1.6597
 5988SOL    HW229598   0.932   1.022   4.234 -1.4841  1.4636  1.1413
 5989SOL     OW29599   0.434   0.186   9.319  0.1447  0.3616  0.6503
 5989SOL    HW129600   0.342   0.178   9.297  0.6056 -2.2255 -0.3299
 5989SOL    HW229601   0.459   0.094   9.326  0.6785  0.3578 -1.1869
 5990SOL     OW29602   1.424   3.030  10.067  0.9049  0.4503 -0.4753
 5990SOL    HW129603   1.332   3.055  10.065  0.4692 -0.9945  1.7735
 5990SOL    HW229604   1.439   3.045  10.161  1.0456  0.6361 -0.5264
 5991SOL     OW29605   1.726   1.342   4.333  0.1734 -0.3399 -0.0733
 5991SOL    HW129606   1.661   1.379   4.391 -0.3256 -1.5825  0.1660
 5991SOL    HW229607   1.693   1.255   4.356  0.1318 -0.4588 -0.5892
 5992SOL     OW29608   0.630   1.914   6.613 -1.1476  0.0543  0.4530
 5992SOL    HW129609   0.633   1.858   6.691  0.3085  0.0726  0.4071
 5992SOL    HW229610   0.623   1.846   6.547  0.6275 -0.5851  0.9263
 5993SOL     OW29611   2.474   0.310   2.241  0.3955 -0.1449 -0.1725
 5993SOL    HW129612   2.503   0.224   2.272  1.6698 -0.3584 -1.9788
 5993SOL    HW229613   2.383   0.310   2.272  1.2359 -1.5845  2.2948
 5994SOL     OW29614   4.260   2.156   3.430 -0.4936  0.3964 -0.1321
 5994SOL    HW129615   4.335   2.216   3.429  0.4262 -0.7554  0.9782
 5994SOL    HW229616   4.295   2.075   3.392 -0.3953  0.5831 -0.4410
 5995SOL     OW29617   0.452   3.337   9.997  0.0339 -0.1181 -0.1233
 5995SOL    HW129618   0.361   3.356   9.975 -0.1498  0.9011  1.5727
 5995SOL    HW229619   0.481   3.426  10.016  0.3623  0.2701 -2.4685
 5996SOL     OW29620   2.159   2.995  11.252  0.0961 -0.0131  0.1783
 5996SOL    HW129621   2.131   2.973  11.163  1.7274  0.7096 -0.5138
 5996SOL    HW229622   2.198   3.082  11.243  0.2128 -0.2701 -1.9645
 5997SOL     OW29623   0.038   1.310   7.313 -0.4670 -0.1123 -0.0640
 5997SOL    HW129624   0.055   1.397   7.350  0.8728  0.4933 -2.1159
 5997SOL    HW229625   4.699   1.326   7.261  0.4365  1.0361 -1.1015
 5998SOL     OW29626   3.360   3.515   6.519 -0.1606 -0.0776 -0.4002
 5998SOL    HW129627   3.288   3.535   6.458  1.0987  2.1515 -1.1381
 5998SOL    HW229628   3.361   3.593   6.574  0.6584 -0.7748  0.5714
 5999SOL     OW29629   1.936   3.677  16.331 -0.2697 -0.3101 -0.0364
 5999SOL    HW129630   1.921   3.600  16.276  0.6983 -0.9403  0.5804
 5999SOL    HW229631   1.860   3.729  16.306  1.0111  0.8578 -1.4544
 6000SOL     OW29632   2.088   1.869   2.964 -0.0911 -0.4113 -0.5059
 6000SOL    HW129633   2.082   1.830   3.051  0.3386  0.6027 -0.0166
 6000SOL    HW229634   2.015   1.819   2.929 -1.8542  1.7001  0.1587
 6001SOL     OW29635   4.302   3.611   8.411 -0.0588  0.0319 -0.0890
 6001SOL    HW129636   4.374   3.607   8.349  0.1071  0.6401  0.0565
 6001SOL    HW229637   4.303   3.523   8.449  0.3286  1.1746  2.5877
 6002SOL     OW29638   2.251   1.144   3.430  0.2198  0.0557  0.4556
 6002SOL    HW129639   2.315   1.192   3.379 -0.0100 -1.3221 -1.1245
 6002SOL    HW229640   2.212   1.081   3.369 -0.0483  0.3950  0.2748
 6003SOL     OW29641   1.980   3.067   3.140 -0.2295  0.0842 -0.1303
 6003SOL    HW129642   2.028   3.113   3.209  0.2160 -1.4504  0.5728
 6003SOL    HW229643   1.976   3.131   3.069  0.9080  1.2086  0.8225
 6004SOL     OW29644   1.451   3.899   8.713 -0.1375 -0.3095  0.3369
 6004SOL    HW129645   1.431   3.865   8.626 -0.6019 -0.4692  0.5031
 6004SOL    HW229646   1.510   3.972   8.697  0.5019 -1.5216 -2.7143
 6005SOL     OW29647   2.931   3.912  17.728  0.0540  0.1211  0.0513
 6005SOL    HW129648   2.934   3.898   0.067 -1.3058  3.0826  0.5165
 6005SOL    HW229649   2.972   3.998  17.732  0.8522 -0.2364 -0.5586
 6006SOL     OW29650   3.028   3.811   5.595 -0.1354  0.2224 -0.0280
 6006SOL    HW129651   3.079   3.868   5.536  1.8037 -0.0421  1.3680
 6006SOL    HW229652   2.936   3.830   5.576 -0.4415  0.5812  1.7333
 6007SOL     OW29653   1.104   1.716   5.706  0.2389 -0.1172 -0.3072
 6007SOL    HW129654   1.087   1.711   5.612 -0.5244 -1.6802 -0.0885
 6007SOL    HW229655   1.194   1.685   5.715  0.6543  1.5456  1.2314
 6008SOL     OW29656   0.949   0.975   6.206  0.2681 -0.9248 -0.3713
 6008SOL    HW129657   0.922   0.885   6.223  0.4146 -0.5261  1.8883
 6008SOL    HW229658   0.940   0.988   6.111 -0.5538 -1.3432 -0.3472
 6009SOL     OW29659   1.099   4.018  17.545  0.1825  0.4154 -0.6928
 6009SOL    HW129660   1.007   3.992  17.545  0.4100 -0.4132 -1.4388
 6009SOL    HW229661   1.090   4.108  17.574  0.3513  0.2862 -0.2355
 6010SOL     OW29662   0.702   3.029  12.639  0.4244  0.3898 -0.0875
 6010SOL    HW129663   0.756   2.950  12.637 -0.6357 -0.3649  1.1574
 6010SOL    HW229664   0.689   3.019  12.734 -1.6874 -1.1323 -0.5476
 6011SOL     OW29665   4.268   3.905  15.132  0.2494  0.9951 -0.0895
 6011SOL    HW129666   4.342   3.845  15.126  0.0663  0.9123 -1.5958
 6011SOL    HW229667   4.275   3.954  15.050 -1.5792  1.3123 -0.0631
 6012SOL     OW29668   1.759   0.284  12.987 -0.0008 -0.8109 -0.1328
 6012SOL    HW129669   1.804   0.367  13.002  0.6623 -1.1499 -0.2901
 6012SOL    HW229670   1.681   0.315  12.940  0.3133 -2.0125 -1.4484
 6013SOL     OW29671   3.083   2.259   3.496 -0.6534 -0.9226  0.1878
 6013SOL    HW129672   3.173   2.289   3.508 -0.2269 -1.5003 -1.5666
 6013SOL    HW229673   3.048   2.324   3.435  0.4241 -1.8183 -1.3619
 6014SOL     OW29674   3.955   2.593   1.932  0.1996 -0.0650 -0.2789
 6014SOL    HW129675   3.872   2.578   1.978  0.3903 -0.0305  0.0819
 6014SOL    HW229676   3.929   2.651   1.861 -1.1062  1.1043  1.1401
 6015SOL     OW29677   3.028   4.601  12.347 -0.1639 -0.4863 -0.0103
 6015SOL    HW129678   3.045   4.655  12.424  0.4527  1.9775 -1.8632
 6015SOL    HW229679   2.956   4.551  12.386 -1.3474 -0.4346 -2.1163
 6016SOL     OW29680   1.878   0.803   1.248  0.3472  0.1948 -0.1376
 6016SOL    HW129681   1.941   0.864   1.288 -1.3456  1.8665 -0.0265
 6016SOL    HW229682   1.799   0.856   1.249 -0.3053 -0.8031  1.3634
 6017SOL     OW29683   3.305   0.218   7.710 -0.2805 -0.4470  0.1486
 6017SOL    HW129684   3.240   0.176   7.766 -1.8608 -0.6239 -1.8360
 6017SOL    HW229685   3.379   0.168   7.744  0.5402  0.7924  0.2068
 6018SOL     OW29686   2.584   2.100  11.751  0.0474 -0.3730 -0.3192
 6018SOL    HW129687   2.633   2.149  11.817 -0.3652 -0.1900 -0.1505
 6018SOL    HW229688   2.627   2.116  11.667  0.2190 -1.0002 -0.3529
 6019SOL     OW29689   1.563   3.872   3.169 -0.1792  0.3943 -0.2232
 6019SOL    HW129690   1.568   3.955   3.216 -0.0957  0.5627 -0.5245
 6019SOL    HW229691   1.650   3.873   3.129 -0.0723  4.0570  0.1150
 6020SOL     OW29692   0.985   2.579   3.309  0.0772 -0.2010  0.1832
 6020SOL    HW129693   0.909   2.525   3.287 -0.6972  0.4673  1.2321
 6020SOL    HW229694   1.008   2.543   3.395  1.0851 -0.8711 -0.3630
 6021SOL     OW29695   2.260   2.967  10.746  0.5545  0.6467  0.0348
 6021SOL    HW129696   2.229   2.962  10.656  1.4412  3.1828 -0.4303
 6021SOL    HW229697   2.311   3.047  10.730 -1.6058  2.5018  2.4854
 6022SOL     OW29698   2.306   0.654   7.616  0.4351 -0.0477  0.1251
 6022SOL    HW129699   2.389   0.675   7.574 -0.6241  0.4534 -1.7097
 6022SOL    HW229700   2.247   0.715   7.570 -0.3369 -0.7102  0.2289
 6023SOL     OW29701   3.888   2.441   0.758 -0.0168 -0.1332 -0.1665
 6023SOL    HW129702   3.983   2.432   0.754 -0.0799 -1.7329  1.9945
 6023SOL    HW229703   3.865   2.379   0.688 -0.7078 -0.9682  0.7905
 6024SOL     OW29704   2.434   4.231   6.124 -0.7212 -0.3767 -0.1060
 6024SOL    HW129705   2.433   4.139   6.098 -0.4900 -1.0389  2.2422
 6024SOL    HW229706   2.421   4.279   6.042  0.3601 -0.4531 -0.3235
 6025SOL     OW29707   4.359   3.464   4.157  0.1311 -0.4610 -0.0675
 6025SOL    HW129708   4.427   3.397   4.145  0.5653 -0.4996  2.6197
 6025SOL    HW229709   4.385   3.529   4.091  1.0239  0.0350  0.7760
 6026SOL     OW29710   4.252   0.755   0.154  0.4195 -0.1084 -0.1505
 6026SOL    HW129711   4.334   0.773   0.107  0.5990 -0.6059 -0.0337
 6026SOL    HW229712   4.218   0.844   0.161 -1.1618 -0.6226 -1.3655
 6027SOL     OW29713   1.653   4.200   9.984  0.2900 -0.6271 -0.6838
 6027SOL    HW129714   1.558   4.204   9.997  0.2209  0.8947 -1.7198
 6027SOL    HW229715   1.664   4.223   9.892 -0.5904  1.9903 -0.1438
 6028SOL     OW29716   2.705   3.441   7.844  0.3782 -0.0492  0.3516
 6028SOL    HW129717   2.724   3.434   7.938  0.4930  3.2077  0.5732
 6028SOL    HW229718   2.775   3.496   7.810  0.0071  1.1563  1.5306
 6029SOL     OW29719   4.266   0.574   3.174 -0.7594 -0.0124 -0.5126
 6029SOL    HW129720   4.181   0.530   3.180 -1.0243  0.6909  0.7710
 6029SOL    HW229721   4.285   0.602   3.263  1.2604 -1.5913 -0.4456
 6030SOL     OW29722   1.627   3.241   9.588 -0.3843  0.3405  0.3496
 6030SOL    HW129723   1.685   3.317   9.582  2.0310 -1.5727 -0.4180
 6030SOL    HW229724   1.572   3.278   9.657 -1.4512  0.1616 -0.4083
 6031SOL     OW29725   0.025   0.947  17.429 -0.3002  0.6890  0.3378
 6031SOL    HW129726   0.036   0.918  17.520  0.6716 -0.7014 -0.2245
 6031SOL    HW229727   0.066   1.034  17.433 -0.4080  0.7148  0.8451
 6032SOL     OW29728   0.423   0.166   4.020 -0.8428 -0.2290 -0.1263
 6032SOL    HW129729   0.446   0.110   4.095  1.5143 -0.5707 -1.1128
 6032SOL    HW229730   0.331   0.141   4.010 -1.0337  0.5954 -0.3922
 6033SOL     OW29731   3.616   3.207   2.330 -0.4903 -0.1597 -0.0260
 6033SOL    HW129732   3.680   3.152   2.286 -0.6460 -0.3779  0.0185
 6033SOL    HW229733   3.638   3.179   2.419 -0.7392 -1.3200 -0.3305
 6034SOL     OW29734   1.399   3.099   4.491  0.2967 -0.0125  1.1352
 6034SOL    HW129735   1.420   3.023   4.437  2.1958  0.2343  1.5159
 6034SOL    HW229736   1.439   3.168   4.437 -1.9742 -1.1864 -2.0245
 6035SOL     OW29737   4.521   2.402   2.396  0.3428 -0.3253 -0.1376
 6035SOL    HW129738   4.561   2.490   2.394  2.1058 -1.1828 -2.7287
 6035SOL    HW229739   4.434   2.424   2.364  0.4488  0.6225  0.2202
 6036SOL     OW29740   4.328   4.066   5.810  0.5050  0.0965  0.4573
 6036SOL    HW129741   4.292   4.001   5.749 -3.1278  0.4649  2.2361
 6036SOL    HW229742   4.339   4.134   5.743  1.9521 -2.0033 -1.4437
 6037SOL     OW29743   1.638   1.300   3.013  0.1126 -0.0598 -0.5764
 6037SOL    HW129744   1.660   1.209   2.993 -2.0358 -0.6539 -0.1416
 6037SOL    HW229745   1.722   1.340   2.989 -0.3285  2.4186  2.0369
 6038SOL     OW29746   3.081   0.110  15.912  0.5285 -0.1072  0.0460
 6038SOL    HW129747   3.098   0.037  15.852 -0.7263 -0.2810 -0.0884
 6038SOL    HW229748   2.988   0.124  15.899  0.6864 -1.1248 -2.2091
 6039SOL     OW29749   2.961   1.939   2.912  0.2365  0.3938 -0.6648
 6039SOL    HW129750   2.905   1.864   2.894 -1.0347  1.1705  0.0488
 6039SOL    HW229751   2.932   2.005   2.850 -1.9432  0.5254  0.4941
 6040SOL     OW29752   1.056   2.559   6.100  0.2534 -0.3781 -0.2784
 6040SOL    HW129753   1.059   2.543   6.006  0.2396 -1.4637 -0.0883
 6040SOL    HW229754   1.139   2.601   6.121 -0.6531  1.5105 -0.4185
 6041SOL     OW29755   3.257   0.655  15.194  0.5088 -0.4519  0.1208
 6041SOL    HW129756   3.278   0.745  15.167  0.0341 -0.0521  1.0871
 6041SOL    HW229757   3.258   0.666  15.289  3.1861  1.4025 -0.1126
 6042SOL     OW29758   4.165   1.309   8.130 -1.2620  0.2645  0.4369
 6042SOL    HW129759   4.082   1.299   8.084 -1.8909  1.3483  1.3450
 6042SOL    HW229760   4.146   1.278   8.218 -2.1391  0.9995  0.4989
 6043SOL     OW29761   0.393   4.399  11.054  0.2941  0.2795  0.6468
 6043SOL    HW129762   0.353   4.477  11.092 -2.5593 -1.5075  1.3437
 6043SOL    HW229763   0.318   4.364  11.006 -0.0865  0.9976  0.7097
 6044SOL     OW29764   2.610   4.027   9.427  0.2541 -0.4376  0.4363
 6044SOL    HW129765   2.566   4.109   9.449 -1.7738 -0.9494 -1.7315
 6044SOL    HW229766   2.610   3.995   9.517 -0.4982 -2.1045 -0.1679
 6045SOL     OW29767   1.446   2.101   0.248 -0.6797  0.0747 -0.0583
 6045SOL    HW129768   1.387   2.100   0.324  0.3659  1.0952  0.7631
 6045SOL    HW229769   1.386   2.069   0.181 -2.1079  1.1688  0.7006
 6046SOL     OW29770   3.172   0.267  14.429  0.2533 -0.5702  0.6955
 6046SOL    HW129771   3.172   0.174  14.409  3.1827 -0.9451  2.3985
 6046SOL    HW229772   3.080   0.291  14.441  1.2398  2.6296  2.0117
 6047SOL     OW29773   3.877   3.857   7.296  0.6995 -0.3731  0.2595
 6047SOL    HW129774   3.924   3.940   7.307 -2.3047  1.1811  1.1215
 6047SOL    HW229775   3.839   3.851   7.383  0.4285 -0.1537  0.1575
 6048SOL     OW29776   1.295   2.041   8.921  0.0249  0.1112 -0.0076
 6048SOL    HW129777   1.390   2.055   8.910 -0.4518  1.7660 -2.1416
 6048SOL    HW229778   1.291   1.947   8.910 -0.7263  0.0383  0.9219
 6049SOL     OW29779   1.242   4.583  14.836 -0.6700  0.6768  0.3941
 6049SOL    HW129780   1.334   4.577  14.813 -1.0190  1.3731 -1.2081
 6049SOL    HW229781   1.238   4.662  14.889 -1.4540  1.9518 -1.5423
 6050SOL     OW29782   0.899   1.479   7.331 -0.4117  0.2182 -0.1029
 6050SOL    HW129783   0.915   1.452   7.421  0.1902 -1.8100 -0.8232
 6050SOL    HW229784   0.809   1.447   7.335  0.2179 -1.3979  0.9769
 6051SOL     OW29785   1.328   4.347  11.672 -0.0931 -0.8828 -0.0176
 6051SOL    HW129786   1.406   4.330  11.724  1.2830  1.2707 -1.3505
 6051SOL    HW229787   1.264   4.288  11.710 -2.4462  0.2140 -2.3014
 6052SOL     OW29788   1.565   0.978   6.308  0.1658 -0.2008  0.6849
 6052SOL    HW129789   1.522   0.894   6.295  0.7733 -0.3639 -0.2832
 6052SOL    HW229790   1.579   0.974   6.403  0.6434 -0.0979  0.6175
 6053SOL     OW29791   1.152   0.468   6.261  0.5215  0.3199  0.2735
 6053SOL    HW129792   1.200   0.385   6.253  1.0834  0.6025  0.7441
 6053SOL    HW229793   1.124   0.478   6.170  1.4116 -1.4255 -0.1947
 6054SOL     OW29794   1.263   2.648   4.264  0.3302 -0.7268  0.1220
 6054SOL    HW129795   1.358   2.656   4.273  0.5546 -1.7889 -1.3282
 6054SOL    HW229796   1.235   2.704   4.336  0.6735  0.3075 -0.5454
 6055SOL     OW29797   1.066   4.146   4.137  0.0125  0.2792  0.0751
 6055SOL    HW129798   0.992   4.085   4.141 -1.3821  2.0267  1.1656
 6055SOL    HW229799   1.024   4.223   4.175 -0.2969  0.0889  0.1184
 6056SOL     OW29800   2.385   0.393   7.738  0.7065  0.3531  0.2755
 6056SOL    HW129801   2.347   0.481   7.747 -1.1775 -0.6365  1.9492
 6056SOL    HW229802   2.416   0.401   7.648  0.5831  1.6784  0.3438
 6057SOL     OW29803   0.675   4.131   9.138  0.5489  0.4167 -0.2159
 6057SOL    HW129804   0.749   4.111   9.196  0.5191  0.5433 -0.1357
 6057SOL    HW229805   0.651   4.042   9.111 -0.9432  0.4178  1.0787
 6058SOL     OW29806   3.095   1.264   8.462 -0.1117 -0.4795  0.5670
 6058SOL    HW129807   3.067   1.262   8.371 -1.6813  0.8392  1.0182
 6058SOL    HW229808   3.030   1.327   8.495  1.4946  2.0254 -1.0781
 6059SOL     OW29809   0.120   4.580  15.547 -0.1377  0.7995  0.1141
 6059SOL    HW129810   0.195   4.547  15.598 -1.7726  1.0105  2.6523
 6059SOL    HW229811   0.058   4.507  15.545  0.8825 -0.1056  1.1185
 6060SOL     OW29812   1.136   2.015   2.248  0.5852  0.4497 -0.2002
 6060SOL    HW129813   1.060   2.059   2.287  1.3425  0.3633  1.4084
 6060SOL    HW229814   1.117   1.925   2.276  0.3391  0.7080  0.4753
 6061SOL     OW29815   1.283   0.431  11.872  0.5430  0.1775  0.5308
 6061SOL    HW129816   1.281   0.424  11.967  0.3720  0.4895  0.5493
 6061SOL    HW229817   1.329   0.514  11.862  0.8344 -0.0277  0.1567
 6062SOL     OW29818   3.526   0.012   4.864  0.2972  0.6872  0.3629
 6062SOL    HW129819   3.441   4.719   4.833  1.8875 -3.2895  0.1056
 6062SOL    HW229820   3.550   4.695   4.938 -2.7276 -2.6667 -1.1781
 6063SOL     OW29821   1.323   1.873   9.581 -0.5165  0.1098  0.6639
 6063SOL    HW129822   1.398   1.813   9.580  0.0645  0.8310  0.2481
 6063SOL    HW229823   1.316   1.887   9.487 -1.2379 -3.0159  0.2772
 6064SOL     OW29824   1.037   3.926   5.304 -0.1691 -0.0278  0.5050
 6064SOL    HW129825   1.032   3.842   5.258  0.1375  0.7292 -0.9079
 6064SOL    HW229826   1.087   3.882   5.372 -1.6011  0.4582  1.8573
 6065SOL     OW29827   1.219   3.357   4.583  1.0242  0.1357 -0.3133
 6065SOL    HW129828   1.232   3.270   4.620 -1.9643  0.8441  2.4660
 6065SOL    HW229829   1.208   3.340   4.489  0.9052  2.7752 -0.7823
 6066SOL     OW29830   0.784   3.281   4.840 -0.2526 -0.3626 -0.0707
 6066SOL    HW129831   0.843   3.312   4.771 -0.8721 -0.9636 -0.8801
 6066SOL    HW229832   0.736   3.364   4.843 -0.4264 -0.4650 -0.0255
 6067SOL     OW29833   2.194   3.418   3.129  0.4296  0.5836  0.3351
 6067SOL    HW129834   2.276   3.465   3.146  1.4726 -1.2018  0.2047
 6067SOL    HW229835   2.137   3.476   3.178  2.2843  1.4418  1.4691
 6068SOL     OW29836   3.177   0.231   3.426  0.5396 -0.0796  0.1237
 6068SOL    HW129837   3.247   0.296   3.421 -0.1978  0.8969  2.5781
 6068SOL    HW229838   3.161   0.198   3.338 -1.5380 -0.3506  0.5951
 6069SOL     OW29839   1.440   1.839  10.876 -0.3001  0.5293  0.0463
 6069SOL    HW129840   1.442   1.925  10.918  0.1131  0.1682  0.7711
 6069SOL    HW229841   1.513   1.849  10.815  1.6364 -1.7518  1.9867
 6070SOL     OW29842   3.206   2.651  16.247 -0.4531  0.2565 -0.1422
 6070SOL    HW129843   3.292   2.636  16.285  0.6986  0.6659 -2.5960
 6070SOL    HW229844   3.197   2.746  16.242 -2.2257  0.2267  2.4066
 6071SOL     OW29845   0.582   1.377  14.797 -0.0244 -0.0393  1.0480
 6071SOL    HW129846   0.486   1.384  14.803  0.2917  4.6864  0.4775
 6071SOL    HW229847   0.595   1.323  14.719  1.5514  0.3926  1.0062
 6072SOL     OW29848   1.433   3.046   8.757 -0.5714  0.3993 -0.1979
 6072SOL    HW129849   1.468   2.997   8.683  4.4699  0.9341  1.7946
 6072SOL    HW229850   1.508   3.048   8.816  0.6049  0.9972 -1.7122
 6073SOL     OW29851   4.199   1.813  16.304 -0.3641  0.1866 -0.0104
 6073SOL    HW129852   4.236   1.727  16.284  0.9754  1.0883 -1.3804
 6073SOL    HW229853   4.274   1.870  16.287  0.5815 -1.3643 -1.0634
 6074SOL     OW29854   1.011   0.974  11.270 -0.0703 -0.4793  0.5270
 6074SOL    HW129855   0.981   1.027  11.196 -2.3575 -1.7245  0.5544
 6074SOL    HW229856   0.933   0.956  11.322  0.0788 -0.0181  0.9155
 6075SOL     OW29857   2.424   2.175   8.108  0.6872 -0.1779  0.0800
 6075SOL    HW129858   2.400   2.189   8.017 -1.8503 -0.3893  0.7101
 6075SOL    HW229859   2.475   2.255   8.121 -0.3560  0.5143 -0.1265
 6076SOL     OW29860   1.072   2.470   3.537 -0.2959  0.1537 -0.1508
 6076SOL    HW129861   1.062   2.384   3.498 -1.6497  0.4192 -0.3639
 6076SOL    HW229862   1.144   2.459   3.600  0.0362 -0.3281 -0.6187
 6077SOL     OW29863   2.400   0.413   6.228  0.2648 -0.2139  0.5870
 6077SOL    HW129864   2.409   0.354   6.154  1.3572 -1.0529  1.3980
 6077SOL    HW229865   2.343   0.475   6.181 -0.6172 -0.8917  0.7583
 6078SOL     OW29866   2.894   4.091   4.208 -0.3633  0.7143 -0.1719
 6078SOL    HW129867   2.837   4.069   4.134 -1.2489 -1.5236  1.1464
 6078SOL    HW229868   2.891   4.186   4.206  1.9572  0.7831  0.1957
 6079SOL     OW29869   3.730   0.443   8.263  0.2240  0.2229  0.0685
 6079SOL    HW129870   3.716   0.399   8.180 -1.4601 -2.8272  1.9955
 6079SOL    HW229871   3.654   0.422   8.317  0.2192  0.6413  0.2235
 6080SOL     OW29872   1.752   1.208   3.989  0.1798  1.0536 -0.0442
 6080SOL    HW129873   1.799   1.168   3.917 -0.8919  2.3501 -1.4609
 6080SOL    HW229874   1.819   1.252   4.042  1.1070 -0.4886  0.0664
 6081SOL     OW29875   3.969   2.806   7.160 -0.1279 -0.3589  0.5536
 6081SOL    HW129876   4.007   2.806   7.248  3.4663  0.5080 -1.0178
 6081SOL    HW229877   4.045   2.811   7.103 -0.2330  2.7562  0.6702
 6082SOL     OW29878   4.628   0.031   1.330 -0.0378  0.3393 -0.2048
 6082SOL    HW129879   4.667   4.697   1.377  1.4247  1.3095  0.1289
 6082SOL    HW229880   4.587   0.072   1.406  1.5750  1.5445  0.0159
 6083SOL     OW29881   0.942   4.007   7.543  0.0111  0.1179 -0.6344
 6083SOL    HW129882   1.021   4.043   7.584 -0.0077  0.6341 -1.0559
 6083SOL    HW229883   0.931   3.935   7.606 -2.7315  0.8172 -0.3260
 6084SOL     OW29884   4.283   4.633   7.861 -0.2622 -0.0667  0.3719
 6084SOL    HW129885   4.377   4.622   7.875 -0.3232 -1.8776 -0.6765
 6084SOL    HW229886   4.270   4.584   7.779 -0.9334  0.0209  0.4226
 6085SOL     OW29887   4.526   2.691  10.822  0.0388 -0.1086 -0.0923
 6085SOL    HW129888   4.546   2.635  10.896  1.6224  0.0343 -0.4220
 6085SOL    HW229889   4.458   2.638  10.780  0.8439 -2.0892  1.1326
 6086SOL     OW29890   3.499   2.350   1.647  0.6926 -0.2666  0.2238
 6086SOL    HW129891   3.415   2.374   1.608  0.5419 -0.3443  0.4982
 6086SOL    HW229892   3.471   2.286   1.712 -2.1918  0.5506 -0.2075
 6087SOL     OW29893   0.309   2.379   7.439 -0.5026  0.2094 -0.1365
 6087SOL    HW129894   0.309   2.358   7.532 -2.0960 -1.6388 -0.5502
 6087SOL    HW229895   0.391   2.344   7.404 -0.8387 -0.5887 -0.1275
 6088SOL     OW29896   4.705   4.058   4.339  0.8031 -0.6933 -0.5936
 6088SOL    HW129897   4.695   4.153   4.340  1.5924 -0.6181  0.2719
 6088SOL    HW229898   0.007   4.042   4.424  0.8644 -0.5096 -0.5892
 6089SOL     OW29899   2.762   3.785   6.727 -0.2515  0.0655 -0.5917
 6089SOL    HW129900   2.686   3.824   6.684  0.3778  0.7961 -1.0204
 6089SOL    HW229901   2.815   3.858   6.759 -0.4493  0.8573 -2.0797
 6090SOL     OW29902   2.341   2.728   2.266  0.2518  0.2518  0.0166
 6090SOL    HW129903   2.314   2.700   2.353 -1.8004  1.9488 -0.0818
 6090SOL    HW229904   2.355   2.823   2.269  0.0243  0.2925 -0.2629
 6091SOL     OW29905   3.262   0.505   1.971  0.3914  0.3680  0.8140
 6091SOL    HW129906   3.325   0.577   1.980 -1.8301  2.3245  0.6436
 6091SOL    HW229907   3.328   0.438   1.952  1.4952  1.5029  0.6272
 6092SOL     OW29908   3.839   2.245   3.466 -0.2230 -0.3781 -0.4048
 6092SOL    HW129909   3.899   2.306   3.423 -0.5669  0.7995  0.7942
 6092SOL    HW229910   3.756   2.289   3.451 -1.5155 -2.3354  0.8838
 6093SOL     OW29911   0.117   4.389   5.693  0.0292  0.4629 -0.2196
 6093SOL    HW129912   0.102   4.369   5.786 -1.5904 -0.9393 -0.7760
 6093SOL    HW229913   0.033   4.391   5.647 -0.4140  0.0002  0.5532
 6094SOL     OW29914   3.581   2.559   5.511  0.4438 -0.1183  0.9659
 6094SOL    HW129915   3.486   2.572   5.506  0.1967 -2.0379  0.6238
 6094SOL    HW229916   3.583   2.463   5.508 -0.2002 -0.1151  0.3489
 6095SOL     OW29917   2.007   2.461   6.060  0.1743  0.6136  0.0031
 6095SOL    HW129918   2.074   2.413   6.109 -0.5129  0.8749  1.1963
 6095SOL    HW229919   1.937   2.458   6.125 -0.7403  0.5092 -0.9884
 6096SOL     OW29920   3.277   2.601  15.434  0.0503  0.0296 -0.0937
 6096SOL    HW129921   3.265   2.521  15.383 -0.1974 -0.1201  0.1988
 6096SOL    HW229922   3.370   2.619  15.426  0.0084  0.0876 -0.4521
 6097SOL     OW29923   3.930   0.417   8.608 -0.0974  0.0114  0.6097
 6097SOL    HW129924   3.868   0.489   8.598  0.0111  0.1431  0.8763
 6097SOL    HW229925   3.870   0.357   8.651 -1.9351  2.0611  0.9086
 6098SOL     OW29926   1.998   0.343  10.608  0.4503  0.4350  0.0431
 6098SOL    HW129927   2.063   0.369  10.674  0.5047  0.6031 -0.0783
 6098SOL    HW229928   1.949   0.422  10.586  0.0974  0.8745  2.3763
 6099SOL     OW29929   3.195   1.212   3.197 -1.3576  0.1248  0.1733
 6099SOL    HW129930   3.187   1.122   3.229  0.6261 -0.8547 -2.0706
 6099SOL    HW229931   3.291   1.216   3.197 -1.3162 -0.8707 -1.6919
 6100SOL     OW29932   3.861   1.725  16.185  0.0764  0.8804  0.0536
 6100SOL    HW129933   3.886   1.802  16.135  2.1491  0.9160  1.1123
 6100SOL    HW229934   3.796   1.766  16.241  0.4960  1.3882  0.1664
 6101SOL     OW29935   4.326   1.624   7.791  0.0357  0.0184 -0.0602
 6101SOL    HW129936   4.380   1.550   7.818 -0.4817 -0.0742  0.7297
 6101SOL    HW229937   4.345   1.676   7.869 -0.5321  2.5182 -1.6001
 6102SOL     OW29938   3.012   1.869   6.312 -0.0766  0.0429  0.1569
 6102SOL    HW129939   2.942   1.813   6.346 -1.0756 -0.3207 -2.5339
 6102SOL    HW229940   3.068   1.865   6.390  1.8718 -2.2581 -1.3735
 6103SOL     OW29941   1.921   1.434   1.995  0.0322  1.0240 -0.3762
 6103SOL    HW129942   1.846   1.481   2.031  0.0986  0.9275 -0.1085
 6103SOL    HW229943   1.899   1.443   1.902 -4.2254 -0.6039  0.4690
 6104SOL     OW29944   1.265   1.339  13.308  0.6524  0.1051  0.2875
 6104SOL    HW129945   1.182   1.295  13.323  0.8691 -0.6571 -0.7833
 6104SOL    HW229946   1.259   1.405  13.239  0.4974  0.3857  0.5700
 6105SOL     OW29947   2.177   3.398   4.474 -0.2821  0.1385  0.2156
 6105SOL    HW129948   2.243   3.333   4.448 -0.7775 -1.1003  2.0292
 6105SOL    HW229949   2.115   3.327   4.492  0.1575  0.3041  2.3246
 6106SOL     OW29950   3.093   3.602  15.336  0.6462  0.7210  0.0972
 6106SOL    HW129951   3.084   3.535  15.269 -1.3095  1.3009 -0.2202
 6106SOL    HW229952   3.187   3.597  15.356  0.4617  1.1314  1.0928
 6107SOL     OW29953   0.731   4.702   6.463  0.2308 -0.1043 -0.1233
 6107SOL    HW129954   0.817   4.685   6.501  0.2009 -1.0792 -0.5085
 6107SOL    HW229955   0.757   4.670   6.377  1.7514 -0.6030  0.5319
 6108SOL     OW29956   4.531   4.648   2.670 -0.4292  0.4041 -0.2618
 6108SOL    HW129957   4.542   4.711   2.599  1.7652 -0.1837 -0.4405
 6108SOL    HW229958   4.608   4.592   2.662  0.1207  1.0704  0.3211
 6109SOL     OW29959   3.762   4.702   4.281 -0.1013  0.0887 -0.2612
 6109SOL    HW129960   3.787   4.662   4.198  0.3676  1.2317 -0.6677
 6109SOL    HW229961   3.840   4.679   4.332 -1.5487 -3.2614  0.4805
 6110SOL     OW29962   3.171   2.165   2.845  0.4409  0.0891 -0.0948
 6110SOL    HW129963   3.240   2.134   2.786  1.8480 -0.1601  1.6774
 6110SOL    HW229964   3.151   2.255   2.820  1.3732  0.5285  0.7413
 6111SOL     OW29965   3.312   4.451  17.373  0.6414 -0.2240 -0.2567
 6111SOL    HW129966   3.401   4.486  17.383  0.0339  1.1414  0.3676
 6111SOL    HW229967   3.290   4.473  17.283 -0.2474  3.7085  0.9100
 6112SOL     OW29968   1.926   0.818   9.261  0.0481  0.3280 -0.5701
 6112SOL    HW129969   1.994   0.840   9.197 -1.7622  4.0579 -1.2092
 6112SOL    HW229970   1.949   0.731   9.294 -2.2164 -1.0272 -2.4955
 6113SOL     OW29971   2.751   1.681   5.617  0.0696  0.5482  0.0553
 6113SOL    HW129972   2.834   1.710   5.654  0.0369  1.5628 -0.6711
 6113SOL    HW229973   2.728   1.599   5.661  0.2519  0.4715  0.0061
 6114SOL     OW29974   1.027   0.969   0.155 -0.4704 -0.7992 -0.8054
 6114SOL    HW129975   0.934   0.993   0.155 -0.2477  0.0265 -0.2677
 6114SOL    HW229976   1.064   1.022   0.225  1.4748  0.1292 -2.5312
 6115SOL     OW29977   4.645   0.992   0.179 -0.3592  0.8397 -0.1927
 6115SOL    HW129978   4.706   1.041   0.123  0.6233  0.2067  0.3333
 6115SOL    HW229979   4.572   1.054   0.176 -0.2429  0.9683 -0.5064
 6116SOL     OW29980   1.623   1.328  13.116 -0.0712 -0.2228 -0.2130
 6116SOL    HW129981   1.564   1.375  13.057 -4.3045 -2.3162  2.3939
 6116SOL    HW229982   1.705   1.334  13.067 -1.3857  0.7457 -2.3245
 6117SOL     OW29983   4.562   0.233   7.187  1.1073 -0.8239 -0.1198
 6117SOL    HW129984   4.510   0.283   7.125  2.0092 -2.3884 -2.1538
 6117SOL    HW229985   4.643   0.284   7.192  0.4993  0.3124 -1.9976
 6118SOL     OW29986   1.684   1.230   9.348 -0.1998  0.3494  0.1014
 6118SOL    HW129987   1.741   1.159   9.377 -1.4068 -0.2159  1.0956
 6118SOL    HW229988   1.607   1.188   9.311  1.0161 -1.6886 -0.1176
 6119SOL     OW29989   1.173   0.228   4.316 -0.3648  0.1731  0.0538
 6119SOL    HW129990   1.231   0.226   4.392 -0.9221  0.2121  0.4810
 6119SOL    HW229991   1.144   0.317   4.336 -2.1030  0.3366 -3.2002
 6120SOL     OW29992   4.436   2.269   8.035 -0.4124  0.2681 -0.4856
 6120SOL    HW129993   4.360   2.247   8.088  0.6165  0.0808  0.9264
 6120SOL    HW229994   4.421   2.225   7.951  3.6792 -2.1167 -0.0093
 6121SOL     OW29995   1.356   2.735   5.520 -0.2194 -0.1168 -0.2511
 6121SOL    HW129996   1.287   2.788   5.480  1.0522  0.9096 -1.1101
 6121SOL    HW229997   1.344   2.749   5.614  0.9171 -1.3284  0.0750
 6122SOL     OW29998   1.897   4.034   8.654 -0.1441  0.1565 -0.4708
 6122SOL    HW129999   1.901   4.058   8.561  2.6855  1.6810  0.0616
 6122SOL    HW230000   1.923   3.942   8.664  1.0714  0.4384 -1.0544
 6123SOL     OW30001   0.179   3.364   4.275  0.5179 -0.2637 -0.0102
 6123SOL    HW130002   0.234   3.423   4.327  0.3992  1.1766 -1.5451
 6123SOL    HW230003   0.091   3.365   4.312  0.6694 -0.9070  0.3833
 6124SOL     OW30004   0.564   1.262   0.395 -0.8122 -0.3144 -0.2034
 6124SOL    HW130005   0.651   1.235   0.368  0.4563  3.7948 -0.2230
 6124SOL    HW230006   0.523   1.283   0.310  1.2292 -0.6986 -1.2803
 6125SOL     OW30007   4.480   2.969  16.360  0.1945  0.0286  0.1231
 6125SOL    HW130008   4.430   2.959  16.441  0.6080  0.5703  0.4431
 6125SOL    HW230009   4.449   2.893  16.311  1.4184  0.0557 -0.6907
 6126SOL     OW30010   1.836   4.396   6.511  0.3067  0.6788 -0.1273
 6126SOL    HW130011   1.842   4.438   6.425  2.3083 -1.7100 -1.1508
 6126SOL    HW230012   1.813   4.306   6.488 -1.2703  1.4672 -1.6475
 6127SOL     OW30013   0.525   3.574  15.604  0.0440  0.4014  0.4239
 6127SOL    HW130014   0.552   3.511  15.537  0.9832  1.1497  0.1021
 6127SOL    HW230015   0.440   3.607  15.575  0.1991  0.7560  0.3683
 6128SOL     OW30016   0.459   2.561   2.476 -0.5634 -0.7215 -0.1279
 6128SOL    HW130017   0.521   2.492   2.453 -0.5116 -0.1842 -1.6503
 6128SOL    HW230018   0.499   2.639   2.438  0.0062 -1.0513 -0.2069
 6129SOL     OW30019   2.707   0.324  10.855 -0.4305  0.2346  0.0379
 6129SOL    HW130020   2.692   0.394  10.792 -2.4685 -0.3061 -0.0764
 6129SOL    HW230021   2.617   0.306  10.882 -1.4433  1.7438 -2.4368
 6130SOL     OW30022   0.496   3.524   7.430  0.1977 -0.4507  0.3946
 6130SOL    HW130023   0.487   3.430   7.415 -1.6350 -0.6273  2.5591
 6130SOL    HW230024   0.463   3.530   7.520 -2.4974 -0.3186 -0.5910
 6131SOL     OW30025   2.080   4.186   2.055 -0.2118 -0.5469  0.2397
 6131SOL    HW130026   2.112   4.265   2.011 -2.1219  0.4398  0.6111
 6131SOL    HW230027   2.034   4.141   1.985 -3.1863  1.5622  0.8160
 6132SOL     OW30028   0.438   4.005   1.599  0.4137 -0.5286  0.2138
 6132SOL    HW130029   0.450   4.077   1.660  0.2299 -0.0277 -0.3308
 6132SOL    HW230030   0.360   3.960   1.632 -0.0144  2.1701  2.8086
 6133SOL     OW30031   3.539   3.496   1.487 -0.4939 -0.2500  0.3603
 6133SOL    HW130032   3.570   3.521   1.574 -0.8633  1.4856  0.0107
 6133SOL    HW230033   3.558   3.577   1.438  0.1441 -1.5690 -1.5478
 6134SOL     OW30034   1.622   3.235  14.599  0.2106 -0.2199  0.0352
 6134SOL    HW130035   1.669   3.293  14.540  0.2823 -0.1643  0.1484
 6134SOL    HW230036   1.697   3.183  14.628  0.3201 -0.6263 -0.9521
 6135SOL     OW30037   1.074   4.457   8.934 -0.0945  0.2869  0.3801
 6135SOL    HW130038   1.062   4.376   8.983  0.1274 -0.6499 -1.1026
 6135SOL    HW230039   1.168   4.460   8.918 -0.6943  0.0857 -3.1771
 6136SOL     OW30040   2.259   4.019  14.798  0.4484  0.2114 -0.1424
 6136SOL    HW130041   2.290   3.936  14.836 -0.6392 -1.0419 -1.9867
 6136SOL    HW230042   2.317   4.081  14.843 -1.1622  0.7292  1.1935
 6137SOL     OW30043   4.290   1.782   8.054 -0.2187  0.2697 -0.0318
 6137SOL    HW130044   4.254   1.859   8.011 -4.3309 -1.4876  0.3370
 6137SOL    HW230045   4.373   1.811   8.093 -0.3649  2.5929 -1.4677
 6138SOL     OW30046   2.322   0.879  11.965 -0.1670  0.7897  0.2225
 6138SOL    HW130047   2.334   0.914  12.053 -0.4195  1.0803  0.1412
 6138SOL    HW230048   2.317   0.956  11.908 -0.4456  0.4395 -0.2257
 6139SOL     OW30049   0.244   1.957  13.940  0.2830 -0.8197  0.3456
 6139SOL    HW130050   0.322   1.959  13.884 -0.6055  0.6399 -0.8204
 6139SOL    HW230051   0.166   1.936  13.889 -0.3320 -1.8741  1.7200
 6140SOL     OW30052   0.657   1.987  12.503 -0.1530 -0.3724 -0.1743
 6140SOL    HW130053   0.644   1.989  12.409 -0.1529 -2.1642 -0.2228
 6140SOL    HW230054   0.582   2.045  12.515  0.7120  0.7782 -0.4354
 6141SOL     OW30055   4.351   0.165   2.709  0.6077  0.0353 -0.0526
 6141SOL    HW130056   4.345   0.221   2.631 -1.9398 -0.4891 -0.2199
 6141SOL    HW230057   4.280   0.198   2.763 -0.1996 -2.3849  0.3336
 6142SOL     OW30058   3.233   0.003   8.104  0.4996  0.4729 -0.5034
 6142SOL    HW130059   3.323   4.710   8.102  0.2811 -0.0318 -2.3137
 6142SOL    HW230060   3.248   0.097   8.115  1.2377  0.2279  0.5807
 6143SOL     OW30061   1.218   4.277   9.407  0.1229 -0.3430  0.3194
 6143SOL    HW130062   1.253   4.357   9.369  1.4005  0.5555  3.4381
 6143SOL    HW230063   1.126   4.275   9.382  0.1984 -0.8199  0.0810
 6144SOL     OW30064   0.557   1.010  17.693 -0.0630  0.2177  0.2248
 6144SOL    HW130065   0.625   1.019   0.004  0.1658  1.8341 -0.2261
 6144SOL    HW230066   0.548   0.916  17.678  0.6115  0.2100 -0.1037
 6145SOL     OW30067   2.928   2.474   9.304  0.1132  0.0579  0.0085
 6145SOL    HW130068   3.014   2.510   9.286 -0.9118  1.9840 -1.0416
 6145SOL    HW230069   2.930   2.391   9.257 -0.2193  0.8950 -1.4746
 6146SOL     OW30070   3.224   2.617   4.882  0.4168  0.5585 -0.0214
 6146SOL    HW130071   3.310   2.589   4.913  0.2983 -2.1961 -2.1731
 6146SOL    HW230072   3.224   2.603   4.787 -1.5273  2.1016 -0.2447
 6147SOL     OW30073   3.548   4.280   7.882  0.0954  0.0471  0.2910
 6147SOL    HW130074   3.468   4.265   7.831  0.7637  0.2531 -0.7941
 6147SOL    HW230075   3.516   4.248   7.967 -0.1903  1.0754  0.5722
 6148SOL     OW30076   4.048   4.312   6.942  0.3156  0.2684 -0.1043
 6148SOL    HW130077   3.981   4.260   6.897  0.2170  0.0908  0.2457
 6148SOL    HW230078   4.095   4.241   6.985 -0.3093 -0.7015 -1.0173
 6149SOL     OW30079   0.404   0.703   7.281  0.1296  0.0313  0.2779
 6149SOL    HW130080   0.492   0.671   7.301  0.1791  0.8971  1.4286
 6149SOL    HW230081   0.357   0.623   7.257 -1.5439  0.8440  0.8337
 6150SOL     OW30082   2.004   3.531  11.627  0.0378  0.7531 -0.8369
 6150SOL    HW130083   1.935   3.499  11.570  0.8766 -2.2611 -0.1459
 6150SOL    HW230084   2.012   3.460  11.691 -3.5447  0.4571 -0.7071
 6151SOL     OW30085   3.863   0.756   7.431 -0.0966  0.6575 -0.2522
 6151SOL    HW130086   3.926   0.685   7.448 -1.1361  0.2472  1.9525
 6151SOL    HW230087   3.915   0.797   7.363 -0.7289 -1.4048 -1.9632
 6152SOL     OW30088   0.151   2.632   4.168 -0.0396  0.3107 -0.3555
 6152SOL    HW130089   0.169   2.550   4.122  0.4302  0.8796 -1.1900
 6152SOL    HW230090   0.207   2.690   4.116  2.2221 -2.1292 -0.6567
 6153SOL     OW30091   3.908   4.366   8.174  0.6593  0.6623  0.3980
 6153SOL    HW130092   3.931   4.448   8.131 -2.2779  0.9337 -0.6357
 6153SOL    HW230093   3.822   4.391   8.208  0.6077  0.0536  0.7031
 6154SOL     OW30094   2.345   0.421   8.432  0.6948 -0.0704  0.7012
 6154SOL    HW130095   2.353   0.513   8.405  0.6966 -0.6970 -1.3859
 6154SOL    HW230096   2.340   0.443   8.526 -0.8039  2.3242  0.0656
 6155SOL     OW30097   2.522   4.061   5.537 -0.6882  0.1480 -0.5148
 6155SOL    HW130098   2.468   3.982   5.535  1.1769 -1.0808 -3.5514
 6155SOL    HW230099   2.487   4.102   5.458  1.3414 -1.7417 -2.3986
 6156SOL     OW30100   1.480   2.170   9.268  0.1355  0.7610  0.2388
 6156SOL    HW130101   1.530   2.191   9.189  1.0498  1.2998  0.9638
 6156SOL    HW230102   1.543   2.200   9.333 -0.3293  0.0199  1.0147
 6157SOL     OW30103   3.692   3.766   7.763 -0.0449 -0.2996 -0.1232
 6157SOL    HW130104   3.664   3.709   7.835 -1.3176 -0.3533 -0.6600
 6157SOL    HW230105   3.607   3.804   7.742 -0.8600 -0.8929  2.0748
 6158SOL     OW30106   1.401   2.093  15.650  0.1748 -0.7160  0.3470
 6158SOL    HW130107   1.477   2.117  15.703  0.4716  0.6134 -0.6992
 6158SOL    HW230108   1.383   2.181  15.617 -0.2330 -0.1405  2.0511
 6159SOL     OW30109   0.368   0.573   3.294  0.2004  0.5337 -0.2292
 6159SOL    HW130110   0.385   0.658   3.253 -1.0131  0.3200 -1.2047
 6159SOL    HW230111   0.313   0.601   3.367 -1.9100 -1.4896 -1.0449
 6160SOL     OW30112   4.415   0.413  11.264 -0.3864  0.3019 -0.2792
 6160SOL    HW130113   4.364   0.457  11.332 -0.4059 -5.2362  3.2793
 6160SOL    HW230114   4.371   0.330  11.282 -0.0802 -0.5861 -3.4863
 6161SOL     OW30115   2.044   0.410   7.064  0.0257 -0.3521 -0.0196
 6161SOL    HW130116   2.063   0.319   7.086  0.4563  0.4347  2.9444
 6161SOL    HW230117   2.085   0.417   6.978  1.0509 -2.4119  0.2979
 6162SOL     OW30118   0.779   3.960   5.704 -0.1642 -0.2891  0.3072
 6162SOL    HW130119   0.774   3.982   5.611 -1.5582  1.9507  0.9100
 6162SOL    HW230120   0.685   3.958   5.718 -0.4437 -0.2097 -1.5634
 6163SOL     OW30121   2.811   0.112  13.219  0.3383  0.5734 -0.1244
 6163SOL    HW130122   2.750   0.184  13.234  1.0708  1.0938  0.3741
 6163SOL    HW230123   2.889   0.150  13.259  1.2334 -2.5803  1.0725
 6164SOL     OW30124   4.118   3.319   4.125 -0.6142  0.2612  0.2413
 6164SOL    HW130125   4.066   3.371   4.064  1.0238  2.3679  0.6412
 6164SOL    HW230126   4.192   3.377   4.144  1.1232 -1.9196  0.0910
 6165SOL     OW30127   2.731   1.368  11.236 -0.1019  0.9037  0.5161
 6165SOL    HW130128   2.769   1.291  11.195 -0.7197  0.0491  1.5489
 6165SOL    HW230129   2.812   1.406  11.270  0.7959 -1.8838  1.5063
 6166SOL     OW30130   3.623   1.890  10.553  0.0777 -0.5674  0.4741
 6166SOL    HW130131   3.594   1.953  10.487  1.2017  0.3845  0.8923
 6166SOL    HW230132   3.573   1.913  10.631 -1.4328 -0.0780 -0.6427
 6167SOL     OW30133   0.436   2.624  14.042 -0.2039 -0.1547 -0.4533
 6167SOL    HW130134   0.468   2.667  14.122  2.9483 -3.0172 -0.2178
 6167SOL    HW230135   0.509   2.637  13.982  0.9273  1.2768  1.2192
 6168SOL     OW30136   1.236   2.348   2.129 -0.0637  0.0894  0.4192
 6168SOL    HW130137   1.194   2.284   2.072 -0.0713  0.1002  0.4127
 6168SOL    HW230138   1.238   2.425   2.073  1.1176 -0.1326  0.1544
 6169SOL     OW30139   0.509   4.032  11.589  0.2973 -0.2051 -0.4127
 6169SOL    HW130140   0.468   4.020  11.503  0.5633 -1.0566 -0.4138
 6169SOL    HW230141   0.584   3.974  11.577 -0.8080 -1.5636 -0.7568
 6170SOL     OW30142   2.664   1.750   7.112  0.6531  0.2809 -0.3068
 6170SOL    HW130143   2.714   1.831   7.119 -0.5467  1.0237 -0.2963
 6170SOL    HW230144   2.662   1.728   7.019 -0.0499  0.9469 -0.4463
 6171SOL     OW30145   3.082   3.404   3.089 -0.7751  0.2149 -0.1900
 6171SOL    HW130146   2.999   3.451   3.086 -0.4837  0.6958 -0.8466
 6171SOL    HW230147   3.059   3.325   3.137  0.9212  0.6093  1.2539
 6172SOL     OW30148   0.101   2.014   1.411 -0.1516  0.2449 -0.1989
 6172SOL    HW130149   0.117   2.094   1.460  0.7380 -0.5332  0.7757
 6172SOL    HW230150   0.020   1.980   1.449 -0.8325  1.7270 -0.3216
 6173SOL     OW30151   2.258   3.925  11.088 -0.0935  0.0426 -0.0506
 6173SOL    HW130152   2.266   4.001  11.030  0.8214  0.4799  0.6525
 6173SOL    HW230153   2.291   3.968  11.167 -0.0984 -1.2288  0.6366
 6174SOL     OW30154   3.812   4.349   8.693 -0.4262 -0.4728  0.1929
 6174SOL    HW130155   3.837   4.259   8.711 -1.1484 -0.7309 -0.0939
 6174SOL    HW230156   3.797   4.377   8.784 -0.4098  0.4505 -0.0885
 6175SOL     OW30157   4.373   1.969  17.480  0.1567  0.3529 -0.1868
 6175SOL    HW130158   4.455   2.013  17.458  1.4215 -1.7923  0.2191
 6175SOL    HW230159   4.393   1.876  17.464  0.1311  0.9247 -3.5109
 6176SOL     OW30160   2.954   1.333   3.254  0.4469  0.1962 -0.1635
 6176SOL    HW130161   2.986   1.410   3.301  0.4555  1.0475 -1.5577
 6176SOL    HW230162   3.038   1.290   3.238  0.1362 -0.9790  1.3916
 6177SOL     OW30163   4.162   0.352   8.745  0.1184  0.2159  0.9499
 6177SOL    HW130164   4.169   0.419   8.814  0.2330 -0.4876  1.6306
 6177SOL    HW230165   4.100   0.392   8.685  1.1802  1.6877  0.8092
 6178SOL     OW30166   2.991   4.611   6.815 -0.4724  0.0245 -0.6335
 6178SOL    HW130167   3.081   4.635   6.835 -1.5102  2.5060  1.0837
 6178SOL    HW230168   2.986   4.664   6.736  0.0584  0.6684 -0.2410
 6179SOL     OW30169   4.299   0.023  12.628 -0.7006 -0.0444 -0.6909
 6179SOL    HW130170   4.288   0.117  12.641 -1.0521 -0.3083  0.9525
 6179SOL    HW230171   4.224   4.729  12.678  1.3995  0.3614  2.7644
 6180SOL     OW30172   2.793   3.378   3.600  0.5782 -0.0540  0.1000
 6180SOL    HW130173   2.738   3.445   3.559 -1.2359 -0.9816  1.0480
 6180SOL    HW230174   2.870   3.430   3.623  0.8778 -0.1251 -0.7316
 6181SOL     OW30175   1.007   0.249  16.456 -0.3343  0.0298 -0.1032
 6181SOL    HW130176   0.965   0.333  16.476  0.5553  0.1327  1.3583
 6181SOL    HW230177   0.975   0.238  16.367  1.0651  0.6441 -0.6847
 6182SOL     OW30178   3.997   4.071   6.366 -0.0865  0.3873 -0.2783
 6182SOL    HW130179   3.913   4.068   6.411  1.4249 -0.7584  2.5059
 6182SOL    HW230180   4.036   3.987   6.389 -0.0834 -0.3202 -2.8534
 6183SOL     OW30181   3.001   1.031   3.441  0.2230 -0.2985 -0.2158
 6183SOL    HW130182   2.943   1.105   3.420  1.8139  1.5859  2.0501
 6183SOL    HW230183   3.058   1.067   3.509 -0.2037 -0.1433  0.0601
 6184SOL     OW30184   2.250   3.965   7.950 -0.1635 -0.2501 -0.1767
 6184SOL    HW130185   2.189   3.979   7.878  0.7291 -1.0569 -1.0790
 6184SOL    HW230186   2.298   4.047   7.962  0.9923 -0.8666 -0.6875
 6185SOL     OW30187   2.280   3.120   3.095 -0.0936 -0.5337 -0.0671
 6185SOL    HW130188   2.373   3.135   3.112 -0.1682 -0.0078 -0.1241
 6185SOL    HW230189   2.243   3.208   3.097  0.7397 -0.1455 -1.6416
 6186SOL     OW30190   4.292   0.877   1.045  0.2963 -0.2201 -0.3434
 6186SOL    HW130191   4.330   0.923   1.120  2.3919  1.7922 -2.6736
 6186SOL    HW230192   4.319   0.932   0.972  1.2625 -0.8747 -0.4721
 6187SOL     OW30193   4.717   1.700  10.767  0.0569 -0.3730 -0.2591
 6187SOL    HW130194   4.719   1.614  10.724 -0.0197  0.4906 -1.9997
 6187SOL    HW230195   4.656   1.680  10.837 -0.2405 -0.4639 -0.5433
 6188SOL     OW30196   2.106   4.315   7.343  0.4158  1.1535  0.4947
 6188SOL    HW130197   2.079   4.405   7.359 -1.8335  0.7093 -0.6427
 6188SOL    HW230198   2.022   4.295   7.299  0.3121 -1.6301  1.9237
 6189SOL     OW30199   3.986   1.850   5.662  0.3069 -0.1367  0.0664
 6189SOL    HW130200   3.945   1.766   5.643 -0.3484 -0.0176  0.9475
 6189SOL    HW230201   4.024   1.832   5.748 -0.6189 -2.8623 -0.1230
 6190SOL     OW30202   1.283   1.199   8.578 -0.5268  0.1762 -0.0127
 6190SOL    HW130203   1.372   1.231   8.567  0.3219 -1.1212  2.9260
 6190SOL    HW230204   1.288   1.158   8.664 -2.4601 -0.7564 -0.3378
 6191SOL     OW30205   3.297   0.099   8.884 -0.6329  0.0283  0.1540
 6191SOL    HW130206   3.358   0.105   8.811 -1.7895 -1.8761 -0.9735
 6191SOL    HW230207   3.224   0.067   8.831 -1.8417  1.3969  0.9773
 6192SOL     OW30208   3.716   0.188  16.851  0.6931  0.4037  0.1142
 6192SOL    HW130209   3.723   0.170  16.757 -0.1075  0.1527  0.1056
 6192SOL    HW230210   3.721   0.282  16.868 -1.4625  0.3203  1.0884
 6193SOL     OW30211   2.704   1.396   4.510 -0.3812 -0.6672  0.0512
 6193SOL    HW130212   2.669   1.485   4.511 -0.2246 -0.5567 -2.9231
 6193SOL    HW230213   2.624   1.348   4.532 -1.1055  0.8592  0.7340
 6194SOL     OW30214   2.894   3.174  11.327 -0.1140  0.1030 -0.0169
 6194SOL    HW130215   2.870   3.081  11.333  0.1313  0.1195  1.3629
 6194SOL    HW230216   2.930   3.188  11.415  1.4217  1.8884 -0.9347
 6195SOL     OW30217   0.269   4.630  11.186 -0.0420 -0.3356 -0.1325
 6195SOL    HW130218   0.196   4.681  11.153 -0.3310 -3.4926 -4.4105
 6195SOL    HW230219   0.316   4.691  11.243 -1.6588  2.2849 -1.6108
 6196SOL     OW30220   1.332   4.027   3.340  0.0913 -0.2520  0.0389
 6196SOL    HW130221   1.285   4.025   3.423  1.1820  0.9620  0.6964
 6196SOL    HW230222   1.269   4.039   3.269  0.1895 -2.6901 -0.4348
 6197SOL     OW30223   0.229   2.865   1.309  0.3701 -0.4276  0.2926
 6197SOL    HW130224   0.178   2.832   1.383 -1.7137  1.2181 -0.3851
 6197SOL    HW230225   0.299   2.920   1.343  0.1365  0.1198 -0.1125
 6198SOL     OW30226   3.523   3.745   8.724 -0.2849  1.1566  0.2753
 6198SOL    HW130227   3.474   3.742   8.806  0.6563 -0.2858  0.8030
 6198SOL    HW230228   3.498   3.662   8.683  2.9294 -0.5487  1.7185
 6199SOL     OW30229   4.344   1.150   7.069 -0.1136  0.1118  0.3759
 6199SOL    HW130230   4.369   1.220   7.010 -0.4573  1.0225  1.3043
 6199SOL    HW230231   4.330   1.072   7.016 -0.6925  1.0519 -0.8375
 6200SOL     OW30232   0.725   3.968  12.799  0.0109  0.3098 -0.3377
 6200SOL    HW130233   0.812   3.962  12.840 -0.2748  1.5025  0.4724
 6200SOL    HW230234   0.681   4.017  12.869 -1.2528 -2.0945  0.5321
 6201SOL     OW30235   1.347   3.238   2.626 -0.0655  0.8165  0.8323
 6201SOL    HW130236   1.297   3.304   2.674 -2.0797  0.0649 -0.2143
 6201SOL    HW230237   1.366   3.283   2.544 -2.4226  1.4545  0.6121
 6202SOL     OW30238   1.238   3.795  11.375  0.1157  0.3488 -0.2113
 6202SOL    HW130239   1.159   3.774  11.326 -0.2771 -0.5272  0.8060
 6202SOL    HW230240   1.290   3.819  11.298 -1.1226 -0.7791 -1.3818
 6203SOL     OW30241   2.525   3.131   2.862 -0.0677  0.7486  0.0956
 6203SOL    HW130242   2.430   3.130   2.859 -0.0972  0.6074  0.9126
 6203SOL    HW230243   2.555   3.066   2.799  0.2190  1.3548 -0.3887
 6204SOL     OW30244   0.891   3.274   5.295 -0.1319  0.5797 -0.2719
 6204SOL    HW130245   0.934   3.203   5.343 -0.9538 -0.8516 -1.6832
 6204SOL    HW230246   0.965   3.306   5.243  0.5930 -1.0884 -0.2843
 6205SOL     OW30247   1.796   2.766   3.040 -0.0801 -0.0660  0.2036
 6205SOL    HW130248   1.798   2.836   3.105 -2.2770  0.8034 -0.6648
 6205SOL    HW230249   1.727   2.800   2.983  0.4170 -2.1659 -1.6341
 6206SOL     OW30250   3.407   2.776  11.585  0.1730 -0.8792  0.3580
 6206SOL    HW130251   3.377   2.697  11.629 -1.3013 -0.2869  0.4214
 6206SOL    HW230252   3.345   2.843  11.615  0.6353  0.0061 -0.6682
 6207SOL     OW30253   1.755   0.520   6.016 -0.1867  0.1427  0.4333
 6207SOL    HW130254   1.693   0.572   6.067 -1.5537  0.7491 -1.8468
 6207SOL    HW230255   1.718   0.434   6.031 -0.0559  0.1645  0.8790
 6208SOL     OW30256   3.117   3.197   4.653 -0.1564 -0.4610 -0.5434
 6208SOL    HW130257   3.159   3.263   4.597 -1.7622 -0.2100 -1.4329
 6208SOL    HW230258   3.167   3.120   4.624  2.4893  0.5508  1.3338
 6209SOL     OW30259   3.132   2.193   7.977 -0.0863 -0.3090  0.0412
 6209SOL    HW130260   3.058   2.141   8.010 -2.0254  1.1290 -2.0145
 6209SOL    HW230261   3.163   2.130   7.912 -1.4618 -2.1181  1.1127
 6210SOL     OW30262   2.993   4.472   2.209  0.5090  0.3431 -0.7026
 6210SOL    HW130263   3.053   4.465   2.284  1.5838  2.0128 -1.4075
 6210SOL    HW230264   2.977   4.380   2.188  0.2308  0.6412 -1.8022
 6211SOL     OW30265   3.632   3.694   2.991  0.0582 -0.3727 -0.1101
 6211SOL    HW130266   3.542   3.678   2.963 -0.0833 -1.9733  1.2506
 6211SOL    HW230267   3.601   3.776   3.030 -1.4542 -1.0466  0.1083
 6212SOL     OW30268   4.365   4.042   6.933  0.0334  0.3686 -0.6459
 6212SOL    HW130269   4.373   4.033   6.838  0.3296  0.5791 -0.6406
 6212SOL    HW230270   4.270   4.050   6.937  0.1117  1.3255 -0.7467
 6213SOL     OW30271   3.333   3.760   6.691  0.2423 -0.2768  0.2096
 6213SOL    HW130272   3.241   3.779   6.706  0.5612  1.5232 -0.0880
 6213SOL    HW230273   3.373   3.799   6.769 -0.5704 -1.0581  1.0163
 6214SOL     OW30274   2.806   1.489   1.214 -0.0553  0.2984  0.2836
 6214SOL    HW130275   2.801   1.397   1.241 -2.9577  0.8028  1.4444
 6214SOL    HW230276   2.735   1.494   1.150 -1.6944 -3.8689  1.7945
 6215SOL     OW30277   0.609   3.206   7.637 -0.0857 -0.1980  0.2682
 6215SOL    HW130278   0.574   3.117   7.640 -0.2987 -0.1115  0.3451
 6215SOL    HW230279   0.608   3.237   7.728  1.2876 -0.1321  0.2632
 6216SOL     OW30280   3.743   2.005   5.504  0.1649 -0.5492  0.0844
 6216SOL    HW130281   3.715   1.914   5.501 -1.1716 -0.1251 -0.4156
 6216SOL    HW230282   3.836   1.988   5.516  0.1868 -0.0330  0.6862
 6217SOL     OW30283   2.340   2.630  10.046  0.3061  0.7704  1.0142
 6217SOL    HW130284   2.402   2.578   9.994 -1.9523 -0.1064 -0.8070
 6217SOL    HW230285   2.261   2.576  10.037  0.3842  0.7862  0.2425
 6218SOL     OW30286   0.498   4.390  14.117  0.5977 -0.5717 -0.3349
 6218SOL    HW130287   0.572   4.341  14.082  0.7430 -0.0770 -0.7290
 6218SOL    HW230288   0.438   4.402  14.043 -0.7157  0.8534  0.9476
 6219SOL     OW30289   3.861   3.650   8.107 -0.4697  0.6417 -0.6795
 6219SOL    HW130290   3.914   3.726   8.081  0.4800  0.9756  2.2019
 6219SOL    HW230291   3.900   3.624   8.191  0.7878  1.3179 -1.0501
 6220SOL     OW30292   2.147   0.898   9.141  0.0163  0.7672 -0.6593
 6220SOL    HW130293   2.101   0.953   9.078 -1.2651  0.8983  0.3841
 6220SOL    HW230294   2.234   0.938   9.145  0.5070 -0.3538  0.0155
 6221SOL     OW30295   2.170   4.312   7.770 -0.5167  0.6886 -0.3572
 6221SOL    HW130296   2.185   4.251   7.698 -0.2721  1.9964 -1.4125
 6221SOL    HW230297   2.114   4.377   7.727  0.0929  2.0645  0.9537
 6222SOL     OW30298   0.628   4.242   1.789 -0.9073 -0.0933  0.5146
 6222SOL    HW130299   0.689   4.212   1.721  0.3341  0.9996  1.1320
 6222SOL    HW230300   0.693   4.300   1.829  1.5503 -0.5371 -2.7684
 6223SOL     OW30301   1.309   3.200   5.278 -0.5294  0.4740  0.0083
 6223SOL    HW130302   1.297   3.105   5.271  0.5261  0.2479  1.5364
 6223SOL    HW230303   1.402   3.220   5.282 -0.2308 -0.6550 -1.2965
 6224SOL     OW30304   0.295   3.372   8.197 -0.2534 -0.6336 -0.0184
 6224SOL    HW130305   0.311   3.465   8.208 -2.5162 -0.5158  2.2444
 6224SOL    HW230306   0.292   3.346   8.289 -0.7250 -4.1475 -1.0345
 6225SOL     OW30307   2.557   3.779  15.279  0.0578  0.2041  0.1235
 6225SOL    HW130308   2.573   3.686  15.266  0.3924  0.1621  0.7859
 6225SOL    HW230309   2.625   3.804  15.342  1.0080 -1.8325 -0.1017
 6226SOL     OW30310   4.540   4.472   6.886  0.1818 -0.0985  0.7194
 6226SOL    HW130311   4.543   4.381   6.914  1.0939  0.6908  3.2538
 6226SOL    HW230312   4.449   4.497   6.869 -0.3853 -3.0745 -0.5288
 6227SOL     OW30313   2.834   2.697  13.468 -0.0588  0.1648 -0.1985
 6227SOL    HW130314   2.796   2.764  13.525  0.9589  0.2293  0.4166
 6227SOL    HW230315   2.760   2.661  13.419  1.1953 -2.1099 -0.4425
 6228SOL     OW30316   3.267   0.756  14.510 -0.3604  0.6190  0.3559
 6228SOL    HW130317   3.260   0.777  14.604 -0.2298 -1.1752  0.7700
 6228SOL    HW230318   3.199   0.800  14.460 -1.7798 -2.4665 -0.4501
 6229SOL     OW30319   4.622   2.031   2.719 -0.2529  0.3388 -0.1393
 6229SOL    HW130320   4.615   2.126   2.706 -1.9387  0.1057 -0.9824
 6229SOL    HW230321   4.531   2.008   2.736 -0.1245 -0.7581 -0.9211
 6230SOL     OW30322   2.460   3.741   2.078 -0.1074  0.1872 -0.3023
 6230SOL    HW130323   2.507   3.696   2.008  1.1872  0.4399  0.4057
 6230SOL    HW230324   2.523   3.746   2.150 -0.4342  0.0927 -0.0104
 6231SOL     OW30325   0.547   1.423   7.172 -0.5197  0.2960  0.0966
 6231SOL    HW130326   0.547   1.517   7.190  0.0888  0.1895  0.6498
 6231SOL    HW230327   0.462   1.388   7.199 -0.6809  0.3948 -0.2803
 6232SOL     OW30328   3.617   3.586   1.747  0.3595  0.0588 -0.5338
 6232SOL    HW130329   3.554   3.658   1.752  0.2419 -0.0414 -0.5601
 6232SOL    HW230330   3.701   3.621   1.776 -0.1824  0.7124  0.2347
 6233SOL     OW30331   2.817   2.902   1.200  0.1453 -0.7623 -0.7447
 6233SOL    HW130332   2.745   2.844   1.224 -1.1164  1.8005  1.5802
 6233SOL    HW230333   2.813   2.895   1.104 -2.9016  2.6781 -0.8418
 6234SOL     OW30334   3.908   3.596   9.838 -0.2753  0.4310  0.4899
 6234SOL    HW130335   3.857   3.622   9.761  1.8998 -1.1892 -1.5098
 6234SOL    HW230336   3.844   3.624   9.903  0.7144 -0.1520  1.7048
 6235SOL     OW30337   2.458   1.103   8.255  0.2108  0.1375  0.1624
 6235SOL    HW130338   2.473   1.136   8.344  0.2928  2.1309 -0.5810
 6235SOL    HW230339   2.376   1.055   8.268  0.5661  0.0527  2.1603
 6236SOL     OW30340   0.711   4.301   2.813  0.1318 -0.4013 -0.3708
 6236SOL    HW130341   0.794   4.329   2.774 -0.2004  0.1046 -0.7156
 6236SOL    HW230342   0.646   4.340   2.754 -2.0678 -0.0216  2.3402
 6237SOL     OW30343   4.256   0.423   6.414 -0.7806  0.3910 -0.0150
 6237SOL    HW130344   4.284   0.502   6.368  0.7535 -0.4454 -0.4977
 6237SOL    HW230345   4.297   0.429   6.500  1.8963  0.3579 -1.2754
 6238SOL     OW30346   2.808   4.613  11.923  0.1691  0.8251 -0.4300
 6238SOL    HW130347   2.765   4.577  11.845  0.8175 -1.3337  0.2070
 6238SOL    HW230348   2.728   4.601  11.975 -0.4071  1.4422 -1.1725
 6239SOL     OW30349   0.888   0.051   7.627  0.0410 -0.3147  0.4384
 6239SOL    HW130350   0.913   4.711   7.580 -1.0572 -0.1642 -0.4185
 6239SOL    HW230351   0.862   0.021   7.714  2.3002 -3.5934  0.0244
 6240SOL     OW30352   1.329   0.271   6.190 -0.1795 -0.3801  0.2276
 6240SOL    HW130353   1.336   0.292   6.097  0.0794  1.1632  0.6069
 6240SOL    HW230354   1.320   0.175   6.186  2.0059 -0.6230  1.1083
 6241SOL     OW30355   0.212   4.192   9.802 -0.0324 -0.3655  0.6889
 6241SOL    HW130356   0.255   4.276   9.813  1.6384 -0.8269 -2.3073
 6241SOL    HW230357   0.171   4.182   9.888 -0.3461 -0.0591  0.5738
 6242SOL     OW30358   1.622   2.291   3.254  0.7146  0.0437  0.4213
 6242SOL    HW130359   1.570   2.252   3.184  1.6688  0.1015 -0.3148
 6242SOL    HW230360   1.686   2.339   3.202  0.6945 -0.5873 -0.1850
 6243SOL     OW30361   4.298   4.282  11.851 -0.2529 -0.2800 -0.0307
 6243SOL    HW130362   4.378   4.229  11.846 -0.3277 -0.4033  0.0857
 6243SOL    HW230363   4.228   4.218  11.866 -0.3737 -0.2324 -0.3881
 6244SOL     OW30364   2.635   0.451   3.294  0.1566 -0.0376  0.2909
 6244SOL    HW130365   2.670   0.507   3.225  0.1756  0.9307  1.0935
 6244SOL    HW230366   2.555   0.499   3.314  0.1362  0.2533 -0.4959
 6245SOL     OW30367   0.071   2.575   7.838  0.3781  0.2916 -0.0071
 6245SOL    HW130368   4.728   2.557   7.882 -1.2854  1.8596 -2.4657
 6245SOL    HW230369   0.064   2.666   7.807 -1.7203 -0.6439 -2.2886
 6246SOL     OW30370   4.232   1.428   0.533 -0.2766  0.1207  0.3856
 6246SOL    HW130371   4.230   1.354   0.593  1.0736  0.0013  0.2887
 6246SOL    HW230372   4.155   1.460   0.580 -0.6962  1.8044 -1.4674
 6247SOL     OW30373   1.266   3.838   2.904  0.5326  0.2466 -0.0001
 6247SOL    HW130374   1.241   3.931   2.899  2.2656  0.7187  0.0177
 6247SOL    HW230375   1.204   3.787   2.852  0.0331 -1.5355  2.3607
 6248SOL     OW30376   0.859   0.811  10.868  0.4079 -0.0355 -0.5270
 6248SOL    HW130377   0.891   0.744  10.928 -1.3536  0.1255  0.5827
 6248SOL    HW230378   0.786   0.842  10.922  0.5126 -1.0788  0.1986
 6249SOL     OW30379   1.181   0.400   9.219 -0.2292 -0.4694 -0.2394
 6249SOL    HW130380   1.118   0.472   9.224  0.3566 -0.1319  2.6694
 6249SOL    HW230381   1.128   0.326   9.191 -0.0535 -0.5211 -0.4304
 6250SOL     OW30382   1.694   3.422  10.217 -0.4202 -0.3127  0.1335
 6250SOL    HW130383   1.761   3.362  10.186  1.0597  2.5413 -2.1425
 6250SOL    HW230384   1.742   3.504  10.226  0.1826 -0.3172 -2.9279
 6251SOL     OW30385   1.406   2.177   6.859 -0.7954  0.2790 -0.2077
 6251SOL    HW130386   1.439   2.258   6.821  0.0960  0.0539  0.0995
 6251SOL    HW230387   1.311   2.192   6.867 -0.7444  0.1914  0.5347
 6252SOL     OW30388   2.977   0.688   3.153 -0.4498  0.2294 -0.0724
 6252SOL    HW130389   2.988   0.649   3.066 -1.2952  1.0508 -0.5462
 6252SOL    HW230390   2.995   0.613   3.209  0.1887 -0.4365 -1.1604
 6253SOL     OW30391   3.962   1.599   4.150  0.9732  0.0691  0.2384
 6253SOL    HW130392   4.020   1.552   4.210 -0.5795 -3.1037 -0.7412
 6253SOL    HW230393   4.020   1.656   4.100  2.5081 -1.7782 -0.0990
 6254SOL     OW30394   0.743   0.018   2.277  0.1194 -0.4924  0.0808
 6254SOL    HW130395   0.829   4.716   2.273  1.1244  1.5336  0.6223
 6254SOL    HW230396   0.770   0.108   2.295 -0.4755 -0.5014  1.0817
 6255SOL     OW30397   0.825   1.372  14.944 -0.3792  0.3620  0.2311
 6255SOL    HW130398   0.756   1.376  14.878  0.3311 -1.3055 -0.6218
 6255SOL    HW230399   0.900   1.335  14.897  0.1277 -0.1729  1.4603
 6256SOL     OW30400   0.631   0.234   5.925  0.0615 -0.0805 -0.3407
 6256SOL    HW130401   0.552   0.244   5.978  0.8218 -0.7824  0.9351
 6256SOL    HW230402   0.697   0.274   5.981  0.4957 -1.9256  0.4567
 6257SOL     OW30403   0.917   4.604   6.027 -0.7836 -0.0516  0.2262
 6257SOL    HW130404   0.855   4.664   5.985 -0.4740  0.6271  0.7308
 6257SOL    HW230405   0.907   4.525   5.974 -3.0710  0.6543 -0.4215
 6258SOL     OW30406   0.179   1.551   1.140 -0.0809 -0.1781 -0.2242
 6258SOL    HW130407   0.139   1.470   1.173 -0.3468 -0.0882 -0.3339
 6258SOL    HW230408   0.171   1.619   1.207  0.9971 -1.8390  1.6115
 6259SOL     OW30409   4.248   0.261   3.950  0.0476  0.3972  0.1443
 6259SOL    HW130410   4.178   0.211   3.991  0.1436  1.2705  1.3878
 6259SOL    HW230411   4.311   0.273   4.022  0.2291 -0.7817  0.1870
 6260SOL     OW30412   1.444   3.259   5.822 -0.2570 -0.0665 -0.1113
 6260SOL    HW130413   1.382   3.269   5.893  0.9749 -0.2419  0.9965
 6260SOL    HW230414   1.421   3.339   5.775 -2.9519  0.0838  1.4664
 6261SOL     OW30415   4.516   4.614   2.222 -0.9201  0.3276 -0.9325
 6261SOL    HW130416   4.604   4.577   2.227 -0.5984  1.2409  0.0542
 6261SOL    HW230417   4.527   4.706   2.245 -1.7086 -0.2102  1.5392
 6262SOL     OW30418   0.533   3.381   2.986 -0.7069 -0.4099 -0.0151
 6262SOL    HW130419   0.578   3.319   2.929 -0.7575  0.1933 -0.7101
 6262SOL    HW230420   0.443   3.366   2.956 -1.3194 -0.3117  1.7262
 6263SOL     OW30421   4.499   2.757   8.100  0.0467  0.1369  0.2800
 6263SOL    HW130422   4.472   2.715   8.181 -0.0784  1.6670  1.0279
 6263SOL    HW230423   4.421   2.745   8.045  1.0219  2.2172 -1.5816
 6264SOL     OW30424   4.096   1.448   5.641 -0.5254 -0.5345  0.3350
 6264SOL    HW130425   4.043   1.371   5.621  1.4081 -1.8316  0.2037
 6264SOL    HW230426   4.027   1.511   5.622  0.1546  0.5644  1.4774
 6265SOL     OW30427   3.821   0.365  15.209 -0.3733 -0.6353  0.4123
 6265SOL    HW130428   3.839   0.458  15.196 -0.0414 -0.1892  4.1612
 6265SOL    HW230429   3.736   0.348  15.169 -0.6643  0.9223  0.3823
 6266SOL     OW30430   0.111   0.671   0.974 -0.2634 -0.3530 -0.4684
 6266SOL    HW130431   0.050   0.717   1.031 -0.9524 -2.6097  0.6147
 6266SOL    HW230432   0.072   0.685   0.887  1.2468 -2.3758 -1.4695
 6267SOL     OW30433   0.043   0.807   8.383  0.2287  0.0901 -0.6964
 6267SOL    HW130434   0.133   0.791   8.411 -0.2761  0.0138  0.8847
 6267SOL    HW230435   0.041   0.902   8.397  0.0006  0.1049 -0.8339
 6268SOL     OW30436   0.973   3.053   5.418 -0.2036  0.2701 -0.4596
 6268SOL    HW130437   0.923   2.971   5.412 -0.0931  0.1793 -0.1688
 6268SOL    HW230438   1.059   3.026   5.388 -0.1589  1.0864 -1.0490
 6269SOL     OW30439   1.542   4.689  12.505 -0.2876  0.0053 -0.2001
 6269SOL    HW130440   1.627   4.703  12.546 -1.0023 -1.5225  1.8177
 6269SOL    HW230441   1.555   4.602  12.468  0.0044  0.3473 -0.9178
 6270SOL     OW30442   3.646   0.836   7.166 -0.3087  0.2687 -0.1396
 6270SOL    HW130443   3.672   0.903   7.229  0.9476 -0.7009  0.3773
 6270SOL    HW230444   3.730   0.800   7.137 -1.3131 -1.1255 -1.3008
 6271SOL     OW30445   2.346   4.280   6.581 -0.2252  0.1662 -0.1330
 6271SOL    HW130446   2.375   4.362   6.542  0.0821 -0.4830 -1.2825
 6271SOL    HW230447   2.330   4.301   6.673 -1.0550  1.2173 -0.5197
 6272SOL     OW30448   3.479   4.701   8.416 -0.1053  0.1231  0.4154
 6272SOL    HW130449   3.561   0.010   8.422  0.2035 -0.3671  0.0846
 6272SOL    HW230450   3.432   0.031   8.369 -1.3066  0.1762  1.6696
 6273SOL     OW30451   4.212   2.002  16.062 -0.1092  0.2830  0.6894
 6273SOL    HW130452   4.248   2.002  16.150  1.3062  1.4849  0.1127
 6273SOL    HW230453   4.203   2.091  16.027 -2.7154  0.5231  1.9530
 6274SOL     OW30454   4.364   3.904   7.740  0.3473 -0.6437  0.2297
 6274SOL    HW130455   4.377   3.832   7.679  1.4563 -0.4928  0.2931
 6274SOL    HW230456   4.448   3.944   7.760  0.3408 -0.6046  0.1808
 6275SOL     OW30457   1.420   2.405  10.205  0.5450  0.3870 -0.0876
 6275SOL    HW130458   1.349   2.342  10.215 -0.3191  1.6194  1.5580
 6275SOL    HW230459   1.430   2.395  10.111  2.0868 -0.1238  0.1232
 6276SOL     OW30460   1.364   2.278   4.263  0.2590  0.5998  0.1968
 6276SOL    HW130461   1.292   2.312   4.315  0.3206  1.0660 -0.0233
 6276SOL    HW230462   1.345   2.309   4.174  1.3696  2.5352  0.6304
 6277SOL     OW30463   1.285   1.101   8.831  0.4655  0.0301 -0.4208
 6277SOL    HW130464   1.211   1.041   8.823  1.0731 -0.8222  0.3104
 6277SOL    HW230465   1.364   1.046   8.830  0.5472  0.1299  0.2519
 6278SOL     OW30466   2.135   0.404  14.210  0.1303  0.2795 -0.6011
 6278SOL    HW130467   2.096   0.475  14.158 -1.3206 -0.6711 -0.8062
 6278SOL    HW230468   2.063   0.342  14.202  1.2055 -1.1180  0.5766
 6279SOL     OW30469   0.367   0.447  12.391  0.4123  0.3477 -0.0452
 6279SOL    HW130470   0.355   0.415  12.481 -0.4016  1.8030  0.3501
 6279SOL    HW230471   0.463   0.447  12.385  0.3710 -0.1919 -0.7338
 6280SOL     OW30472   2.612   3.870   8.861  0.1840 -0.6146  0.1779
 6280SOL    HW130473   2.654   3.902   8.941  0.8492 -3.1217  0.8071
 6280SOL    HW230474   2.647   3.941   8.807  0.0681 -0.1854  0.6701
 6281SOL     OW30475   1.556   1.892   8.467 -0.7582  0.1359  0.2377
 6281SOL    HW130476   1.465   1.916   8.486 -0.4179  1.7309 -0.1147
 6281SOL    HW230477   1.586   1.965   8.412 -0.8946  0.9355  1.2131
 6282SOL     OW30478   2.821   2.533   5.976 -0.8767 -0.2044 -0.1395
 6282SOL    HW130479   2.843   2.461   6.035  0.7273 -0.0854 -0.5875
 6282SOL    HW230480   2.854   2.612   6.019 -0.1654  0.2039 -1.4440
 6283SOL     OW30481   4.709   4.017  17.709 -0.2758 -0.2751  0.0314
 6283SOL    HW130482   0.063   4.032  17.691  0.1493 -0.7471  1.8399
 6283SOL    HW230483   4.704   3.927  17.741 -0.6899  0.4360  2.0003
 6284SOL     OW30484   2.923   3.238   7.651 -0.1400 -0.2354  0.1425
 6284SOL    HW130485   2.961   3.199   7.730 -0.6210 -0.9491  0.0299
 6284SOL    HW230486   2.957   3.326   7.666 -1.0413  0.2376 -0.5677
 6285SOL     OW30487   1.145   1.083   3.949 -0.0500 -0.2268  0.0953
 6285SOL    HW130488   1.127   1.039   3.865 -0.5504 -0.5376  0.3623
 6285SOL    HW230489   1.199   1.155   3.916 -1.4125  0.1106 -1.4241
 6286SOL     OW30490   1.705   3.576  10.470  0.2496 -1.0628  0.4772
 6286SOL    HW130491   1.751   3.650  10.432 -0.0549 -0.7602  0.7056
 6286SOL    HW230492   1.756   3.499  10.445 -0.9368 -1.0234 -2.0814
 6287SOL     OW30493   4.455   4.638   0.394 -0.3824  0.6244  0.4584
 6287SOL    HW130494   4.444   4.728   0.424  2.0516  0.7591  0.9502
 6287SOL    HW230495   4.543   4.639   0.357 -0.5760 -2.2846 -0.0615
 6288SOL     OW30496   1.361   4.595   2.994 -0.4396 -0.1287 -0.1426
 6288SOL    HW130497   1.384   4.550   3.076  2.6312  0.6433 -0.5634
 6288SOL    HW230498   1.451   4.619   2.973  0.2487 -1.2275  1.5569
 6289SOL     OW30499   3.483   3.644   7.365 -0.2923 -0.3187 -0.1557
 6289SOL    HW130500   3.416   3.707   7.338  0.5015  1.6423  2.3852
 6289SOL    HW230501   3.459   3.578   7.300 -0.8865  1.2339 -1.5204
 6290SOL     OW30502   0.484   1.053   4.875 -0.1656  0.1127 -0.5763
 6290SOL    HW130503   0.462   0.961   4.857  0.8345 -0.2611  0.1502
 6290SOL    HW230504   0.396   1.084   4.895 -0.2600 -1.7430  1.8788
 6291SOL     OW30505   0.212   4.544   2.633  0.7332 -0.1067 -0.0862
 6291SOL    HW130506   0.267   4.586   2.699 -0.0722  0.0748  0.4751
 6291SOL    HW230507   0.267   4.481   2.587  0.1088 -0.0940 -0.8612
 6292SOL     OW30508   0.846   3.167   7.484 -0.2690  0.0561  0.4215
 6292SOL    HW130509   0.770   3.170   7.541 -1.5463  0.6461 -1.3299
 6292SOL    HW230510   0.907   3.209   7.545  0.3965  0.2668 -0.3730
 6293SOL     OW30511   2.901   2.336   6.148  0.0178 -0.1596  0.3996
 6293SOL    HW130512   2.841   2.307   6.216  0.4716 -2.5188 -0.1992
 6293SOL    HW230513   2.903   2.260   6.090  1.0297 -0.0872  0.3292
 6294SOL     OW30514   0.764   2.735  13.833 -0.2357  0.2146  0.1395
 6294SOL    HW130515   0.852   2.738  13.794 -0.3401  0.5997 -0.0674
 6294SOL    HW230516   0.739   2.826  13.817 -1.5513  0.1548  1.8895
 6295SOL     OW30517   2.622   3.810  13.553  0.1639 -0.1297 -0.4666
 6295SOL    HW130518   2.613   3.856  13.636 -0.8559 -1.1893  0.0083
 6295SOL    HW230519   2.707   3.840  13.522 -0.0347  0.3551 -0.5455
 6296SOL     OW30520   3.973   3.561   6.142  0.4473  0.7134  0.1839
 6296SOL    HW130521   3.967   3.472   6.105  1.8137 -0.5294  2.9236
 6296SOL    HW230522   4.018   3.545   6.224  0.7142  2.9095  0.4632
 6297SOL     OW30523   0.364   2.342   2.113  0.2176 -0.1064  0.6063
 6297SOL    HW130524   0.310   2.380   2.183 -0.0148  2.1187 -0.8002
 6297SOL    HW230525   0.335   2.250   2.117 -0.0270  0.0043  1.5903
 6298SOL     OW30526   4.135   0.532   6.755 -0.4746  0.2002 -0.5699
 6298SOL    HW130527   4.100   0.561   6.670  1.1699  0.2974 -1.2127
 6298SOL    HW230528   4.203   0.468   6.734  0.2085 -0.2346  2.9373
 6299SOL     OW30529   1.944   2.823   1.151 -0.1588 -0.3258 -0.2882
 6299SOL    HW130530   1.910   2.890   1.211  2.6540 -0.0648  1.0512
 6299SOL    HW230531   1.868   2.820   1.093 -0.8554 -0.8348  0.6526
 6300SOL     OW30532   1.854   0.407  14.969  0.1852 -0.1659 -0.4675
 6300SOL    HW130533   1.917   0.378  14.904 -0.0094 -1.1505 -0.2241
 6300SOL    HW230534   1.807   0.326  14.991 -0.1344  0.5277  1.4369
 6301SOL     OW30535   0.505   4.478  14.470 -0.4288 -0.2177  0.5687
 6301SOL    HW130536   0.571   4.505  14.406  0.1519 -4.7127 -0.7267
 6301SOL    HW230537   0.507   4.537  14.545 -0.8948 -1.8274  1.8632
 6302SOL     OW30538   2.844   3.156   5.807 -0.0778 -0.0759 -0.2040
 6302SOL    HW130539   2.800   3.189   5.886  1.9440  1.2494  0.3880
 6302SOL    HW230540   2.852   3.238   5.759 -3.7539 -0.2392 -1.1082
 6303SOL     OW30541   2.647   3.799   2.270  0.0802  0.3285  0.1691
 6303SOL    HW130542   2.735   3.834   2.257  0.8216 -0.9176  1.7532
 6303SOL    HW230543   2.639   3.785   2.365  0.1229  0.8505  0.2500
 6304SOL     OW30544   2.586   4.526   3.975  0.2970 -0.1641  0.5181
 6304SOL    HW130545   2.617   4.548   3.886 -0.3867  1.2838  0.6316
 6304SOL    HW230546   2.524   4.458   3.950  1.3205 -1.6586  2.1040
 6305SOL     OW30547   0.717   0.906  17.029 -0.8328 -0.0650 -0.3160
 6305SOL    HW130548   0.696   0.987  16.982 -0.1562  0.3799  0.1460
 6305SOL    HW230549   0.737   0.944  17.115 -1.1411  0.9551 -0.7009
 6306SOL     OW30550   4.223   1.477   6.559  0.6783 -0.2399  0.9148
 6306SOL    HW130551   4.229   1.393   6.604  1.9782 -0.5615  0.1336
 6306SOL    HW230552   4.306   1.511   6.591  0.6455 -0.0271  0.7780
 6307SOL     OW30553   1.621   2.350   1.594 -0.4764 -0.0317 -0.1110
 6307SOL    HW130554   1.562   2.384   1.661  0.6272  0.3040  0.7015
 6307SOL    HW230555   1.677   2.427   1.581  0.2822 -0.7290 -0.9342
 6308SOL     OW30556   4.397   0.824   6.465 -0.2979 -0.1491  0.2441
 6308SOL    HW130557   4.324   0.877   6.433  0.9248  0.6783 -1.2048
 6308SOL    HW230558   4.461   0.895   6.475  0.1702 -0.5194 -0.1391
 6309SOL     OW30559   0.225   3.180   5.555  0.7192 -0.2623 -0.5329
 6309SOL    HW130560   0.146   3.125   5.557  1.0937 -0.7136  2.4509
 6309SOL    HW230561   0.251   3.183   5.647  1.6006 -2.4692 -0.7098
 6310SOL     OW30562   3.906   3.541   7.071  0.4930 -0.6711  0.1583
 6310SOL    HW130563   3.838   3.510   7.012 -1.0522 -1.6417  2.4763
 6310SOL    HW230564   3.987   3.495   7.049 -1.2099 -3.9189  0.7971
 6311SOL     OW30565   1.376   2.958   9.735 -0.2959  0.5225  0.5041
 6311SOL    HW130566   1.457   2.919   9.767 -0.4132  0.1227  0.3166
 6311SOL    HW230567   1.385   2.957   9.639 -0.9930 -0.0282  0.4461
 6312SOL     OW30568   3.816   4.699  12.032  0.1865 -0.3327 -0.2603
 6312SOL    HW130569   3.795   0.018  11.959  2.1124  0.7402  0.0318
 6312SOL    HW230570   3.736   4.697  12.085 -0.8892 -0.4434 -1.9082
 6313SOL     OW30571   3.201   3.396  14.645  0.5483 -0.2978  0.3203
 6313SOL    HW130572   3.189   3.303  14.663 -0.6239 -0.3377 -0.6603
 6313SOL    HW230573   3.209   3.389  14.550  1.2746  0.7496  0.3066
 6314SOL     OW30574   0.653   4.615   1.717 -0.3389  0.9086  0.0590
 6314SOL    HW130575   0.578   4.558   1.706 -0.6924  1.5299 -0.7172
 6314SOL    HW230576   0.719   4.569   1.664 -1.2394 -0.7620  0.4051
 6315SOL     OW30577   1.129   3.482  14.721 -0.0353 -0.2311  0.9962
 6315SOL    HW130578   1.114   3.443  14.807 -0.1522 -1.5233  0.3894
 6315SOL    HW230579   1.218   3.453  14.704 -0.2095  0.7690 -1.5231
 6316SOL     OW30580   1.719   1.577  13.472  0.1587 -0.1356  0.1825
 6316SOL    HW130581   1.792   1.542  13.421  0.5407 -0.6865  1.1009
 6316SOL    HW230582   1.651   1.517  13.441  0.2571  0.5933 -1.4692
 6317SOL     OW30583   3.282   4.200   0.695  0.0889 -0.3227 -0.0181
 6317SOL    HW130584   3.257   4.109   0.682  0.6350  0.0308 -3.6530
 6317SOL    HW230585   3.351   4.210   0.628 -0.8944  2.6822 -0.5773
 6318SOL     OW30586   3.811   0.472   5.806 -0.2912 -0.0172  0.4173
 6318SOL    HW130587   3.831   0.558   5.844 -0.6111  1.3537 -2.4695
 6318SOL    HW230588   3.842   0.488   5.716 -1.4260 -2.1944 -0.3403
 6319SOL     OW30589   0.064   0.034   4.397 -0.0203 -0.9772  0.3325
 6319SOL    HW130590   0.153   0.001   4.392  0.7011  1.8909 -4.7824
 6319SOL    HW230591   0.024   4.709   4.338 -0.0029 -0.5802 -0.1104
 6320SOL     OW30592   0.077   3.445  15.174  0.3139  0.1512 -0.1441
 6320SOL    HW130593   4.735   3.448  15.125 -0.2290 -0.0575  0.7442
 6320SOL    HW230594   0.060   3.519  15.233 -1.5091 -1.6512  1.5797
 6321SOL     OW30595   2.868   1.789   0.896 -0.2480  0.0241  0.6915
 6321SOL    HW130596   2.864   1.754   0.807  1.3570  0.9654  0.2693
 6321SOL    HW230597   2.925   1.729   0.945 -0.3991  0.2449  1.1428
 6322SOL     OW30598   0.277   0.587   2.233 -0.3135 -0.6308  0.1692
 6322SOL    HW130599   0.258   0.525   2.163  0.7870  0.5280 -1.1616
 6322SOL    HW230600   0.246   0.673   2.203 -1.7024 -1.0002  0.5306
 6323SOL     OW30601   2.699   1.004   3.673  0.8459 -0.6855 -0.0053
 6323SOL    HW130602   2.607   1.031   3.664  1.2003  0.7316  0.5896
 6323SOL    HW230603   2.735   1.041   3.592  0.4258 -0.4086 -0.0686
 6324SOL     OW30604   0.988   3.047   5.684  0.1600 -0.0447  0.2848
 6324SOL    HW130605   1.009   3.128   5.731  0.1616 -0.4076  0.9065
 6324SOL    HW230606   0.989   3.083   5.595  3.0910 -1.2985 -0.1949
 6325SOL     OW30607   3.398   3.392  16.936  0.3956 -0.0666 -0.6705
 6325SOL    HW130608   3.366   3.477  16.966 -2.5496 -1.4461  0.1025
 6325SOL    HW230609   3.441   3.376  17.021 -0.6831 -1.2967 -0.3629
 6326SOL     OW30610   0.546   1.412   7.994 -0.1534 -0.7410 -0.0040
 6326SOL    HW130611   0.510   1.444   8.076 -0.0796  0.1595 -0.3161
 6326SOL    HW230612   0.591   1.485   7.952 -0.2196 -0.3437  0.6180
 6327SOL     OW30613   2.458   1.158   9.588  0.0951  0.4923  0.4842
 6327SOL    HW130614   2.549   1.185   9.576  0.8199 -1.9340  0.4706
 6327SOL    HW230615   2.426   1.240   9.626 -3.0161 -0.8342  0.6945
 6328SOL     OW30616   3.769   1.768   9.054  0.2263 -0.2459  0.3534
 6328SOL    HW130617   3.852   1.811   9.075  1.2295 -2.0233  0.0847
 6328SOL    HW230618   3.797   1.684   9.092 -0.2115 -1.2287 -1.5325
 6329SOL     OW30619   1.056   3.856   6.760 -0.3737 -0.2892 -0.3099
 6329SOL    HW130620   1.142   3.896   6.747 -1.0207  1.3495  0.4469
 6329SOL    HW230621   1.044   3.850   6.855 -4.3187  0.3319 -0.7727
 6330SOL     OW30622   1.261   4.350   9.892  0.2130 -0.0434  0.0077
 6330SOL    HW130623   1.255   4.444   9.876  2.7390  0.0374 -0.5751
 6330SOL    HW230624   1.229   4.317   9.809  1.9109 -3.5272  0.7168
 6331SOL     OW30625   1.880   0.943   6.688  0.3210 -0.4050  0.0844
 6331SOL    HW130626   1.955   0.886   6.674  0.3507 -0.6200  1.1174
 6331SOL    HW230627   1.927   0.995   6.754  2.0554 -1.8452 -0.0461
 6332SOL     OW30628   1.840   0.404   9.926 -0.1085  0.0064  0.4002
 6332SOL    HW130629   1.887   0.396   9.843  0.9667  1.7151  0.8387
 6332SOL    HW230630   1.796   0.487   9.904 -1.6486 -0.8663  0.2057
 6333SOL     OW30631   4.729   4.232   1.310 -0.1253 -0.5455 -1.1786
 6333SOL    HW130632   4.685   4.148   1.317  0.2414 -0.6160  0.2009
 6333SOL    HW230633   4.709   4.267   1.397  1.5750  0.0741 -1.0383
 6334SOL     OW30634   2.052   2.952   2.192 -0.2020  0.2869 -0.5070
 6334SOL    HW130635   2.022   2.948   2.101 -0.7142  0.5938 -0.3564
 6334SOL    HW230636   2.136   2.998   2.187 -1.1864  2.0551 -0.6798
 6335SOL     OW30637   3.385   3.662   4.483 -0.2006  0.2181  0.5892
 6335SOL    HW130638   3.477   3.637   4.480 -0.3543 -0.2895  0.1847
 6335SOL    HW230639   3.356   3.606   4.554 -0.5972 -1.1790 -0.6770
 6336SOL     OW30640   2.299   3.990   0.705  0.5176  0.0312  0.5119
 6336SOL    HW130641   2.260   3.903   0.695 -2.0092  0.9764  2.1953
 6336SOL    HW230642   2.220   4.044   0.716  1.2977  1.5270 -1.1785
 6337SOL     OW30643   3.702   0.708  14.325 -0.3958 -0.7192  0.2924
 6337SOL    HW130644   3.679   0.615  14.317  0.5186 -0.5831 -4.0612
 6337SOL    HW230645   3.648   0.741  14.253 -2.2396 -2.1257  1.0453
 6338SOL     OW30646   1.761   3.124   4.792 -0.0717 -0.3190  0.1084
 6338SOL    HW130647   1.828   3.095   4.854 -0.3681 -2.5170 -0.6133
 6338SOL    HW230648   1.687   3.112   4.851  0.3628 -4.1533 -0.1229
 6339SOL     OW30649   3.562   2.613   1.691  0.2651 -0.0862  0.1888
 6339SOL    HW130650   3.468   2.628   1.681  0.2807 -0.4950 -0.6349
 6339SOL    HW230651   3.562   2.520   1.667  0.4137 -0.1963  0.6297
 6340SOL     OW30652   4.177   0.493   1.175 -0.2401  0.5328  0.3535
 6340SOL    HW130653   4.272   0.499   1.164 -0.0197  1.0094  2.4992
 6340SOL    HW230654   4.170   0.401   1.199 -2.1587  0.6455  0.2783
 6341SOL     OW30655   1.281   3.919   8.485 -0.1070  0.3533  0.2784
 6341SOL    HW130656   1.207   3.893   8.539  0.6887  2.2890  2.2750
 6341SOL    HW230657   1.290   4.003   8.530  0.7423  0.5684 -0.2721
 6342SOL     OW30658   1.966   3.027   2.437 -0.2842 -0.6990  0.1087
 6342SOL    HW130659   1.998   3.003   2.350  1.6122  1.5175  0.1907
 6342SOL    HW230660   1.956   2.942   2.481 -0.6785 -0.7869 -0.1524
 6343SOL     OW30661   0.912   0.585  11.019  0.3358  0.1484  0.5333
 6343SOL    HW130662   0.942   0.505  10.978 -1.8335 -0.7610  0.7053
 6343SOL    HW230663   0.820   0.564  11.038  0.2416  0.8926  0.9121
 6344SOL     OW30664   4.657   3.845   5.567 -0.0773  0.8847 -0.3148
 6344SOL    HW130665   4.624   3.935   5.571  0.7199  1.1606 -0.0239
 6344SOL    HW230666   4.680   3.837   5.659 -0.7418 -1.9812 -0.3931
 6345SOL     OW30667   1.622   1.662  13.709 -0.1562 -0.4638 -0.1972
 6345SOL    HW130668   1.712   1.642  13.735  0.1907  1.2913 -0.0951
 6345SOL    HW230669   1.642   1.642  13.617 -1.9876  1.8908 -1.0911
 6346SOL     OW30670   2.791   4.631  17.326  0.6405 -0.3442  0.2720
 6346SOL    HW130671   2.872   4.672  17.355  0.1309  0.9869 -0.2114
 6346SOL    HW230672   2.822   4.585  17.247 -2.2768  0.2290 -1.2136
 6347SOL     OW30673   4.129   0.849   8.394 -0.2585 -0.3257 -0.0933
 6347SOL    HW130674   4.098   0.842   8.484 -0.6328 -0.0945 -0.2066
 6347SOL    HW230675   4.060   0.902   8.356 -0.2074 -0.0087  0.2505
 6348SOL     OW30676   3.602   3.045  17.650 -0.6631  0.0677  0.2862
 6348SOL    HW130677   3.695   3.064  17.639 -1.0792  2.3140  0.6150
 6348SOL    HW230678   3.575   3.121  17.701  2.8361 -0.1382  2.4573
 6349SOL     OW30679   4.087   1.125   6.210  0.0307 -0.1482  0.2286
 6349SOL    HW130680   4.066   1.214   6.240 -1.9063 -0.8269  0.8961
 6349SOL    HW230681   4.178   1.124   6.239 -0.3579  3.1885  1.6376
 6350SOL     OW30682   3.455   2.383   8.568 -0.2166  0.3940 -0.3109
 6350SOL    HW130683   3.393   2.311   8.553 -0.3578  0.3448  0.5093
 6350SOL    HW230684   3.474   2.403   8.477 -2.9803 -0.4434 -1.0691
 6351SOL     OW30685   1.538   1.806   4.652 -0.3193 -0.7879 -0.3773
 6351SOL    HW130686   1.563   1.755   4.729  1.9779  1.8908  0.6695
 6351SOL    HW230687   1.617   1.811   4.599  0.0236  0.4182  0.2475
 6352SOL     OW30688   0.892   0.510   7.996  0.2175 -0.7823 -0.1901
 6352SOL    HW130689   0.802   0.539   7.978  0.6982  0.9181  0.1859
 6352SOL    HW230690   0.910   0.450   7.923 -0.3223  0.3602 -1.2699
 6353SOL     OW30691   1.327   0.517   9.449 -0.1266 -0.6816 -0.1459
 6353SOL    HW130692   1.385   0.441   9.451 -0.7687 -1.1994 -1.1380
 6353SOL    HW230693   1.244   0.473   9.433  0.0748 -0.0980 -2.6724
 6354SOL     OW30694   4.039   0.681   8.011 -0.0850  0.3172 -0.1497
 6354SOL    HW130695   3.962   0.726   8.046 -0.4449  0.9381 -1.7053
 6354SOL    HW230696   4.113   0.695   8.070 -0.5174  2.1957 -0.0534
 6355SOL     OW30697   3.906   4.142   0.864 -0.0614 -0.1465  0.3196
 6355SOL    HW130698   3.949   4.116   0.783 -1.2402 -1.1531  0.0084
 6355SOL    HW230699   3.932   4.234   0.871 -0.2398 -0.1947  1.6390
 6356SOL     OW30700   4.258   2.536  16.806  0.1608  0.3177  0.0374
 6356SOL    HW130701   4.186   2.579  16.851  0.0078  0.8486 -0.7021
 6356SOL    HW230702   4.327   2.542  16.872 -1.3167  0.9405  1.5114
 6357SOL     OW30703   1.148   0.576   1.405  0.1017  0.7006 -0.1703
 6357SOL    HW130704   1.068   0.533   1.373 -0.3988  1.0923  0.5442
 6357SOL    HW230705   1.147   0.548   1.497  1.1576 -0.8230 -0.6261
 6358SOL     OW30706   4.176   0.741  14.886  0.5539 -0.0608  0.8925
 6358SOL    HW130707   4.097   0.739  14.941 -0.3551  2.0158 -0.3161
 6358SOL    HW230708   4.230   0.683  14.939  2.0959 -0.7174 -1.4375
 6359SOL     OW30709   4.127   0.627  12.548  0.3535 -0.6180 -0.1281
 6359SOL    HW130710   4.131   0.533  12.532 -3.3995 -0.8214  0.0116
 6359SOL    HW230711   4.188   0.664  12.485  0.1623 -0.3433 -0.1520
 6360SOL     OW30712   3.551   4.552   4.419 -0.2871  0.3524 -0.1192
 6360SOL    HW130713   3.621   4.616   4.405  0.2078  0.0976  1.1543
 6360SOL    HW230714   3.484   4.610   4.455 -1.5208 -0.7948 -0.5935
 6361SOL     OW30715   0.152   2.549   0.237 -0.1517 -0.0815  0.6015
 6361SOL    HW130716   0.111   2.463   0.243 -0.0640 -0.1914 -0.3262
 6361SOL    HW230717   0.094   2.594   0.298 -0.1719  0.8109 -0.0669
 6362SOL     OW30718   3.852   2.312   5.138 -0.1762 -0.1023  0.0257
 6362SOL    HW130719   3.791   2.334   5.209  2.2426 -0.2955  2.1794
 6362SOL    HW230720   3.783   2.285   5.078  0.3465  0.9344 -1.0245
 6363SOL     OW30721   0.027   2.054   2.998 -0.5833  0.0842  0.0341
 6363SOL    HW130722   0.052   1.963   3.011  3.0520  1.0048 -0.6106
 6363SOL    HW230723   4.719   2.049   2.915 -1.1355  0.4353  0.3281
 6364SOL     OW30724   3.710   1.680   9.781  0.4580  0.3218 -0.3419
 6364SOL    HW130725   3.690   1.770   9.756 -0.0480  0.3446  0.1225
 6364SOL    HW230726   3.708   1.639   9.695 -1.5521 -1.3789  0.5016
 6365SOL     OW30727   1.223   2.436   7.840 -0.3049  0.4222  0.1892
 6365SOL    HW130728   1.161   2.363   7.847  1.8631 -1.5044 -0.5416
 6365SOL    HW230729   1.291   2.398   7.784  1.7366  2.6125  1.1484
 6366SOL     OW30730   2.202   3.545   8.022 -0.2495 -0.4612  0.0417
 6366SOL    HW130731   2.148   3.620   8.049 -0.7538 -1.6371  2.2549
 6366SOL    HW230732   2.266   3.532   8.091 -0.8334 -0.2157  0.6311
 6367SOL     OW30733   3.215   3.526  14.119 -0.2222 -0.3044 -0.3171
 6367SOL    HW130734   3.269   3.564  14.050 -0.5462 -0.3469 -0.5914
 6367SOL    HW230735   3.148   3.594  14.126  0.4819  0.5398 -1.8721
 6368SOL     OW30736   1.456   4.270   5.686  0.0084 -0.3247  0.4135
 6368SOL    HW130737   1.461   4.316   5.602  0.4728  0.0695  0.6536
 6368SOL    HW230738   1.544   4.295   5.715 -0.2667  0.6241  0.4364
 6369SOL     OW30739   1.477   0.148  16.611 -0.0767  0.2732  0.5612
 6369SOL    HW130740   1.459   0.173  16.521  0.1100 -0.0796  0.4224
 6369SOL    HW230741   1.434   0.214  16.664 -1.0953  0.7409 -0.8694
 6370SOL     OW30742   1.744   2.736  15.798  0.1596 -0.2598  0.6728
 6370SOL    HW130743   1.744   2.667  15.732  0.0287 -0.5930  1.0250
 6370SOL    HW230744   1.831   2.724  15.837  0.6137  0.4976 -0.0955
 6371SOL     OW30745   2.765   2.619   3.621  0.4740  0.0210 -0.3470
 6371SOL    HW130746   2.856   2.614   3.591  0.3588 -0.3051 -0.6330
 6371SOL    HW230747   2.750   2.703   3.579  1.2363  0.0102 -0.6424
 6372SOL     OW30748   4.418   1.718  17.392 -0.2179  0.1572  0.3549
 6372SOL    HW130749   4.485   1.698  17.458 -0.2584  2.5136  1.1263
 6372SOL    HW230750   4.407   1.632  17.352  2.5597 -0.1815  0.3373
 6373SOL     OW30751   0.026   4.310  13.491  0.2033  0.0141 -0.3724
 6373SOL    HW130752   4.690   4.367  13.509  0.8234  0.9951 -0.8785
 6373SOL    HW230753   0.100   4.366  13.468  0.7360  0.5341  2.6435
 6374SOL     OW30754   3.424   2.074   6.089  0.7363 -0.1144 -0.1565
 6374SOL    HW130755   3.375   2.118   6.019  1.4282  0.7635 -0.0875
 6374SOL    HW230756   3.382   2.105   6.169  0.4431 -0.7226 -0.0750
 6375SOL     OW30757   0.363   3.838   7.829 -0.0077  0.4030  0.3091
 6375SOL    HW130758   0.303   3.778   7.784  0.6071  0.1012 -0.1065
 6375SOL    HW230759   0.332   3.844   7.919  0.2093  0.8510  0.3497
 6376SOL     OW30760   0.891   1.319   3.756 -0.0765  0.0017 -0.1458
 6376SOL    HW130761   0.824   1.291   3.818  1.7275 -0.7211  1.4647
 6376SOL    HW230762   0.940   1.384   3.806 -0.3853 -0.5615  0.8776
 6377SOL     OW30763   3.794   4.455   8.998  0.1077  0.1600 -0.0590
 6377SOL    HW130764   3.844   4.427   9.075 -0.7514 -0.3895  0.2924
 6377SOL    HW230765   3.707   4.450   9.038  0.9623  0.2763  1.8454
 6378SOL     OW30766   2.001   0.420   6.051  0.5221  0.3785 -0.0888
 6378SOL    HW130767   2.003   0.375   5.967 -1.3900 -0.2874  0.2279
 6378SOL    HW230768   1.916   0.463   6.044  0.5187  0.2890 -0.5563
 6379SOL     OW30769   0.329   3.232  16.828 -0.5443  0.5540 -0.0467
 6379SOL    HW130770   0.276   3.178  16.887  0.6168 -1.3233 -0.7385
 6379SOL    HW230771   0.404   3.174  16.813 -1.3299 -1.3334  3.2811
 6380SOL     OW30772   1.902   3.289   6.370 -0.0419 -0.0220  0.1035
 6380SOL    HW130773   1.816   3.255   6.394 -0.9618  1.7320 -0.7687
 6380SOL    HW230774   1.942   3.322   6.450 -0.2643 -1.7888  0.9480
 6381SOL     OW30775   3.301   4.533   7.863  0.0708 -0.2603 -0.1439
 6381SOL    HW130776   3.391   4.559   7.844 -0.9185  2.3765 -1.2043
 6381SOL    HW230777   3.276   4.598   7.929 -2.8631 -1.6972  0.1773
 6382SOL     OW30778   3.348   1.215  11.832  0.9388  0.4213 -0.4558
 6382SOL    HW130779   3.297   1.135  11.817  1.6608 -0.2745  0.7872
 6382SOL    HW230780   3.300   1.256  11.905  0.0838 -0.2266 -0.6538
 6383SOL     OW30781   3.225   0.728   2.635 -0.2660 -0.1125  0.3528
 6383SOL    HW130782   3.304   0.741   2.687 -0.9625 -1.3349  1.7337
 6383SOL    HW230783   3.165   0.781   2.688 -0.7035  1.0937 -1.3620
 6384SOL     OW30784   3.822   2.170   3.754 -0.1984  0.2123 -0.7575
 6384SOL    HW130785   3.829   2.262   3.779 -1.8052  0.2502 -0.4668
 6384SOL    HW230786   3.828   2.182   3.659  1.9539  0.5164 -0.5925
 6385SOL     OW30787   0.970   1.734  14.489  0.1288  0.0384  0.1799
 6385SOL    HW130788   0.993   1.721  14.397 -1.2595 -0.3669 -0.1030
 6385SOL    HW230789   0.883   1.695  14.491  0.3607 -0.5506 -0.9734
 6386SOL     OW30790   4.381   4.155   6.198 -0.2030  0.1121 -0.9987
 6386SOL    HW130791   4.293   4.173   6.165 -0.6091 -0.8631 -0.4650
 6386SOL    HW230792   4.405   4.244   6.225 -0.6396 -0.3987  1.0939
 6387SOL     OW30793   3.675   1.907   2.248 -0.2721 -0.1192 -0.2902
 6387SOL    HW130794   3.609   1.927   2.181 -0.2123  0.4820 -0.1643
 6387SOL    HW230795   3.717   1.835   2.201 -0.4333  0.5945 -1.5368
 6388SOL     OW30796   3.326   3.432   3.941 -0.1058 -0.6435 -0.5573
 6388SOL    HW130797   3.327   3.523   3.911  2.5111 -0.5357 -0.2090
 6388SOL    HW230798   3.409   3.399   3.906 -0.9220 -2.0414 -1.1900
 6389SOL     OW30799   2.595   0.066   6.070  0.2078 -0.0883 -0.8836
 6389SOL    HW130800   2.610   0.046   5.978 -0.8494 -1.7106 -0.7061
 6389SOL    HW230801   2.674   0.029   6.109 -0.2840 -0.7846 -0.5569
 6390SOL     OW30802   1.884   3.433   1.918  0.0835  0.1302  0.7356
 6390SOL    HW130803   1.885   3.416   2.012  0.3420 -0.0609  0.6974
 6390SOL    HW230804   1.942   3.508   1.908 -0.6322  0.6399  0.3426
 6391SOL     OW30805   2.874   4.671   1.951  0.0909 -0.0181 -0.5655
 6391SOL    HW130806   2.809   4.628   2.007 -0.0643 -0.2427 -0.9229
 6391SOL    HW230807   2.930   4.725   2.007  2.7919 -1.8225 -1.5235
 6392SOL     OW30808   0.788   1.100   0.093  0.2504 -0.2429 -0.0965
 6392SOL    HW130809   0.772   1.155   0.170 -3.6369  1.5946 -2.1901
 6392SOL    HW230810   0.863   1.146   0.055 -0.0436  0.1333 -0.2216
 6393SOL     OW30811   1.795   1.971   6.279  0.2475 -0.3664 -0.0719
 6393SOL    HW130812   1.790   1.906   6.349  3.5379 -0.1526  0.3319
 6393SOL    HW230813   1.884   1.955   6.248  0.1394  0.5347 -0.8294
 6394SOL     OW30814   2.797   2.948   5.647 -0.2795  0.3181 -0.1236
 6394SOL    HW130815   2.798   3.014   5.716  1.0155  0.5944 -0.3940
 6394SOL    HW230816   2.732   2.887   5.680 -0.5533 -0.0218 -1.2997
 6395SOL     OW30817   1.931   4.195   0.551  0.5785 -0.0538 -0.8934
 6395SOL    HW130818   1.851   4.168   0.594  0.8210 -1.4702 -1.3366
 6395SOL    HW230819   1.952   4.286   0.575  0.7964 -0.1509 -0.7177
 6396SOL     OW30820   4.609   0.911   4.606  0.0336  0.9492 -0.2656
 6396SOL    HW130821   4.514   0.897   4.616  0.0351 -0.2318 -2.0216
 6396SOL    HW230822   4.622   0.977   4.538 -1.5802  0.8490 -0.6806
 6397SOL     OW30823   3.558   1.322   2.607 -0.4626 -0.7674  0.2133
 6397SOL    HW130824   3.575   1.241   2.560 -0.2032  0.0709 -1.1546
 6397SOL    HW230825   3.489   1.360   2.553  1.4891  1.0690 -1.0203
 6398SOL     OW30826   1.077   2.685  15.786  0.3099  0.4270  0.3383
 6398SOL    HW130827   1.031   2.748  15.841  0.1889  1.2591 -0.7019
 6398SOL    HW230828   1.059   2.605  15.834  0.5241  0.7158  0.9029
 6399SOL     OW30829   3.050   1.089   2.301  0.8565 -0.3352 -0.0538
 6399SOL    HW130830   3.012   1.120   2.383  0.0207 -0.4459 -0.4015
 6399SOL    HW230831   3.069   1.168   2.251 -0.7263  0.1269  0.0695
 6400SOL     OW30832   1.353   0.733   8.154 -0.2277 -0.2916  0.1231
 6400SOL    HW130833   1.329   0.640   8.161  1.2849 -0.6240  0.9618
 6400SOL    HW230834   1.292   0.752   8.083  0.8340  0.2898 -0.6306
 6401SOL     OW30835   3.441   1.620   9.885  0.0071 -0.0608 -0.3182
 6401SOL    HW130836   3.502   1.595   9.954  0.7947 -0.1971 -1.0681
 6401SOL    HW230837   3.438   1.716   9.889 -0.5337 -0.0401 -1.1313
 6402SOL     OW30838   2.284   0.323   5.787  0.0607  0.3127  0.1093
 6402SOL    HW130839   2.326   0.406   5.762  1.5948 -0.4650  0.1147
 6402SOL    HW230840   2.347   0.291   5.851  1.7704  2.0436 -0.6856
 6403SOL     OW30841   2.496   4.422   9.785 -0.1532  0.3817 -0.2983
 6403SOL    HW130842   2.476   4.341   9.832 -3.4154 -0.0653 -2.4475
 6403SOL    HW230843   2.440   4.411   9.709 -0.5682 -0.6259  0.1587
 6404SOL     OW30844   2.191   3.257  13.225  0.4122  0.2983  0.6396
 6404SOL    HW130845   2.283   3.250  13.199  0.1979  2.6985 -0.7498
 6404SOL    HW230846   2.154   3.190  13.168 -1.7562 -0.3965  2.8739
 6405SOL     OW30847   0.978   0.699   8.809 -0.0260  0.7917  0.1272
 6405SOL    HW130848   0.987   0.647   8.730  0.2631 -0.3721  0.9336
 6405SOL    HW230849   0.940   0.635   8.869  2.9877 -1.2966 -0.1831
 6406SOL     OW30850   2.517   3.564   9.510 -0.5710  0.1535 -0.0041
 6406SOL    HW130851   2.561   3.508   9.446 -2.1651 -0.4145 -0.6066
 6406SOL    HW230852   2.540   3.514   9.589  0.8609  0.8263  0.0087
 6407SOL     OW30853   2.841   1.686  12.214 -0.0923  0.3146  0.3239
 6407SOL    HW130854   2.794   1.765  12.240  1.0248  1.2298 -0.4529
 6407SOL    HW230855   2.777   1.654  12.150  0.3631 -0.7326  0.3848
 6408SOL     OW30856   1.495   0.418   3.697  0.2233 -0.3915 -0.4014
 6408SOL    HW130857   1.512   0.352   3.629  0.4104  0.8060 -1.5175
 6408SOL    HW230858   1.575   0.414   3.750 -0.0240 -0.3389 -0.0256
 6409SOL     OW30859   1.844   2.624   5.651  0.0826  0.0997  0.2843
 6409SOL    HW130860   1.865   2.666   5.734 -0.4453  2.0336 -0.5700
 6409SOL    HW230861   1.930   2.607   5.613  0.6335  0.2612  1.4683
 6410SOL     OW30862   3.802   1.313   4.968 -0.6979 -0.2928 -0.0183
 6410SOL    HW130863   3.775   1.287   5.056 -1.8128 -1.6914 -0.7803
 6410SOL    HW230864   3.724   1.285   4.921 -1.9567  4.1007 -0.6176
 6411SOL     OW30865   1.673   3.526   5.035  0.1742 -0.4441  0.1437
 6411SOL    HW130866   1.702   3.436   5.020  1.2779 -0.5406  2.6801
 6411SOL    HW230867   1.728   3.564   5.104  1.5260 -1.0890 -0.5760
 6412SOL     OW30868   1.186   2.041   4.434  0.3808 -0.1279 -0.3981
 6412SOL    HW130869   1.252   2.061   4.501 -2.7471  2.1096  1.9743
 6412SOL    HW230870   1.251   2.002   4.375  1.0162  2.1702 -1.2403
 6413SOL     OW30871   0.115   2.349   2.767  0.6043  0.0828 -0.2071
 6413SOL    HW130872   0.154   2.264   2.746  1.5290  0.1702  1.2106
 6413SOL    HW230873   0.183   2.407   2.733  0.1466  1.0622  0.5477
 6414SOL     OW30874   1.259   3.823   0.291 -0.6353 -0.0308 -0.4414
 6414SOL    HW130875   1.301   3.857   0.212  0.1731 -1.9369 -0.8301
 6414SOL    HW230876   1.330   3.785   0.342  0.3845  1.0576 -1.0604
 6415SOL     OW30877   3.163   2.347   4.722 -0.0775 -0.2490 -0.3122
 6415SOL    HW130878   3.182   2.368   4.813  1.6964  1.5645 -1.1147
 6415SOL    HW230879   3.193   2.257   4.706  1.9934  0.3877  0.0803
 6416SOL     OW30880   2.595   4.030   2.112 -0.0403  0.0702  0.5048
 6416SOL    HW130881   2.633   4.003   2.028 -0.8250  1.5020 -0.3173
 6416SOL    HW230882   2.575   3.945   2.150  0.9791 -0.2496  0.3238
 6417SOL     OW30883   4.235   1.042  11.716  0.2833  0.6541  0.1200
 6417SOL    HW130884   4.283   1.045  11.798 -0.0716  0.1215  0.3502
 6417SOL    HW230885   4.216   0.948  11.717 -1.4150  0.9637 -1.3946
 6418SOL     OW30886   4.093   1.570   7.652 -0.0233  0.7391  0.2967
 6418SOL    HW130887   4.169   1.588   7.708  0.3506 -0.5104  0.2041
 6418SOL    HW230888   4.035   1.640   7.682 -1.9359 -0.1075 -1.4947
 6419SOL     OW30889   4.086   2.343   7.257  0.1442  0.1841 -0.3869
 6419SOL    HW130890   4.058   2.263   7.213  0.0959  0.5419 -1.0013
 6419SOL    HW230891   4.004   2.392   7.260  0.2105  0.2141  1.4467
 6420SOL     OW30892   2.014   3.237  17.289 -0.1682 -0.1330 -0.5646
 6420SOL    HW130893   1.952   3.289  17.237 -1.5222 -2.1227 -0.9160
 6420SOL    HW230894   2.076   3.306  17.314 -0.6951  0.0079  0.3664
 6421SOL     OW30895   3.072   2.574   2.958 -0.1745 -0.0403 -0.5643
 6421SOL    HW130896   3.148   2.525   2.926 -2.6914 -3.7995 -0.7446
 6421SOL    HW230897   3.106   2.641   3.018 -0.8019  0.9107 -1.2600
 6422SOL     OW30898   3.204   0.977   0.730  0.1986  0.2112  0.3858
 6422SOL    HW130899   3.230   1.069   0.736  2.2499 -0.4348  1.3775
 6422SOL    HW230900   3.230   0.965   0.639  1.5567 -0.0048  0.8054
 6423SOL     OW30901   0.767   2.669  13.050 -0.3641 -0.3051 -0.0903
 6423SOL    HW130902   0.704   2.605  13.017  0.4354 -0.1840 -1.8453
 6423SOL    HW230903   0.735   2.667  13.140 -0.1768 -2.4946 -0.0622
 6424SOL     OW30904   4.174   0.093   2.463 -0.0626 -0.2934 -0.0141
 6424SOL    HW130905   4.090   0.120   2.426 -0.7960 -1.5199  0.7739
 6424SOL    HW230906   4.223   0.175   2.476  1.2531 -0.8892 -1.2304
 6425SOL     OW30907   1.068   2.930   8.954 -0.3288  0.6068 -0.0635
 6425SOL    HW130908   1.138   2.991   8.975 -1.2321  1.3000  0.9399
 6425SOL    HW230909   1.123   2.852   8.950 -1.7413 -0.4041  0.3864
 6426SOL     OW30910   0.084   1.824   5.204 -0.0384 -0.2437 -0.3195
 6426SOL    HW130911   4.730   1.817   5.184 -0.4396 -0.1262  1.4897
 6426SOL    HW230912   0.103   1.845   5.113  0.6379  0.4959 -0.0068
 6427SOL     OW30913   0.033   0.554  15.006 -1.0208  0.0010  0.8209
 6427SOL    HW130914   0.046   0.628  15.067  2.7697 -0.5030  0.6736
 6427SOL    HW230915   4.690   0.526  15.044 -0.9903  0.2376  1.0623
 6428SOL     OW30916   3.205   4.478   5.202 -0.6240 -0.2023 -0.0343
 6428SOL    HW130917   3.259   4.443   5.131 -0.5174 -0.0791 -0.0163
 6428SOL    HW230918   3.210   4.573   5.188  2.3025 -0.4606 -0.7266
 6429SOL     OW30919   1.774   3.545   6.372  0.5303 -0.0695  0.7844
 6429SOL    HW130920   1.731   3.542   6.457  0.4356  1.3799  0.7772
 6429SOL    HW230921   1.827   3.465   6.371  1.3187  0.4701 -2.3631
 6430SOL     OW30922   2.585   1.590  16.371 -0.0761 -0.1259  0.3474
 6430SOL    HW130923   2.536   1.562  16.448 -0.6532  1.2327  0.4628
 6430SOL    HW230924   2.577   1.684  16.355  2.3343 -0.0874 -0.7144
 6431SOL     OW30925   2.951   4.276   1.972  0.4442 -0.0475 -0.8472
 6431SOL    HW130926   2.992   4.318   1.896  0.3209  1.6466  0.0167
 6431SOL    HW230927   2.866   4.242   1.945 -0.7261  1.6639  0.6693
 6432SOL     OW30928   0.604   2.602   9.156  0.4408 -1.0106  0.5898
 6432SOL    HW130929   0.651   2.532   9.202 -1.1697 -1.7698  1.1131
 6432SOL    HW230930   0.675   2.617   9.094  0.6073  0.3223  1.1241
 6433SOL     OW30931   4.667   3.754  15.744 -0.0731  0.0589 -0.3322
 6433SOL    HW130932   4.592   3.770  15.802  0.6687  0.3019  0.5681
 6433SOL    HW230933   4.698   3.840  15.716  1.8301 -0.4355  0.2819
 6434SOL     OW30934   3.746   3.579   2.470 -0.1626 -0.7529  0.2372
 6434SOL    HW130935   3.797   3.521   2.414 -0.7583 -0.0477 -1.0284
 6434SOL    HW230936   3.797   3.660   2.465 -1.9330  0.0337 -4.8113
 6435SOL     OW30937   3.253   0.245  10.923  0.2296  0.6149 -0.0731
 6435SOL    HW130938   3.209   0.193  10.990  1.3633  0.8687  0.8895
 6435SOL    HW230939   3.207   0.216  10.845 -1.4222  0.1283  1.0782
 6436SOL     OW30940   2.156   3.482   8.932 -0.5269 -0.2683 -0.0950
 6436SOL    HW130941   2.065   3.451   8.939 -0.8391  0.7130  0.2255
 6436SOL    HW230942   2.146   3.576   8.948  0.2193  0.1108 -1.8385
 6437SOL     OW30943   0.539   0.732   5.148 -0.1999 -0.4906  0.1098
 6437SOL    HW130944   0.590   0.712   5.070 -0.8272  0.1453 -0.4706
 6437SOL    HW230945   0.586   0.698   5.224 -2.5367 -1.5106  1.0941
 6438SOL     OW30946   2.868   4.594   4.200  0.7828 -0.2634 -0.7551
 6438SOL    HW130947   2.941   4.641   4.242  1.8142  0.0562 -2.9031
 6438SOL    HW230948   2.803   4.633   4.259  1.1057 -0.6889 -0.1168
 6439SOL     OW30949   3.336   2.838  17.342 -0.4862  0.2143 -0.2820
 6439SOL    HW130950   3.366   2.856  17.431  2.0475  2.1218 -1.5316
 6439SOL    HW230951   3.366   2.747  17.338 -0.0889  0.2955  0.8740
 6440SOL     OW30952   1.541   2.874   2.578 -0.1051 -0.1139 -0.4703
 6440SOL    HW130953   1.527   2.870   2.484  1.5740 -0.6731 -0.7022
 6440SOL    HW230954   1.635   2.889   2.572  0.4299 -2.5495  2.0209
 6441SOL     OW30955   4.183   0.910   9.213 -0.4890  0.3457  0.4456
 6441SOL    HW130956   4.195   1.005   9.221  1.8226  0.0284  0.7072
 6441SOL    HW230957   4.266   0.873   9.243 -0.8780 -1.2739 -0.5107
 6442SOL     OW30958   3.510   2.577   3.790 -0.1128 -0.0190  0.4469
 6442SOL    HW130959   3.578   2.542   3.734 -0.5093 -1.7366  1.0368
 6442SOL    HW230960   3.447   2.613   3.728  0.8005  0.8484  0.0326
 6443SOL     OW30961   3.911   1.313   5.840  0.8250  0.4609 -0.3326
 6443SOL    HW130962   3.834   1.326   5.784  0.3353  0.9668  0.4536
 6443SOL    HW230963   3.924   1.397   5.883 -0.6209 -0.3808  1.7625
 6444SOL     OW30964   2.848   1.354   9.921  0.1654 -0.3892  0.2144
 6444SOL    HW130965   2.936   1.333   9.890  0.5516  1.5518  0.0218
 6444SOL    HW230966   2.846   1.450   9.921 -0.9114 -0.4206 -0.1844
 6445SOL     OW30967   1.308   2.781   1.085  0.1688  0.0537 -0.3052
 6445SOL    HW130968   1.216   2.805   1.077  0.6727  1.5284 -1.6551
 6445SOL    HW230969   1.301   2.686   1.084 -1.2230  0.1601 -0.1987
 6446SOL     OW30970   2.276   0.449  10.815  0.2125  0.4382 -0.1625
 6446SOL    HW130971   2.231   0.532  10.829  0.3271  0.3953  0.4469
 6446SOL    HW230972   2.265   0.421  10.724 -2.0311 -0.2900  0.3488
 6447SOL     OW30973   1.336   4.382  11.411  0.5450  0.8511  0.0678
 6447SOL    HW130974   1.408   4.444  11.402  0.4818  0.8235 -0.6325
 6447SOL    HW230975   1.331   4.374  11.507  3.5267  1.5231  0.2662
 6448SOL     OW30976   3.779   0.397   2.467 -0.0760 -0.3738 -0.3253
 6448SOL    HW130977   3.836   0.470   2.490 -0.2110 -0.5293  0.4854
 6448SOL    HW230978   3.695   0.439   2.482  0.1962  1.0669 -2.8027
 6449SOL     OW30979   1.828   4.690  12.483  0.9471  0.3566 -0.5743
 6449SOL    HW130980   1.894   4.719  12.546  1.1800 -1.8621  0.1791
 6449SOL    HW230981   1.789   0.037  12.469  0.8457  0.4456  0.2710
 6450SOL     OW30982   2.311   1.530   2.935  0.3635 -0.4039  0.1593
 6450SOL    HW130983   2.395   1.484   2.930  0.8838  0.3670  1.8918
 6450SOL    HW230984   2.327   1.593   3.005  0.5024  0.1556 -0.3862
 6451SOL     OW30985   4.545   0.054  13.029  0.1534 -0.1944 -0.8636
 6451SOL    HW130986   4.544   0.146  13.055 -0.9943  0.1918 -2.2440
 6451SOL    HW230987   4.455   0.049  12.996 -0.1118 -2.2923  0.2115
 6452SOL     OW30988   2.028   4.620   8.280 -0.1487  0.4797 -0.0301
 6452SOL    HW130989   2.052   4.648   8.192 -1.1529  0.6243 -0.2647
 6452SOL    HW230990   2.026   4.701   8.332  0.5663  0.1013  0.5846
 6453SOL     OW30991   1.416   1.419   5.945 -0.4173  0.8132 -0.4091
 6453SOL    HW130992   1.410   1.482   6.017  0.1146  0.6252 -0.2006
 6453SOL    HW230993   1.510   1.402   5.940 -0.7599 -0.8262 -1.3792
 6454SOL     OW30994   3.584   4.095   2.862  0.5870 -0.7113  0.3267
 6454SOL    HW130995   3.561   4.036   2.789 -1.2555  1.4499 -0.8329
 6454SOL    HW230996   3.580   4.036   2.937 -0.5073  2.1863  2.5295
 6455SOL     OW30997   4.115   4.211   6.146 -0.1143  0.1999  0.3676
 6455SOL    HW130998   4.071   4.291   6.177  0.5260 -0.0943  2.0690
 6455SOL    HW230999   4.068   4.150   6.202 -1.4490 -1.0800 -2.1599
 6456SOL     OW31000   4.124   4.349   8.042  0.3264  0.1917 -0.1464
 6456SOL    HW131001   4.098   4.332   7.952 -2.9171  0.7818  0.6642
 6456SOL    HW231002   4.039   4.347   8.086 -0.5477 -0.0679 -1.8565
 6457SOL     OW31003   1.647   4.594   0.647 -0.1886 -0.1502 -0.2069
 6457SOL    HW131004   1.701   4.661   0.605  0.8988 -1.1523 -0.3973
 6457SOL    HW231005   1.708   4.564   0.714  0.3934 -0.5518 -0.9055
 6458SOL     OW31006   3.146   4.122  12.083 -0.1664  0.4308  0.5661
 6458SOL    HW131007   3.167   4.200  12.032 -2.0005  1.0944  0.8064
 6458SOL    HW231008   3.220   4.107  12.142  0.3701  2.4127  0.4149
 6459SOL     OW31009   2.718   4.159   2.834  0.0738 -0.4433  0.1352
 6459SOL    HW131010   2.764   4.179   2.753 -0.2729  0.5588  0.1829
 6459SOL    HW231011   2.644   4.107   2.804  0.8517 -1.0305 -0.7427
 6460SOL     OW31012   3.275   2.663  10.534 -0.3423  0.2413 -0.0568
 6460SOL    HW131013   3.333   2.730  10.498 -2.5722  2.1121 -0.1817
 6460SOL    HW231014   3.318   2.632  10.614 -0.9738 -0.1290  0.1478
 6461SOL     OW31015   4.110   1.978   4.794 -0.2002  0.2120  0.1602
 6461SOL    HW131016   4.105   2.034   4.717 -0.6783  1.1673  0.8784
 6461SOL    HW231017   4.205   1.982   4.804 -0.2798  0.8316  0.7397
 6462SOL     OW31018   0.872   2.675   6.851 -0.1092 -0.0790  0.0102
 6462SOL    HW131019   0.917   2.675   6.767 -3.3387 -1.1510 -1.7239
 6462SOL    HW231020   0.796   2.623   6.825 -0.3922 -0.0007  0.6782
 6463SOL     OW31021   4.637   0.890  11.552  0.3912  0.3205 -0.0695
 6463SOL    HW131022   4.595   0.884  11.638  1.3275 -1.0554  0.2977
 6463SOL    HW231023   4.601   0.810  11.512  0.2121  0.2975  0.1342
 6464SOL     OW31024   0.580   2.533  13.811 -0.6102  0.4438 -0.4513
 6464SOL    HW131025   0.642   2.606  13.823  0.6762 -0.3055 -2.5795
 6464SOL    HW231026   0.535   2.566  13.733  1.8451  1.8034 -1.2914
 6465SOL     OW31027   1.910   1.677   2.930 -0.1230  0.3269  0.3679
 6465SOL    HW131028   1.840   1.703   2.989 -0.0726  1.9879 -0.3063
 6465SOL    HW231029   1.957   1.626   2.996 -2.3028 -2.2005 -0.0231
 6466SOL     OW31030   2.804   0.505   7.307  0.3952 -0.2789  0.4402
 6466SOL    HW131031   2.770   0.591   7.333  3.1005  0.7090  0.6883
 6466SOL    HW231032   2.875   0.521   7.244 -1.9210  0.2482 -2.0289
 6467SOL     OW31033   3.544   0.106   5.730 -0.4948 -0.2804 -0.5802
 6467SOL    HW131034   3.545   0.187   5.780  0.6807 -0.2493 -0.6648
 6467SOL    HW231035   3.629   0.068   5.751 -0.8017 -1.4353 -1.4266
 6468SOL     OW31036   4.293   1.226   7.742 -0.3603  0.3525  0.1632
 6468SOL    HW131037   4.320   1.283   7.815  1.3920  0.5897 -0.6714
 6468SOL    HW231038   4.370   1.213   7.688  0.7159  1.4257  1.4175
 6469SOL     OW31039   2.258   0.360  12.319 -0.0353 -0.8041 -0.1325
 6469SOL    HW131040   2.240   0.328  12.407  0.4117  1.0227  0.6323
 6469SOL    HW231041   2.193   0.314  12.266 -1.6721 -0.0784  1.2774
 6470SOL     OW31042   2.557   0.487   5.634 -0.2217 -0.0392  0.9743
 6470SOL    HW131043   2.572   0.493   5.729  1.0748  2.1700  0.6265
 6470SOL    HW231044   2.592   0.401   5.610  0.5547 -0.3823  3.2707
 6471SOL     OW31045   4.687   3.790   2.665 -0.6520 -0.1268  0.2243
 6471SOL    HW131046   4.635   3.742   2.729 -0.7573  0.3897  0.5251
 6471SOL    HW231047   4.711   3.714   2.612 -1.0846  0.2583 -0.5146
 6472SOL     OW31048   2.763   0.536   6.660 -0.3226 -0.7629  0.4719
 6472SOL    HW131049   2.716   0.514   6.579 -1.4639  3.4658 -0.0147
 6472SOL    HW231050   2.696   0.536   6.727 -1.5302  2.4404 -0.7533
 6473SOL     OW31051   1.859   0.380   9.023  0.3510  0.3450  0.1593
 6473SOL    HW131052   1.840   0.384   8.929  1.3640 -1.0670 -0.1107
 6473SOL    HW231053   1.775   0.351   9.057  0.0295 -0.5501 -1.3746
 6474SOL     OW31054   0.998   0.079   8.345  0.1578  0.1653  0.0192
 6474SOL    HW131055   0.992   0.163   8.299 -2.4991  2.0149  3.7442
 6474SOL    HW231056   0.969   0.109   8.431 -1.9468 -1.1594 -0.2012
 6475SOL     OW31057   3.313   0.769   8.252 -0.4488 -0.3991  0.4033
 6475SOL    HW131058   3.377   0.742   8.186 -1.5490 -0.2476 -0.7193
 6475SOL    HW231059   3.343   0.855   8.283  2.4209 -0.6525 -1.6539
 6476SOL     OW31060   2.482   3.746   5.103 -0.7463  0.3067  0.4989
 6476SOL    HW131061   2.426   3.669   5.113 -2.0592  1.3912  1.6521
 6476SOL    HW231062   2.545   3.717   5.038  0.9494  0.0580  2.2560
 6477SOL     OW31063   4.213   4.089   5.143  0.1701 -0.4624 -0.1720
 6477SOL    HW131064   4.304   4.101   5.170 -0.7710  1.7603  2.0425
 6477SOL    HW231065   4.197   3.999   5.172  0.3918 -0.3265  0.3760
 6478SOL     OW31066   0.153   0.840  17.691  0.0401 -0.8500  0.1541
 6478SOL    HW131067   0.221   0.828   0.002 -0.6180 -1.9998  0.6083
 6478SOL    HW231068   0.091   0.882  17.750  0.7656  0.3435  0.0686
 6479SOL     OW31069   4.081   1.084   0.485 -0.1425  0.1382  0.1068
 6479SOL    HW131070   4.133   1.109   0.562 -0.3829 -0.2237  0.3910
 6479SOL    HW231071   4.016   1.153   0.500  0.4662  0.2370  2.3627
 6480SOL     OW31072   4.427   4.306   4.154  0.3246  0.4657  0.2333
 6480SOL    HW131073   4.382   4.272   4.232 -0.0607  0.3213 -0.0555
 6480SOL    HW231074   4.443   4.399   4.173 -2.7854  1.0486  0.0180
 6481SOL     OW31075   0.489   4.278   0.389  0.4261 -0.0647 -0.3970
 6481SOL    HW131076   0.489   4.228   0.307  0.0759 -0.7844  0.0406
 6481SOL    HW231077   0.484   4.366   0.353 -0.3402  0.6145  1.3770
 6482SOL     OW31078   0.182   1.069  14.911  0.3232  0.6271 -0.2400
 6482SOL    HW131079   0.254   1.120  14.947  0.7754 -1.2798  1.5561
 6482SOL    HW231080   0.108   1.127  14.927  0.4657  0.4680  0.9702
 6483SOL     OW31081   2.404   4.523   6.133 -0.1390  0.2585 -0.5498
 6483SOL    HW131082   2.478   4.531   6.194 -0.4078 -0.2855 -0.1454
 6483SOL    HW231083   2.324   4.534   6.185 -0.0012  0.8421 -0.4639
 6484SOL     OW31084   4.657   0.811   3.314 -0.6067  0.6183  0.2785
 6484SOL    HW131085   4.664   0.722   3.347 -1.1423 -0.6637 -3.1137
 6484SOL    HW231086   4.580   0.810   3.258 -0.1049  1.5012 -0.4266
 6485SOL     OW31087   0.539   3.733   2.630 -0.1850 -0.3844  0.5442
 6485SOL    HW131088   0.535   3.740   2.725 -1.3230  0.1704  0.4543
 6485SOL    HW231089   0.460   3.785   2.613 -0.6770 -0.9358  1.1488
 6486SOL     OW31090   4.531   0.496   0.030 -0.1159 -0.4485 -0.7661
 6486SOL    HW131091   4.580   0.570   0.064 -1.7098 -0.0420  0.6434
 6486SOL    HW231092   4.490   0.531  17.707  1.9813  2.9137 -0.3719
 6487SOL     OW31093   4.104   1.906   5.906 -0.5076  0.6477 -0.3154
 6487SOL    HW131094   4.176   1.953   5.864  0.7607 -1.4184 -0.4988
 6487SOL    HW231095   4.094   1.954   5.988 -0.5806 -1.9276  1.1926
 6488SOL     OW31096   4.191   2.353   4.907  0.7841 -0.1388  0.1976
 6488SOL    HW131097   4.180   2.441   4.870 -1.7076 -0.3089  0.5409
 6488SOL    HW231098   4.205   2.310   4.823  1.4828  1.8048 -0.6905
 6489SOL     OW31099   1.515   3.041  13.786  0.1472 -0.2952  0.7786
 6489SOL    HW131100   1.548   2.982  13.853  0.8699 -2.1550 -1.2215
 6489SOL    HW231101   1.529   2.992  13.705 -4.0055 -0.4550  0.1237
 6490SOL     OW31102   1.910   1.269  13.475 -0.1521 -0.0689 -0.0190
 6490SOL    HW131103   1.985   1.220  13.508  0.2786 -1.2578 -2.7360
 6490SOL    HW231104   1.870   1.285  13.560 -0.4788  1.5968 -0.4910
 6491SOL     OW31105   3.173   0.805   3.693 -0.1361  0.0002  0.0251
 6491SOL    HW131106   3.261   0.834   3.669  0.1058  1.6670  3.0186
 6491SOL    HW231107   3.171   0.867   3.765 -0.0579 -0.3399  0.3212
 6492SOL     OW31108   2.440   3.108   7.258  0.3716 -0.2648  0.2106
 6492SOL    HW131109   2.451   3.031   7.202 -0.5260 -1.0655  1.1342
 6492SOL    HW231110   2.468   3.063   7.338  0.0815 -1.5657 -0.4326
 6493SOL     OW31111   0.513   2.706   5.235 -0.9078 -0.2070 -0.2680
 6493SOL    HW131112   0.548   2.745   5.315  1.0381 -1.9891 -0.2319
 6493SOL    HW231113   0.550   2.617   5.237  0.2005  0.2406 -0.7600
 6494SOL     OW31114   0.109   1.504   8.031 -0.8932 -0.1464 -0.1798
 6494SOL    HW131115   0.084   1.455   8.108  1.0027  0.2412  0.6843
 6494SOL    HW231116   0.091   1.440   7.962  2.1449 -3.1947  1.8881
 6495SOL     OW31117   2.542   2.446   7.869 -0.0091 -0.9621 -0.0887
 6495SOL    HW131118   2.585   2.527   7.898  0.5067 -1.5952  0.9178
 6495SOL    HW231119   2.589   2.385   7.927 -0.7913 -3.0325 -1.6604
 6496SOL     OW31120   2.670   4.026  16.403  0.3545  0.5483  0.2984
 6496SOL    HW131121   2.720   3.970  16.344  0.8810  1.0349  0.2717
 6496SOL    HW231122   2.595   3.967  16.405  1.3991 -0.7913 -0.9398
 6497SOL     OW31123   3.029   3.152  14.369 -0.0144  0.4587 -0.6605
 6497SOL    HW131124   3.107   3.099  14.381  0.9417  1.8821 -0.6221
 6497SOL    HW231125   3.048   3.246  14.375 -1.0262  0.5810  0.5700
 6498SOL     OW31126   0.363   4.164   8.150  0.6864  0.6654 -0.4098
 6498SOL    HW131127   0.389   4.189   8.239  0.7476 -0.4209 -0.1164
 6498SOL    HW231128   0.397   4.228   8.088  0.6090  0.9093 -0.1974
 6499SOL     OW31129   0.990   1.330  10.138  0.6757  0.0053 -0.2481
 6499SOL    HW131130   1.042   1.411  10.140  2.4913 -1.1737  0.2451
 6499SOL    HW231131   0.919   1.362  10.194  0.1803 -0.2726 -0.7213
 6500SOL     OW31132   3.817   1.532   7.917 -0.5570  0.2264  0.1932
 6500SOL    HW131133   3.808   1.594   7.846 -0.9298  0.5749  0.5405
 6500SOL    HW231134   3.889   1.572   7.965 -0.8009  0.6123  0.2323
 6501SOL     OW31135   4.275   1.299  11.195  0.3781  0.1716 -0.1881
 6501SOL    HW131136   4.245   1.259  11.276  2.6924 -2.3192 -0.5449
 6501SOL    HW231137   4.244   1.235  11.131  0.6229 -1.0970  0.9819
 6502SOL     OW31138   2.572   2.288  16.060 -0.4398 -0.1518  0.5512
 6502SOL    HW131139   2.584   2.243  15.977 -0.6646  1.4583 -0.3605
 6502SOL    HW231140   2.567   2.379  16.029 -0.4540  1.0395  4.0155
 6503SOL     OW31141   3.636   0.415   2.964  0.7095 -0.3700  0.4581
 6503SOL    HW131142   3.541   0.413   2.976  0.7232 -1.0133  0.4789
 6503SOL    HW231143   3.642   0.483   2.897  1.3440 -0.5805  0.2946
 6504SOL     OW31144   2.825   4.220   4.852 -0.0972  0.0530 -0.7546
 6504SOL    HW131145   2.802   4.267   4.771  1.5529 -0.5599 -1.5877
 6504SOL    HW231146   2.779   4.139   4.834 -2.8715  2.0304 -2.5177
 6505SOL     OW31147   2.222   3.631   7.741  0.1654 -0.7483  0.1806
 6505SOL    HW131148   2.207   3.542   7.711 -0.8052 -0.9069  1.1120
 6505SOL    HW231149   2.229   3.624   7.836 -1.0670 -0.1878  0.3166
 6506SOL     OW31150   0.335   2.541   7.815 -0.1717  0.4775  0.5213
 6506SOL    HW131151   0.348   2.606   7.884  0.1013  0.2301  0.6985
 6506SOL    HW231152   0.240   2.540   7.801 -0.2265 -1.3363  1.0010
 6507SOL     OW31153   3.800   3.231   8.046  0.0506  0.0860 -0.5807
 6507SOL    HW131154   3.731   3.196   8.102  0.6041 -0.4690 -0.2523
 6507SOL    HW231155   3.876   3.179   8.073 -0.5558 -0.8376 -0.6610
 6508SOL     OW31156   3.225   1.249   1.489 -0.1387 -0.4304 -0.6036
 6508SOL    HW131157   3.204   1.173   1.544 -0.4176  0.3328  0.3373
 6508SOL    HW231158   3.234   1.210   1.402 -0.4564  3.1124 -2.2125
 6509SOL     OW31159   2.703   3.549  14.388 -0.0950  0.1711  0.0870
 6509SOL    HW131160   2.663   3.580  14.307 -0.8831 -0.1675  0.3488
 6509SOL    HW231161   2.628   3.492  14.406 -1.0102  1.8067  1.4934
 6510SOL     OW31162   3.305   4.209  17.207 -0.0117 -0.0522 -0.5507
 6510SOL    HW131163   3.386   4.238  17.250 -0.9596  2.1782 -0.2470
 6510SOL    HW231164   3.249   4.279  17.241  0.9000  0.5072 -0.1980
 6511SOL     OW31165   1.697   3.145   8.551 -0.3990 -0.0919 -0.7572
 6511SOL    HW131166   1.750   3.070   8.577 -1.8342 -0.3213  1.4578
 6511SOL    HW231167   1.620   3.101   8.514 -0.1802 -1.9729  1.0196
 6512SOL     OW31168   4.726   1.603   1.478 -0.4052  0.4247  0.2647
 6512SOL    HW131169   0.054   1.659   1.440 -0.8762  1.2818  0.6979
 6512SOL    HW231170   4.652   1.630   1.425  0.6187  2.3921 -0.1353
 6513SOL     OW31171   0.221   0.024  12.416  0.2893  0.5262 -0.3323
 6513SOL    HW131172   0.235   4.728  12.503  2.3470 -1.7671 -1.5782
 6513SOL    HW231173   0.242   4.686  12.362 -0.0204  0.9236 -1.0210
 6514SOL     OW31174   1.423   4.610  16.188 -0.4035 -0.1462  0.0790
 6514SOL    HW131175   1.481   4.566  16.125 -0.3367 -1.0118  0.7404
 6514SOL    HW231176   1.478   4.681  16.224  2.0936 -2.9035  1.7632
 6515SOL     OW31177   1.130   1.457   0.266 -0.3142 -0.4486 -0.3992
 6515SOL    HW131178   1.163   1.545   0.248  0.4040  0.0903  3.5592
 6515SOL    HW231179   1.182   1.403   0.206  0.0572 -0.7560  0.2067
 6516SOL     OW31180   0.112   1.990   8.769  0.1668 -0.0189  0.5174
 6516SOL    HW131181   0.139   2.079   8.792  0.2662 -0.0320  0.4493
 6516SOL    HW231182   0.158   1.978   8.686  1.6306 -1.8158  1.5774
 6517SOL     OW31183   2.860   1.015  11.033 -0.3359  0.4216  0.2394
 6517SOL    HW131184   2.918   1.086  11.060 -1.3288  0.8655  1.2010
 6517SOL    HW231185   2.908   0.993  10.953 -1.6392 -2.6528  0.3210
 6518SOL     OW31186   1.253   0.522   3.620 -0.1553  0.0187 -0.4914
 6518SOL    HW131187   1.344   0.494   3.627  0.0207  0.7920  0.2452
 6518SOL    HW231188   1.257   0.584   3.693  0.8571 -0.9510  0.2854
 6519SOL     OW31189   3.938   4.106   8.761 -0.1144  0.2148  0.2471
 6519SOL    HW131190   3.961   4.125   8.852 -3.5512 -0.6928  1.3247
 6519SOL    HW231191   4.001   4.040   8.734 -0.4790  1.0789 -2.7599
 6520SOL     OW31192   2.552   1.608   4.510 -0.0914 -0.1317  0.6108
 6520SOL    HW131193   2.469   1.589   4.552 -0.6946  0.0089 -0.5216
 6520SOL    HW231194   2.542   1.703   4.501  1.0173  0.2554  3.5250
 6521SOL     OW31195   1.407   0.687  11.872  0.3115 -0.2337  0.1881
 6521SOL    HW131196   1.367   0.757  11.924 -0.9979 -0.3214 -0.6939
 6521SOL    HW231197   1.388   0.730  11.789  0.8134 -1.7629 -0.7113
 6522SOL     OW31198   0.808   1.509   8.531  0.8105 -0.1901 -0.3848
 6522SOL    HW131199   0.884   1.492   8.587 -1.4975 -0.4035  2.7455
 6522SOL    HW231200   0.807   1.435   8.472  1.0494  0.2022 -0.8784
 6523SOL     OW31201   0.030   4.631  16.907  0.3627  0.1212  0.3468
 6523SOL    HW131202   0.054   4.588  16.825 -0.6628 -0.7279  0.4904
 6523SOL    HW231203   4.713   4.700  16.873 -0.0133 -0.2380  0.2413
 6524SOL     OW31204   1.395   2.592   5.971 -0.2647 -0.0829 -0.4664
 6524SOL    HW131205   1.433   2.522   6.025 -0.8133 -0.8341 -1.0649
 6524SOL    HW231206   1.374   2.534   5.898  0.8967 -0.4787 -0.4838
 6525SOL     OW31207   1.475   4.138   6.339 -0.4684  0.4441 -0.2021
 6525SOL    HW131208   1.423   4.096   6.408  2.5665  0.9740  2.3943
 6525SOL    HW231209   1.419   4.109   6.267  0.4416  1.6151 -1.3788
 6526SOL     OW31210   0.763   3.783   4.476 -0.6005 -0.2683 -0.3564
 6526SOL    HW131211   0.775   3.839   4.399  3.8312 -0.3328  0.3341
 6526SOL    HW231212   0.691   3.730   4.441 -0.2977 -1.5149  0.9476
 6527SOL     OW31213   0.703   4.461  16.829  0.0522 -0.2339 -0.0902
 6527SOL    HW131214   0.691   4.518  16.753  1.9735  1.0719  0.5808
 6527SOL    HW231215   0.643   4.494  16.896  0.7010  0.5979  0.0867
 6528SOL     OW31216   0.209   1.292   3.285 -0.3803  0.4310  0.4285
 6528SOL    HW131217   0.145   1.295   3.356 -1.0831 -0.4545 -0.1777
 6528SOL    HW231218   0.291   1.282   3.333 -0.1880  1.2588  0.2742
 6529SOL     OW31219   4.366   2.304   5.343 -0.2044 -0.0050 -0.5692
 6529SOL    HW131220   4.280   2.301   5.301  0.1463 -0.7861 -1.2368
 6529SOL    HW231221   4.409   2.353   5.273 -1.3191 -3.0235 -3.3955
 6530SOL     OW31222   1.921   3.505   9.224  0.1444  0.0003 -0.2565
 6530SOL    HW131223   1.998   3.465   9.264  0.3327 -1.6059 -2.2256
 6530SOL    HW231224   1.946   3.592   9.257  0.3758  0.6923 -2.2536
 6531SOL     OW31225   1.478   4.066  12.046  0.4319  0.1742 -1.2292
 6531SOL    HW131226   1.483   3.972  12.030 -2.2660  0.1701 -1.9125
 6531SOL    HW231227   1.385   4.080  12.028 -0.0455 -0.9093  0.4786
 6532SOL     OW31228   0.017   1.646   8.790 -0.5880 -0.1933 -0.2863
 6532SOL    HW131229   4.673   1.606   8.764 -1.1269 -0.0291  1.1859
 6532SOL    HW231230   0.052   1.647   8.701  0.2718  1.7996  0.0883
 6533SOL     OW31231   1.823   2.851   6.131 -0.2899 -0.3876  0.1885
 6533SOL    HW131232   1.792   2.766   6.161  0.5732 -0.9282 -0.4256
 6533SOL    HW231233   1.755   2.881   6.072 -1.7848 -1.0099  1.5825
 6534SOL     OW31234   1.922   0.790   4.097 -0.5529 -0.7169 -0.1560
 6534SOL    HW131235   1.927   0.713   4.154  0.4111 -0.2207  0.4342
 6534SOL    HW231236   1.971   0.861   4.138 -2.3592  0.3189  0.2082
 6535SOL     OW31237   1.678   1.224   1.192  0.4335 -0.1670  0.0310
 6535SOL    HW131238   1.633   1.307   1.177  1.0702 -0.0969 -1.4631
 6535SOL    HW231239   1.625   1.199   1.268 -0.4730  0.6191 -0.3463
 6536SOL     OW31240   2.060   0.982   4.201 -0.1535 -0.1895  0.4828
 6536SOL    HW131241   2.093   1.054   4.147 -2.5655 -0.4717 -1.3537
 6536SOL    HW231242   2.143   0.938   4.222  0.0764 -1.6095 -3.3569
 6537SOL     OW31243   1.976   2.157   4.751 -0.0815  0.8873  0.0224
 6537SOL    HW131244   1.906   2.184   4.692  1.1167  0.1439 -1.7686
 6537SOL    HW231245   1.965   2.062   4.748 -2.3269  1.1801 -1.1646
 6538SOL     OW31246   2.143   2.685   7.202 -0.0102  0.3028  0.1510
 6538SOL    HW131247   2.211   2.698   7.269  1.0907  2.1453 -1.3393
 6538SOL    HW231248   2.080   2.634   7.253 -0.6808 -0.8329 -1.8404
 6539SOL     OW31249   0.235   3.245   7.474  0.3800  0.1182  0.0225
 6539SOL    HW131250   0.176   3.301   7.423  0.2507  2.0104  2.2552
 6539SOL    HW231251   0.245   3.168   7.418 -0.7574 -2.1592  2.9015
 6540SOL     OW31252   3.208   2.742  13.141  0.4506 -0.4379  0.0876
 6540SOL    HW131253   3.132   2.693  13.171  0.5775 -1.1287 -0.7102
 6540SOL    HW231254   3.180   2.793  13.065 -0.0727  1.6856  1.6932
 6541SOL     OW31255   1.113   0.288   3.575  0.3304  0.4774 -0.6260
 6541SOL    HW131256   1.047   0.310   3.641 -0.0756  2.0382 -1.5529
 6541SOL    HW231257   1.166   0.368   3.585  0.1476  0.5864 -0.5311
 6542SOL     OW31258   4.017   0.430   8.335 -0.0249 -0.1136  0.2756
 6542SOL    HW131259   4.021   0.441   8.430  0.9126  0.1835  0.2053
 6542SOL    HW231260   3.931   0.467   8.318 -0.2414  0.3604  2.3467
 6543SOL     OW31261   3.070   2.643  14.230  0.0433 -0.1926 -0.0904
 6543SOL    HW131262   3.012   2.577  14.193 -1.3404  1.2338 -0.4904
 6543SOL    HW231263   3.024   2.722  14.201  0.3195 -0.4782 -1.2934
 6544SOL     OW31264   3.725   0.617   4.184 -0.0735 -0.0248  0.0965
 6544SOL    HW131265   3.750   0.696   4.135  0.4440 -0.8179 -0.9113
 6544SOL    HW231266   3.635   0.643   4.203 -0.3607  0.9831 -2.6197
 6545SOL     OW31267   1.059   2.271   1.802 -0.2573 -0.1839 -0.1367
 6545SOL    HW131268   0.978   2.293   1.849  0.5782  1.5756  0.4807
 6545SOL    HW231269   1.035   2.268   1.710  0.0650  2.0003 -0.2988
 6546SOL     OW31270   3.568   3.282  13.728  0.4901  0.4808 -0.5947
 6546SOL    HW131271   3.491   3.309  13.678  0.0681  0.6745  0.1586
 6546SOL    HW231272   3.562   3.347  13.798  2.0099 -0.4218  0.3725
 6547SOL     OW31273   0.023   3.723  10.912 -0.1273 -0.1231  0.3213
 6547SOL    HW131274   4.668   3.732  10.898 -0.0040 -1.6415 -1.5361
 6547SOL    HW231275   0.062   3.678  10.836 -0.4365 -0.2294  0.2250
 6548SOL     OW31276   0.065   2.747   8.403  0.2491 -0.4162 -0.0708
 6548SOL    HW131277   0.060   2.839   8.379  1.4716 -0.1880  0.5634
 6548SOL    HW231278   0.091   2.699   8.324  0.3108  1.4515 -1.1849
 6549SOL     OW31279   2.715   3.025   8.811 -0.2083  0.4673  0.2685
 6549SOL    HW131280   2.638   3.008   8.865  0.2273  3.2131  1.7745
 6549SOL    HW231281   2.700   3.117   8.787 -0.4142  0.4935  0.4996
 6550SOL     OW31282   3.014   3.075   5.518  0.5854 -0.5287  0.4567
 6550SOL    HW131283   2.935   3.075   5.572  1.5907 -0.1827  1.9557
 6550SOL    HW231284   2.983   3.121   5.440  0.5099 -0.5793  0.4563
 6551SOL     OW31285   1.052   1.731  11.947 -0.0679  0.0229  0.4488
 6551SOL    HW131286   1.098   1.660  11.902  0.7038 -0.0247  1.3032
 6551SOL    HW231287   1.098   1.799  11.898 -0.9212  1.3309  1.4622
 6552SOL     OW31288   0.172   1.764   1.350  0.5778  0.3392 -0.0929
 6552SOL    HW131289   0.265   1.777   1.369  0.3664 -0.1565  1.2627
 6552SOL    HW231290   0.156   1.858   1.360  0.8098  0.8038 -4.1093
 6553SOL     OW31291   1.722   1.748   3.116 -0.0521 -0.2054 -0.2096
 6553SOL    HW131292   1.646   1.802   3.135  0.3135  0.3910 -0.4401
 6553SOL    HW231293   1.707   1.670   3.170  0.8195 -0.3703 -0.2032
 6554SOL     OW31294   1.600   3.587   6.619  0.2197  0.3058  0.6206
 6554SOL    HW131295   1.592   3.674   6.580  0.0488 -0.1773 -0.4159
 6554SOL    HW231296   1.640   3.614   6.702  2.1038  0.9435 -0.4975
 6555SOL     OW31297   0.343   0.540   2.518  0.5112 -0.7063  0.9134
 6555SOL    HW131298   0.322   0.552   2.425 -0.7235  0.0066  1.2857
 6555SOL    HW231299   0.301   0.457   2.541 -1.6379 -0.0098 -0.4886
 6556SOL     OW31300   4.343   0.514  16.045  0.0709  0.1309  0.0892
 6556SOL    HW131301   4.320   0.476  15.961  1.9111 -0.8836  0.0243
 6556SOL    HW231302   4.420   0.566  16.021  1.3848 -0.3761  3.1422
 6557SOL     OW31303   0.725   3.408   4.075  0.0060  0.2095  0.0043
 6557SOL    HW131304   0.781   3.365   4.140 -2.3528 -2.4053  0.2956
 6557SOL    HW231305   0.641   3.382   4.111 -0.3039 -1.3048 -1.7877
 6558SOL     OW31306   0.867   0.633  15.212 -0.0869  0.0251 -0.2661
 6558SOL    HW131307   0.924   0.684  15.154  0.0756 -2.7329 -2.4951
 6558SOL    HW231308   0.848   0.696  15.283 -0.6868 -0.5869  0.1147
 6559SOL     OW31309   2.172   3.677   6.117  0.2563  0.2799 -0.0121
 6559SOL    HW131310   2.116   3.679   6.040  0.7518  1.5477 -0.3398
 6559SOL    HW231311   2.105   3.686   6.185  0.8583  1.1011  0.4744
 6560SOL     OW31312   4.701   4.500   9.621  0.4691 -0.1236 -0.5197
 6560SOL    HW131313   0.057   4.487   9.622  0.0169 -3.2629  0.3125
 6560SOL    HW231314   4.667   4.411   9.627 -1.2675  0.4793 -1.5287
 6561SOL     OW31315   0.596   0.933   4.266 -0.1480 -0.0934  0.3356
 6561SOL    HW131316   0.512   0.964   4.298 -0.6896 -0.9702 -0.2178
 6561SOL    HW231317   0.588   0.910   4.173  1.6134  1.5567 -0.2149
 6562SOL     OW31318   3.718   2.689  13.589  0.3458 -0.1987 -0.3860
 6562SOL    HW131319   3.696   2.688  13.682 -0.1404 -0.0102 -0.5013
 6562SOL    HW231320   3.638   2.732  13.559  0.1390  0.4574  1.1136
 6563SOL     OW31321   1.181   4.024   2.284  0.4815 -0.3352  0.1497
 6563SOL    HW131322   1.210   3.940   2.250 -1.8127 -0.2063 -2.1375
 6563SOL    HW231323   1.127   3.993   2.357 -0.8516 -1.1951 -1.1925
 6564SOL     OW31324   2.319   0.528   1.821 -0.3346  0.1461 -0.1115
 6564SOL    HW131325   2.271   0.580   1.756 -0.8278 -1.5593 -1.1280
 6564SOL    HW231326   2.254   0.506   1.888  0.6140 -3.4443 -0.3283
 6565SOL     OW31327   2.180   0.558  14.971 -1.1351  0.0869  0.6359
 6565SOL    HW131328   2.155   0.623  14.905  1.5540  2.1411  1.6128
 6565SOL    HW231329   2.125   0.485  14.942 -0.1371 -1.7350  3.3691
 6566SOL     OW31330   3.853   1.746  17.433  0.2962  0.2458 -0.0463
 6566SOL    HW131331   3.945   1.724  17.443  0.8039  2.5078  0.3224
 6566SOL    HW231332   3.869   1.835  17.465 -1.5220  1.0977 -1.5055
 6567SOL     OW31333   3.554   2.148   5.687 -0.5781 -0.0231  0.2282
 6567SOL    HW131334   3.475   2.178   5.643 -1.6762 -1.3999  1.2773
 6567SOL    HW231335   3.607   2.107   5.619  0.8967 -2.5115  2.8361
 6568SOL     OW31336   3.268   3.636   8.098  0.0110  0.1561 -0.2017
 6568SOL    HW131337   3.190   3.584   8.077 -1.1532  1.9728 -0.3644
 6568SOL    HW231338   3.246   3.664   8.186 -1.3987 -1.1256 -0.1388
 6569SOL     OW31339   1.660   3.312   2.621 -0.1201 -0.2617 -0.0343
 6569SOL    HW131340   1.566   3.293   2.625 -0.2366 -0.0958 -1.9904
 6569SOL    HW231341   1.678   3.404   2.642 -1.6034 -0.5938  2.8029
 6570SOL     OW31342   2.772   3.870   3.382 -0.0040  0.6735 -0.7282
 6570SOL    HW131343   2.751   3.957   3.350 -2.2035  0.3230 -0.2348
 6570SOL    HW231344   2.689   3.851   3.425 -1.6554  1.3974 -3.6792
 6571SOL     OW31345   2.966   3.345  12.507 -0.0229  0.2407 -0.2795
 6571SOL    HW131346   3.029   3.353  12.436 -0.6728  1.1951 -0.7444
 6571SOL    HW231347   2.959   3.250  12.493 -0.6775  0.2613 -0.0996
 6572SOL     OW31348   0.377   3.633   9.019 -0.2076  0.1971  0.0413
 6572SOL    HW131349   0.324   3.554   9.026 -0.1219  0.0978 -0.3973
 6572SOL    HW231350   0.451   3.603   9.073 -1.0741  1.4997  1.9280
 6573SOL     OW31351   3.468   2.347  17.594  0.5816  0.0483 -0.2619
 6573SOL    HW131352   3.528   2.319  17.526  1.8676 -2.2669  1.8006
 6573SOL    HW231353   3.440   2.433  17.564  1.7518  0.4265 -0.2653
 6574SOL     OW31354   3.745   3.715   9.646 -0.3193 -0.0657  0.2664
 6574SOL    HW131355   3.715   3.731   9.556 -0.1032  1.6897  0.5118
 6574SOL    HW231356   3.705   3.796   9.677  0.8849  1.0992 -1.1815
 6575SOL     OW31357   4.608   0.917   0.458  0.5735  0.0930 -0.5083
 6575SOL    HW131358   4.593   1.011   0.466 -2.3025 -0.5377  1.3645
 6575SOL    HW231359   4.598   0.912   0.363  0.0167  1.4996 -0.5223
 6576SOL     OW31360   0.233   4.573   8.651  0.1491 -0.1098 -0.1929
 6576SOL    HW131361   0.261   4.514   8.582  2.4001 -1.0749  1.5674
 6576SOL    HW231362   0.240   4.660   8.611  1.1273  0.7365  1.7957
 6577SOL     OW31363   0.028   2.327   5.209 -0.1221  0.0471 -0.1193
 6577SOL    HW131364   0.046   2.292   5.122  0.7880  0.4605 -0.1065
 6577SOL    HW231365   4.714   2.253   5.235  1.1583 -1.3282 -1.4220
 6578SOL     OW31366   1.126   2.503   8.709 -0.5826  0.2388  0.2310
 6578SOL    HW131367   1.097   2.421   8.668 -2.1004  0.8061  0.1386
 6578SOL    HW231368   1.161   2.465   8.789 -0.3470 -1.9212 -0.9000
 6579SOL     OW31369   3.267   3.965  16.486 -0.4305  0.2238 -0.0394
 6579SOL    HW131370   3.246   4.054  16.458  0.9207  0.8844  1.0747
 6579SOL    HW231371   3.264   3.910  16.408 -0.5252  0.0058  0.1174
 6580SOL     OW31372   4.056   3.731   9.232 -0.0037  0.1832 -0.5443
 6580SOL    HW131373   4.077   3.638   9.220 -0.2611  0.2168 -1.2867
 6580SOL    HW231374   4.069   3.744   9.138 -1.9559 -2.5717 -1.2037
 6581SOL     OW31375   3.783   3.340   6.291 -0.0095  0.7393  0.4592
 6581SOL    HW131376   3.726   3.417   6.291 -1.4314 -0.3125 -1.0725
 6581SOL    HW231377   3.824   3.328   6.206 -0.4787 -0.7322  0.4371
 6582SOL     OW31378   1.343   2.974   3.396  0.3059 -0.3170 -0.7817
 6582SOL    HW131379   1.385   2.991   3.312  0.2789 -1.8182 -1.0860
 6582SOL    HW231380   1.384   2.892   3.424  1.7010 -0.1957 -2.4747
 6583SOL     OW31381   4.166   1.267   2.358  0.4249  0.2373 -0.2755
 6583SOL    HW131382   4.210   1.313   2.430 -1.3086 -0.0719  0.9761
 6583SOL    HW231383   4.215   1.298   2.282  1.3324 -1.0737 -0.2284
 6584SOL     OW31384   2.331   1.210  14.272 -0.0961 -0.7115 -0.1969
 6584SOL    HW131385   2.360   1.293  14.234  2.3280 -0.3815  2.3792
 6584SOL    HW231386   2.406   1.191  14.328  0.8057 -2.5355 -2.0164
 6585SOL     OW31387   0.525   4.312   5.759  0.0471 -0.2009 -0.2337
 6585SOL    HW131388   0.603   4.357   5.725 -0.6506  0.4331 -1.0153
 6585SOL    HW231389   0.468   4.299   5.682  0.3658 -0.8701 -0.3534
 6586SOL     OW31390   2.919   1.887   2.120  0.1677 -0.5011  0.0971
 6586SOL    HW131391   2.933   1.872   2.027  1.3635 -0.0373  0.2007
 6586SOL    HW231392   2.828   1.916   2.126 -0.0314 -1.3305  1.1019
 6587SOL     OW31393   2.689   4.542   3.720  0.6101 -0.2848  0.2950
 6587SOL    HW131394   2.670   4.453   3.690 -1.0423  0.4961 -0.9474
 6587SOL    HW231395   2.668   4.593   3.641  0.0370  1.0196  1.2928
 6588SOL     OW31396   2.712   0.295   1.860 -0.0071  0.1130  0.6034
 6588SOL    HW131397   2.661   0.362   1.814  0.5673  0.8324  1.0299
 6588SOL    HW231398   2.802   0.322   1.846  0.5548 -1.7539  0.6472
 6589SOL     OW31399   3.514   0.646   8.094  0.1677  0.7355 -0.2642
 6589SOL    HW131400   3.584   0.661   8.158 -2.6868  0.4886  2.8868
 6589SOL    HW231401   3.499   0.552   8.082  0.4621  0.4009  1.8697
 6590SOL     OW31402   0.096   0.479   4.969  0.7322  0.0588 -0.0834
 6590SOL    HW131403   0.069   0.564   4.933  1.2251  0.6195  0.8880
 6590SOL    HW231404   0.054   0.425   4.902 -0.1294 -1.0842  1.3855
 6591SOL     OW31405   1.992   1.366   9.443 -0.7071 -0.0461 -0.2909
 6591SOL    HW131406   1.971   1.273   9.442 -0.2403 -0.1269 -2.1112
 6591SOL    HW231407   1.909   1.404   9.414  1.7681  3.4473 -2.8613
 6592SOL     OW31408   4.316   1.302   2.936  0.0982  0.1777  0.0859
 6592SOL    HW131409   4.381   1.235   2.958  0.1143 -0.0172 -0.5520
 6592SOL    HW231410   4.282   1.325   3.022  1.3094  0.4417  0.5000
 6593SOL     OW31411   2.278   2.226  16.787 -0.0917  0.3723  0.3024
 6593SOL    HW131412   2.244   2.313  16.767  2.3698  1.6562  1.7489
 6593SOL    HW231413   2.195   2.181  16.804 -0.2059  0.9218  1.1812
 6594SOL     OW31414   2.292   3.042   8.106 -0.4987  0.4454  0.2162
 6594SOL    HW131415   2.263   3.116   8.159 -0.5300  0.4463  0.1975
 6594SOL    HW231416   2.289   2.978   8.177 -0.4344  0.7742  0.5165
 6595SOL     OW31417   3.894   0.971   6.584  0.7117  0.0225 -0.1081
 6595SOL    HW131418   3.843   1.046   6.555 -3.0544 -3.2568 -2.0608
 6595SOL    HW231419   3.906   0.984   6.678  0.6616  1.5089 -0.3153
 6596SOL     OW31420   1.212   3.451   5.266 -0.3699  0.4721 -0.1186
 6596SOL    HW131421   1.227   3.357   5.268  0.6817  0.6072 -1.4435
 6596SOL    HW231422   1.246   3.484   5.183  0.1451 -2.2248 -0.9710
 6597SOL     OW31423   0.072   1.305  17.283  0.3776  0.1850 -0.4910
 6597SOL    HW131424   0.096   1.312  17.191  0.8579 -1.3290 -0.4808
 6597SOL    HW231425   0.003   1.238  17.285  0.5604 -0.0810 -3.1275
 6598SOL     OW31426   4.313   0.285   5.358 -0.1561  0.2905 -0.3634
 6598SOL    HW131427   4.288   0.243   5.275  0.4927 -0.4450 -0.1896
 6598SOL    HW231428   4.386   0.226   5.379 -0.2601  0.1124 -0.5020
 6599SOL     OW31429   0.127   0.239   8.316  0.0044  0.4558 -0.2339
 6599SOL    HW131430   0.125   0.168   8.251 -1.1038 -0.5309  0.8590
 6599SOL    HW231431   0.068   0.298   8.269  0.1025  1.6086  1.0951
 6600SOL     OW31432   1.843   2.166   4.501  0.3052  0.6222  0.7462
 6600SOL    HW131433   1.917   2.116   4.468 -0.5212 -0.0434 -0.0669
 6600SOL    HW231434   1.783   2.144   4.430  0.4029  0.8474  0.5917
 6601SOL     OW31435   2.600   0.519   2.130  0.3673  0.1106 -0.0604
 6601SOL    HW131436   2.552   0.450   2.176  0.8709 -0.0141  0.2823
 6601SOL    HW231437   2.691   0.488   2.141  0.1584 -0.1226  0.9828
 6602SOL     OW31438   1.054   4.197   8.999  0.5196  0.1989  0.9267
 6602SOL    HW131439   1.025   4.152   9.078 -1.5949 -1.2801 -0.6788
 6602SOL    HW231440   1.105   4.130   8.953  0.4776 -0.2199  1.5004
 6603SOL     OW31441   3.376   4.361   4.984  0.7129  0.1503 -0.4009
 6603SOL    HW131442   3.298   4.374   4.929  0.4572 -1.5843 -0.4473
 6603SOL    HW231443   3.432   4.327   4.914  0.2780 -0.3560 -0.5020
 6604SOL     OW31444   4.644   2.474  10.649  0.4330  0.2896 -0.2925
 6604SOL    HW131445   4.604   2.560  10.663  0.6743  0.2363  0.7184
 6604SOL    HW231446   4.609   2.460  10.561 -0.0609  0.0311 -0.0551
 6605SOL     OW31447   3.175   2.889   1.984  0.1648  0.1983  0.1596
 6605SOL    HW131448   3.189   2.808   2.034 -0.2978  0.6525  1.0234
 6605SOL    HW231449   3.257   2.936   1.998 -0.3382  1.5067 -1.2815
 6606SOL     OW31450   0.819   4.423   5.820  0.6072 -0.0971  0.1879
 6606SOL    HW131451   0.840   4.474   5.742  4.1084 -1.2693  0.3565
 6606SOL    HW231452   0.858   4.338   5.800 -0.4770 -0.3482 -0.8616
 6607SOL     OW31453   2.824   2.434   2.893 -0.2212  0.1477  0.1528
 6607SOL    HW131454   2.916   2.461   2.891 -0.3330  0.6133  1.2823
 6607SOL    HW231455   2.808   2.411   2.984 -2.7639 -1.2549 -0.6560
 6608SOL     OW31456   2.723   0.106   7.873  0.2183 -0.3607  0.1348
 6608SOL    HW131457   2.797   0.096   7.934 -0.5681 -0.5773  1.0511
 6608SOL    HW231458   2.720   0.201   7.871 -2.2837 -0.4787 -1.2473
 6609SOL     OW31459   1.434   1.186   3.445  0.0863  0.4038  0.4147
 6609SOL    HW131460   1.438   1.250   3.374 -1.3228  0.9153  0.7878
 6609SOL    HW231461   1.431   1.243   3.522  0.6093 -1.7464  2.0206
 6610SOL     OW31462   0.003   1.208  17.001 -0.1548 -0.6570 -0.3317
 6610SOL    HW131463   4.700   1.178  16.921  1.4225 -1.5480 -0.8470
 6610SOL    HW231464   4.690   1.284  17.025  0.8133  0.0617 -0.4577
 6611SOL     OW31465   3.674   0.434   4.962  0.1091 -0.5656  0.1463
 6611SOL    HW131466   3.685   0.500   5.031  0.3366  1.1739 -1.5437
 6611SOL    HW231467   3.584   0.405   4.976 -0.2516 -0.1200 -1.3410
 6612SOL     OW31468   2.631   2.002  12.918 -0.3965  0.3538  0.3051
 6612SOL    HW131469   2.687   2.076  12.941  2.9726 -2.3780  0.9021
 6612SOL    HW231470   2.683   1.941  12.866  0.5016  1.5145 -0.1607
 6613SOL     OW31471   0.203   2.130  12.619 -0.2722  0.3168  0.0945
 6613SOL    HW131472   0.299   2.132  12.610 -0.2415 -1.0680  0.1489
 6613SOL    HW231473   0.180   2.082  12.539  0.1904 -0.4378  0.4164
 6614SOL     OW31474   0.866   3.883   3.387 -0.0554 -0.3348  0.2892
 6614SOL    HW131475   0.954   3.849   3.398  0.3771  0.0295 -1.9673
 6614SOL    HW231476   0.891   3.955   3.329  0.5956 -1.4454 -0.8164
 6615SOL     OW31477   1.715   3.831   3.875 -0.1943 -0.4358 -1.0893
 6615SOL    HW131478   1.675   3.915   3.855 -0.9993 -0.1786  1.6087
 6615SOL    HW231479   1.642   3.772   3.853 -2.2844  2.4253 -1.8473
 6616SOL     OW31480   3.854   1.547   4.858 -0.6709 -0.0112 -0.0783
 6616SOL    HW131481   3.909   1.502   4.794 -1.8515  0.4820 -1.4435
 6616SOL    HW231482   3.828   1.474   4.914  1.9739 -0.4584  0.5929
 6617SOL     OW31483   1.874   4.414   8.932 -0.0962 -0.2268 -0.1203
 6617SOL    HW131484   1.881   4.375   8.845  1.2139  0.1534 -0.1798
 6617SOL    HW231485   1.781   4.395   8.944 -0.2076  1.2408  1.3855
 6618SOL     OW31486   2.974   2.521   6.483 -0.1843  0.1346  0.6999
 6618SOL    HW131487   2.896   2.467   6.496  0.0346 -0.6586 -1.2392
 6618SOL    HW231488   2.976   2.591   6.548 -0.3782  0.4890  0.3250
 6619SOL     OW31489   2.590   1.262   2.703  0.3188 -0.1925  0.0190
 6619SOL    HW131490   2.610   1.173   2.731 -2.0557 -1.2362 -1.6547
 6619SOL    HW231491   2.579   1.245   2.610  0.5646 -0.6168  0.0692
 6620SOL     OW31492   1.059   0.783   3.193 -0.1880  0.1193  0.0321
 6620SOL    HW131493   1.097   0.752   3.275  1.2391  2.7292  0.3430
 6620SOL    HW231494   1.129   0.758   3.132  1.5240 -0.4383  2.2397
 6621SOL     OW31495   4.046   2.302   9.438  0.8912  0.2910 -0.0433
 6621SOL    HW131496   3.986   2.370   9.409  0.8792  0.6671  0.8810
 6621SOL    HW231497   3.986   2.241   9.480 -1.8642  3.6639  0.8604
 6622SOL     OW31498   1.329   4.466  13.355  0.4253 -0.3022  0.0546
 6622SOL    HW131499   1.389   4.507  13.417  0.6034 -0.0699 -0.2692
 6622SOL    HW231500   1.307   4.383  13.397  0.0305 -0.3719 -0.2821
 6623SOL     OW31501   1.978   3.451   6.597 -0.5931 -0.6946  0.7829
 6623SOL    HW131502   1.947   3.381   6.655 -2.6402  0.5508  1.2323
 6623SOL    HW231503   1.949   3.531   6.641 -0.8902  0.5954 -1.7815
 6624SOL     OW31504   3.283   0.269   9.114  0.2201  0.1275  0.1799
 6624SOL    HW131505   3.279   0.215   9.035 -1.3904  1.3903 -0.6019
 6624SOL    HW231506   3.343   0.331   9.072  1.3686 -1.2469 -0.2146
 6625SOL     OW31507   0.627   1.203   7.307  0.3189 -0.1500  0.3181
 6625SOL    HW131508   0.664   1.135   7.250  0.2944  1.2175 -1.3109
 6625SOL    HW231509   0.648   1.278   7.252 -1.5887  0.5981  0.6146
 6626SOL     OW31510   4.623   3.851   1.949  0.8230  0.4583  0.5448
 6626SOL    HW131511   4.641   3.897   1.867 -0.2595 -0.9525 -0.4714
 6626SOL    HW231512   4.663   3.912   2.011 -1.1229  0.6690  1.5741
 6627SOL     OW31513   0.607   2.287  11.724 -0.7787 -0.1982  0.2224
 6627SOL    HW131514   0.646   2.375  11.724 -0.2498 -0.4371  2.4601
 6627SOL    HW231515   0.528   2.294  11.671  0.9173  1.3472 -2.1281
 6628SOL     OW31516   4.672   3.919   5.230  0.1098  0.3448  0.0299
 6628SOL    HW131517   0.012   3.875   5.202 -0.5360 -0.0562 -1.1799
 6628SOL    HW231518   4.620   3.847   5.264  0.7486  1.0344  2.4187
 6629SOL     OW31519   3.061   3.008  12.185  0.0186 -0.0061 -0.0230
 6629SOL    HW131520   3.006   3.017  12.107 -0.8780  0.5825  0.6820
 6629SOL    HW231521   3.101   3.095  12.188  2.1648 -0.9808 -0.5512
 6630SOL     OW31522   1.874   3.714   9.484 -0.6021  0.1043 -0.0369
 6630SOL    HW131523   1.852   3.788   9.540  0.5611 -0.1671  0.7815
 6630SOL    HW231524   1.913   3.765   9.413  1.1837 -0.1213  0.7796
 6631SOL     OW31525   3.774   2.983   2.150  0.2480 -0.5616  0.0969
 6631SOL    HW131526   3.738   2.919   2.211 -2.6771 -0.4591 -1.5388
 6631SOL    HW231527   3.770   2.937   2.066 -0.5208  0.3641 -0.3775
 6632SOL     OW31528   3.462   3.689   5.505  0.5062  0.0059  0.2845
 6632SOL    HW131529   3.493   3.748   5.574 -1.1619  0.9130  0.2566
 6632SOL    HW231530   3.398   3.631   5.546 -1.3129  1.5254 -0.3910
 6633SOL     OW31531   0.429   4.112   6.973  0.2588  0.2679 -0.4199
 6633SOL    HW131532   0.463   4.198   6.948 -2.9004  1.5202 -0.4341
 6633SOL    HW231533   0.457   4.117   7.064  1.7850 -2.6448 -0.7357
 6634SOL     OW31534   2.591   1.793   9.934  0.6825  0.4894 -0.3722
 6634SOL    HW131535   2.675   1.755   9.957  1.1801  2.8000  1.6384
 6634SOL    HW231536   2.603   1.822   9.843  0.2120 -1.4742 -1.0500
 6635SOL     OW31537   4.350   0.810   2.274 -0.3797 -0.8812  0.1927
 6635SOL    HW131538   4.373   0.901   2.294 -1.1425 -0.8052  0.7266
 6635SOL    HW231539   4.264   0.830   2.236  0.4066  0.8315 -0.6929
 6636SOL     OW31540   2.201   0.081   8.901 -0.1149  0.3383 -0.2203
 6636SOL    HW131541   2.122   0.027   8.899 -0.1538  0.4169 -0.6451
 6636SOL    HW231542   2.169   0.170   8.886  3.5181  1.4820 -1.1632
 6637SOL     OW31543   3.110   1.278   0.942 -0.5992  0.2537  0.1269
 6637SOL    HW131544   3.022   1.240   0.938 -0.5613  0.1099  0.6092
 6637SOL    HW231545   3.119   1.285   1.037 -0.0103  1.6180 -0.0246
 6638SOL     OW31546   3.433   0.916   8.660 -0.0883 -0.1608  0.0757
 6638SOL    HW131547   3.342   0.896   8.637  0.2839 -0.7431 -0.9064
 6638SOL    HW231548   3.413   0.979   8.728 -0.0577 -1.3021  1.1481
 6639SOL     OW31549   4.424   0.707   8.853 -0.1473 -0.3929  0.1437
 6639SOL    HW131550   4.468   0.792   8.860 -2.3898  0.8196 -0.4919
 6639SOL    HW231551   4.418   0.697   8.758 -2.3005 -1.8139  0.4379
 6640SOL     OW31552   0.438   3.276   4.349  0.2340  0.3946  0.2650
 6640SOL    HW131553   0.410   3.275   4.441 -2.2910  1.0338 -0.5176
 6640SOL    HW231554   0.351   3.293   4.314 -0.2418  0.0499  1.2900
 6641SOL     OW31555   3.138   0.330   0.139 -0.3811 -0.9282  0.1739
 6641SOL    HW131556   3.177   0.272   0.204 -0.8859 -1.9412 -0.4325
 6641SOL    HW231557   3.154   0.412   0.187 -0.1190 -0.1789 -1.1860
 6642SOL     OW31558   1.820   2.574  15.564 -0.5426  0.4207 -0.3706
 6642SOL    HW131559   1.900   2.570  15.511 -2.0540  0.9222 -2.6509
 6642SOL    HW231560   1.756   2.582  15.494  0.0178  1.1839 -0.7940
 6643SOL     OW31561   4.717   1.449   2.045 -0.1645 -0.4477 -0.3983
 6643SOL    HW131562   0.022   1.433   1.962  1.0274 -2.4606  0.6417
 6643SOL    HW231563   4.679   1.537   2.034  0.1213 -0.1269  1.2147
 6644SOL     OW31564   1.427   2.381   0.814  0.3682  0.6982  0.2084
 6644SOL    HW131565   1.392   2.422   0.893 -2.1812 -1.2419  0.0922
 6644SOL    HW231566   1.522   2.376   0.824  0.6629  1.9648 -2.0352
 6645SOL     OW31567   2.372   4.545   1.954  0.0354 -0.0392 -0.7255
 6645SOL    HW131568   2.295   4.533   1.900  0.0431  1.8737 -1.1291
 6645SOL    HW231569   2.440   4.565   1.890  2.3977 -0.2497  1.6907
 6646SOL     OW31570   3.569   2.369   4.364  0.4319  0.3958 -0.1799
 6646SOL    HW131571   3.570   2.273   4.365  1.5388  0.4313  2.7443
 6646SOL    HW231572   3.566   2.383   4.459 -1.0775  2.7158 -0.5880
 6647SOL     OW31573   0.173   2.426   2.315  0.4916  0.3369 -0.7224
 6647SOL    HW131574   0.217   2.380   2.387  0.0190  0.2049 -0.5147
 6647SOL    HW231575   0.107   2.357   2.304 -0.1452  0.6011  1.3761
 6648SOL     OW31576   4.162   3.488   3.699 -0.5998  0.0505 -0.2467
 6648SOL    HW131577   4.181   3.578   3.672 -0.2079 -0.1710 -0.7060
 6648SOL    HW231578   4.252   3.456   3.704 -0.5754  0.2630  0.5870
 6649SOL     OW31579   2.484   0.234   7.234 -0.4085  0.2258 -0.1077
 6649SOL    HW131580   2.434   0.316   7.232 -2.1040 -0.7675  0.6471
 6649SOL    HW231581   2.538   0.263   7.161 -0.5003 -0.2183 -0.3489
 6650SOL     OW31582   1.124   1.398   8.858 -0.0595 -0.4102  0.2526
 6650SOL    HW131583   1.199   1.342   8.876 -0.0056 -0.3779  0.1207
 6650SOL    HW231584   1.058   1.328   8.860  0.4925 -0.9666 -1.1198
 6651SOL     OW31585   1.952   2.483   2.880 -0.3148  0.1485  0.1186
 6651SOL    HW131586   1.928   2.445   2.964 -0.2804 -1.3252 -0.5462
 6651SOL    HW231587   1.869   2.513   2.843 -0.8531  0.2936  1.4423
 6652SOL     OW31588   0.857   0.443   1.661 -0.2779  0.3914  0.8526
 6652SOL    HW131589   0.871   0.524   1.612 -1.1642 -0.3601 -0.6385
 6652SOL    HW231590   0.939   0.395   1.649  0.1938  1.0532  1.4924
 6653SOL     OW31591   0.445   4.440   2.064  0.3371 -0.5574  0.2445
 6653SOL    HW131592   0.382   4.497   2.107  0.2041  0.6119 -1.5112
 6653SOL    HW231593   0.402   4.422   1.980 -2.0759 -1.0885  1.6035
 6654SOL     OW31594   1.402   3.294  16.945  0.7438  0.2498 -0.1640
 6654SOL    HW131595   1.311   3.319  16.961  0.9304  0.6945  0.1977
 6654SOL    HW231596   1.423   3.355  16.873  0.4074  2.3856  1.5372
 6655SOL     OW31597   0.509   0.780   1.738  0.4838 -0.5703  0.1540
 6655SOL    HW131598   0.532   0.732   1.658  0.1255  1.7029 -1.3253
 6655SOL    HW231599   0.595   0.805   1.771  0.9580  0.7256 -2.0711
 6656SOL     OW31600   3.120   2.803   1.190 -0.1099 -0.5660  0.5887
 6656SOL    HW131601   3.076   2.812   1.275 -2.0206 -0.0530 -0.4620
 6656SOL    HW231602   3.208   2.839   1.201 -0.3117  0.4726 -1.1874
 6657SOL     OW31603   0.074   1.416   1.742 -0.0326 -0.2897  0.0264
 6657SOL    HW131604   0.076   1.327   1.707  0.8625  0.5620 -2.1020
 6657SOL    HW231605   0.136   1.416   1.815 -1.0264  0.5074  0.8658
 6658SOL     OW31606   4.462   3.491   6.772 -0.1104  0.7607 -0.1789
 6658SOL    HW131607   4.494   3.424   6.833  0.2021  1.2044  0.1458
 6658SOL    HW231608   4.511   3.569   6.799 -1.8287  1.5432  0.6569
 6659SOL     OW31609   3.444   1.324   5.103  0.3591  0.6652  0.2658
 6659SOL    HW131610   3.353   1.329   5.073  0.2165 -1.3105  0.3622
 6659SOL    HW231611   3.475   1.409   5.072 -0.7845  0.6239 -1.0105
 6660SOL     OW31612   1.650   4.645   3.911 -0.4535 -0.5699 -0.1797
 6660SOL    HW131613   1.719   4.591   3.949  0.5310  1.9269  1.6456
 6660SOL    HW231614   1.673   4.636   3.819 -1.6806 -2.6995 -0.2795
 6661SOL     OW31615   0.527   3.044  16.725  0.1531 -0.2497  0.3790
 6661SOL    HW131616   0.483   2.982  16.667  0.8339 -0.7680  0.4135
 6661SOL    HW231617   0.585   3.084  16.660 -0.9903 -0.7242 -0.9177
 6662SOL     OW31618   1.148   0.676   1.762  0.2872  0.0582 -0.1511
 6662SOL    HW131619   1.130   0.727   1.841  0.5778  0.2987 -0.2407
 6662SOL    HW231620   1.074   0.700   1.706 -0.9262 -0.9873  0.9825
 6663SOL     OW31621   3.655   4.470   7.420  0.7824  0.4734 -0.0104
 6663SOL    HW131622   3.641   4.550   7.369  3.2502  0.4767 -0.6533
 6663SOL    HW231623   3.596   4.410   7.374  1.6821  1.8432 -2.8898
 6664SOL     OW31624   2.891   0.188   8.089 -0.3794  0.0301 -0.2339
 6664SOL    HW131625   2.929   0.114   8.137  1.0854  1.0505  0.1558
 6664SOL    HW231626   2.836   0.229   8.156 -0.8127  0.0961 -0.6265
 6665SOL     OW31627   2.780   3.129   1.343 -0.0048  0.4276 -0.0204
 6665SOL    HW131628   2.836   3.112   1.419  0.5336 -0.1843 -0.5498
 6665SOL    HW231629   2.802   3.051   1.292 -2.2936  0.8791 -1.7024
 6666SOL     OW31630   0.834   2.948   6.856  0.0025 -0.3512  0.6455
 6666SOL    HW131631   0.918   2.973   6.894 -0.1892  3.0758 -1.2026
 6666SOL    HW231632   0.833   2.852   6.861 -0.1710 -0.2594  2.4533
 6667SOL     OW31633   0.395   4.108  15.532 -0.7346 -0.3579 -0.5278
 6667SOL    HW131634   0.339   4.178  15.566 -1.2388 -0.1386 -1.7749
 6667SOL    HW231635   0.439   4.148  15.456  0.0308  1.6648  0.9870
 6668SOL     OW31636   1.975   2.471   7.269  0.2537  0.1968  0.4385
 6668SOL    HW131637   1.880   2.468   7.282  0.0186 -2.0525 -1.7822
 6668SOL    HW231638   1.968   2.419   7.189  0.6198  1.3792 -0.3688
 6669SOL     OW31639   1.617   0.347   6.520 -0.1219 -0.0153  0.3190
 6669SOL    HW131640   1.638   0.393   6.601 -1.2782 -0.0319  0.6234
 6669SOL    HW231641   1.665   0.265   6.528 -0.0711 -0.0194  0.0088
 6670SOL     OW31642   3.444   2.729  13.831 -0.7303 -0.2862 -0.7767
 6670SOL    HW131643   3.349   2.734  13.829 -0.8311 -1.1542  1.2932
 6670SOL    HW231644   3.465   2.821  13.816  2.0468 -1.0667 -1.6905
 6671SOL     OW31645   1.328   2.380  13.795  0.7503 -0.3513  0.1438
 6671SOL    HW131646   1.366   2.337  13.872  1.0067 -0.0329  0.1920
 6671SOL    HW231647   1.278   2.307  13.757  0.2133 -0.8464  1.8259
 6672SOL     OW31648   4.139   0.852   0.778 -0.0130  0.3547 -0.4923
 6672SOL    HW131649   4.092   0.926   0.817 -0.8647  0.6565 -2.0881
 6672SOL    HW231650   4.063   0.796   0.766  1.8790 -1.7923 -2.3363
 6673SOL     OW31651   3.110   3.810   8.936  0.0617  0.3654 -0.3601
 6673SOL    HW131652   3.187   3.753   8.933 -0.3327 -0.1863  0.0148
 6673SOL    HW231653   3.129   3.879   9.000 -1.0133  0.7593 -0.4670
 6674SOL     OW31654   2.495   4.258   9.482  0.7870 -0.4604 -0.7136
 6674SOL    HW131655   2.417   4.313   9.488 -1.2746 -3.5027  0.0385
 6674SOL    HW231656   2.546   4.309   9.418  3.6931 -2.2456  0.1529
 6675SOL     OW31657   1.137   0.397   1.650 -0.0286  0.3406  0.3827
 6675SOL    HW131658   1.192   0.344   1.593  2.2348 -0.3088  3.1642
 6675SOL    HW231659   1.160   0.353   1.732  0.5336 -0.4834 -0.2101
 6676SOL     OW31660   1.129   4.370   3.361 -0.3639  0.3169  0.5561
 6676SOL    HW131661   1.185   4.443   3.386 -1.7251  0.1437  4.1550
 6676SOL    HW231662   1.076   4.347   3.438  2.1938 -1.1064  1.8943
 6677SOL     OW31663   1.649   1.258   6.783 -0.1591  0.4309  0.0382
 6677SOL    HW131664   1.564   1.291   6.811 -0.4700 -1.3019  1.1302
 6677SOL    HW231665   1.635   1.232   6.692  0.1380 -1.8290  0.6395
 6678SOL     OW31666   1.486   2.980  10.329 -0.3920 -0.2070  0.5246
 6678SOL    HW131667   1.567   3.020  10.361 -1.1971  1.0561  0.9903
 6678SOL    HW231668   1.497   2.890  10.360  0.5367 -1.0158 -2.1300
 6679SOL     OW31669   2.341   2.941   4.349 -0.4261  0.5443 -0.7090
 6679SOL    HW131670   2.362   2.875   4.416 -2.5659  0.5388 -0.0437
 6679SOL    HW231671   2.384   2.913   4.269 -0.9122  0.3436 -0.9017
 6680SOL     OW31672   1.295   2.059   3.187  0.4813  0.4898 -0.6707
 6680SOL    HW131673   1.214   2.014   3.163  0.4506  0.7334 -1.0269
 6680SOL    HW231674   1.289   2.152   3.165  1.0514  0.8281  0.5450
 6681SOL     OW31675   3.561   2.860   7.574  0.5813  0.0204  0.6621
 6681SOL    HW131676   3.561   2.938   7.519  0.3076 -1.9003 -2.0063
 6681SOL    HW231677   3.569   2.902   7.660  3.5155  2.6397 -0.8855
 6682SOL     OW31678   1.784   0.311   3.925  0.1898 -0.2635  0.3739
 6682SOL    HW131679   1.709   0.306   3.984  0.8325 -1.9262  1.0421
 6682SOL    HW231680   1.842   0.376   3.963  0.1550 -0.1908  0.3040
 6683SOL     OW31681   3.332   2.280  12.473  0.5177 -0.0682 -0.1266
 6683SOL    HW131682   3.314   2.247  12.385  2.6842  1.0045 -0.9908
 6683SOL    HW231683   3.376   2.203  12.507  2.2317 -0.0919 -2.3948
 6684SOL     OW31684   0.188   0.436   2.022  0.5584 -0.0627 -0.5811
 6684SOL    HW131685   0.133   0.386   2.083 -0.5731  2.3884  0.3893
 6684SOL    HW231686   0.219   0.368   1.963  3.3065 -2.5328  3.6703
 6685SOL     OW31687   1.656   2.849   0.282  0.3594 -0.0281 -0.4430
 6685SOL    HW131688   1.713   2.818   0.212 -1.2601 -0.2081 -1.6816
 6685SOL    HW231689   1.711   2.906   0.336  1.2726  0.3279 -1.7479
 6686SOL     OW31690   3.658   4.657   9.428  0.0456 -0.5672 -0.2660
 6686SOL    HW131691   3.739   4.678   9.381 -0.3441  2.2969  0.3129
 6686SOL    HW231692   3.651   4.562   9.421 -0.4046 -0.4472 -1.4173
 6687SOL     OW31693   3.377   3.246   3.440 -0.3355 -0.2069  0.3097
 6687SOL    HW131694   3.309   3.309   3.464 -0.3357 -0.1563  0.1718
 6687SOL    HW231695   3.455   3.258   3.495  0.7101  1.2188 -1.5036
 6688SOL     OW31696   3.836   2.080  10.757 -0.0738 -0.7146  0.0022
 6688SOL    HW131697   3.821   2.049  10.846  1.2840  2.1115  1.2224
 6688SOL    HW231698   3.905   2.017  10.734 -1.4632 -2.0533 -0.5040
 6689SOL     OW31699   3.883   0.840  11.499  0.2136  0.6214  0.3607
 6689SOL    HW131700   3.867   0.812  11.589  0.0061 -1.3475 -0.2855
 6689SOL    HW231701   3.875   0.935  11.513 -1.9406  0.4193  0.4591
 6690SOL     OW31702   2.093   3.041  12.142  0.2792 -0.1286 -0.0507
 6690SOL    HW131703   2.027   3.011  12.079  1.0278  1.9659 -1.8042
 6690SOL    HW231704   2.056   3.119  12.183  2.0519 -0.1548  1.5864
 6691SOL     OW31705   3.127   1.321   7.036 -0.2640  0.2816  0.3705
 6691SOL    HW131706   3.197   1.353   6.979  0.2460 -1.7398 -0.1445
 6691SOL    HW231707   3.168   1.249   7.084  2.6425  0.8384 -1.2264
 6692SOL     OW31708   1.066   0.792   9.188 -0.4156 -0.1360 -0.5759
 6692SOL    HW131709   1.044   0.706   9.224 -1.3009  0.5866  0.6224
 6692SOL    HW231710   1.148   0.808   9.235 -1.7399 -2.9357  2.6539
 6693SOL     OW31711   3.759   0.237   3.150 -0.2575 -0.1863  0.1685
 6693SOL    HW131712   3.757   0.310   3.212  0.5509  0.3336 -0.4195
 6693SOL    HW231713   3.710   0.274   3.077  0.9296 -0.5582 -0.8315
 6694SOL     OW31714   4.514   1.872   7.600  0.3091 -0.2281  0.0172
 6694SOL    HW131715   4.503   1.859   7.694 -0.0300 -0.3386 -0.0391
 6694SOL    HW231716   4.425   1.855   7.569  0.9264 -1.2974 -1.2115
 6695SOL     OW31717   2.591   1.748  13.753 -0.0223 -0.1010 -0.0496
 6695SOL    HW131718   2.634   1.829  13.728 -0.3239 -0.3117 -1.2197
 6695SOL    HW231719   2.557   1.715  13.670 -0.1461 -2.1659  0.8119
 6696SOL     OW31720   3.405   2.966  16.823  0.5745 -0.7062 -0.1915
 6696SOL    HW131721   3.455   3.047  16.824 -3.7765  2.0146 -0.6459
 6696SOL    HW231722   3.348   2.973  16.900 -1.1213  3.3361 -1.7893
 6697SOL     OW31723   2.341   4.290  11.639  0.9933  0.6848 -0.2225
 6697SOL    HW131724   2.285   4.230  11.590  0.4526  2.1382 -1.3765
 6697SOL    HW231725   2.281   4.327  11.704  0.3900  0.7704 -0.8303
 6698SOL     OW31726   2.962   2.019   1.601  0.5581  0.4736  0.0134
 6698SOL    HW131727   2.986   1.980   1.685 -0.1450  0.4430  0.1971
 6698SOL    HW231728   2.876   2.055   1.621  0.9887  0.0147  2.6862
 6699SOL     OW31729   0.563   1.803   6.320  0.7520  0.0498  0.2582
 6699SOL    HW131730   0.490   1.860   6.294  0.9578  0.5715  0.8322
 6699SOL    HW231731   0.579   1.768   6.232  0.6761 -1.4814  0.8571
 6700SOL     OW31732   3.417   3.929   9.340  0.4640 -0.0668 -0.4984
 6700SOL    HW131733   3.493   3.876   9.363 -0.8619 -0.7657  2.2712
 6700SOL    HW231734   3.392   3.947   9.431 -1.0706  0.7987 -1.0950
 6701SOL     OW31735   4.499   1.410   3.709  0.2426 -0.2729  0.0817
 6701SOL    HW131736   4.411   1.449   3.714  0.0379 -0.4746 -1.8800
 6701SOL    HW231737   4.503   1.386   3.616  0.7569 -1.7046  0.4757
 6702SOL     OW31738   0.377   3.815   8.844 -0.5317  0.2363 -0.0354
 6702SOL    HW131739   0.467   3.799   8.816 -1.6761 -1.4596 -2.7634
 6702SOL    HW231740   0.363   3.740   8.903  1.2596 -0.2087 -0.1911
 6703SOL     OW31741   1.679   0.520   2.571 -0.2581  0.7055 -0.2546
 6703SOL    HW131742   1.728   0.597   2.543 -0.1850  0.4456 -0.8405
 6703SOL    HW231743   1.740   0.446   2.567  0.9463  1.5910  1.9326
 6704SOL     OW31744   0.471   2.293   6.324  0.0420  0.0520 -0.8471
 6704SOL    HW131745   0.469   2.342   6.242  3.9233 -0.7313 -1.4034
 6704SOL    HW231746   0.456   2.348   6.401  1.0275 -1.3643  0.3510
 6705SOL     OW31747   4.296   1.370   5.809 -0.5045  0.2605 -0.4824
 6705SOL    HW131748   4.248   1.378   5.891 -1.1447 -1.4208 -0.6761
 6705SOL    HW231749   4.233   1.415   5.753 -1.8892 -0.0727  0.8154
 6706SOL     OW31750   2.803   2.075   3.190  0.0109 -0.1584  0.0380
 6706SOL    HW131751   2.714   2.069   3.155 -0.0495 -1.8196  0.4514
 6706SOL    HW231752   2.789   2.127   3.269  1.9156  2.4545 -1.3667
 6707SOL     OW31753   0.322   0.794   0.135 -0.1671 -0.0889  0.2155
 6707SOL    HW131754   0.394   0.854   0.154  1.0274 -1.4210 -0.0205
 6707SOL    HW231755   0.370   0.715   0.160 -0.9557 -0.2873  1.0796
 6708SOL     OW31756   2.573   1.227   6.973  0.3467 -0.3346 -0.0461
 6708SOL    HW131757   2.522   1.230   6.892 -0.5275 -1.3666  0.4729
 6708SOL    HW231758   2.529   1.291   7.028 -1.1691 -0.1036 -1.5255
 6709SOL     OW31759   0.813   3.805  12.172 -0.5795  0.2487 -0.4617
 6709SOL    HW131760   0.747   3.868  12.202 -1.6560 -0.9936 -0.2043
 6709SOL    HW231761   0.870   3.867  12.126 -0.4873  0.5415  0.0529
 6710SOL     OW31762   0.540   4.268  17.131 -0.2280 -0.8295  0.3813
 6710SOL    HW131763   0.523   4.275  17.224  0.5381  0.8229  0.3868
 6710SOL    HW231764   0.456   4.296  17.095  0.3422  0.8600  0.4093
 6711SOL     OW31765   3.687   1.085  13.003 -0.2009  0.1009  0.2720
 6711SOL    HW131766   3.715   1.152  12.941 -2.0979  0.5666 -0.0883
 6711SOL    HW231767   3.612   1.046  12.959  0.2138  1.4417 -1.6100
 6712SOL     OW31768   1.201   0.810   7.840 -0.0065 -0.1356  0.2184
 6712SOL    HW131769   1.130   0.753   7.811  2.3227 -2.8008 -0.1818
 6712SOL    HW231770   1.263   0.829   7.770  0.0545 -0.7719  0.0986
 6713SOL     OW31771   3.717   4.544   8.314 -0.1905  0.2709  0.1667
 6713SOL    HW131772   3.634   4.512   8.351 -0.2021 -1.1397 -1.0501
 6713SOL    HW231773   3.769   4.545   8.394  0.8764  1.2144 -0.5502
 6714SOL     OW31774   4.048   1.064   6.829  0.6404 -0.0636 -0.0192
 6714SOL    HW131775   4.090   1.000   6.887 -1.1125 -1.3125 -0.1337
 6714SOL    HW231776   3.986   1.110   6.885  2.2896  0.2993  1.5333
 6715SOL     OW31777   0.118   0.758   3.076 -0.1304  0.3108  0.0340
 6715SOL    HW131778   0.050   0.786   3.016  1.7697  0.9735 -1.8157
 6715SOL    HW231779   0.092   0.793   3.161 -0.5194  1.9854 -0.7855
 6716SOL     OW31780   1.783   2.714   2.332 -0.5919  0.5827  0.1040
 6716SOL    HW131781   1.806   2.748   2.418 -0.0003  1.1285 -0.2734
 6716SOL    HW231782   1.724   2.649   2.370 -0.8754  1.1534  0.6376
 6717SOL     OW31783   1.277   1.403   2.073 -0.6272  0.0761 -0.0662
 6717SOL    HW131784   1.373   1.395   2.074 -0.7638 -1.4924  0.5445
 6717SOL    HW231785   1.260   1.485   2.027 -1.8317 -1.1079 -1.7351
 6718SOL     OW31786   1.602   0.126  16.272 -0.0900 -0.5581 -0.3770
 6718SOL    HW131787   1.663   0.148  16.342 -0.6088 -2.6384  0.7231
 6718SOL    HW231788   1.525   0.181  16.288  1.9172  1.7104  1.3266
 6719SOL     OW31789   2.824   0.853   0.988  0.3023 -0.4880  0.4644
 6719SOL    HW131790   2.737   0.881   0.959  0.9232  1.7912  0.7932
 6719SOL    HW231791   2.860   0.890   0.907 -0.7649  2.2614  1.2529
 6720SOL     OW31792   1.069   3.285   7.626 -0.3247 -0.4916 -0.6056
 6720SOL    HW131793   1.125   3.212   7.651 -1.2802 -1.5879 -1.6571
 6720SOL    HW231794   1.128   3.320   7.559  0.7816 -2.4275 -0.6286
 6721SOL     OW31795   3.483   3.657   6.970 -0.6443  0.2073  0.1443
 6721SOL    HW131796   3.412   3.703   6.924 -0.2913 -0.9160 -1.5446
 6721SOL    HW231797   3.545   3.727   6.991 -0.0695 -0.3513  0.3114
 6722SOL     OW31798   4.314   0.931  16.912 -0.1942  0.1947  0.1014
 6722SOL    HW131799   4.360   0.863  16.863  0.5214  0.5856  0.2267
 6722SOL    HW231800   4.223   0.922  16.884 -0.5445  1.7391  0.7469
 6723SOL     OW31801   1.314   2.627  10.356  0.2171 -0.4432  0.0686
 6723SOL    HW131802   1.231   2.596  10.394 -1.1004  2.4751 -0.4227
 6723SOL    HW231803   1.340   2.556  10.297 -0.3192 -0.0932 -0.5907
 6724SOL     OW31804   3.726   2.472  13.921 -0.1141 -0.1679  0.0464
 6724SOL    HW131805   3.748   2.560  13.892 -1.6295  0.5251  1.0238
 6724SOL    HW231806   3.631   2.477  13.930  0.1216  1.8787  1.1253
 6725SOL     OW31807   2.758   3.386   4.361 -0.5526 -0.3044 -0.0211
 6725SOL    HW131808   2.779   3.449   4.429  1.1624 -0.1873 -0.6588
 6725SOL    HW231809   2.750   3.439   4.282 -1.1082 -0.2374  0.0811
 6726SOL     OW31810   4.697   1.844   8.962  0.9638  0.0419 -0.3069
 6726SOL    HW131811   4.724   1.776   8.900  0.8604  0.2392 -0.5712
 6726SOL    HW231812   4.725   1.916   8.905  0.2306  0.8453  0.3439
 6727SOL     OW31813   0.251   0.168   7.227 -0.6221  0.3033  0.2811
 6727SOL    HW131814   0.241   0.076   7.205 -0.8041  1.0452 -2.7825
 6727SOL    HW231815   0.189   0.164   7.299  1.2698  1.8819  1.9830
 6728SOL     OW31816   3.283   2.884  17.077 -0.6017 -0.4658 -0.2937
 6728SOL    HW131817   3.288   2.803  17.026 -0.0182 -0.7876  0.2761
 6728SOL    HW231818   3.337   2.853  17.150 -0.2666  1.0379  0.0976
 6729SOL     OW31819   0.469   1.744   5.044  0.2203 -0.5043  0.6885
 6729SOL    HW131820   0.421   1.748   5.127  0.4007  3.2999  0.6086
 6729SOL    HW231821   0.518   1.662   5.051 -1.5286 -1.6571 -0.5284
 6730SOL     OW31822   0.667   3.146   9.983 -0.1114  0.4318 -0.1591
 6730SOL    HW131823   0.601   3.213  10.000 -0.3771  0.9944 -3.3047
 6730SOL    HW231824   0.688   3.165   9.891  2.0881  1.1574  0.4834
 6731SOL     OW31825   0.150   2.957   2.409 -0.0860 -0.0443 -0.3075
 6731SOL    HW131826   0.061   2.984   2.389 -0.2301 -1.3290 -1.3869
 6731SOL    HW231827   0.126   2.867   2.430 -1.1814  0.6456  1.3226
 6732SOL     OW31828   0.398   0.878   5.811 -0.4323  0.0148  0.4431
 6732SOL    HW131829   0.471   0.817   5.808  0.6757  1.2837  1.5064
 6732SOL    HW231830   0.354   0.861   5.727 -0.4295 -1.9070  0.8454
 6733SOL     OW31831   3.070   2.731   5.742 -0.0977 -0.0467  0.0412
 6733SOL    HW131832   3.055   2.773   5.657 -1.1568  0.8547  0.6689
 6733SOL    HW231833   3.049   2.803   5.802 -0.8154 -1.5994  1.6684
 6734SOL     OW31834   2.672   4.059   8.030  0.4565  0.5387 -0.1766
 6734SOL    HW131835   2.638   4.010   8.104  0.4219 -1.6991 -1.6958
 6734SOL    HW231836   2.757   4.078   8.071  0.5152 -1.0456  0.4018
 6735SOL     OW31837   0.503   4.363   4.112  0.0433  0.5780  0.4944
 6735SOL    HW131838   0.427   4.421   4.102 -1.1834 -0.4887  3.6680
 6735SOL    HW231839   0.575   4.418   4.081  1.4636 -2.4934 -1.6593
 6736SOL     OW31840   4.666   2.539   2.753  0.2980  0.4625 -0.5574
 6736SOL    HW131841   4.716   2.458   2.765 -0.2173  0.4807  1.6640
 6736SOL    HW231842   4.736   2.602   2.775 -0.4895  1.5794 -1.2589
 6737SOL     OW31843   0.839   0.376   4.835  0.4474 -0.1570 -0.3316
 6737SOL    HW131844   0.773   0.435   4.800  1.9153  0.4699 -2.0255
 6737SOL    HW231845   0.897   0.375   4.759 -2.7184  1.3425 -2.7593
 6738SOL     OW31846   3.183   1.615   7.623  0.0413 -0.0797 -0.1287
 6738SOL    HW131847   3.223   1.607   7.536  1.5151  1.5954  0.3875
 6738SOL    HW231848   3.089   1.621   7.607  0.2925 -1.4852 -2.1548
 6739SOL     OW31849   2.260   4.297   9.312  0.2639  0.9240 -0.2078
 6739SOL    HW131850   2.174   4.296   9.269  1.2736 -0.0320 -2.1650
 6739SOL    HW231851   2.320   4.288   9.238  2.6312  0.5964  1.7543
 6740SOL     OW31852   4.658   1.269  12.630 -0.3540  0.0872 -0.0978
 6740SOL    HW131853   4.599   1.345  12.626  0.5371  0.8449  1.0634
 6740SOL    HW231854   4.701   1.293  12.548 -0.1845 -4.9482 -1.4413
 6741SOL     OW31855   4.379   0.092   1.953 -0.1896  0.5804  0.1471
 6741SOL    HW131856   4.310   0.105   2.017  0.9754  0.0288  1.4995
 6741SOL    HW231857   4.403   4.739   1.955 -0.4025  0.5164 -0.3316
 6742SOL     OW31858   4.612   0.750   2.616 -0.5218  0.2682  0.4944
 6742SOL    HW131859   4.667   0.828   2.626 -1.6215  1.3850 -2.1395
 6742SOL    HW231860   4.645   0.717   2.532  1.2990  0.0285  1.3024
 6743SOL     OW31861   3.593   3.321   7.306 -0.1691  0.1376  0.0275
 6743SOL    HW131862   3.658   3.378   7.348  1.1170 -0.9766 -0.4632
 6743SOL    HW231863   3.654   3.288   7.240  0.2425 -2.2863  1.6200
 6744SOL     OW31864   2.554   4.330   4.766 -0.1883 -0.3705  0.0266
 6744SOL    HW131865   2.626   4.392   4.771 -0.3632 -0.0617 -1.2971
 6744SOL    HW231866   2.493   4.377   4.822  1.5467 -0.1418  1.7065
 6745SOL     OW31867   3.723   4.121   7.762  0.2978  0.6696 -0.0004
 6745SOL    HW131868   3.669   4.192   7.797 -0.9945 -0.3397  0.0598
 6745SOL    HW231869   3.791   4.101   7.827 -2.2937 -2.0440  1.8968
 6746SOL     OW31870   0.808   0.203   3.335  0.1376 -0.3175 -0.1668
 6746SOL    HW131871   0.787   0.269   3.401 -1.3684 -3.0710  2.1351
 6746SOL    HW231872   0.776   0.123   3.376 -1.8952  0.4054 -0.3492
 6747SOL     OW31873   4.289   1.036  11.961 -0.0322  0.3421  0.5138
 6747SOL    HW131874   4.317   1.102  12.025 -1.8046  3.3264 -1.8140
 6747SOL    HW231875   4.303   0.955  12.010  0.7391  0.2439  0.1290
 6748SOL     OW31876   1.142   1.078   5.187 -0.3301  0.4615  0.3270
 6748SOL    HW131877   1.219   1.047   5.139  0.0649  1.6986  0.1586
 6748SOL    HW231878   1.173   1.150   5.242  1.6640 -1.3363  1.5549
 6749SOL     OW31879   0.110   0.681   1.916  0.0675 -0.2659  0.5959
 6749SOL    HW131880   0.020   0.655   1.898  1.0642 -2.5834 -1.2259
 6749SOL    HW231881   0.150   0.601   1.952 -1.1404 -0.5203  1.3611
 6750SOL     OW31882   4.127   1.873   9.533 -0.5313  0.0823  0.1568
 6750SOL    HW131883   4.079   1.870   9.616  0.5783  1.8040  0.8634
 6750SOL    HW231884   4.154   1.781   9.530  0.3678  0.4482 -3.4022
 6751SOL     OW31885   2.505   1.398   0.558  0.0364  0.9236  0.4417
 6751SOL    HW131886   2.502   1.492   0.570  1.4344  1.0295 -0.0242
 6751SOL    HW231887   2.430   1.393   0.499  1.2268  0.7087 -1.0669
 6752SOL     OW31888   2.110   2.106   6.784 -0.3643 -0.4644  0.2421
 6752SOL    HW131889   2.039   2.171   6.786 -1.8647 -2.1469  1.2001
 6752SOL    HW231890   2.172   2.144   6.722 -0.7512 -0.5931 -0.2273
 6753SOL     OW31891   0.893   2.498   5.249 -0.1580  0.0437  0.2343
 6753SOL    HW131892   0.942   2.520   5.328  1.5823  0.3567 -0.9376
 6753SOL    HW231893   0.886   2.577   5.196 -0.8617  0.4078  0.8798
 6754SOL     OW31894   3.002   2.150   9.579  0.0924  0.1508 -0.4529
 6754SOL    HW131895   3.051   2.231   9.592 -0.1386  0.3736 -0.9526
 6754SOL    HW231896   3.054   2.113   9.508 -2.0987  0.3124 -2.1408
 6755SOL     OW31897   3.889   2.604   3.980  0.1710 -0.0804  0.1703
 6755SOL    HW131898   3.827   2.550   4.030 -0.5048  0.8160  0.2940
 6755SOL    HW231899   3.923   2.543   3.915 -0.5792  1.4422 -1.6370
 6756SOL     OW31900   2.303   1.838  13.320 -0.0124 -0.2940 -0.1861
 6756SOL    HW131901   2.299   1.748  13.287 -0.6427 -0.4706  0.3565
 6756SOL    HW231902   2.357   1.821  13.398  2.0805  1.2917 -1.2872
 6757SOL     OW31903   2.116   0.320   4.995  0.2670  0.2008 -0.3541
 6757SOL    HW131904   2.035   0.372   4.999 -0.3465 -0.6190 -2.3372
 6757SOL    HW231905   2.080   0.233   5.013 -0.6752  0.2724 -1.8768
 6758SOL     OW31906   4.193   1.006   0.183  1.0851 -0.1285 -0.6149
 6758SOL    HW131907   4.183   0.985   0.276  0.0932 -1.9246 -1.1396
 6758SOL    HW231908   4.129   1.077   0.178 -0.0562 -1.1344 -0.2107
 6759SOL     OW31909   0.369   0.506   4.993 -0.3177  0.6572 -0.1483
 6759SOL    HW131910   0.354   0.569   5.064 -1.6351 -0.9989  1.0266
 6759SOL    HW231911   0.280   0.478   4.973 -0.2897  0.2781  0.2807
 6760SOL     OW31912   4.675   1.995   2.156  0.0606 -0.5477  0.1320
 6760SOL    HW131913   4.623   1.922   2.190 -0.2907 -0.0722  0.6207
 6760SOL    HW231914   4.703   1.958   2.073  0.3500  2.3707 -1.0937
 6761SOL     OW31915   3.380   1.240  17.307 -0.2261 -0.0568  0.1981
 6761SOL    HW131916   3.292   1.203  17.305 -0.7358  1.1747  0.0078
 6761SOL    HW231917   3.393   1.269  17.217 -1.7969 -0.6422 -0.2138
 6762SOL     OW31918   3.363   2.339   6.723 -0.3134 -0.2808  0.6856
 6762SOL    HW131919   3.453   2.324   6.696 -0.8156  0.0721 -1.2424
 6762SOL    HW231920   3.324   2.374   6.642  1.7004  0.9758  0.2678
 6763SOL     OW31921   2.996   3.109   0.833  0.2800  0.3080  0.0399
 6763SOL    HW131922   2.916   3.106   0.781  0.7396  0.9072 -0.6915
 6763SOL    HW231923   2.967   3.123   0.923  2.5147  0.2476  0.7847
 6764SOL     OW31924   2.382   2.945   1.464 -0.5277 -0.1264 -0.5806
 6764SOL    HW131925   2.358   2.883   1.533  0.4555 -0.4972 -0.5696
 6764SOL    HW231926   2.463   2.984   1.497 -1.1998 -0.0979  1.0328
 6765SOL     OW31927   2.691   3.246  11.764  0.2006  0.0979  0.4840
 6765SOL    HW131928   2.674   3.260  11.671  1.9464 -0.7053  0.0447
 6765SOL    HW231929   2.643   3.321  11.799  0.0681  0.1546  0.1849
 6766SOL     OW31930   4.623   2.158   8.459  0.1835  0.0124 -0.4132
 6766SOL    HW131931   4.682   2.158   8.535  1.7367 -3.0691 -1.6135
 6766SOL    HW231932   4.686   2.132   8.392  0.2340 -2.4545  0.5830
 6767SOL     OW31933   3.523   4.415   0.264 -0.0236 -0.1733  0.3410
 6767SOL    HW131934   3.469   4.367   0.201  0.7474  0.4050 -0.7421
 6767SOL    HW231935   3.613   4.415   0.232 -0.6949 -1.4533 -1.5829
 6768SOL     OW31936   1.959   0.120   2.158 -0.2168  0.0930  0.3336
 6768SOL    HW131937   1.895   0.061   2.118 -0.8038 -0.9327  2.7871
 6768SOL    HW231938   2.000   0.156   2.080 -0.3569 -0.7118 -0.1201
 6769SOL     OW31939   1.291   2.713   9.023 -0.0879 -0.3479  0.0357
 6769SOL    HW131940   1.355   2.669   9.078 -0.5119 -2.3663 -1.0672
 6769SOL    HW231941   1.347   2.750   8.955  0.2293 -1.9928 -0.5938
 6770SOL     OW31942   0.232   4.637   0.477 -0.8605 -0.3047 -0.2523
 6770SOL    HW131943   0.180   4.717   0.463 -0.1070  0.5259  1.7421
 6770SOL    HW231944   0.174   4.562   0.489  1.1926 -1.8421  0.0003
 6771SOL     OW31945   4.132   2.734  14.334 -0.5063  0.0578  0.1534
 6771SOL    HW131946   4.096   2.645  14.326  1.8065 -0.8127 -0.7292
 6771SOL    HW231947   4.062   2.785  14.294 -0.6446  1.3441  2.0523
 6772SOL     OW31948   2.764   2.903   3.648 -0.5966 -0.4688 -0.4957
 6772SOL    HW131949   2.739   2.987   3.685  1.7175 -0.5491  1.2223
 6772SOL    HW231950   2.831   2.881   3.713 -1.1701 -0.1926  0.1822
 6773SOL     OW31951   4.620   4.499   3.719  0.7032  0.0117  0.1114
 6773SOL    HW131952   4.612   4.456   3.634  1.8904  1.8241 -0.9248
 6773SOL    HW231953   4.654   4.585   3.694 -0.3741  0.5885  0.6523
 6774SOL     OW31954   4.293   4.553   7.333  0.1312  0.0423 -0.2686
 6774SOL    HW131955   4.229   4.624   7.337 -1.5787 -1.5474  0.7768
 6774SOL    HW231956   4.364   4.595   7.284  0.6242 -1.3867 -0.7752
 6775SOL     OW31957   4.373   0.722   0.638 -0.2752  0.3000  0.3498
 6775SOL    HW131958   4.364   0.798   0.580  1.4795  0.3703  0.1710
 6775SOL    HW231959   4.294   0.728   0.691 -0.5054  1.6322 -0.1354
 6776SOL     OW31960   0.454   0.228   5.533  0.6334 -0.1988  0.3539
 6776SOL    HW131961   0.442   0.246   5.439  5.1211 -0.6191 -0.2995
 6776SOL    HW231962   0.368   0.194   5.556  0.2471  0.0362 -0.7273
 6777SOL     OW31963   0.710   0.635   7.716 -0.3496 -0.3285  0.2550
 6777SOL    HW131964   0.668   0.595   7.792 -1.5329  0.1650 -0.1297
 6777SOL    HW231965   0.695   0.729   7.726 -0.0448 -0.2618  0.0781
 6778SOL     OW31966   3.139   1.200   4.297  0.0859  0.7321 -1.1309
 6778SOL    HW131967   3.177   1.189   4.385 -1.5600  0.7506 -0.4218
 6778SOL    HW231968   3.056   1.158   4.318  0.6640 -0.7026 -1.7048
 6779SOL     OW31969   0.246   4.311  15.614 -0.6027 -0.1675 -0.0709
 6779SOL    HW131970   0.279   4.317  15.704 -0.4181 -1.2217 -0.0600
 6779SOL    HW231971   0.156   4.281  15.628  0.6150 -4.0827 -0.5927
 6780SOL     OW31972   3.216   0.076   5.305 -0.4426  0.0886  0.4780
 6780SOL    HW131973   3.138   0.088   5.359 -0.5742  0.3800  0.2236
 6780SOL    HW231974   3.280   0.105   5.371  0.6530  1.4401 -1.1871
 6781SOL     OW31975   0.804   1.154   5.737  0.0193 -0.0124  0.0527
 6781SOL    HW131976   0.732   1.115   5.687 -0.1376  1.3320 -0.7827
 6781SOL    HW231977   0.772   1.244   5.728 -0.3690 -0.1875 -0.3514
 6782SOL     OW31978   0.193   2.197   7.851 -0.2498  0.0179 -0.2502
 6782SOL    HW131979   0.137   2.233   7.919  1.9878 -0.0048  1.5924
 6782SOL    HW231980   0.212   2.105   7.870  0.0892 -0.2402 -1.7925
 6783SOL     OW31981   0.780   0.630   4.635 -0.4548 -0.1340  0.0934
 6783SOL    HW131982   0.707   0.604   4.579 -1.4459  2.7033  0.0537
 6783SOL    HW231983   0.810   0.703   4.582 -1.0987 -0.3862 -0.6088
 6784SOL     OW31984   0.037   4.122   3.797 -0.5975 -0.7195 -0.5985
 6784SOL    HW131985   0.101   4.053   3.812  1.5771  1.2394 -0.8202
 6784SOL    HW231986   0.002   4.090   3.714 -1.3060  2.3601 -1.4904
 6785SOL     OW31987   0.391   0.301   8.633  0.2427 -0.1773  0.3586
 6785SOL    HW131988   0.465   0.283   8.692  1.3694  1.1980 -0.6432
 6785SOL    HW231989   0.329   0.229   8.644  0.1684  0.2238  2.5471
 6786SOL     OW31990   2.736   1.557   3.547 -0.0745 -0.5169  0.0536
 6786SOL    HW131991   2.666   1.529   3.488  1.4186  0.9617 -2.4148
 6786SOL    HW231992   2.695   1.541   3.632  2.4450 -0.7279  1.2345
 6787SOL     OW31993   2.992   3.815   0.630 -0.1895  0.0207 -0.3529
 6787SOL    HW131994   2.971   3.729   0.666 -0.7759  0.1771 -0.3225
 6787SOL    HW231995   2.932   3.876   0.674 -2.8435 -2.9875  0.1599
 6788SOL     OW31996   1.323   4.495  12.202  0.7651 -0.3447  0.1475
 6788SOL    HW131997   1.411   4.533  12.200  0.4194  0.4034 -1.0740
 6788SOL    HW231998   1.297   4.500  12.110 -1.0136 -0.9631  0.6177
 6789SOL     OW31999   0.179   4.127   0.692  0.2110 -0.1118 -0.4388
 6789SOL    HW132000   0.160   4.138   0.599  0.1637 -2.9924 -0.7839
 6789SOL    HW232001   0.228   4.046   0.675  0.3096 -0.2855  0.6437
 6790SOL     OW32002   3.240   2.315   6.939  0.1601  0.2113  0.2530
 6790SOL    HW132003   3.283   2.230   6.930  0.8514  0.7698 -1.7333
 6790SOL    HW232004   3.275   2.347   6.856 -1.1409 -0.7860 -0.6934
 6791SOL     OW32005   2.478   1.330  11.804 -0.3989  0.4258 -0.0643
 6791SOL    HW132006   2.565   1.290  11.797 -0.7386 -0.7892  2.9139
 6791SOL    HW232007   2.490   1.377  11.886  1.8088 -1.2057  0.5292
 6792SOL     OW32008   4.070   2.552   8.845 -0.3022  0.8549 -0.2397
 6792SOL    HW132009   4.029   2.617   8.788 -0.1549 -0.0387 -1.3708
 6792SOL    HW232010   4.019   2.564   8.925  1.9630 -2.9769  1.7449
 6793SOL     OW32011   2.633   4.565   7.001  0.5029 -0.4387  0.0200
 6793SOL    HW132012   2.579   4.550   6.923 -0.0566  1.5621  0.0285
 6793SOL    HW232013   2.699   4.628   6.972  0.6922 -0.0976  1.1935
 6794SOL     OW32014   3.831   2.871  11.290  0.0000 -0.1920 -0.5270
 6794SOL    HW132015   3.836   2.922  11.371 -2.1184 -0.2435 -0.3553
 6794SOL    HW232016   3.751   2.907  11.252  0.2860  1.0906  0.1021
 6795SOL     OW32017   1.014   0.988   4.407 -0.1903 -0.3402  0.5011
 6795SOL    HW132018   1.038   1.038   4.485 -1.2053 -0.2606  0.7542
 6795SOL    HW232019   1.090   0.931   4.397 -1.3030 -1.7635  0.1991
 6796SOL     OW32020   3.366   0.276  10.166  0.3628 -0.0405 -0.1450
 6796SOL    HW132021   3.305   0.212  10.202  2.2010 -1.3538  0.6758
 6796SOL    HW232022   3.455   0.240  10.162  0.7353  1.0499 -1.5383
 6797SOL     OW32023   4.411   0.267   0.106 -0.0745 -0.3198  0.2887
 6797SOL    HW132024   4.469   0.191   0.100  0.2763 -0.0481  0.2969
 6797SOL    HW232025   4.455   0.348   0.081 -0.4358 -0.1261  0.2706
 6798SOL     OW32026   2.329   2.410   2.713 -0.2586 -0.3710 -0.6772
 6798SOL    HW132027   2.354   2.389   2.623 -1.3318  2.7206 -1.6728
 6798SOL    HW232028   2.235   2.414   2.698 -0.4697  0.7789  0.9906
 6799SOL     OW32029   1.467   3.063   6.759 -0.0098  0.0301 -0.8329
 6799SOL    HW132030   1.559   3.041   6.771 -0.1271  0.2271  0.5163
 6799SOL    HW232031   1.471   3.158   6.767  1.2206 -0.0487 -0.5275
 6800SOL     OW32032   4.705   2.074   1.677  0.0985 -0.1477 -0.1936
 6800SOL    HW132033   4.647   2.143   1.707  1.0930  1.5551 -2.1484
 6800SOL    HW232034   4.638   2.010   1.652 -0.5102  0.2070  0.5423
 6801SOL     OW32035   0.735   3.187   6.070  0.3456 -0.0340 -0.6240
 6801SOL    HW132036   0.786   3.109   6.047  0.1749 -0.5324  0.6819
 6801SOL    HW232037   0.701   3.143   6.147  1.8130  0.3043  0.2153
 6802SOL     OW32038   1.690   4.387  11.965 -0.2458 -0.3161  0.3648
 6802SOL    HW132039   1.676   4.318  11.901  0.4035 -0.7231  0.6538
 6802SOL    HW232040   1.786   4.384  11.962 -0.2897 -0.1579 -1.0944
 6803SOL     OW32041   3.210   1.281   7.832  0.3421 -0.2287 -0.0998
 6803SOL    HW132042   3.274   1.296   7.901 -0.5625 -0.9493  0.8950
 6803SOL    HW232043   3.265   1.297   7.755 -1.2091 -0.5572 -1.2647
 6804SOL     OW32044   3.445   2.444   6.085 -0.1072 -0.1263 -0.1590
 6804SOL    HW132045   3.447   2.439   6.181 -1.0212  0.2121 -0.1222
 6804SOL    HW232046   3.350   2.457   6.077  0.0510  1.7619  1.0271
 6805SOL     OW32047   4.131   2.223   0.400  0.3878  0.0007 -0.1403
 6805SOL    HW132048   4.125   2.204   0.306 -2.8828 -1.3727  0.3443
 6805SOL    HW232049   4.218   2.194   0.427  0.0025 -2.2325 -1.2553
 6806SOL     OW32050   2.356   0.450  16.909  0.3662  0.6336 -0.0462
 6806SOL    HW132051   2.366   0.356  16.927  0.0847  0.5558 -0.3014
 6806SOL    HW232052   2.322   0.480  16.994  0.8634  1.7905 -0.2625
 6807SOL     OW32053   1.574   0.115  15.349  1.0530  0.0200  0.0182
 6807SOL    HW132054   1.529   0.091  15.267  0.6466 -2.1516  0.8936
 6807SOL    HW232055   1.512   0.100  15.420  0.9975  1.3666  0.2646
 6808SOL     OW32056   1.204   4.294   2.231  0.0203 -0.1312 -0.3647
 6808SOL    HW132057   1.187   4.207   2.266  1.3899 -0.5790 -0.8355
 6808SOL    HW232058   1.116   4.316   2.200 -0.6703 -2.2861  0.1253
 6809SOL     OW32059   4.309   4.514   6.025 -1.1058  0.7928 -0.0915
 6809SOL    HW132060   4.379   4.579   6.015 -0.4925  0.5049  2.2699
 6809SOL    HW232061   4.317   4.495   6.118  0.8433 -1.0160 -0.6134
 6810SOL     OW32062   2.522   0.043   5.484  0.8673  0.5615  0.0243
 6810SOL    HW132063   2.599   0.088   5.519  0.6548  0.1396  1.0232
 6810SOL    HW232064   2.462   0.117   5.490  0.8095  0.7025 -2.1301
 6811SOL     OW32065   2.695   4.610  11.662  0.3690 -0.1351  0.0768
 6811SOL    HW132066   2.756   4.576  11.597 -0.3315 -1.8461  0.3128
 6811SOL    HW232067   2.723   4.701  11.674  0.4790 -0.3116  1.1782
 6812SOL     OW32068   4.168   2.770   1.852  0.2460 -0.0803 -0.3463
 6812SOL    HW132069   4.206   2.717   1.781  3.6924 -1.2772  2.3766
 6812SOL    HW232070   4.113   2.714   1.906  0.0901 -0.6467 -1.0966
 6813SOL     OW32071   1.025   1.980   5.815  0.6580  0.0760 -0.1273
 6813SOL    HW132072   0.962   2.046   5.845  1.2260 -0.0764  1.4109
 6813SOL    HW232073   0.980   1.916   5.760 -2.2888  1.0189  1.1512
 6814SOL     OW32074   4.171   0.956   6.474  0.3126  0.3394  0.1669
 6814SOL    HW132075   4.076   0.970   6.472  0.0200 -1.3313  2.3751
 6814SOL    HW232076   4.199   1.013   6.545 -0.7629 -1.4982  2.0456
 6815SOL     OW32077   1.496   1.774  17.398  0.2180  0.2392 -0.0874
 6815SOL    HW132078   1.557   1.711  17.360 -2.2543 -1.9842 -0.3198
 6815SOL    HW232079   1.448   1.798  17.319  0.1590  0.2387 -0.0513
 6816SOL     OW32080   0.653   2.685   3.509  0.2301 -0.0009 -0.2790
 6816SOL    HW132081   0.680   2.691   3.417 -0.6724  3.0159 -0.3541
 6816SOL    HW232082   0.736   2.692   3.556  0.3163 -1.8257 -0.1577
 6817SOL     OW32083   1.877   3.264   7.113  0.0557  0.1911  0.2584
 6817SOL    HW132084   1.939   3.334   7.132 -0.1395  0.2653  0.6295
 6817SOL    HW232085   1.937   3.190   7.102 -0.6124 -0.4663  0.9569
 6818SOL     OW32086   1.999   2.376   8.643 -0.9286  0.3710 -0.6891
 6818SOL    HW132087   1.915   2.355   8.602 -0.4689 -1.2559 -0.8025
 6818SOL    HW232088   2.065   2.322   8.599  1.4459  3.1569 -0.5432
 6819SOL     OW32089   1.159   2.861   5.346  0.6253 -0.6370  0.2713
 6819SOL    HW132090   1.205   2.858   5.262  0.7296  2.3111  0.2289
 6819SOL    HW232091   1.074   2.825   5.321  0.2433  2.7408 -3.3239
 6820SOL     OW32092   0.038   2.293  16.078 -0.3149  0.2880  0.8347
 6820SOL    HW132093   0.078   2.357  16.136 -0.5105  1.5083 -0.3832
 6820SOL    HW232094   4.686   2.283  16.102 -0.1944 -1.6464  0.4985
 6821SOL     OW32095   2.664   0.959  13.407  0.3175 -0.0067  0.5325
 6821SOL    HW132096   2.748   0.933  13.368  1.2044  1.5296  1.4421
 6821SOL    HW232097   2.626   0.872  13.418  0.1146  0.0626  0.3778
 6822SOL     OW32098   4.455   2.773   3.910 -0.5916  0.0957  0.1276
 6822SOL    HW132099   4.549   2.764   3.924 -0.6411 -0.1637  0.3109
 6822SOL    HW232100   4.438   2.845   3.972  2.1402  1.3822 -0.6176
 6823SOL     OW32101   0.218   3.652   6.196 -0.0072 -0.2681 -0.1711
 6823SOL    HW132102   0.186   3.648   6.106 -2.7939  1.5973  0.7569
 6823SOL    HW232103   0.288   3.716   6.184 -1.0598  0.9400  0.1929
 6824SOL     OW32104   0.103   0.843   4.771 -0.6945 -0.0774  0.6761
 6824SOL    HW132105   0.051   0.816   4.846  0.5424 -0.6008  1.3529
 6824SOL    HW232106   0.035   0.893   4.726  0.3077  0.9517  0.2928
 6825SOL     OW32107   1.853   0.016   6.142  0.4743  0.1589  0.3672
 6825SOL    HW132108   1.796   0.052   6.074 -0.1033 -0.6742  0.4028
 6825SOL    HW232109   1.820   4.665   6.147 -1.7574  0.8830 -1.1183
 6826SOL     OW32110   4.304   2.959   5.689 -0.2669  0.3759  0.2805
 6826SOL    HW132111   4.398   2.953   5.706 -0.3655  1.4104  1.2332
 6826SOL    HW232112   4.292   2.997   5.602 -1.5818 -0.8092 -0.0518
 6827SOL     OW32113   2.981   4.469  14.632  0.5126  0.0925 -0.2632
 6827SOL    HW132114   3.062   4.453  14.680  0.8901 -1.9630 -1.5617
 6827SOL    HW232115   3.006   4.452  14.541 -0.4595  1.2170 -0.7386
 6828SOL     OW32116   0.450   0.330   1.486 -0.5981  0.2075 -0.7143
 6828SOL    HW132117   0.477   0.342   1.578  1.4571  0.1325 -1.3175
 6828SOL    HW232118   0.357   0.313   1.499 -0.8227  0.4204 -2.0720
 6829SOL     OW32119   0.464   4.540   0.290  0.5167 -0.0320 -0.2137
 6829SOL    HW132120   0.441   4.526   0.198 -2.1895  0.3598  0.4321
 6829SOL    HW232121   0.382   4.564   0.332 -0.7838 -1.4111 -1.9884
 6830SOL     OW32122   2.055   4.261  16.535  0.1954 -0.5363  0.0018
 6830SOL    HW132123   2.134   4.297  16.575  0.4876 -0.8678 -0.2765
 6830SOL    HW232124   2.059   4.278  16.441  2.7616  0.7643  0.3473
 6831SOL     OW32125   3.286   0.886  15.037  0.6871  0.0171  0.5952
 6831SOL    HW132126   3.271   0.847  14.951 -0.6229  1.6730  0.0760
 6831SOL    HW232127   3.369   0.932  15.022 -0.1058  0.7155 -1.7231
 6832SOL     OW32128   3.063   1.760   4.925 -0.7404 -0.0946  0.2118
 6832SOL    HW132129   2.997   1.816   4.885 -0.8364  1.1187  2.0409
 6832SOL    HW232130   3.062   1.678   4.875  0.9053  1.0420 -1.7298
 6833SOL     OW32131   0.139   1.689  11.683 -0.0621 -0.0023  0.4195
 6833SOL    HW132132   0.229   1.657  11.679  0.5149  1.6117  0.5408
 6833SOL    HW232133   0.080   1.639  11.627 -1.5780  2.6947 -0.3770
 6834SOL     OW32134   2.551   3.374  16.688 -0.2703  0.2705 -0.2434
 6834SOL    HW132135   2.465   3.344  16.659  0.1812 -1.9466  0.6944
 6834SOL    HW232136   2.607   3.330  16.625  1.2877  2.0932 -0.1328
 6835SOL     OW32137   0.360   2.762   5.026  0.1640  0.4113  0.5053
 6835SOL    HW132138   0.413   2.749   5.104 -1.0465 -0.4467  1.1877
 6835SOL    HW232139   0.369   2.681   4.975  0.0257  0.0699  1.0205
 6836SOL     OW32140   3.351   1.941   7.102  0.1949 -0.1197  0.1843
 6836SOL    HW132141   3.258   1.935   7.124 -0.1209 -0.2387 -1.1277
 6836SOL    HW232142   3.363   1.850   7.073  0.8187  0.4845 -1.4508
 6837SOL     OW32143   1.671   2.327   5.745  0.0489  0.8000  0.0919
 6837SOL    HW132144   1.738   2.362   5.686 -0.2250 -0.0820 -0.7577
 6837SOL    HW232145   1.592   2.339   5.693 -0.7335  1.1795  1.3906
 6838SOL     OW32146   0.911   3.526  15.387 -0.2894 -0.1439 -0.0766
 6838SOL    HW132147   1.003   3.540  15.363 -0.3149 -1.0942 -0.7307
 6838SOL    HW232148   0.867   3.518  15.303  0.9898  1.5226 -0.9090
 6839SOL     OW32149   0.434   1.271   5.460 -0.3387 -0.1854 -0.2885
 6839SOL    HW132150   0.485   1.327   5.402 -1.4178  0.8576 -0.2414
 6839SOL    HW232151   0.347   1.301   5.436  0.3917 -0.4500 -3.1725
 6840SOL     OW32152   3.032   3.037   7.947  0.1197 -0.1389 -0.4713
 6840SOL    HW132153   3.104   3.043   7.884 -0.1832  0.0119 -0.8024
 6840SOL    HW232154   3.086   3.020   8.024  0.6789  0.4032 -0.7455
 6841SOL     OW32155   3.070   2.533   8.692 -0.3434 -0.3806 -0.9697
 6841SOL    HW132156   3.092   2.443   8.714  1.5689  0.2967 -0.0786
 6841SOL    HW232157   2.984   2.528   8.649  0.1909 -0.0220 -2.0714
 6842SOL     OW32158   0.708   3.541   8.903  0.4849  0.7609 -0.1514
 6842SOL    HW132159   0.783   3.559   8.845  0.1966  0.2585 -0.6772
 6842SOL    HW232160   0.738   3.467   8.956  1.5866 -0.7466 -2.8658
 6843SOL     OW32161   2.323   0.020   2.206 -0.3062  0.1567 -0.0538
 6843SOL    HW132162   2.414   0.009   2.232 -0.0822  2.2440  0.0094
 6843SOL    HW232163   2.307   4.696   2.135  2.8790 -1.2023  0.4738
 6844SOL     OW32164   1.059   4.191   6.379  0.0385  0.2312  0.1777
 6844SOL    HW132165   1.004   4.115   6.358 -0.7405  0.9613 -0.4330
 6844SOL    HW232166   1.117   4.182   6.303 -2.0024 -1.3811 -1.2026
 6845SOL     OW32167   1.719   3.500   9.571  0.1099  0.2080  0.2840
 6845SOL    HW132168   1.780   3.565   9.536  0.4074  1.2133  2.6726
 6845SOL    HW232169   1.681   3.557   9.638  2.7947 -1.4485  3.1943
 6846SOL     OW32170   2.417   3.294   2.213 -0.1400 -0.1326  0.2877
 6846SOL    HW132171   2.366   3.358   2.162  1.6150  0.9387 -0.1150
 6846SOL    HW232172   2.506   3.296   2.179 -0.0534  0.9952  0.5704
 6847SOL     OW32173   0.780   2.872   9.174 -0.3634 -0.2021 -0.2577
 6847SOL    HW132174   0.721   2.812   9.220  0.0480 -0.8163 -0.5442
 6847SOL    HW232175   0.843   2.813   9.134  0.2489 -0.2932  0.8269
 6848SOL     OW32176   2.349   3.200  11.940  0.1951 -0.4523  0.0237
 6848SOL    HW132177   2.293   3.235  12.010  1.2357  1.6662 -0.1749
 6848SOL    HW232178   2.406   3.146  11.994  0.6746 -0.5907 -0.6337
 6849SOL     OW32179   2.718   4.537   2.152 -0.3289 -0.1474 -0.0213
 6849SOL    HW132180   2.686   4.555   2.240  3.0949  2.4489  0.6866
 6849SOL    HW232181   2.808   4.516   2.176 -0.1123  0.7790 -0.0393
 6850SOL     OW32182   3.061   2.450   7.901  0.2318 -0.1624  0.0968
 6850SOL    HW132183   3.049   2.442   7.807 -0.1154 -2.6639  0.3415
 6850SOL    HW232184   3.097   2.369   7.939  0.6583 -0.2293 -0.4442
 6851SOL     OW32185   2.946   3.353   6.683 -0.0345  0.3331  0.3387
 6851SOL    HW132186   2.935   3.441   6.647  0.1508 -0.8131 -2.4597
 6851SOL    HW232187   3.041   3.350   6.695  0.3354  1.2722 -2.4222
 6852SOL     OW32188   1.842   4.540   9.207 -0.2522  0.1624  0.0423
 6852SOL    HW132189   1.773   4.605   9.203 -0.2651  0.0914 -1.0241
 6852SOL    HW232190   1.878   4.536   9.118  1.2090  1.4569  0.5836
 6853SOL     OW32191   3.501   3.322   4.412 -0.1317 -0.0103 -0.5526
 6853SOL    HW132192   3.551   3.401   4.432  0.2782 -0.8058  1.5960
 6853SOL    HW232193   3.533   3.315   4.322  1.0881 -1.6387  0.0036
 6854SOL     OW32194   1.048   3.644  11.281 -0.0834 -0.4142 -0.4258
 6854SOL    HW132195   1.053   3.626  11.187  1.4305 -0.6202 -0.3152
 6854SOL    HW232196   1.030   3.559  11.320  1.6312 -0.4945  0.2053
 6855SOL     OW32197   4.559   1.868   5.367 -0.3294 -0.4084  0.6711
 6855SOL    HW132198   4.495   1.806   5.401 -0.3429  0.2365  1.7954
 6855SOL    HW232199   4.560   1.841   5.275  0.0455 -3.0628  1.4822
 6856SOL     OW32200   3.499   2.677   7.314 -0.4153  0.0998 -0.0800
 6856SOL    HW132201   3.535   2.618   7.246  2.0898 -1.1696  2.3520
 6856SOL    HW232202   3.525   2.764   7.284  1.0246  0.1089  1.1818
 6857SOL     OW32203   0.835   1.510   1.880 -1.3389 -0.6446  0.1108
 6857SOL    HW132204   0.878   1.592   1.905  0.3999 -1.4514 -0.2521
 6857SOL    HW232205   0.890   1.444   1.922  0.1171  0.1294 -0.6017
 6858SOL     OW32206   2.677   4.460   8.132 -0.0339 -0.5639  0.2685
 6858SOL    HW132207   2.765   4.483   8.101  0.4004 -0.0570  1.8448
 6858SOL    HW232208   2.697   4.397   8.201 -0.2911 -2.1826 -1.1460
 6859SOL     OW32209   0.683   2.986   5.625  0.5485 -0.4724  0.3250
 6859SOL    HW132210   0.649   3.075   5.632  2.0173  0.3052 -2.7816
 6859SOL    HW232211   0.778   2.998   5.626  0.2324  2.0642 -0.9964
 6860SOL     OW32212   2.731   4.041  14.838  0.6016  0.0961  0.1115
 6860SOL    HW132213   2.775   4.118  14.801 -0.3886  1.0301  0.8377
 6860SOL    HW232214   2.703   3.993  14.760  1.1812  2.1505 -1.3617
 6861SOL     OW32215   1.923   3.854   4.472  0.2163  0.6198 -0.0627
 6861SOL    HW132216   1.968   3.781   4.429  3.0275  2.2202  0.1646
 6861SOL    HW232217   1.868   3.878   4.397 -1.2106  1.1213  1.1428
 6862SOL     OW32218   1.540   1.310   8.574  0.3441  0.4328 -0.4959
 6862SOL    HW132219   1.606   1.270   8.518 -0.6560 -2.2492  0.2328
 6862SOL    HW232220   1.576   1.398   8.580  2.6961 -0.5382 -0.4438
 6863SOL     OW32221   3.750   1.129   8.502 -0.2420 -0.2017 -0.3340
 6863SOL    HW132222   3.840   1.096   8.512 -0.7612 -1.4088  0.4412
 6863SOL    HW232223   3.710   1.060   8.556 -0.2269  0.7983  0.9494
 6864SOL     OW32224   3.353   0.417   3.410 -0.4044  0.0187  0.0056
 6864SOL    HW132225   3.415   0.478   3.371  0.9182 -1.6980 -0.6206
 6864SOL    HW232226   3.280   0.473   3.435 -1.9869 -1.9189 -0.2213
 6865SOL     OW32227   0.681   2.331   6.898  0.0091 -0.8188  0.0816
 6865SOL    HW132228   0.634   2.257   6.937 -2.4510  0.3684 -0.5836
 6865SOL    HW232229   0.760   2.330   6.952  0.8951 -0.1648 -1.2226
 6866SOL     OW32230   0.175   1.666  13.443  0.1933 -0.0613 -0.3963
 6866SOL    HW132231   0.112   1.655  13.514  0.5525  3.0838  0.4089
 6866SOL    HW232232   0.151   1.755  13.419  2.0437  0.7563  0.7288
 6867SOL     OW32233   4.574   3.866   9.309  0.1944 -0.0464  0.2013
 6867SOL    HW132234   4.506   3.854   9.375  0.6074  0.1301  0.6587
 6867SOL    HW232235   4.601   3.776   9.294  0.4729 -0.1618  1.4163
 6868SOL     OW32236   4.043   0.984  16.528 -0.1410 -0.3800 -0.1748
 6868SOL    HW132237   4.093   0.926  16.471  0.0646  1.0419 -1.4597
 6868SOL    HW232238   4.031   0.930  16.605 -0.3037  0.0405  0.0946
 6869SOL     OW32239   1.258   2.076   3.723  0.0557 -0.2105 -0.7059
 6869SOL    HW132240   1.350   2.093   3.743 -0.0278 -0.4012 -0.1332
 6869SOL    HW232241   1.274   2.022   3.646 -0.2004 -1.4742  0.1282
 6870SOL     OW32242   0.400   2.172   5.828 -0.0754 -0.2082  0.6302
 6870SOL    HW132243   0.393   2.262   5.795  1.5940 -0.7281 -1.1337
 6870SOL    HW232244   0.332   2.124   5.780  2.5024 -0.7200 -2.5430
 6871SOL     OW32245   4.214   1.179   0.704 -0.2477  0.0432 -0.5229
 6871SOL    HW132246   4.264   1.122   0.762 -0.0533  0.1906 -0.5480
 6871SOL    HW232247   4.212   1.253   0.764  0.7782 -1.2536  1.1240
 6872SOL     OW32248   2.076   3.717   9.044  0.3535  0.4912  0.4002
 6872SOL    HW132249   2.083   3.786   9.110  0.1366  1.3682 -0.4897
 6872SOL    HW232250   1.992   3.742   9.003  0.6604  0.0596 -0.4980
 6873SOL     OW32251   2.423   4.055   2.766  0.3416 -0.2655  0.3609
 6873SOL    HW132252   2.341   4.085   2.725  0.8044 -2.2593 -2.0645
 6873SOL    HW232253   2.483   4.070   2.693 -1.3920 -2.0412 -1.4392
 6874SOL     OW32254   2.287   1.239   7.339  0.4447  0.0389  0.2126
 6874SOL    HW132255   2.246   1.197   7.263  0.5987  0.1903  0.0470
 6874SOL    HW232256   2.378   1.208   7.337  0.1197 -0.9791  1.3203
 6875SOL     OW32257   2.699   2.434   3.190  0.1280 -0.6584  0.0853
 6875SOL    HW132258   2.653   2.357   3.225 -0.7669 -0.7771 -1.3671
 6875SOL    HW232259   2.632   2.501   3.193  1.1182  0.3564 -0.7143
 6876SOL     OW32260   1.666   2.764   8.723  0.0247  0.6092  0.1554
 6876SOL    HW132261   1.753   2.777   8.762  0.2081 -0.4299  0.0843
 6876SOL    HW232262   1.631   2.703   8.788  2.0791  0.1314  0.8132
 6877SOL     OW32263   2.441   4.400   4.531  0.2441  0.3459  0.4974
 6877SOL    HW132264   2.522   4.390   4.480  0.5224 -1.5713  1.3294
 6877SOL    HW232265   2.473   4.387   4.620 -4.0913  1.4322  2.2340
 6878SOL     OW32266   3.111   1.575   5.574 -0.1053 -0.2921 -0.0662
 6878SOL    HW132267   3.103   1.641   5.505 -0.9925  0.3438  0.6470
 6878SOL    HW232268   3.066   1.613   5.649 -0.2556  0.4315 -0.5274
 6879SOL     OW32269   3.223   3.481   6.934  0.3093  0.2266 -0.1858
 6879SOL    HW132270   3.166   3.557   6.944  0.8333  0.5608  0.2648
 6879SOL    HW232271   3.300   3.524   6.898  0.2906  1.4799  1.2670
 6880SOL     OW32272   0.263   3.044   6.502  0.6889 -0.1310  0.0367
 6880SOL    HW132273   0.320   3.077   6.571 -1.1001  0.4514  1.2436
 6880SOL    HW232274   0.290   3.101   6.430 -1.6971  0.7286 -0.1860
 6881SOL     OW32275   1.486   0.523   4.507  0.0263 -0.6621 -0.0420
 6881SOL    HW132276   1.551   0.501   4.574 -0.0480  0.4868  0.4006
 6881SOL    HW232277   1.523   0.581   4.441  0.9922 -0.2270  0.8668
 6882SOL     OW32278   0.705   2.426  15.509  0.2729 -0.3388 -0.3460
 6882SOL    HW132279   0.677   2.508  15.469  1.8574 -1.2158 -3.2124
 6882SOL    HW232280   0.720   2.373  15.431 -2.5422 -0.2492 -0.9354
 6883SOL     OW32281   0.200   2.990   9.034 -0.3962  0.0726 -0.3578
 6883SOL    HW132282   0.164   3.051   9.099 -1.7747 -1.5586  0.4137
 6883SOL    HW232283   0.258   2.928   9.078  0.8780 -0.5655 -2.9354
 6884SOL     OW32284   3.863   4.408   7.620 -0.3218  0.2199 -0.5872
 6884SOL    HW132285   3.782   4.400   7.569  0.3677  0.8765 -1.7983
 6884SOL    HW232286   3.899   4.483   7.572  0.1586  0.2311 -0.2092
 6885SOL     OW32287   3.469   3.718   5.164  0.2065 -0.2056  0.5790
 6885SOL    HW132288   3.448   3.790   5.224  1.9675  1.1452 -0.4328
 6885SOL    HW232289   3.457   3.650   5.231  3.1310 -2.7349 -1.4523
 6886SOL     OW32290   3.741   1.057   2.234 -0.0504 -0.5017 -0.3029
 6886SOL    HW132291   3.824   1.068   2.279 -0.0879 -2.0526  0.1302
 6886SOL    HW232292   3.689   0.989   2.278  0.1261  0.2956  1.1307
 6887SOL     OW32293   1.046   2.574  11.178 -0.1143 -0.2795  0.2122
 6887SOL    HW132294   0.975   2.630  11.210 -0.9035 -1.0760 -0.1872
 6887SOL    HW232295   1.104   2.584  11.254 -0.0078 -2.0037  0.3570
 6888SOL     OW32296   2.244   2.008   3.543 -0.3389  0.1211 -0.8397
 6888SOL    HW132297   2.245   2.039   3.453  0.8954  3.2816  0.2782
 6888SOL    HW232298   2.336   2.018   3.568 -0.4934  1.0007 -0.6302
 6889SOL     OW32299   2.198   1.355   2.463 -0.3986 -0.1226  0.3316
 6889SOL    HW132300   2.216   1.266   2.493  0.2903 -0.1668 -0.2095
 6889SOL    HW232301   2.233   1.411   2.533  0.5612 -0.5687  0.2154
 6890SOL     OW32302   1.133   1.089   0.369  0.7019 -0.6174  0.3922
 6890SOL    HW132303   1.143   1.156   0.437  3.9961  0.3236 -0.9937
 6890SOL    HW232304   1.204   1.032   0.399  0.8532 -1.2419 -1.1391
 6891SOL     OW32305   0.831   0.929   6.524 -0.1342 -0.5500  0.4580
 6891SOL    HW132306   0.837   1.016   6.485  1.9361 -0.7193  0.4032
 6891SOL    HW232307   0.739   0.907   6.508 -1.0201  2.6890  1.1224
 6892SOL     OW32308   1.974   1.523   5.756  0.1152  0.5206  0.2728
 6892SOL    HW132309   1.940   1.462   5.822  1.0986 -2.8199 -2.2930
 6892SOL    HW232310   1.906   1.520   5.688  1.0609 -1.3748 -0.5974
 6893SOL     OW32311   0.653   0.490   9.502 -0.2649 -0.0603 -0.4036
 6893SOL    HW132312   0.693   0.571   9.534  1.3766 -0.3685 -1.6621
 6893SOL    HW232313   0.622   0.520   9.416  1.8871  2.9026 -0.1337
 6894SOL     OW32314   0.142   0.448   0.120  0.2806 -0.1453 -0.1517
 6894SOL    HW132315   0.108   0.360   0.138 -0.9150  0.7872  2.1202
 6894SOL    HW232316   0.085   0.503   0.174  1.9124  0.5665  0.8263
 6895SOL     OW32317   2.235   3.685  13.378  0.2946  0.2668 -0.0190
 6895SOL    HW132318   2.200   3.764  13.419 -0.2424 -0.1532  0.3130
 6895SOL    HW232319   2.183   3.610  13.406 -0.7384  0.8579 -0.3337
 6896SOL     OW32320   2.042   0.297   9.372 -0.5610  0.3852 -0.2267
 6896SOL    HW132321   2.012   0.218   9.327 -0.8694  0.8657 -0.8640
 6896SOL    HW232322   1.985   0.294   9.448 -0.1714 -0.8347  0.0280
 6897SOL     OW32323   3.727   1.172   7.630  0.0612 -0.1401  0.3499
 6897SOL    HW132324   3.687   1.129   7.554  2.0646  1.6328 -1.6811
 6897SOL    HW232325   3.798   1.111   7.651  1.2204  2.0180  2.6816
 6898SOL     OW32326   1.399   0.713   6.539  0.4318  0.6053 -0.4751
 6898SOL    HW132327   1.336   0.641   6.536 -0.8789  1.8056 -2.1009
 6898SOL    HW232328   1.418   0.730   6.447  1.4955  1.9407 -0.0141
 6899SOL     OW32329   2.122   1.972   9.284  0.2266  0.1274 -0.4567
 6899SOL    HW132330   2.175   1.973   9.204  1.6119  0.2438  0.4536
 6899SOL    HW232331   2.104   2.064   9.300 -0.5940  0.2285 -1.9537
 6900SOL     OW32332   3.559   1.862  15.036 -0.1723 -0.0149 -0.4452
 6900SOL    HW132333   3.499   1.891  14.967  0.1037  1.0157 -0.2569
 6900SOL    HW232334   3.574   1.776  14.997  3.3514  0.5077 -0.1995
 6901SOL     OW32335   1.160   3.028   8.662 -0.4853  0.1209 -0.4505
 6901SOL    HW132336   1.145   2.948   8.713  0.7734  2.1173  2.9803
 6901SOL    HW232337   1.249   3.044   8.693 -0.0144  1.2618 -2.4148
 6902SOL     OW32338   0.494   2.216  14.337 -0.2347 -0.1401  0.0136
 6902SOL    HW132339   0.466   2.277  14.268  0.2413  1.3283  1.1346
 6902SOL    HW232340   0.493   2.131  14.292 -0.8115  1.2923 -2.7105
 6903SOL     OW32341   1.276   0.652   4.577 -0.1248  0.3392  0.3557
 6903SOL    HW132342   1.349   0.602   4.540 -0.0290  0.4990  0.3251
 6903SOL    HW232343   1.220   0.671   4.503 -1.3048  2.2581  1.7400
 6904SOL     OW32344   2.677   2.250   2.084  0.4520  0.1720 -0.3722
 6904SOL    HW132345   2.722   2.199   2.017 -1.7477 -0.8860 -1.0324
 6904SOL    HW232346   2.602   2.282   2.034  0.3251 -0.4064 -0.5463
 6905SOL     OW32347   1.708   1.670  11.517 -0.2884  0.2074 -0.9568
 6905SOL    HW132348   1.632   1.637  11.469 -0.4641  0.7148 -1.0371
 6905SOL    HW232349   1.764   1.592  11.521 -2.0016 -0.9807 -0.3554
 6906SOL     OW32350   0.597   0.547   7.939 -0.1811  0.2123  0.0063
 6906SOL    HW132351   0.506   0.519   7.930  0.9622 -3.7378  0.6711
 6906SOL    HW232352   0.590   0.576   8.030 -0.3770  1.1591 -0.3086
 6907SOL     OW32353   2.180   4.353   7.029  0.3562 -0.1853 -0.2820
 6907SOL    HW132354   2.251   4.405   7.066  1.2632 -0.6997 -1.3051
 6907SOL    HW232355   2.201   4.261   7.049 -1.0591 -0.4306  0.1099
 6908SOL     OW32356   0.434   4.320   2.954  0.4762  0.3088 -0.1586
 6908SOL    HW132357   0.489   4.243   2.943 -1.5897 -1.3100  0.8036
 6908SOL    HW232358   0.353   4.283   2.918  0.7320 -0.6193  0.2222
 6909SOL     OW32359   4.421   3.704   7.544  0.2889 -0.7533 -0.1831
 6909SOL    HW132360   4.512   3.731   7.554 -0.1269 -0.0456  1.7370
 6909SOL    HW232361   4.400   3.767   7.475  0.2338 -1.0102 -0.4022
 6910SOL     OW32362   0.911   0.306   8.236 -0.0866 -0.6566 -0.8082
 6910SOL    HW132363   0.862   0.310   8.154  1.8772 -0.9303 -2.0004
 6910SOL    HW232364   0.915   0.401   8.246 -1.4057 -0.4584 -2.2957
 6911SOL     OW32365   2.327   1.101   2.069 -0.3253  0.7829  0.3041
 6911SOL    HW132366   2.273   1.168   2.027  0.7915  2.5329  1.6906
 6911SOL    HW232367   2.306   1.023   2.017  0.4090 -0.6982  2.2393
 6912SOL     OW32368   1.340   2.738   3.696  0.1374  0.2518  0.0365
 6912SOL    HW132369   1.335   2.720   3.790 -1.6960 -3.1555 -0.6965
 6912SOL    HW232370   1.258   2.787   3.690  0.2813  0.4463 -0.3402
 6913SOL     OW32371   2.249   2.182   6.057  0.0119 -0.2867 -0.3245
 6913SOL    HW132372   2.343   2.198   6.063 -0.1457  1.1493 -1.8473
 6913SOL    HW232373   2.224   2.142   6.140  0.1882  0.5991  0.1564
 6914SOL     OW32374   0.855   0.429  13.537 -0.1708  0.3978 -0.2494
 6914SOL    HW132375   0.882   0.392  13.453 -0.1145 -0.1568  0.0124
 6914SOL    HW232376   0.907   0.509  13.542 -1.2447  1.0939 -0.3912
 6915SOL     OW32377   2.008   1.717   2.261 -0.3220  0.1197  0.0336
 6915SOL    HW132378   2.027   1.810   2.267  1.6145 -0.1677 -1.4866
 6915SOL    HW232379   1.994   1.697   2.354  0.7579 -0.0945  0.1568
 6916SOL     OW32380   1.030   2.002   4.666 -1.1087 -0.0225 -0.2663
 6916SOL    HW132381   0.994   2.087   4.686 -1.2593 -0.1342 -0.0691
 6916SOL    HW232382   1.047   2.007   4.572  2.2478  2.6117  0.4601
 6917SOL     OW32383   2.146   1.091   7.594  0.4983  0.2765  0.3903
 6917SOL    HW132384   2.125   1.184   7.585 -0.4442  0.5273  5.1323
 6917SOL    HW232385   2.233   1.091   7.553 -0.7092 -0.8327 -2.1640
 6918SOL     OW32386   2.997   3.527   3.735 -0.1379 -0.3086 -0.0974
 6918SOL    HW132387   3.029   3.617   3.731 -1.6511  0.3039  1.2063
 6918SOL    HW232388   2.975   3.500   3.825  0.8173 -0.0558  0.2090
 6919SOL     OW32389   1.355   3.657   4.292  0.3658 -0.3039 -0.2275
 6919SOL    HW132390   1.323   3.585   4.238  2.2834 -0.4382 -1.1648
 6919SOL    HW232391   1.299   3.727   4.259 -0.2896 -1.1130 -0.8261
 6920SOL     OW32392   1.645   4.376  13.462 -0.3015  0.8866  0.4744
 6920SOL    HW132393   1.677   4.321  13.533 -1.0534 -0.6275 -0.3569
 6920SOL    HW232394   1.584   4.432  13.510  0.8617  1.4892  1.2418
 6921SOL     OW32395   1.294   4.067   6.548  0.4708  0.2669 -0.6841
 6921SOL    HW132396   1.252   4.153   6.557 -0.7253 -0.5055  1.0306
 6921SOL    HW232397   1.283   4.046   6.641  2.1437 -1.0468 -0.7939
 6922SOL     OW32398   0.847   4.312   8.053 -0.5335 -0.2492  0.2458
 6922SOL    HW132399   0.814   4.317   8.142  4.0301  1.6201  1.8298
 6922SOL    HW232400   0.843   4.405   8.028  0.5051 -0.0047  0.9954
 6923SOL     OW32401   2.511   2.960  12.878  0.4926 -0.3890  0.7876
 6923SOL    HW132402   2.581   3.013  12.917 -0.4219 -0.0023  1.8926
 6923SOL    HW232403   2.539   2.969  12.787 -2.0777  0.9772  0.1344
 6924SOL     OW32404   4.131   1.311  10.800 -0.0376  0.0473  0.4514
 6924SOL    HW132405   4.198   1.367  10.839  0.6623 -0.5048  0.0339
 6924SOL    HW232406   4.108   1.256  10.875  1.5960  1.4489  1.9540
 6925SOL     OW32407   4.039   0.146   3.565 -0.5723  0.0285 -0.2768
 6925SOL    HW132408   3.980   0.166   3.639 -0.4209 -1.5743  0.2675
 6925SOL    HW232409   4.052   0.054   3.587  1.0205  0.3775  0.2142
 6926SOL     OW32410   1.620   0.812   5.859  0.2786  0.3988 -0.4035
 6926SOL    HW132411   1.569   0.795   5.939  2.2280 -0.2452  0.6967
 6926SOL    HW232412   1.673   0.733   5.849 -1.0149 -0.4934 -0.2665
 6927SOL     OW32413   3.982   2.185   2.895  0.7068 -0.9690  0.7033
 6927SOL    HW132414   4.042   2.191   2.820 -0.3626  0.9202  0.0013
 6927SOL    HW232415   3.901   2.197   2.846  0.5134  0.0882  1.2963
 6928SOL     OW32416   1.453   1.371   3.226  0.3784 -0.7011 -0.2220
 6928SOL    HW132417   1.478   1.334   3.142  1.9736 -1.3407  0.5248
 6928SOL    HW232418   1.381   1.425   3.194  1.3554 -2.5224 -5.4310
 6929SOL     OW32419   2.433   2.741   4.612 -0.0684 -0.0796 -0.0080
 6929SOL    HW132420   2.420   2.670   4.548 -1.5334 -0.2191  0.4377
 6929SOL    HW232421   2.507   2.710   4.664  1.3065 -0.4784 -2.1776
 6930SOL     OW32422   3.460   1.103   4.153 -0.7600  0.2042 -0.1432
 6930SOL    HW132423   3.472   1.014   4.121 -1.0344  0.2996 -0.5155
 6930SOL    HW232424   3.488   1.088   4.244 -1.3407 -1.6318 -0.2662
 6931SOL     OW32425   0.661   2.918   2.130  0.3015  0.5961  0.4423
 6931SOL    HW132426   0.581   2.921   2.078  0.3004  2.2875  0.5262
 6931SOL    HW232427   0.675   3.008   2.160 -0.5165  1.1548 -0.8487
 6932SOL     OW32428   0.170   0.455  13.710  0.2395  0.1016 -0.2042
 6932SOL    HW132429   0.255   0.411  13.717 -0.1674 -0.6964 -0.2491
 6932SOL    HW232430   0.167   0.490  13.621 -1.7208  0.8884  0.1685
 6933SOL     OW32431   3.268   3.767   7.198  0.0637  0.2273 -0.0747
 6933SOL    HW132432   3.309   3.743   7.115 -0.6691  0.9141 -0.6339
 6933SOL    HW232433   3.177   3.738   7.191 -0.9632  3.8725 -1.7663
 6934SOL     OW32434   1.105   0.887   8.372  0.1868  0.1210 -0.3278
 6934SOL    HW132435   1.133   0.966   8.325 -0.6034  0.5957 -0.0046
 6934SOL    HW232436   1.076   0.843   8.292 -1.9595 -0.0528  0.5384
 6935SOL     OW32437   2.385   1.326   8.065  0.1168 -0.1556 -0.5298
 6935SOL    HW132438   2.332   1.260   8.022 -0.7616 -0.3712  0.8672
 6935SOL    HW232439   2.421   1.277   8.139 -0.4753  0.1999  0.0035
 6936SOL     OW32440   1.852   2.885  17.163 -0.3055  0.2449 -0.2000
 6936SOL    HW132441   1.897   2.934  17.232  1.4389 -0.2050 -1.0268
 6936SOL    HW232442   1.767   2.929  17.174  0.2426  1.3261 -0.2462
 6937SOL     OW32443   3.544   4.497   5.466  0.0874 -0.1000  0.2953
 6937SOL    HW132444   3.542   4.592   5.481 -0.6734  0.0758 -0.8604
 6937SOL    HW232445   3.583   4.491   5.378 -1.7151 -0.8454 -0.4554
 6938SOL     OW32446   2.850   4.062  10.661  0.7694 -0.6002  0.3680
 6938SOL    HW132447   2.899   4.137  10.629 -0.2445 -0.4884 -0.9266
 6938SOL    HW232448   2.844   4.092  10.752 -1.5717  1.1571 -0.3593
 6939SOL     OW32449   0.377   3.796  14.490 -0.2336  0.6289 -0.3362
 6939SOL    HW132450   0.409   3.876  14.448  1.9524 -1.6593 -2.9396
 6939SOL    HW232451   0.291   3.788  14.448 -1.5640  2.7852  1.8930
 6940SOL     OW32452   2.065   2.645   2.282  0.2690 -0.1249 -0.2534
 6940SOL    HW132453   1.970   2.658   2.282  0.2452 -0.3003 -0.8759
 6940SOL    HW232454   2.105   2.728   2.257  0.5669 -0.2457 -0.1769
 6941SOL     OW32455   1.629   3.129   9.953 -0.0882  0.1720 -0.1031
 6941SOL    HW132456   1.579   3.193   9.904  0.8356 -1.1469 -2.7490
 6941SOL    HW232457   1.563   3.084  10.006 -0.8795  1.4945  0.0243
 6942SOL     OW32458   3.904   1.291   2.896  0.2704  0.1673 -0.3663
 6942SOL    HW132459   3.920   1.348   2.971  0.8155  0.4394 -0.6838
 6942SOL    HW232460   3.810   1.304   2.892  0.4360  1.0303 -1.5521
 6943SOL     OW32461   3.687   1.109  16.123  0.7101  0.2958  0.0881
 6943SOL    HW132462   3.635   1.186  16.147  0.1616 -0.0060 -0.1285
 6943SOL    HW232463   3.741   1.101  16.202 -0.0427  0.4434  0.6164
 6944SOL     OW32464   4.510   1.286  11.704  0.3330 -0.0952  0.1023
 6944SOL    HW132465   4.536   1.225  11.773  2.6167  0.6191 -0.1204
 6944SOL    HW232466   4.496   1.233  11.625 -0.4243  0.8033 -0.3590
 6945SOL     OW32467   4.118   2.761   2.239  0.4861  0.0822 -0.0561
 6945SOL    HW132468   4.076   2.841   2.271  0.1502  0.2754 -0.9753
 6945SOL    HW232469   4.197   2.788   2.193 -0.2550 -0.7486 -1.8023
 6946SOL     OW32470   3.596   2.947   4.879 -0.2123  0.0976  0.0315
 6946SOL    HW132471   3.564   2.861   4.904 -0.0946 -0.1405 -0.6324
 6946SOL    HW232472   3.620   2.987   4.963 -0.1706  0.8455 -0.3314
 6947SOL     OW32473   0.561   4.118   0.136  0.0508  0.4758  0.2649
 6947SOL    HW132474   0.630   4.170   0.096  2.3151 -0.6324  2.8022
 6947SOL    HW232475   0.589   4.033   0.102  0.1497  0.1518  1.1572
 6948SOL     OW32476   4.348   0.242   8.559  0.0425  0.5117 -0.0432
 6948SOL    HW132477   4.301   0.159   8.550 -1.5542  1.5971 -1.7871
 6948SOL    HW232478   4.273   0.291   8.590  0.3478  0.8292  0.1917
 6949SOL     OW32479   3.262   4.684   4.528  0.0221  0.3120  0.1406
 6949SOL    HW132480   3.196   4.624   4.492  1.3796 -1.1112  0.0500
 6949SOL    HW232481   3.275   4.635   4.610 -0.8677 -1.2373 -0.6278
 6950SOL     OW32482   0.738   1.267   6.676 -0.1911 -0.2887  0.4671
 6950SOL    HW132483   0.659   1.314   6.648  0.4078 -0.2512 -1.1753
 6950SOL    HW232484   0.804   1.333   6.654 -1.0739  0.4074 -0.1067
 6951SOL     OW32485   2.700   0.515   9.136 -0.2930 -0.9800 -0.7530
 6951SOL    HW132486   2.763   0.577   9.173 -0.7319 -0.6637 -0.5382
 6951SOL    HW232487   2.624   0.541   9.188 -0.5859 -2.1769 -0.5777
 6952SOL     OW32488   4.069   3.264   2.714 -0.0743 -0.2397 -0.2781
 6952SOL    HW132489   4.023   3.188   2.749 -1.4377  0.9190  0.4367
 6952SOL    HW232490   4.076   3.314   2.795  0.2256 -1.1113  0.2378
 6953SOL     OW32491   2.756   4.264   8.321  0.3462 -0.2013 -0.2032
 6953SOL    HW132492   2.690   4.284   8.387  0.9674  0.5908  0.1773
 6953SOL    HW232493   2.839   4.273   8.366 -0.7775  0.4702  1.7393
 6954SOL     OW32494   3.960   1.357  11.116  0.1971  0.0087  0.0277
 6954SOL    HW132495   4.022   1.293  11.082  0.9789  2.2375 -2.7487
 6954SOL    HW232496   3.993   1.430  11.063 -1.7083 -1.4219 -3.1352
 6955SOL     OW32497   1.057   2.539   5.830 -0.0651  0.3571  0.4901
 6955SOL    HW132498   1.059   2.625   5.789  2.7178  0.8010  1.5635
 6955SOL    HW232499   1.142   2.502   5.806 -0.3845  0.2978 -0.5712
 6956SOL     OW32500   2.076   2.633   1.777 -0.0983 -0.5039 -0.4729
 6956SOL    HW132501   1.984   2.623   1.752  0.3257 -0.9930 -1.8657
 6956SOL    HW232502   2.078   2.574   1.852  0.1459  0.5289  0.3395
 6957SOL     OW32503   1.578   2.868   6.005 -0.5171 -0.0171 -0.7237
 6957SOL    HW132504   1.554   2.778   5.983 -1.2290 -0.5872  2.4162
 6957SOL    HW232505   1.537   2.905   5.927 -1.0521  3.8354  1.3399
 6958SOL     OW32506   2.406   1.809   1.512 -0.3765  0.1150  0.5936
 6958SOL    HW132507   2.458   1.761   1.448 -0.3895 -0.7476  1.2198
 6958SOL    HW232508   2.481   1.840   1.562 -0.5816  1.1614  0.2383
 6959SOL     OW32509   3.361   2.143   4.676 -0.1626 -0.1622  0.5828
 6959SOL    HW132510   3.396   2.098   4.753  1.0759  0.8139  0.5955
 6959SOL    HW232511   3.315   2.068   4.638  1.4479 -2.1219  2.5105
 6960SOL     OW32512   4.458   0.524  10.997 -0.4066 -0.1413  0.3050
 6960SOL    HW132513   4.389   0.590  11.003 -3.0776 -3.0115  1.1105
 6960SOL    HW232514   4.447   0.476  11.079  0.0054 -2.8703 -1.2598
 6961SOL     OW32515   3.577   3.551   8.419  0.1899 -0.2604 -0.5672
 6961SOL    HW132516   3.561   3.511   8.505 -0.0808  1.5543  0.2307
 6961SOL    HW232517   3.654   3.604   8.438  0.4653 -0.3104 -1.5555
 6962SOL     OW32518   2.868   0.151   4.975 -0.4057  0.0714 -0.1088
 6962SOL    HW132519   2.870   0.080   4.911 -1.9882 -2.0977  2.2255
 6962SOL    HW232520   2.830   0.106   5.051 -2.0233 -0.0195 -0.9753
 6963SOL     OW32521   1.168   4.259  12.142 -0.5514 -0.0798  0.3662
 6963SOL    HW132522   1.236   4.257  12.209  0.0507 -0.0175 -0.2369
 6963SOL    HW232523   1.132   4.347  12.145 -0.5238  0.0123 -1.7363
 6964SOL     OW32524   2.849   2.852   7.855 -0.7363 -0.8660  0.5804
 6964SOL    HW132525   2.863   2.839   7.761  3.1790 -0.6631  1.1133
 6964SOL    HW232526   2.926   2.901   7.884  1.0648 -1.3982 -3.2627
 6965SOL     OW32527   0.266   0.832  14.989  0.0767  0.2410 -0.4335
 6965SOL    HW132528   0.208   0.825  15.066 -1.4057 -2.5524 -1.8167
 6965SOL    HW232529   0.236   0.917  14.957 -2.1665 -0.5334 -0.3797
 6966SOL     OW32530   0.971   4.211   2.913 -0.2335 -0.0176 -0.0558
 6966SOL    HW132531   0.961   4.230   2.820 -0.5234 -0.1676 -0.0535
 6966SOL    HW232532   0.921   4.277   2.962  1.0451  1.3310 -0.5750
 6967SOL     OW32533   0.719   3.950   7.092 -0.0075  0.2969 -0.6217
 6967SOL    HW132534   0.759   4.023   7.140 -0.0080  0.4240 -0.8154
 6967SOL    HW232535   0.628   3.953   7.120  0.2855  0.4222  0.3154
 6968SOL     OW32536   1.055   2.259   8.576  0.1998  0.0703  0.0944
 6968SOL    HW132537   1.036   2.233   8.666 -1.2139 -1.0425 -0.5261
 6968SOL    HW232538   0.973   2.272   8.530 -1.0827 -1.1212  2.0525
 6969SOL     OW32539   4.460   4.097   5.193 -0.3965  0.0192  0.4950
 6969SOL    HW132540   4.512   4.121   5.270  0.2546 -0.5892  0.2468
 6969SOL    HW232541   4.509   4.028   5.149  0.8493 -0.2105  2.2461
 6970SOL     OW32542   0.527   1.536   1.981 -0.1502  0.3270 -0.0711
 6970SOL    HW132543   0.552   1.594   2.053  1.0119 -1.1345  0.6715
 6970SOL    HW232544   0.607   1.531   1.929 -0.4396  1.0943 -0.5937
 6971SOL     OW32545   4.133   4.344   5.091 -0.0624  0.0243 -0.1212
 6971SOL    HW132546   4.134   4.251   5.114  3.7071  0.1073  0.1686
 6971SOL    HW232547   4.087   4.372   5.170 -0.7143  0.1811 -0.5665
 6972SOL     OW32548   3.399   0.947   6.771  0.1540  0.3271 -0.1568
 6972SOL    HW132549   3.328   1.010   6.789  2.4589  2.1350  2.5427
 6972SOL    HW232550   3.449   0.981   6.697  0.4923  0.7972  0.2820
 6973SOL     OW32551   4.562   0.337   3.285  0.4676 -0.3308 -0.2574
 6973SOL    HW132552   4.555   0.256   3.235 -0.2259  0.3144 -1.1977
 6973SOL    HW232553   4.516   0.393   3.223 -0.3859  0.7501  1.3486
 6974SOL     OW32554   3.445   1.294   8.208 -0.0768 -0.4436  0.2903
 6974SOL    HW132555   3.353   1.303   8.180  0.0581 -0.8977 -0.2952
 6974SOL    HW232556   3.484   1.267   8.125  0.6709  2.2357 -0.2399
 6975SOL     OW32557   1.708   2.468   7.278  0.2509  0.2696  0.4128
 6975SOL    HW132558   1.643   2.494   7.213  1.5013  2.7386  0.1428
 6975SOL    HW232559   1.666   2.486   7.362 -0.3684  0.2069  0.1116
 6976SOL     OW32560   2.489   3.060   5.853 -0.1472  0.3917 -0.1435
 6976SOL    HW132561   2.575   3.031   5.884 -1.4061 -1.1771  1.9060
 6976SOL    HW232562   2.508   3.115   5.778  0.7471 -0.4779 -0.5573
 6977SOL     OW32563   3.676   0.674   4.578  0.5850 -0.4408  0.2903
 6977SOL    HW132564   3.583   0.667   4.556  0.1373  1.1435  1.7234
 6977SOL    HW232565   3.722   0.617   4.515  0.7255  0.1753 -0.1640
 6978SOL     OW32566   4.572   4.051   3.334 -0.3375  0.2361  0.0411
 6978SOL    HW132567   4.661   4.079   3.312  0.3052 -0.9356  1.1650
 6978SOL    HW232568   4.535   4.026   3.249 -2.0490  1.0009  0.5619
 6979SOL     OW32569   1.930   0.431   2.226  0.1944  0.7761  0.0133
 6979SOL    HW132570   1.959   0.434   2.318 -1.1024  2.8891  0.3494
 6979SOL    HW232571   1.967   0.349   2.194  0.1282  0.7121  0.0999
 6980SOL     OW32572   1.009   0.866   9.953  0.2826  0.5628 -0.2232
 6980SOL    HW132573   1.096   0.878   9.991  0.2957 -1.3817  0.3714
 6980SOL    HW232574   1.021   0.800   9.884  1.3258  1.7990 -1.2297
 6981SOL     OW32575   0.557   0.786   6.678  0.4969 -0.0440 -0.2466
 6981SOL    HW132576   0.632   0.727   6.672  0.3889 -0.0254 -1.7655
 6981SOL    HW232577   0.530   0.782   6.586  3.2190  1.4103 -1.0751
 6982SOL     OW32578   0.971   4.552   5.071 -0.2408  0.2295 -0.1898
 6982SOL    HW132579   0.973   4.523   4.980  0.5858 -1.3328  0.3221
 6982SOL    HW232580   0.877   4.566   5.062 -0.1814  0.6011 -0.2353
 6983SOL     OW32581   1.641   1.098   4.471  0.2527 -0.1099  0.2155
 6983SOL    HW132582   1.556   1.073   4.435 -1.3488  2.4948  2.1770
 6983SOL    HW232583   1.609   1.151   4.544  2.0464  0.3437  0.6768
 6984SOL     OW32584   1.603   0.311   9.139  0.3399  0.3686  0.2017
 6984SOL    HW132585   1.537   0.378   9.123 -0.1916 -0.0020  0.8018
 6984SOL    HW232586   1.558   0.228   9.120  1.8213 -0.2624 -0.5954
 6985SOL     OW32587   1.521   4.336   9.759 -0.0993  0.1615 -0.6966
 6985SOL    HW132588   1.532   4.275   9.686 -2.6183 -0.6560 -0.3923
 6985SOL    HW232589   1.430   4.322   9.782  0.4312 -0.3356  1.0881
 6986SOL     OW32590   4.385   0.614   6.294 -0.3724  0.0797 -0.0099
 6986SOL    HW132591   4.479   0.598   6.294 -0.3367  0.2900 -0.6583
 6986SOL    HW232592   4.378   0.682   6.361 -2.3071  0.8401 -0.9673
 6987SOL     OW32593   0.845   4.279   7.592 -0.4190 -0.1214 -0.0584
 6987SOL    HW132594   0.932   4.265   7.628 -0.8776  0.9883  1.4818
 6987SOL    HW232595   0.830   4.190   7.562  1.0561 -0.7683  1.1495
 6988SOL     OW32596   3.235   3.410   3.592  0.3765 -0.3060 -0.2278
 6988SOL    HW132597   3.177   3.471   3.638  0.4178 -1.8606  1.8903
 6988SOL    HW232598   3.316   3.444   3.631  0.3856 -0.1120 -0.4159
 6989SOL     OW32599   1.451   3.521   3.392 -0.2749  0.3841  0.0272
 6989SOL    HW132600   1.449   3.598   3.449  0.5292  1.1106 -0.9116
 6989SOL    HW232601   1.365   3.486   3.415 -0.6065  0.5407 -0.9586
 6990SOL     OW32602   2.220   0.953   6.896  0.3581 -0.1582 -0.6473
 6990SOL    HW132603   2.127   0.972   6.909  0.4613 -0.7217  0.8616
 6990SOL    HW232604   2.204   0.888   6.827  0.1876  0.2695 -1.0153
 6991SOL     OW32605   4.138   2.475   9.206  0.2671  0.6406  0.1472
 6991SOL    HW132606   4.133   2.418   9.282  1.4791 -0.5047 -0.6320
 6991SOL    HW232607   4.228   2.507   9.215  0.3760  0.1976  0.6030
 6992SOL     OW32608   0.804   4.253  10.192 -0.4305 -0.2361 -0.6939
 6992SOL    HW132609   0.760   4.202  10.260  0.3748 -0.2833 -0.2049
 6992SOL    HW232610   0.887   4.214  10.163 -0.7395 -1.9242  0.7157
 6993SOL     OW32611   2.535   2.173  16.783  0.3820 -0.2034  0.3430
 6993SOL    HW132612   2.446   2.209  16.781  0.1617 -0.7752 -0.4087
 6993SOL    HW232613   2.570   2.169  16.694 -2.1400  0.8329 -0.6855
 6994SOL     OW32614   4.056   2.875   7.434 -0.1872  0.1995  0.0070
 6994SOL    HW132615   4.081   2.805   7.495  1.3386  2.4691  1.9889
 6994SOL    HW232616   3.963   2.887   7.454 -0.0042  0.3407  0.7595
 6995SOL     OW32617   4.691   1.804   5.618 -0.2088  0.0009  0.1773
 6995SOL    HW132618   4.666   1.842   5.533  3.0543 -0.6946 -1.0930
 6995SOL    HW232619   0.039   1.769   5.605  0.0174  0.8239 -0.4965
 6996SOL     OW32620   4.679   3.609  12.511  0.7811  0.3846  0.1058
 6996SOL    HW132621   4.698   3.652  12.595 -0.9908 -0.0008  0.7213
 6996SOL    HW232622   4.608   3.554  12.543  1.1730 -1.3094 -1.9909
 6997SOL     OW32623   0.986   1.195  13.125 -0.5873  0.4147 -1.0210
 6997SOL    HW132624   0.919   1.214  13.060 -2.5266 -3.2265 -0.0903
 6997SOL    HW232625   1.008   1.105  13.102 -2.5043 -0.3932  0.3259
 6998SOL     OW32626   3.743   0.398   3.390  0.3665  0.0623 -0.0011
 6998SOL    HW132627   3.762   0.488   3.416  1.2911  0.2877 -1.4481
 6998SOL    HW232628   3.824   0.347   3.399  0.7217  0.5088 -0.6456
 6999SOL     OW32629   4.104   4.036   7.004 -0.0400 -0.2171  0.1682
 6999SOL    HW132630   4.107   3.962   7.064  0.8225 -0.0172  0.3708
 6999SOL    HW232631   4.053   3.988   6.938 -1.4144  3.3871 -1.3870
 7000SOL     OW32632   3.522   1.409   0.004 -0.5787  0.0354  0.2944
 7000SOL    HW132633   3.478   1.359   0.073  0.8174  0.1188  1.2334
 7000SOL    HW232634   3.496   1.372  17.676 -0.0382  0.7956 -0.2135
 7001SOL     OW32635   1.735   3.193   7.939 -0.5728  0.5416  0.4324
 7001SOL    HW132636   1.731   3.151   8.025  1.7971  1.1738  0.8489
 7001SOL    HW232637   1.813   3.243   7.962  0.6568 -0.7189 -1.0069
 7002SOL     OW32638   3.016   1.528   0.689 -0.2436  0.5901 -0.2536
 7002SOL    HW132639   3.091   1.521   0.747  0.7131  2.0554 -1.2949
 7002SOL    HW232640   3.057   1.492   0.611 -1.8459  0.9598 -1.2831
 7003SOL     OW32641   3.353   3.153   1.953 -0.3319 -0.3955 -0.1791
 7003SOL    HW132642   3.318   3.215   1.890 -1.2793 -1.1716 -0.4294
 7003SOL    HW232643   3.346   3.209   2.030  0.9721  0.0685 -0.4078
 7004SOL     OW32644   0.217   1.739  10.661 -0.7258  0.0928  0.2696
 7004SOL    HW132645   0.197   1.821  10.615 -0.9790 -1.7785 -2.9672
 7004SOL    HW232646   0.136   1.721  10.708 -0.8031  2.3762  1.0466
 7005SOL     OW32647   2.926   4.718   2.651 -0.1108  0.3623  0.2554
 7005SOL    HW132648   3.022   4.711   2.649 -0.1043  0.9151 -1.3400
 7005SOL    HW232649   2.899   4.681   2.735  1.1029 -0.2710  0.3764
 7006SOL     OW32650   0.444   3.314   4.051  0.2258  0.1854 -0.0132
 7006SOL    HW132651   0.356   3.276   4.048  0.3563 -0.1812  0.6453
 7006SOL    HW232652   0.431   3.395   4.002  1.4755 -0.4270 -1.3534
 7007SOL     OW32653   0.490   0.343   7.263 -0.7914  0.0277  0.0812
 7007SOL    HW132654   0.562   0.304   7.215 -0.9208 -0.9469  0.6612
 7007SOL    HW232655   0.422   0.276   7.252 -1.3563  0.4856  0.7437
 7008SOL     OW32656   1.146   4.248  11.841 -0.1808 -0.0956  0.2330
 7008SOL    HW132657   1.090   4.202  11.779 -1.3146  0.2287  1.0330
 7008SOL    HW232658   1.179   4.177  11.896  0.3632  1.9741  2.5472
 7009SOL     OW32659   0.532   1.366   3.136 -0.4492 -0.6205  0.3327
 7009SOL    HW132660   0.567   1.284   3.102  2.0712  0.5469  0.1434
 7009SOL    HW232661   0.507   1.327   3.220 -2.6099 -0.7074 -0.3555
 7010SOL     OW32662   2.165   3.644   2.273 -0.2227  0.4640  0.1610
 7010SOL    HW132663   2.223   3.639   2.197 -1.0932  2.2235 -0.6314
 7010SOL    HW232664   2.193   3.561   2.312  1.2707  1.7584  1.8166
 7011SOL     OW32665   0.833   2.078   9.360 -0.1821  0.2519  0.2761
 7011SOL    HW132666   0.911   2.024   9.373 -0.9579 -0.5661  1.6283
 7011SOL    HW232667   0.854   2.165   9.395 -0.2851  0.7144 -0.8252
 7012SOL     OW32668   3.806   3.766   1.866 -0.1311 -0.1865 -0.1859
 7012SOL    HW132669   3.756   3.835   1.909  0.2835 -0.5322  0.8507
 7012SOL    HW232670   3.899   3.789   1.872 -0.4622  0.5003  2.0429
 7013SOL     OW32671   0.357   0.236   2.321  0.6186  0.4702 -0.3594
 7013SOL    HW132672   0.428   0.171   2.321  0.1852  0.0007 -0.5412
 7013SOL    HW232673   0.369   0.276   2.407  1.3394  0.4934 -0.4719
 7014SOL     OW32674   0.115   0.084   6.365 -0.0315  0.2761  0.1946
 7014SOL    HW132675   0.081   0.150   6.305 -2.3803 -2.2387 -1.2728
 7014SOL    HW232676   0.201   0.065   6.327 -0.5452 -0.4354 -0.6210
 7015SOL     OW32677   4.168   0.659   5.866  0.7864  0.3338 -0.0278
 7015SOL    HW132678   4.109   0.717   5.913 -0.3166 -0.5101 -0.3644
 7015SOL    HW232679   4.142   0.579   5.911  1.4249  0.9055  1.3488
 7016SOL     OW32680   3.271   0.227   9.396 -0.2318 -0.1535 -0.0439
 7016SOL    HW132681   3.311   0.146   9.428  1.7062  1.3546  1.3541
 7016SOL    HW232682   3.286   0.233   9.302 -0.0808  0.4059  0.0144
 7017SOL     OW32683   0.181   4.553  17.421  0.0210  0.1016  0.5011
 7017SOL    HW132684   0.157   4.625  17.480 -0.7162  0.4522 -0.2099
 7017SOL    HW232685   0.229   4.503  17.487 -0.6885 -1.6173 -0.3006
 7018SOL     OW32686   3.636   3.033   7.780 -0.0717 -0.0170  0.0171
 7018SOL    HW132687   3.571   3.029   7.850  1.1066 -0.2898  1.0870
 7018SOL    HW232688   3.713   3.017   7.835 -0.0241 -1.9711 -0.6082
 7019SOL     OW32689   2.729   1.211  11.796 -0.6728  0.3026  0.0946
 7019SOL    HW132690   2.705   1.141  11.736 -0.2236  1.4523 -1.4398
 7019SOL    HW232691   2.819   1.230  11.769 -0.7844 -0.1980 -0.6265
 7020SOL     OW32692   3.091   1.043  13.600 -0.4008 -0.7298 -0.1056
 7020SOL    HW132693   3.161   0.997  13.554  0.2383  0.9774 -0.8428
 7020SOL    HW232694   3.122   1.025  13.689 -1.7506  1.1207  0.7413
 7021SOL     OW32695   3.729   1.086  13.260  0.6569  0.2941 -0.3911
 7021SOL    HW132696   3.713   1.098  13.166  3.7742  0.7873 -0.8830
 7021SOL    HW232697   3.792   1.014  13.261 -0.8473 -1.0067 -0.1068
 7022SOL     OW32698   0.253   0.238   4.629  0.5933  0.1303 -0.2275
 7022SOL    HW132699   0.316   0.310   4.628 -0.4512  1.0611  2.2302
 7022SOL    HW232700   0.256   0.207   4.539  0.3157 -0.2675 -0.0980
 7023SOL     OW32701   1.551   2.006   1.153  0.3575 -0.6595 -0.3622
 7023SOL    HW132702   1.583   2.003   1.063 -0.1987 -1.7083 -0.5304
 7023SOL    HW232703   1.538   1.912   1.167 -2.2803 -0.0662  1.2253
 7024SOL     OW32704   3.020   2.183   8.358 -0.0268 -0.1958  0.2558
 7024SOL    HW132705   2.942   2.216   8.400 -1.0130  1.2415 -2.7167
 7024SOL    HW232706   3.017   2.092   8.389  0.1125 -0.1119  0.5199
 7025SOL     OW32707   2.199   2.340   5.848 -0.3786  0.0035 -0.1316
 7025SOL    HW132708   2.192   2.296   5.933  0.2218 -1.1144 -0.6625
 7025SOL    HW232709   2.226   2.427   5.879 -0.1447  0.1459 -0.7410
 7026SOL     OW32710   0.244   0.079   8.537 -0.5350 -0.2589 -0.3640
 7026SOL    HW132711   0.227   0.104   8.447  0.0410  1.4730  0.0053
 7026SOL    HW232712   0.179   0.135   8.581  0.4621  0.2884  0.4162
 7027SOL     OW32713   2.191   1.629   4.876 -0.2681  0.0090  0.0078
 7027SOL    HW132714   2.274   1.581   4.871 -0.3022 -0.1654  1.1024
 7027SOL    HW232715   2.140   1.578   4.938  0.9626 -1.0128  0.1877
 7028SOL     OW32716   4.615   4.201   6.635  0.0434 -0.0710 -0.6099
 7028SOL    HW132717   4.616   4.141   6.710  2.1398 -1.5747 -1.8435
 7028SOL    HW232718   4.538   4.168   6.588  0.6805 -1.5013 -0.6492
 7029SOL     OW32719   2.994   2.512  12.447 -0.0360  0.7060 -0.3363
 7029SOL    HW132720   3.065   2.535  12.507  0.8817 -1.1295 -0.7110
 7029SOL    HW232721   3.043   2.492  12.367  1.1037 -0.5600  0.6747
 7030SOL     OW32722   3.329   0.528   4.805 -0.3512 -0.3439 -0.1472
 7030SOL    HW132723   3.362   0.588   4.872 -0.0923 -3.5057  2.4925
 7030SOL    HW232724   3.383   0.560   4.732 -1.0220  2.0729  0.4045
 7031SOL     OW32725   2.532   1.130   7.344 -0.2711 -0.0824 -0.3120
 7031SOL    HW132726   2.617   1.097   7.375 -0.6503 -0.2558  0.5511
 7031SOL    HW232727   2.518   1.074   7.268  2.2484 -2.1979  0.7732
 7032SOL     OW32728   4.228   0.982   3.912 -0.5275 -0.7462  0.1181
 7032SOL    HW132729   4.187   1.036   3.980  1.5566 -0.7084  1.3564
 7032SOL    HW232730   4.318   1.015   3.907  0.2014 -2.7252 -0.1022
 7033SOL     OW32731   1.791   2.722   1.753  0.1640 -0.1455  0.5633
 7033SOL    HW132732   1.758   2.714   1.664 -1.2497 -0.6301  1.1281
 7033SOL    HW232733   1.706   2.738   1.794 -0.1177  1.1024 -0.5183
 7034SOL     OW32734   3.415   1.395   9.749 -0.0504  0.6469 -0.5185
 7034SOL    HW132735   3.427   1.482   9.787 -1.4959  1.3662 -1.6706
 7034SOL    HW232736   3.466   1.345   9.811  0.0357  0.8971 -0.3879
 7035SOL     OW32737   3.346   3.519   7.855 -0.8552 -0.0779  0.1134
 7035SOL    HW132738   3.319   3.590   7.913  3.0998  1.0829  0.5454
 7035SOL    HW232739   3.440   3.535   7.864 -1.0116  1.3582 -0.9528
 7036SOL     OW32740   1.454   1.753   4.021  0.4167 -0.5156  0.1488
 7036SOL    HW132741   1.522   1.691   4.047  2.2836  1.0389 -1.0742
 7036SOL    HW232742   1.443   1.732   3.929  0.2323 -2.6882  0.6652
 7037SOL     OW32743   3.033   1.130   8.207  0.6991  0.6020 -0.1799
 7037SOL    HW132744   3.107   1.079   8.174 -0.0690  0.4093 -1.6012
 7037SOL    HW232745   2.993   1.158   8.125  0.0510  0.1845 -0.0010
 7038SOL     OW32746   1.746   3.363   3.429  0.4251 -0.2972  0.4679
 7038SOL    HW132747   1.684   3.399   3.365  1.3333  0.8865  0.2643
 7038SOL    HW232748   1.705   3.280   3.455  1.1669 -0.1665  2.0396
 7039SOL     OW32749   1.020   0.116   5.809  0.5763 -0.6525 -0.4080
 7039SOL    HW132750   1.071   0.035   5.807 -1.2751 -1.8921  1.2302
 7039SOL    HW232751   0.929   0.084   5.813 -0.1985  1.5092 -0.9655
 7040SOL     OW32752   2.289   0.580  13.123  0.3889 -0.0202 -0.4936
 7040SOL    HW132753   2.267   0.609  13.035  0.1066  0.8829 -0.1290
 7040SOL    HW232754   2.370   0.631  13.130 -1.3861  2.5609  1.2877
 7041SOL     OW32755   3.099   3.872  15.468  0.2205 -0.3040 -0.7430
 7041SOL    HW132756   3.040   3.918  15.527  0.4131  0.9792 -1.5638
 7041SOL    HW232757   3.042   3.829  15.404  2.1548 -1.5295 -1.6271
 7042SOL     OW32758   4.250   3.997   9.064 -0.2561  0.5205 -0.3860
 7042SOL    HW132759   4.326   3.938   9.063  0.3340  1.2264  1.5118
 7042SOL    HW232760   4.268   4.044   8.983  0.5443  0.0071 -0.5136
 7043SOL     OW32761   1.353   0.353   2.398  0.1056  0.0163 -0.2365
 7043SOL    HW132762   1.373   0.283   2.460  0.7026  0.6652  0.3149
 7043SOL    HW232763   1.433   0.370   2.348 -0.4899  1.6200 -0.6666
 7044SOL     OW32764   1.363   0.460  17.413 -0.0819  0.4324 -0.2064
 7044SOL    HW132765   1.272   0.444  17.387  0.3201  0.8088 -1.8298
 7044SOL    HW232766   1.366   0.519  17.489  1.1035  0.1974 -0.0754
 7045SOL     OW32767   3.049   2.443   9.929  0.5491  0.1019  0.2430
 7045SOL    HW132768   3.002   2.502   9.988 -0.6059  0.3389 -0.9353
 7045SOL    HW232769   3.098   2.502   9.872  1.0737 -0.4556  0.1221
 7046SOL     OW32770   2.019   0.248   5.771 -0.2696  0.0552  0.0639
 7046SOL    HW132771   2.101   0.294   5.788 -1.6233  2.4664 -0.0533
 7046SOL    HW232772   2.013   0.234   5.677  1.4122  1.2599 -0.2222
 7047SOL     OW32773   0.760   3.306  15.513  0.6749  0.6051  0.4388
 7047SOL    HW132774   0.675   3.322  15.471  1.4909 -0.2494 -1.5568
 7047SOL    HW232775   0.811   3.366  15.459  2.7723  0.1758  1.9658
 7048SOL     OW32776   2.487   1.918   5.295 -0.1034  0.6372  0.2328
 7048SOL    HW132777   2.511   1.902   5.387  0.1239  3.4142  0.6598
 7048SOL    HW232778   2.410   1.975   5.297  0.0914  0.9030  0.1966
 7049SOL     OW32779   0.190   2.077   2.696 -0.1558 -0.0134  0.5612
 7049SOL    HW132780   0.244   1.998   2.704  3.5622  2.2970 -1.8911
 7049SOL    HW232781   0.110   2.041   2.658  0.2862 -0.1662 -0.2234
 7050SOL     OW32782   3.601   3.436   2.179  0.0411 -0.7479  0.0809
 7050SOL    HW132783   3.649   3.382   2.116 -0.0149 -1.4652  0.6489
 7050SOL    HW232784   3.597   3.381   2.257 -0.5778 -0.0045  0.5690
 7051SOL     OW32785   1.149   4.161   1.703  0.7319 -0.2590 -0.7334
 7051SOL    HW132786   1.168   4.216   1.780 -2.2803  0.6885 -0.6732
 7051SOL    HW232787   1.093   4.093   1.739  2.8496 -1.1878  0.8204
 7052SOL     OW32788   3.677   4.049  12.323  0.1554  0.4057 -0.1098
 7052SOL    HW132789   3.655   4.130  12.368  1.8335  1.6263 -1.4745
 7052SOL    HW232790   3.694   3.984  12.391 -0.5244 -0.4068 -0.7033
 7053SOL     OW32791   2.807   3.787  10.260  0.3626  0.3964 -0.1258
 7053SOL    HW132792   2.878   3.724  10.270 -0.7453 -0.8682 -0.2749
 7053SOL    HW232793   2.728   3.733  10.252  0.6052  0.0507 -0.1507
 7054SOL     OW32794   2.787   1.993   7.085  0.3356 -0.3894 -0.1561
 7054SOL    HW132795   2.797   2.060   7.153  3.3007 -1.2404  0.2087
 7054SOL    HW232796   2.772   2.044   7.005 -1.5597 -1.3947 -0.4429
 7055SOL     OW32797   1.393   1.705   8.198  0.0331 -0.4478 -0.6220
 7055SOL    HW132798   1.366   1.761   8.271  2.3745 -0.4480  0.2390
 7055SOL    HW232799   1.424   1.768   8.132 -0.0304  1.5632  1.2553
 7056SOL     OW32800   2.268   1.139  11.852  0.2203 -0.3103 -0.2596
 7056SOL    HW132801   2.251   1.200  11.924 -0.9518 -0.8365 -0.0907
 7056SOL    HW232802   2.330   1.194  11.804  0.7518 -0.1491  0.6045
 7057SOL     OW32803   2.484   1.278  11.244  0.5572 -0.3223 -1.2990
 7057SOL    HW132804   2.465   1.236  11.328 -1.6126  0.8561 -1.2102
 7057SOL    HW232805   2.569   1.322  11.251 -1.4416  3.3170 -0.0469
 7058SOL     OW32806   2.240   0.936  12.966 -0.3514 -0.3767  0.4460
 7058SOL    HW132807   2.335   0.938  12.979 -0.4445 -1.3799  1.2170
 7058SOL    HW232808   2.214   0.845  12.973 -0.2748 -0.2721  2.0385
 7059SOL     OW32809   1.432   1.890   9.899 -0.5662  0.3542 -0.4521
 7059SOL    HW132810   1.367   1.883   9.829 -2.1916  2.3148  0.8718
 7059SOL    HW232811   1.511   1.922   9.855  0.5240 -0.5564  0.8406
 7060SOL     OW32812   3.129   2.602  17.481  0.0031  0.0692 -0.2187
 7060SOL    HW132813   3.109   2.548  17.558  3.9006  0.2746  0.9459
 7060SOL    HW232814   3.044   2.622  17.444  0.2192  0.4970 -0.4776
 7061SOL     OW32815   1.111   0.375   5.209  0.2030  0.0694  0.0042
 7061SOL    HW132816   1.046   0.440   5.237 -2.6276 -2.2784 -1.1614
 7061SOL    HW232817   1.053   0.302   5.229  0.8238 -2.1034 -6.4153
 7062SOL     OW32818   4.368   2.616   0.888 -0.5947  0.4348  0.0151
 7062SOL    HW132819   4.415   2.548   0.934 -0.5530 -0.5511 -1.4759
 7062SOL    HW232820   4.384   2.698   0.934  0.1451 -0.1836  0.8365
 7063SOL     OW32821   2.664   3.662   7.490  0.2938  0.5188 -0.3666
 7063SOL    HW132822   2.589   3.609   7.519  1.0829 -0.4094 -0.0442
 7063SOL    HW232823   2.633   3.693   7.405  0.0920  1.0002 -0.1166
 7064SOL     OW32824   0.784   4.193  17.692 -0.0647  0.1294 -0.3084
 7064SOL    HW132825   0.879   4.201  17.707 -0.0460 -0.0787 -0.3180
 7064SOL    HW232826   0.768   4.266  17.753 -2.6258  1.2901 -2.3897
 7065SOL     OW32827   1.225   2.976   2.563  0.1329 -0.2304  0.4326
 7065SOL    HW132828   1.301   3.033   2.576  0.8284 -1.2943  1.1026
 7065SOL    HW232829   1.176   3.008   2.638  0.6036  0.8933  0.2531
 7066SOL     OW32830   4.541   1.087   7.290  0.0908 -0.1677 -0.8601
 7066SOL    HW132831   4.581   1.114   7.208  1.9871  0.7267  0.3565
 7066SOL    HW232832   4.450   1.081   7.262 -0.4428  2.8707  0.3204
 7067SOL     OW32833   0.573   2.390   5.278  0.3308 -0.5066 -0.0636
 7067SOL    HW132834   0.596   2.410   5.369 -1.0197  0.2022  0.1297
 7067SOL    HW232835   0.488   2.347   5.280 -0.5449  1.2929  1.0672
 7068SOL     OW32836   2.590   1.119   4.238  0.2928  0.2180 -0.1152
 7068SOL    HW132837   2.679   1.130   4.204  0.2450 -1.7093 -0.8535
 7068SOL    HW232838   2.576   1.025   4.231  2.5315  0.0073 -1.7435
 7069SOL     OW32839   3.930   4.236   4.367  0.0569 -0.1096 -0.6943
 7069SOL    HW132840   3.949   4.151   4.409  0.8973  0.9948  1.1713
 7069SOL    HW232841   3.836   4.236   4.385  0.1034 -1.0168 -0.4245
 7070SOL     OW32842   4.473   1.152  14.931 -0.4135 -0.2519 -0.3057
 7070SOL    HW132843   4.429   1.210  14.992 -0.1003  0.2231 -0.5313
 7070SOL    HW232844   4.404   1.098  14.892  0.7944 -0.9811 -1.4635
 7071SOL     OW32845   4.091   3.372   2.967 -0.1617 -0.3065  0.5753
 7071SOL    HW132846   4.108   3.319   3.045 -1.1684 -1.9887 -0.3614
 7071SOL    HW232847   4.050   3.451   3.002  0.8166  0.1189  0.7624
 7072SOL     OW32848   4.553   0.333   4.148  0.3057 -0.0985  0.4508
 7072SOL    HW132849   4.608   0.310   4.223 -0.5167 -1.9104  0.5058
 7072SOL    HW232850   4.537   0.426   4.164 -2.7539 -0.3276 -1.3046
 7073SOL     OW32851   0.605   2.787  14.180 -0.1870  0.5412  0.0234
 7073SOL    HW132852   0.620   2.778  14.274 -1.8806  2.0261  0.4418
 7073SOL    HW232853   0.549   2.865  14.177 -2.8159 -1.3869 -1.2093
 7074SOL     OW32854   2.585   3.322   1.337  0.1059 -0.0772 -0.3703
 7074SOL    HW132855   2.507   3.300   1.388  0.0476 -0.0451 -0.4462
 7074SOL    HW232856   2.633   3.240   1.345 -0.2285 -0.1596  0.7467
 7075SOL     OW32857   1.337   4.119   4.545 -0.4578  0.6773  0.4424
 7075SOL    HW132858   1.389   4.063   4.487 -0.0701  3.2068 -1.6164
 7075SOL    HW232859   1.308   4.056   4.611  0.6230 -0.5911 -0.2909
 7076SOL     OW32860   4.732   0.636   5.906  0.1216  0.4726 -0.5051
 7076SOL    HW132861   4.702   0.586   5.830 -0.0001 -0.3006  0.0568
 7076SOL    HW232862   4.714   0.724   5.873  1.6566  1.5114  1.5056
 7077SOL     OW32863   4.547   0.911   8.145 -0.0819 -0.0682 -0.7532
 7077SOL    HW132864   4.524   0.857   8.221  2.2278 -0.1756 -0.1332
 7077SOL    HW232865   4.458   0.908   8.110 -1.2773  4.1882  1.9830
 7078SOL     OW32866   3.334   4.105   5.895 -0.5538  0.1923 -0.2575
 7078SOL    HW132867   3.306   4.151   5.816  1.3963 -0.1107 -1.1283
 7078SOL    HW232868   3.408   4.164   5.905 -1.4968  2.1777 -4.7287
 7079SOL     OW32869   2.281   3.784   8.328 -0.0722 -0.8092  0.4750
 7079SOL    HW132870   2.247   3.873   8.316  0.0242 -0.7459  0.6663
 7079SOL    HW232871   2.204   3.731   8.310 -0.5044 -0.0580  0.1043
 7080SOL     OW32872   0.219   2.453  12.409 -0.2059 -0.7775  0.1323
 7080SOL    HW132873   0.220   2.360  12.432  0.0244 -0.6135  0.7803
 7080SOL    HW232874   0.148   2.495  12.458  0.7846  0.5574  0.4395
 7081SOL     OW32875   2.564   4.130  16.136 -0.0129 -0.2798 -0.1445
 7081SOL    HW132876   2.488   4.161  16.185 -0.9169 -1.2892 -0.8891
 7081SOL    HW232877   2.595   4.071  16.205  3.9846  1.0806 -0.8309
 7082SOL     OW32878   4.007   4.631   1.659 -0.2770  0.5109 -0.2213
 7082SOL    HW132879   4.068   4.558   1.651  0.0432  0.3466  3.9675
 7082SOL    HW232880   3.999   4.646   1.565 -1.0268  1.4684 -0.0063
 7083SOL     OW32881   2.002   0.608   2.774  0.4421  0.3674 -0.1822
 7083SOL    HW132882   1.976   0.695   2.745  2.8151  2.3606  3.6524
 7083SOL    HW232883   1.982   0.613   2.868 -1.1589 -0.2398 -0.4936
 7084SOL     OW32884   0.399   4.738   8.797 -0.2998  0.2453  0.2330
 7084SOL    HW132885   0.356   0.069   8.846  0.4495 -0.6728  2.1890
 7084SOL    HW232886   0.337   4.665   8.793  0.1422 -0.0859 -0.5344
 7085SOL     OW32887   3.264   2.814   8.967 -0.0459 -0.3268 -0.3501
 7085SOL    HW132888   3.178   2.853   8.953 -0.4547 -0.8673  0.6284
 7085SOL    HW232889   3.266   2.761   8.887 -0.8127  0.4602 -0.8964
 7086SOL     OW32890   4.343   1.209  16.727  0.2384  0.5249 -0.1793
 7086SOL    HW132891   4.317   1.207  16.636 -0.7948 -0.8267  0.1546
 7086SOL    HW232892   4.281   1.145  16.761 -1.1810  3.1255  2.1561
 7087SOL     OW32893   1.960   3.945   2.562  0.0527  0.3272 -0.1553
 7087SOL    HW132894   2.035   3.928   2.619 -1.2104 -1.5858  0.9227
 7087SOL    HW232895   1.887   3.938   2.624 -0.6700  3.4907 -0.6444
 7088SOL     OW32896   0.907   3.055   7.979 -0.2510  0.1141  0.0293
 7088SOL    HW132897   0.936   2.979   7.928  0.1764  0.9305 -0.9427
 7088SOL    HW232898   0.987   3.105   7.996 -0.2091  0.1927 -0.4068
 7089SOL     OW32899   0.355   1.996   6.602 -0.6355  0.4482  0.4785
 7089SOL    HW132900   0.449   1.993   6.584 -1.1162 -0.5251 -1.7886
 7089SOL    HW232901   0.346   1.920   6.659  0.7127 -0.8583 -1.0505
 7090SOL     OW32902   4.103   0.734   1.549 -0.4143 -0.2466 -0.0274
 7090SOL    HW132903   4.180   0.726   1.606 -0.4710 -2.2459 -0.2264
 7090SOL    HW232904   4.080   0.641   1.558  1.4039 -0.6829  0.2028
 7091SOL     OW32905   1.535   1.933   3.179  0.1269 -0.2750 -0.5768
 7091SOL    HW132906   1.443   1.957   3.187 -0.3718 -2.2390 -0.5923
 7091SOL    HW232907   1.564   2.003   3.120 -0.5294  1.6900  1.4031
 7092SOL     OW32908   4.584   3.228   5.389  0.0013  0.2932 -0.2499
 7092SOL    HW132909   4.642   3.190   5.455 -0.4558 -0.1124 -0.0853
 7092SOL    HW232910   4.589   3.318   5.420  1.5936 -0.1952  0.9112
 7093SOL     OW32911   0.888   0.164   2.842 -0.1976 -0.3398 -0.1847
 7093SOL    HW132912   0.876   0.230   2.774  1.2726  1.6566  1.5100
 7093SOL    HW232913   0.827   0.196   2.908 -2.4494 -1.8059 -1.5753
 7094SOL     OW32914   1.478   3.584   7.321 -0.6602  0.1538 -0.5827
 7094SOL    HW132915   1.429   3.502   7.332 -0.6804 -0.1612 -2.9153
 7094SOL    HW232916   1.411   3.649   7.341 -0.0735  0.2987  0.8946
 7095SOL     OW32917   0.170   2.299  16.787 -0.2576 -0.6354 -0.6276
 7095SOL    HW132918   0.075   2.291  16.794 -0.3578  1.8821  0.9384
 7095SOL    HW232919   0.188   2.237  16.717 -1.9145 -1.7635 -0.0525
 7096SOL     OW32920   3.856   3.258   1.844 -0.4708 -0.0389  0.1122
 7096SOL    HW132921   3.847   3.163   1.847  0.7688 -0.2546 -2.8704
 7096SOL    HW232922   3.774   3.297   1.812 -1.4576 -2.1296  0.1207
 7097SOL     OW32923   3.971   3.383  14.503  0.0592 -0.4594 -0.6667
 7097SOL    HW132924   3.989   3.312  14.441 -1.1482  0.8629 -2.5237
 7097SOL    HW232925   4.054   3.432  14.498  0.1763 -0.6072 -0.1342
 7098SOL     OW32926   0.633   0.523   6.047 -0.1894  0.9323 -0.1076
 7098SOL    HW132927   0.596   0.515   6.135 -0.0219 -0.0456 -0.1288
 7098SOL    HW232928   0.718   0.563   6.066  0.6243 -0.2189 -1.3100
 7099SOL     OW32929   1.593   2.928  13.512 -0.0966 -0.0129 -0.5969
 7099SOL    HW132930   1.670   2.973  13.546  1.7608 -2.2788 -1.8118
 7099SOL    HW232931   1.620   2.894  13.427 -0.2098 -0.3833 -0.4890
 7100SOL     OW32932   2.553   0.859   4.205  0.1292  0.3648 -0.6624
 7100SOL    HW132933   2.589   0.788   4.258  0.2293 -1.0013 -2.5422
 7100SOL    HW232934   2.582   0.833   4.117  0.3936  3.3570 -1.4670
 7101SOL     OW32935   2.059   3.554   8.417  0.4473 -0.8742 -0.2134
 7101SOL    HW132936   2.002   3.477   8.423  0.7512 -0.9938  1.0260
 7101SOL    HW232937   2.142   3.519   8.448  1.2580  2.5591  1.4864
 7102SOL     OW32938   2.572   2.876   9.394  0.0391 -0.0092 -0.3953
 7102SOL    HW132939   2.609   2.945   9.338  0.6754  0.0109  0.0460
 7102SOL    HW232940   2.612   2.795   9.361  0.1001 -0.5894  1.0719
 7103SOL     OW32941   1.399   1.208  17.625  0.1450  0.7776 -0.2227
 7103SOL    HW132942   1.465   1.273  17.599 -0.3307  1.6150  0.6375
 7103SOL    HW232943   1.451   1.129  17.639 -1.3777  0.4017  3.3887
 7104SOL     OW32944   1.350   3.884   0.012 -0.1824 -0.2552  1.0498
 7104SOL    HW132945   1.351   3.851  17.678 -2.6547 -1.1051  1.3434
 7104SOL    HW232946   1.396   3.967   0.004  2.3033 -1.6940  0.3934
 7105SOL     OW32947   2.506   2.904   3.479 -0.0594  0.0935 -0.0504
 7105SOL    HW132948   2.583   2.949   3.443 -1.1609  3.2429  1.5168
 7105SOL    HW232949   2.454   2.982   3.499  0.8700  0.7935 -0.3303
 7106SOL     OW32950   2.416   0.695   3.694  0.1791  0.3080  0.3527
 7106SOL    HW132951   2.369   0.711   3.776 -0.6304  2.0702 -0.4538
 7106SOL    HW232952   2.437   0.787   3.679  0.8687  0.0380 -0.3236
 7107SOL     OW32953   3.670   4.273   5.612 -0.5749 -0.0340  0.1144
 7107SOL    HW132954   3.638   4.315   5.532 -0.8070  2.2571  1.4220
 7107SOL    HW232955   3.681   4.354   5.661 -0.1368  0.9176 -1.5313
 7108SOL     OW32956   3.823   2.083   0.090 -0.0959  0.3225  0.5036
 7108SOL    HW132957   3.732   2.113   0.087  0.2182  1.2039 -0.2860
 7108SOL    HW232958   3.852   2.100   0.179  0.3875  0.2442  0.3569
 7109SOL     OW32959   4.018   1.500   2.172  0.8164  0.5219  0.1581
 7109SOL    HW132960   3.927   1.517   2.149  0.3792  1.2966  2.4213
 7109SOL    HW232961   4.038   1.419   2.124  1.6454  0.3282  0.8199
 7110SOL     OW32962   0.786   4.265  11.998  0.7291 -0.8327 -0.1277
 7110SOL    HW132963   0.704   4.277  12.046  0.2427 -0.2301 -1.1063
 7110SOL    HW232964   0.751   4.271  11.910  1.7532 -1.4217 -0.5776
 7111SOL     OW32965   2.594   1.275   8.425  0.4061 -0.3889  0.2813
 7111SOL    HW132966   2.560   1.330   8.354  1.8293 -1.2962 -1.0726
 7111SOL    HW232967   2.679   1.242   8.399  1.0766  0.6697  1.1389
 7112SOL     OW32968   3.167   0.916   6.350 -0.5619  0.2525 -0.3410
 7112SOL    HW132969   3.241   0.947   6.402 -2.0076  0.2738  1.6992
 7112SOL    HW232970   3.154   0.827   6.384 -0.6766  0.3518 -0.1225
 7113SOL     OW32971   3.056   0.614   4.955  0.1928 -0.1942 -0.5327
 7113SOL    HW132972   3.020   0.542   5.008  2.8722 -1.6004 -0.6334
 7113SOL    HW232973   3.147   0.585   4.944  0.2505  0.8885 -2.9648
 7114SOL     OW32974   1.481   1.726   1.465  0.1792 -0.5711  0.7320
 7114SOL    HW132975   1.532   1.807   1.470 -1.5026  0.5884 -1.0482
 7114SOL    HW232976   1.495   1.709   1.371  1.2522  0.5044  0.7040
 7115SOL     OW32977   1.035   0.170   9.651 -0.0657 -0.1534 -0.1073
 7115SOL    HW132978   1.028   0.089   9.701 -2.0558 -1.0639 -1.8063
 7115SOL    HW232979   1.102   0.147   9.587  0.3367  0.5710  0.0609
 7116SOL     OW32980   3.092   0.855   5.974  0.2561  0.2998  0.0231
 7116SOL    HW132981   3.152   0.804   5.920 -0.1315  0.2632 -0.3692
 7116SOL    HW232982   3.131   0.941   5.987  0.8118  0.1417 -0.5910
 7117SOL     OW32983   3.597   4.017   8.206 -0.4505 -0.1647 -0.1956
 7117SOL    HW132984   3.527   4.082   8.217  1.1703  1.4841  0.3694
 7117SOL    HW232985   3.600   3.981   8.295  0.7295  0.0803 -0.1403
 7118SOL     OW32986   0.804   0.888   3.920  0.2535 -0.1857 -0.5512
 7118SOL    HW132987   0.835   0.936   3.997  1.6495 -1.5598 -0.2600
 7118SOL    HW232988   0.882   0.832   3.910 -1.0195 -2.0644  0.1167
 7119SOL     OW32989   2.117   2.942   9.493 -0.3096 -0.3315 -0.5268
 7119SOL    HW132990   2.105   2.923   9.586  1.9204  0.9730  0.0349
 7119SOL    HW232991   2.212   2.938   9.482 -0.3035 -1.6257  0.1074
 7120SOL     OW32992   0.613   3.982  12.263  0.0647 -0.3817  0.1736
 7120SOL    HW132993   0.561   3.996  12.184 -1.0695  2.2083  1.3772
 7120SOL    HW232994   0.597   4.064  12.309  0.7440 -0.8052  1.1873
 7121SOL     OW32995   0.646   0.311  10.306 -0.1152  0.3956  0.0292
 7121SOL    HW132996   0.739   0.290  10.292 -0.2913 -0.2996 -0.0949
 7121SOL    HW232997   0.645   0.295  10.400  0.5295  0.8141  0.1092
 7122SOL     OW32998   1.016   1.991   3.868  0.4169  0.1051  0.2699
 7122SOL    HW132999   0.953   1.999   3.796  1.0695 -1.4397 -0.4748
 7122SOL    HW233000   1.102   1.984   3.827  1.0683 -0.5929  1.7579
 7123SOL     OW33001   2.443   2.233   3.922  0.1378  1.0902  0.2134
 7123SOL    HW133002   2.363   2.281   3.940 -0.1003  0.6007  0.4670
 7123SOL    HW233003   2.497   2.254   3.998 -1.5987  0.2048  1.6706
 7124SOL     OW33004   3.725   0.482   6.972  0.1095 -0.0618  0.2050
 7124SOL    HW133005   3.681   0.490   7.056  1.4312  0.0888  0.8871
 7124SOL    HW233006   3.811   0.460   7.007 -0.0775 -0.6586  0.2765
 7125SOL     OW33007   4.318   3.943   2.581  0.3786 -0.4260  0.2275
 7125SOL    HW133008   4.272   3.964   2.500  0.1250  0.3635  0.5774
 7125SOL    HW233009   4.370   4.023   2.593 -1.8478  1.3446 -1.9135
 7126SOL     OW33010   1.087   0.610  13.504 -0.3638  0.5620  0.0159
 7126SOL    HW133011   1.113   0.700  13.527 -1.0077 -0.0867  3.3342
 7126SOL    HW233012   1.147   0.595  13.432  1.6293 -1.1364  2.0521
 7127SOL     OW33013   1.335   1.585   5.730 -0.1480  0.2489  0.1297
 7127SOL    HW133014   1.419   1.630   5.738  0.5410 -0.7092 -1.7349
 7127SOL    HW233015   1.355   1.504   5.777  0.3174 -0.0330 -0.5635
 7128SOL     OW33016   3.041   3.607  15.755 -0.6461  0.1465  1.1302
 7128SOL    HW133017   2.975   3.629  15.821 -1.0158 -0.8003  1.0819
 7128SOL    HW233018   3.094   3.539  15.797 -0.2533  0.4905  1.1972
 7129SOL     OW33019   3.960   1.150   7.336 -0.3657  0.6121  0.0230
 7129SOL    HW133020   4.016   1.192   7.271 -2.0798  0.0294 -1.8252
 7129SOL    HW233021   3.987   1.194   7.418  3.0442 -3.8768  1.2878
 7130SOL     OW33022   2.949   3.569   1.397 -0.1751 -0.1637 -0.5181
 7130SOL    HW133023   2.925   3.520   1.318 -0.9453 -0.6612  0.0165
 7130SOL    HW233024   3.023   3.522   1.436 -3.0949 -2.6869  2.0362
 7131SOL     OW33025   1.205   1.361   2.588  0.0547  0.0747  0.7664
 7131SOL    HW133026   1.117   1.384   2.620  1.1521  4.6541  0.4887
 7131SOL    HW233027   1.187   1.274   2.555 -1.9223  0.1861  1.5512
 7132SOL     OW33028   0.707   0.061   7.878  0.9270 -0.3017 -0.4270
 7132SOL    HW133029   0.676   0.112   7.952 -0.4214  0.2100 -1.3554
 7132SOL    HW233030   0.639   0.088   7.817  0.7549  0.9644  0.3384
 7133SOL     OW33031   3.033   1.650   1.776  0.2888 -0.2475  0.1404
 7133SOL    HW133032   3.021   1.561   1.743  0.5387  0.4144 -1.7423
 7133SOL    HW233033   3.126   1.669   1.770 -0.1392  1.5451 -0.6824
 7134SOL     OW33034   4.486   2.122   7.822  0.6686 -0.2230  0.5360
 7134SOL    HW133035   4.510   2.104   7.731  0.4132  1.2110  0.1895
 7134SOL    HW233036   4.542   2.054   7.860  1.2836  0.1486  0.2887
 7135SOL     OW33037   2.909   3.915   2.231 -0.3125  0.3090 -0.1409
 7135SOL    HW133038   2.959   3.834   2.242 -0.5540  0.1901  0.0682
 7135SOL    HW233039   2.873   3.890   2.147  1.6125 -3.5547  0.1696
 7136SOL     OW33040   3.769   0.683   0.505 -0.8822  0.1978  0.1849
 7136SOL    HW133041   3.862   0.703   0.495 -0.7072  0.9687  3.2479
 7136SOL    HW233042   3.776   0.596   0.545 -1.8739 -0.0690 -0.2149
 7137SOL     OW33043   0.652   2.140   5.777 -0.6950 -0.3870 -0.0766
 7137SOL    HW133044   0.611   2.112   5.695 -0.0579  0.3502 -0.6546
 7137SOL    HW233045   0.571   2.169   5.819 -0.6088  1.1193 -0.9492
 7138SOL     OW33046   4.216   2.444   8.327  0.5449 -0.4525  0.2506
 7138SOL    HW133047   4.183   2.396   8.403 -1.8431 -0.0229 -0.5072
 7138SOL    HW233048   4.198   2.372   8.267 -1.6621  0.2873  0.0112
 7139SOL     OW33049   0.584   3.727   8.501 -0.5068  0.3947 -0.8119
 7139SOL    HW133050   0.671   3.764   8.483  0.1178 -0.2530  0.8323
 7139SOL    HW233051   0.590   3.748   8.594 -0.4488 -0.2127 -0.6791
 7140SOL     OW33052   4.127   2.010   8.374  0.2073  0.2294 -0.7004
 7140SOL    HW133053   4.064   2.012   8.447 -1.1271  1.9473 -1.8730
 7140SOL    HW233054   4.094   1.930   8.334  1.8521 -0.0414 -1.4758
 7141SOL     OW33055   1.502   3.460  12.509 -0.1337 -0.5573 -0.2816
 7141SOL    HW133056   1.517   3.483  12.600  2.1763 -1.0783 -0.5471
 7141SOL    HW233057   1.425   3.404  12.520 -0.4867 -0.3973 -1.9735
 7142SOL     OW33058   1.750   2.488   3.094  0.1116  0.1752 -0.2207
 7142SOL    HW133059   1.660   2.493   3.061 -0.6860  0.7211  2.0589
 7142SOL    HW233060   1.784   2.577   3.078  2.1967 -0.6773 -0.5394
 7143SOL     OW33061   1.304   1.083   7.732  0.4768 -0.3534  0.9162
 7143SOL    HW133062   1.240   1.026   7.688 -0.4780 -0.4411  2.4343
 7143SOL    HW233063   1.342   1.141   7.665  0.0265  0.1468  1.0905
 7144SOL     OW33064   1.948   3.446   5.810  0.2577 -0.1592  0.3805
 7144SOL    HW133065   1.857   3.458   5.835 -0.7374  0.0209 -3.4008
 7144SOL    HW233066   1.984   3.521   5.858  0.8890  1.0378 -1.9898
 7145SOL     OW33067   1.981   3.063   5.020  0.6191 -0.1308 -0.1949
 7145SOL    HW133068   1.992   3.096   5.109  1.4025  0.0058 -0.3404
 7145SOL    HW233069   2.069   3.031   5.000  1.0138  0.9310 -0.1544
 7146SOL     OW33070   3.201   4.656  13.923  0.1727 -0.0150  0.6797
 7146SOL    HW133071   3.293   4.677  13.940 -0.2206  1.9270  0.4812
 7146SOL    HW233072   3.156   4.678  14.005 -1.2977  0.6152 -0.2938
 7147SOL     OW33073   3.450   1.427   3.875  0.1332 -0.0374  0.1903
 7147SOL    HW133074   3.518   1.478   3.832 -2.0750  3.6272  1.0749
 7147SOL    HW233075   3.463   1.444   3.969 -0.6580  0.3676  0.2277
 7148SOL     OW33076   2.793   1.830   8.247 -0.0300 -0.0386  0.2918
 7148SOL    HW133077   2.701   1.827   8.272 -0.8578 -1.0071 -2.7723
 7148SOL    HW233078   2.836   1.869   8.323  0.5150  0.9144 -0.5037
 7149SOL     OW33079   1.601   1.888   6.515 -0.3633 -0.5604  0.0473
 7149SOL    HW133080   1.506   1.890   6.507 -0.3183 -1.8258 -0.8308
 7149SOL    HW233081   1.611   1.892   6.610 -0.7516  2.5581 -0.0258
 7150SOL     OW33082   2.780   4.053   6.791 -0.0725 -0.5700  0.3651
 7150SOL    HW133083   2.791   4.066   6.697  0.7207 -6.1815 -0.3420
 7150SOL    HW233084   2.727   4.121   6.833  2.5591  2.0976 -0.6178
 7151SOL     OW33085   2.574   3.686   3.948 -0.0717  0.2072  0.3701
 7151SOL    HW133086   2.580   3.592   3.933 -0.6488 -0.0705  1.8472
 7151SOL    HW233087   2.564   3.690   4.044  0.6096  0.3829  0.4338
 7152SOL     OW33088   1.842   4.497   0.845  0.5601 -0.4307  0.1638
 7152SOL    HW133089   1.932   4.528   0.832 -0.4445  1.7814 -1.5455
 7152SOL    HW233090   1.859   4.404   0.859  0.5912 -0.6513 -1.2645
 7153SOL     OW33091   1.392   3.684  14.106 -0.4691  0.1375  0.0377
 7153SOL    HW133092   1.424   3.614  14.163 -2.7152 -1.2364 -0.4000
 7153SOL    HW233093   1.310   3.647  14.075  0.4327 -2.3210  0.5803
 7154SOL     OW33094   2.848   2.188   7.287  0.0400 -0.4081  0.0361
 7154SOL    HW133095   2.845   2.247   7.212  0.0988 -0.6477 -0.1537
 7154SOL    HW233096   2.942   2.193   7.306 -0.1862 -0.8800  1.2575
 7155SOL     OW33097   0.304   2.160   2.445 -0.7000  0.2031  0.2486
 7155SOL    HW133098   0.273   2.126   2.361  2.4554 -0.4092 -0.6838
 7155SOL    HW233099   0.277   2.088   2.503 -0.7013 -1.6222 -2.0417
 7156SOL     OW33100   3.370   3.760   6.206 -0.5504  0.1007 -0.1671
 7156SOL    HW133101   3.425   3.747   6.283 -1.9560  1.7168  1.0822
 7156SOL    HW233102   3.364   3.855   6.207  0.3161  0.1613 -0.5017
 7157SOL     OW33103   3.336   1.814   2.433 -0.2894  0.4056  0.1690
 7157SOL    HW133104   3.254   1.829   2.388 -0.5836 -0.6917  0.3320
 7157SOL    HW233105   3.365   1.744   2.374 -0.0940  0.6393 -0.0120
 7158SOL     OW33106   1.337   0.848  17.050 -0.1792  0.6543  0.1369
 7158SOL    HW133107   1.359   0.797  17.129  1.9603  0.0721 -0.8113
 7158SOL    HW233108   1.251   0.884  17.069 -1.5962 -1.9911 -1.3295
 7159SOL     OW33109   2.704   0.706   2.723 -0.3220 -0.0800  0.3844
 7159SOL    HW133110   2.639   0.638   2.739  0.8881 -1.0010  1.4192
 7159SOL    HW233111   2.772   0.698   2.790 -0.2863 -1.2410  0.2030
 7160SOL     OW33112   2.961   3.093   7.409 -0.0125 -0.2196 -0.1133
 7160SOL    HW133113   2.877   3.096   7.363  1.0387 -0.2784 -2.0587
 7160SOL    HW233114   2.942   3.133   7.494 -1.5986 -0.1610 -0.4957
 7161SOL     OW33115   1.708   2.444   7.689  0.4983  0.3713 -0.4748
 7161SOL    HW133116   1.719   2.349   7.678 -0.2608  0.2802 -0.4295
 7161SOL    HW233117   1.669   2.443   7.776 -1.2259  0.0195 -1.2612
 7162SOL     OW33118   2.516   2.852  11.932  0.2445  0.1844  0.0381
 7162SOL    HW133119   2.463   2.783  11.971 -0.2391 -0.4636 -1.7867
 7162SOL    HW233120   2.522   2.922  11.997  1.1968 -0.8782  1.0927
 7163SOL     OW33121   1.507   2.980   5.746 -0.4062  0.6957 -0.0241
 7163SOL    HW133122   1.493   3.066   5.785 -1.1636  0.1980  0.8155
 7163SOL    HW233123   1.580   2.995   5.685 -0.6354  1.7470 -0.0297
 7164SOL     OW33124   4.168   0.697   5.594  0.2643  0.0295 -0.5884
 7164SOL    HW133125   4.242   0.642   5.568  0.8129 -0.4165  1.9059
 7164SOL    HW233126   4.162   0.677   5.687 -0.9558  2.3958 -0.1533
 7165SOL     OW33127   3.701   4.681   3.515  0.2698  0.2370  0.1802
 7165SOL    HW133128   3.759   4.699   3.442 -0.1640 -0.8016 -0.4163
 7165SOL    HW233129   3.631   0.003   3.493  1.3923  2.0487  1.7105
 7166SOL     OW33130   2.118   2.152   8.232  0.0457  0.1616 -0.4922
 7166SOL    HW133131   2.169   2.088   8.182  2.3554  2.3336 -0.8752
 7166SOL    HW233132   2.119   2.230   8.177 -2.5619 -1.4180 -2.7763
 7167SOL     OW33133   3.955   0.097   5.559 -0.7084 -0.4275  0.0412
 7167SOL    HW133134   3.982   0.168   5.502  0.0973 -1.2563 -0.6054
 7167SOL    HW233135   4.035   0.044   5.566 -0.9821 -1.0147 -1.2055
 7168SOL     OW33136   1.785   2.612   6.237  0.1477  0.2913  0.4879
 7168SOL    HW133137   1.878   2.609   6.215  0.0149 -0.1146 -0.0058
 7168SOL    HW233138   1.776   2.517   6.243  1.8831  0.0881  0.0265
 7169SOL     OW33139   4.351   1.299   6.192 -0.0268 -0.2636  0.5789
 7169SOL    HW133140   4.443   1.323   6.180 -0.1949 -0.3234 -0.8398
 7169SOL    HW233141   4.288   1.357   6.150  1.3529  0.3539 -0.6492
 7170SOL     OW33142   0.920   2.377   6.553  0.7849  0.2603 -0.1059
 7170SOL    HW133143   0.853   2.444   6.563  0.1599 -0.1946 -1.3326
 7170SOL    HW233144   0.866   2.298   6.553  0.0799  0.7475 -1.4292
 7171SOL     OW33145   4.372   1.675   1.098 -0.6592  0.7341  0.3465
 7171SOL    HW133146   4.417   1.592   1.083  0.7923  1.5839 -0.0371
 7171SOL    HW233147   4.405   1.723   1.022  0.2663  0.3525  0.5021
 7172SOL     OW33148   1.206   2.146   6.555 -0.3985 -0.2369  0.3094
 7172SOL    HW133149   1.204   2.186   6.642  3.2809  1.5100 -0.3896
 7172SOL    HW233150   1.200   2.233   6.514 -1.1026 -0.3038  0.2731
 7173SOL     OW33151   2.337   0.630  14.678  0.5894 -0.0812  0.2863
 7173SOL    HW133152   2.377   0.568  14.617  0.6975 -0.3276  0.6091
 7173SOL    HW233153   2.248   0.635  14.643 -0.1467  1.4338  2.4327
 7174SOL     OW33154   3.977   1.825   9.743  0.0042 -0.0606  0.2668
 7174SOL    HW133155   3.998   1.886   9.814 -1.2840  0.1913  0.4321
 7174SOL    HW233156   3.925   1.764   9.794  0.4643 -1.2064 -0.6357
 7175SOL     OW33157   4.723   3.478   8.723 -0.3578  0.0208  0.0625
 7175SOL    HW133158   0.063   3.509   8.678 -0.5438 -1.6012 -1.4027
 7175SOL    HW233159   4.653   3.496   8.660  0.3246 -0.6447 -0.8881
 7176SOL     OW33160   3.709   1.231   1.990  0.6039  0.0770  0.9649
 7176SOL    HW133161   3.616   1.211   1.989  1.1004 -2.1559 -0.0629
 7176SOL    HW233162   3.736   1.178   2.065  1.0912 -0.1467  0.6357
 7177SOL     OW33163   2.971   0.136   1.255  0.2859 -0.3108 -0.1974
 7177SOL    HW133164   2.932   0.215   1.218 -0.1376 -0.0603  0.7909
 7177SOL    HW233165   3.000   0.165   1.342 -2.4773 -0.9011  0.9076
 7178SOL     OW33166   1.904   0.621   1.492  0.2566 -0.2264 -0.4250
 7178SOL    HW133167   1.977   0.584   1.442 -0.6564 -4.0143  1.0415
 7178SOL    HW233168   1.871   0.677   1.422  0.6308 -0.5853 -0.8864
 7179SOL     OW33169   3.851   0.519   4.404  0.0203 -0.4225 -0.2481
 7179SOL    HW133170   3.826   0.563   4.323 -2.4218  0.1877  0.8340
 7179SOL    HW233171   3.818   0.432   4.381 -0.8619  0.1342 -1.1072
 7180SOL     OW33172   0.517   4.528   8.076  0.0122  0.0055  0.1220
 7180SOL    HW133173   0.478   4.441   8.089 -1.1805  0.6737  1.0303
 7180SOL    HW233174   0.478   4.560   7.995  1.0847 -0.5104 -0.6063
 7181SOL     OW33175   0.113   2.599   6.849 -0.2027  0.0515 -0.0767
 7181SOL    HW133176   0.202   2.633   6.848  0.3661 -1.4207  1.7005
 7181SOL    HW233177   0.097   2.592   6.754  1.4734  2.1354 -0.5078
 7182SOL     OW33178   1.543   1.844   5.085  0.2740  0.4540 -0.1543
 7182SOL    HW133179   1.559   1.831   5.178 -0.7987 -0.3716 -0.0878
 7182SOL    HW233180   1.560   1.937   5.072  2.4816  0.1563  0.4909
 7183SOL     OW33181   3.284   3.088  16.502  0.2405 -0.2475 -0.1564
 7183SOL    HW133182   3.253   3.174  16.474  0.2853 -0.2045 -0.0747
 7183SOL    HW233183   3.369   3.094  16.460 -0.4992  1.2564 -1.4452
 7184SOL     OW33184   2.326   3.044   2.190 -0.1537 -0.1893  0.3570
 7184SOL    HW133185   2.351   3.136   2.198  1.4746 -0.4941 -1.2467
 7184SOL    HW233186   2.293   3.026   2.278 -0.1807 -1.6744  0.0407
 7185SOL     OW33187   1.104   0.505   1.029 -0.0910 -0.0378 -0.9982
 7185SOL    HW133188   1.049   0.429   1.047  1.4742 -0.7306  0.8419
 7185SOL    HW233189   1.158   0.517   1.107  0.4995  1.9866 -1.7273
 7186SOL     OW33190   3.916   2.934  16.051 -0.1927 -0.3596 -0.1596
 7186SOL    HW133191   3.899   2.873  15.979 -1.6506  0.1080 -0.2008
 7186SOL    HW233192   3.890   2.884  16.128  0.3619  3.9145  2.7589
 7187SOL     OW33193   3.916   3.252   4.330  0.0973 -0.2260  0.0460
 7187SOL    HW133194   3.839   3.194   4.328 -1.8969  2.4693 -1.5353
 7187SOL    HW233195   3.942   3.254   4.238  1.2578  1.7319  0.4112
 7188SOL     OW33196   1.255   2.554   9.340  0.3613  0.1044  0.0852
 7188SOL    HW133197   1.183   2.618   9.337  1.9786  1.8985 -0.2911
 7188SOL    HW233198   1.323   2.604   9.296  0.1782  0.5771  0.3307
 7189SOL     OW33199   3.055   0.268   6.006 -0.5370 -0.2365  0.1874
 7189SOL    HW133200   3.042   0.215   6.085 -1.1141  0.3630  0.4933
 7189SOL    HW233201   3.027   0.353   6.040 -1.8558 -0.7964  0.4737
 7190SOL     OW33202   4.215   1.491   4.875 -0.0886  0.5468  0.1698
 7190SOL    HW133203   4.268   1.428   4.924 -1.2348 -2.1126 -1.9905
 7190SOL    HW233204   4.185   1.555   4.940  1.2598  0.9706  0.3696
 7191SOL     OW33205   1.007   1.978   8.792  0.7649  0.0822 -0.0215
 7191SOL    HW133206   0.985   1.985   8.884 -1.9298 -0.1634 -0.6451
 7191SOL    HW233207   1.101   1.957   8.792  1.0409  1.2515 -1.3142
 7192SOL     OW33208   4.601   2.839  15.579 -0.3873 -0.1372 -0.2276
 7192SOL    HW133209   4.642   2.778  15.517 -1.0609 -1.0304  0.2111
 7192SOL    HW233210   4.656   2.917  15.568  0.3187 -0.6687 -0.4866
 7193SOL     OW33211   3.192   4.727   5.040  0.0338  0.4083  0.1764
 7193SOL    HW133212   3.211   0.049   4.969 -0.2151 -0.2856 -0.5007
 7193SOL    HW233213   3.203   0.042   5.117  0.0574 -1.2646  1.3483
 7194SOL     OW33214   2.085   1.280  12.549 -0.0540  0.1522 -0.0884
 7194SOL    HW133215   1.993   1.256  12.540 -0.2726  1.7665 -2.2559
 7194SOL    HW233216   2.112   1.206  12.603  2.9476  0.7992 -0.6761
 7195SOL     OW33217   3.838   1.812   3.256 -0.1761  0.3855  0.0158
 7195SOL    HW133218   3.891   1.877   3.302 -0.5779  0.1415  0.8253
 7195SOL    HW233219   3.750   1.849   3.266 -0.6765 -0.4935 -1.0819
 7196SOL     OW33220   2.132   2.535   8.899 -0.6347 -0.3837 -0.4118
 7196SOL    HW133221   2.126   2.450   8.942  0.7084 -0.9547 -1.3743
 7196SOL    HW233222   2.164   2.502   8.816  0.1388  1.9240 -1.0399
 7197SOL     OW33223   1.428   0.761  11.552 -0.3244 -0.1705 -0.2111
 7197SOL    HW133224   1.353   0.763  11.492  1.3191  2.0922 -2.1796
 7197SOL    HW233225   1.435   0.672  11.587  1.2652  0.3649  0.7996
 7198SOL     OW33226   4.390   1.917   4.780 -0.5236 -0.0938  0.0299
 7198SOL    HW133227   4.417   1.972   4.853  1.5225  1.0777 -1.5876
 7198SOL    HW233228   4.456   1.849   4.797  1.7879  2.3339  0.8216
 7199SOL     OW33229   1.591   0.022   2.877 -0.0428 -0.0151  0.1787
 7199SOL    HW133230   1.597   0.089   2.946  1.2863 -1.0082  1.0314
 7199SOL    HW233231   1.658   4.698   2.903 -0.7287 -0.5021  0.7725
 7200SOL     OW33232   1.868   0.250   6.593  0.2997 -0.1748  0.0440
 7200SOL    HW133233   1.819   0.202   6.661 -0.0911 -0.1832 -0.2465
 7200SOL    HW233234   1.858   0.187   6.522  0.6888  1.4421 -1.4451
 7201SOL     OW33235   3.975   2.039   6.649 -0.1327 -0.4847  0.3414
 7201SOL    HW133236   3.895   2.005   6.609 -1.7445  1.1893  2.0778
 7201SOL    HW233237   3.975   2.003   6.738 -0.4632  0.3331  0.6714
 7202SOL     OW33238   3.855   1.603   5.616 -0.4537  0.0117  0.3129
 7202SOL    HW133239   3.788   1.650   5.665 -1.5091 -2.8520  1.6724
 7202SOL    HW233240   3.830   1.510   5.617  1.9804 -0.6766 -2.0795
 7203SOL     OW33241   3.262   1.078   7.121 -0.9886  0.0597 -0.4811
 7203SOL    HW133242   3.215   1.010   7.072 -1.8268 -0.2426  0.7273
 7203SOL    HW233243   3.353   1.064   7.096 -0.7501  2.2742 -0.8806
 7204SOL     OW33244   4.517   4.306   5.907 -0.2520 -0.2133 -0.2820
 7204SOL    HW133245   4.449   4.331   5.845 -1.2135 -0.4436  0.6843
 7204SOL    HW233246   4.479   4.337   5.989  1.4257  0.4247  0.2588
 7205SOL     OW33247   0.710   2.979  12.921 -0.7344  0.1812 -0.0578
 7205SOL    HW133248   0.768   2.917  12.967 -0.3989 -0.0184 -0.7606
 7205SOL    HW233249   0.627   2.933  12.935 -0.7686  0.8595  1.9282
 7206SOL     OW33250   4.435   4.718  12.404  0.2301 -0.3582  0.6557
 7206SOL    HW133251   4.404   4.715  12.495 -3.5225 -2.4210 -0.6791
 7206SOL    HW233252   4.352   4.702  12.359 -0.0414  0.0878  0.9851
 7207SOL     OW33253   1.377   3.591   4.709 -0.3045  0.0091 -0.4160
 7207SOL    HW133254   1.315   3.526   4.675  0.7797 -2.0785  1.6210
 7207SOL    HW233255   1.420   3.543   4.779 -0.3268  0.2156 -0.2637
 7208SOL     OW33256   3.977   0.933  10.182 -0.3726 -0.0864 -0.2493
 7208SOL    HW133257   4.048   0.905  10.125  0.6290  0.8097  0.5571
 7208SOL    HW233258   4.013   1.009  10.228 -1.8748  0.4319  0.0631
 7209SOL     OW33259   1.394   2.228  12.579  0.1176 -0.1548  0.4084
 7209SOL    HW133260   1.306   2.221  12.617 -0.3202 -1.2540 -0.7954
 7209SOL    HW233261   1.418   2.136  12.579  2.1093  0.3665 -0.2523
 7210SOL     OW33262   0.656   4.268   4.974 -0.2677 -0.1932 -0.7206
 7210SOL    HW133263   0.705   4.213   5.034  0.3824  0.7913 -0.3619
 7210SOL    HW233264   0.604   4.323   5.033  2.7020 -2.5264  4.0213
 7211SOL     OW33265   1.518   4.733   3.343  0.2760  0.3731 -0.4378
 7211SOL    HW133266   1.484   0.081   3.320  0.6107 -0.1626 -3.0412
 7211SOL    HW233267   1.549   0.015   3.431 -0.7526 -0.0513  0.0279
 7212SOL     OW33268   2.336   2.260  12.907  0.2368 -0.2864 -0.1001
 7212SOL    HW133269   2.284   2.217  12.976 -1.4255 -0.0032 -1.1604
 7212SOL    HW233270   2.278   2.327  12.872 -0.4710 -0.2140  1.2107
 7213SOL     OW33271   1.418   3.784   3.466  0.0038 -0.2175  0.0965
 7213SOL    HW133272   1.335   3.803   3.421  0.4720 -0.5883 -0.9334
 7213SOL    HW233273   1.468   3.857   3.429  0.7740 -0.8347 -0.0555
 7214SOL     OW33274   2.212   0.545   6.435 -0.0470 -0.1367 -0.0821
 7214SOL    HW133275   2.212   0.462   6.388 -1.3717  0.4100 -1.0406
 7214SOL    HW233276   2.283   0.528   6.497  0.1482  0.9896  0.0007
 7215SOL     OW33277   0.372   3.325  15.981  0.4601 -0.3054 -0.1496
 7215SOL    HW133278   0.426   3.386  15.930 -0.1356 -0.9388 -1.5382
 7215SOL    HW233279   0.430   3.315  16.057 -0.8625  0.0517  0.9125
 7216SOL     OW33280   1.982   4.036   7.329 -0.6327 -0.2204 -0.1896
 7216SOL    HW133281   2.061   4.037   7.275 -0.1912 -0.2049  0.4513
 7216SOL    HW233282   1.941   3.954   7.301 -2.7999  1.0513 -0.7432
 7217SOL     OW33283   2.509   0.368   8.187 -0.3623 -0.4632  0.2792
 7217SOL    HW133284   2.441   0.381   8.252 -1.6644 -1.1088 -0.9510
 7217SOL    HW233285   2.460   0.358   8.105 -2.3021  0.1993  1.3783
 7218SOL     OW33286   3.516   2.054   6.389  1.2684 -0.0558  0.0564
 7218SOL    HW133287   3.436   2.091   6.353  0.1183 -2.0654  0.5148
 7218SOL    HW233288   3.485   2.019   6.473  2.0552 -0.4494  0.1891
 7219SOL     OW33289   0.366   1.331   3.758 -0.3651 -0.0387  0.0311
 7219SOL    HW133290   0.429   1.349   3.689 -1.5796  1.0857 -0.8001
 7219SOL    HW233291   0.421   1.350   3.834  0.2620 -0.0668 -0.4182
 7220SOL     OW33292   0.070   0.156   7.451  0.0238 -0.3504 -0.2488
 7220SOL    HW133293   0.054   0.234   7.504  1.5085  1.0174 -1.8363
 7220SOL    HW233294   4.735   0.101   7.478  0.4331  0.4084  2.4245
 7221SOL     OW33295   4.718   3.050   7.448 -0.0262 -0.2542  0.0333
 7221SOL    HW133296   0.020   2.976   7.404  1.3033  0.4077  0.1578
 7221SOL    HW233297   0.049   3.114   7.458  0.0713 -0.6385  1.7214
 7222SOL     OW33298   4.165   2.970  16.171  0.3082 -0.5432 -0.3167
 7222SOL    HW133299   4.102   2.911  16.129  1.4808  0.1729 -3.0606
 7222SOL    HW233300   4.228   2.907  16.207 -0.1009  0.4823  2.2015
 7223SOL     OW33301   0.447   2.621   7.381 -0.7685 -0.3895 -0.6139
 7223SOL    HW133302   0.422   2.530   7.365 -0.1718 -0.8745  1.2792
 7223SOL    HW233303   0.390   2.640   7.455  1.3182  0.5184  0.7395
 7224SOL     OW33304   4.352   0.386   7.011 -0.3802 -0.0173 -0.6263
 7224SOL    HW133305   4.425   0.378   6.948  1.4263 -1.3179  1.6359
 7224SOL    HW233306   4.282   0.357   6.952  0.1356 -1.2030 -0.6508
 7225SOL     OW33307   1.577   3.443   8.605  0.4653  0.2992  0.5314
 7225SOL    HW133308   1.580   3.398   8.521  0.2172  0.2689  0.5393
 7225SOL    HW233309   1.671   3.449   8.625  0.6596 -0.0866 -0.2669
 7226SOL     OW33310   0.548   0.651   5.829 -0.1171 -0.5792  0.2528
 7226SOL    HW133311   0.577   0.579   5.773 -0.7211 -1.6053  1.2657
 7226SOL    HW233312   0.560   0.603   5.911  1.9129 -2.2152 -1.0202
 7227SOL     OW33313   2.031   1.989  16.082  0.0781  0.2416  0.1689
 7227SOL    HW133314   2.057   1.942  16.161 -1.4788  0.4741  0.8237
 7227SOL    HW233315   1.956   1.933  16.058 -0.0074  0.0123  0.9838
 7228SOL     OW33316   4.594   0.390   8.474  0.7162 -0.3139 -0.3254
 7228SOL    HW133317   4.503   0.375   8.500  0.6119 -0.7710 -0.9723
 7228SOL    HW233318   4.597   0.483   8.498 -0.0041 -0.3281 -0.1724
 7229SOL     OW33319   1.085   4.739  16.553 -0.2033 -0.2150 -0.4046
 7229SOL    HW133320   1.075   0.093  16.534  2.1832  0.3876  1.3284
 7229SOL    HW233321   1.050   4.704  16.471  1.7089  0.8532 -1.6564
 7230SOL     OW33322   2.153   0.813   2.468 -0.6893 -0.1558 -0.6623
 7230SOL    HW133323   2.209   0.869   2.415 -1.0945 -0.0575 -0.9747
 7230SOL    HW233324   2.218   0.747   2.494 -0.6622  0.7103  1.5295
 7231SOL     OW33325   1.111   3.518   5.622 -0.2280  0.3023  0.3562
 7231SOL    HW133326   1.020   3.549   5.620 -0.8709 -1.5750  1.1964
 7231SOL    HW233327   1.096   3.432   5.660  0.7714 -0.1407 -0.2708
 7232SOL     OW33328   1.967   3.529   7.354 -0.1072  0.1146 -0.1253
 7232SOL    HW133329   1.929   3.464   7.412 -0.3908  3.0291  2.9604
 7232SOL    HW233330   1.886   3.558   7.313  0.1420  2.0926  0.7422
 7233SOL     OW33331   1.012   3.159   4.536 -0.4615 -0.1143 -0.4483
 7233SOL    HW133332   0.949   3.112   4.592  0.3431  0.0918  0.6319
 7233SOL    HW233333   1.012   3.248   4.572 -1.2574  0.0113 -0.7597
 7234SOL     OW33334   0.008   4.461   2.835  0.0067  0.5970  0.0114
 7234SOL    HW133335   0.039   4.503   2.915 -0.6004 -2.2538  1.7869
 7234SOL    HW233336   0.087   4.444   2.783 -0.5894 -1.5839 -0.2080
 7235SOL     OW33337   0.404   3.182   9.334  0.2822  0.4658  0.2023
 7235SOL    HW133338   0.387   3.089   9.352 -1.1915  0.6325 -0.3450
 7235SOL    HW233339   0.438   3.212   9.418 -1.8861 -0.8980  1.5602
 7236SOL     OW33340   0.541   4.702   8.482 -0.1606  0.6729  0.2560
 7236SOL    HW133341   0.485   4.693   8.559  0.8727 -2.1348  0.6488
 7236SOL    HW233342   0.616   4.648   8.506 -0.6942 -0.9177 -1.6539
 7237SOL     OW33343   0.929   2.283   5.122 -0.0337  0.3872  0.2093
 7237SOL    HW133344   0.918   2.378   5.129 -1.4156  0.0432  2.8914
 7237SOL    HW233345   1.024   2.285   5.117  0.0629  1.0914  2.0666
 7238SOL     OW33346   1.989   1.619  13.268  0.1210 -0.6767 -0.2412
 7238SOL    HW133347   2.077   1.619  13.231  0.3188  1.2496  0.2292
 7238SOL    HW233348   2.008   1.643  13.359  2.3879  0.1355 -0.9563
 7239SOL     OW33349   0.481   0.532  16.934 -0.5074 -0.0524 -0.3655
 7239SOL    HW133350   0.474   0.618  16.976 -1.0751 -0.0300 -0.4977
 7239SOL    HW233351   0.410   0.545  16.870 -0.2265 -2.0951 -1.1020
 7240SOL     OW33352   0.110   2.804   7.333 -0.3168  0.2732  0.0692
 7240SOL    HW133353   0.150   2.769   7.254 -2.0110  0.7142 -0.9878
 7240SOL    HW233354   0.091   2.721   7.376  0.4068 -0.0953 -0.3350
 7241SOL     OW33355   2.070   3.374  15.774  0.1685  0.1936 -0.2844
 7241SOL    HW133356   1.994   3.335  15.817 -0.6633  2.0787 -0.0316
 7241SOL    HW233357   2.036   3.447  15.723 -0.5521 -1.0665 -1.6299
 7242SOL     OW33358   2.505   1.699   7.506 -0.4404  0.6883  0.0970
 7242SOL    HW133359   2.501   1.620   7.453  0.9373 -0.0278  1.0587
 7242SOL    HW233360   2.482   1.767   7.442  1.8477  0.6068 -0.7859
 7243SOL     OW33361   4.716   2.208   4.957 -0.5883 -0.3038  0.1128
 7243SOL    HW133362   4.696   2.256   4.877 -1.1433 -1.0490 -0.1991
 7243SOL    HW233363   4.734   2.117   4.931  0.9865 -0.3162  1.2253
 7244SOL     OW33364   0.392   2.329  11.535 -0.0165  0.1020 -0.5215
 7244SOL    HW133365   0.351   2.267  11.475  3.3668 -2.3114 -0.3248
 7244SOL    HW233366   0.347   2.407  11.502 -0.5245  0.9913  2.2719
 7245SOL     OW33367   2.300   0.666   5.099  0.4601  0.3624 -0.1391
 7245SOL    HW133368   2.293   0.761   5.112  2.0896  0.8259 -2.6563
 7245SOL    HW233369   2.229   0.652   5.036  3.0127  0.3296 -2.9703
 7246SOL     OW33370   3.420   4.223   0.465 -0.2170  0.0006 -0.2295
 7246SOL    HW133371   3.467   4.303   0.489  0.9908 -1.1696  1.3036
 7246SOL    HW233372   3.448   4.212   0.374 -0.0283 -0.4930 -0.1110
 7247SOL     OW33373   2.236   3.020   1.249 -0.1146  0.8802  0.5787
 7247SOL    HW133374   2.277   3.034   1.334  2.2671 -1.0717 -0.2553
 7247SOL    HW233375   2.222   2.927   1.269  1.8305  0.6981  1.1146
 7248SOL     OW33376   3.504   3.450   3.711  0.1676  0.0009  0.1095
 7248SOL    HW133377   3.522   3.359   3.687 -1.7316 -0.5104  0.5573
 7248SOL    HW233378   3.574   3.501   3.671  0.6493 -1.2042 -0.5877
 7249SOL     OW33379   3.528   3.234   0.086  0.4988  0.0817 -0.3483
 7249SOL    HW133380   3.485   3.292   0.149  1.6645  1.3847 -0.7503
 7249SOL    HW233381   3.455   3.172   0.078 -0.7145  1.5211 -0.4902
 7250SOL     OW33382   2.016   2.268   7.839 -0.1461 -0.3275  0.4044
 7250SOL    HW133383   1.948   2.317   7.886  1.7128  0.0023  2.7615
 7250SOL    HW233384   2.072   2.343   7.820 -0.9329  0.0652 -0.4111
 7251SOL     OW33385   1.304   1.556   4.403  0.6759 -0.1667 -0.6113
 7251SOL    HW133386   1.247   1.619   4.358 -0.3966 -1.0533 -0.5029
 7251SOL    HW233387   1.271   1.476   4.361  1.3572 -0.9996  0.4270
 7252SOL     OW33388   2.830   4.036   3.613  0.3292  0.2391  0.1549
 7252SOL    HW133389   2.800   3.963   3.558  1.9172 -0.1982 -0.1491
 7252SOL    HW233390   2.812   3.998   3.699 -0.3241  0.7706  0.2536
 7253SOL     OW33391   0.072   0.857   1.691  0.5231 -0.0812  0.9454
 7253SOL    HW133392   0.105   0.820   1.773  0.3634  0.9611  1.4791
 7253SOL    HW233393   0.101   0.793   1.626 -1.7818  0.6589 -0.7872
 7254SOL     OW33394   4.624   2.651   5.729  0.4637 -0.5430  0.4411
 7254SOL    HW133395   4.642   2.563   5.694 -1.3625 -0.1286 -1.5199
 7254SOL    HW233396   4.635   2.697   5.646 -1.2444  2.3818  1.8258
 7255SOL     OW33397   0.761   0.010   5.852 -0.0733 -0.0934  0.6580
 7255SOL    HW133398   0.717   0.089   5.882  2.0576  1.3004  0.1166
 7255SOL    HW233399   0.749   0.014   5.757 -0.7864  2.0882  0.8558
 7256SOL     OW33400   3.250   4.702  12.152 -1.0185  0.5054 -0.9087
 7256SOL    HW133401   3.193   4.635  12.114  1.7094 -1.7408 -1.0418
 7256SOL    HW233402   3.224   4.686  12.243 -0.5936 -0.4399 -0.9530
 7257SOL     OW33403   0.896   0.465   0.143 -0.0754  0.6996 -0.7084
 7257SOL    HW133404   0.954   0.393   0.118  0.1065 -0.5882  3.4484
 7257SOL    HW233405   0.848   0.473   0.061  0.6004  1.9650 -0.9767
 7258SOL     OW33406   0.309   3.076   7.701  0.0533 -0.6619  0.4594
 7258SOL    HW133407   0.296   3.142   7.633 -0.0067 -2.3287 -1.1595
 7258SOL    HW233408   0.240   3.101   7.762 -1.3742  2.8405 -2.5929
 7259SOL     OW33409   1.581   2.142   4.322 -0.5327 -0.4039  0.2625
 7259SOL    HW133410   1.497   2.184   4.302  0.0617  1.1002  0.9250
 7259SOL    HW233411   1.577   2.081   4.249 -1.1971  2.9998 -2.5593
 7260SOL     OW33412   3.265   1.971   3.365 -0.2242  0.3604  0.3049
 7260SOL    HW133413   3.247   2.064   3.349 -2.4598 -0.2875 -1.0129
 7260SOL    HW233414   3.182   1.924   3.364 -0.3984  0.6316  1.8684
 7261SOL     OW33415   2.612   0.000   5.802  0.1857  0.6864 -0.4023
 7261SOL    HW133416   2.532   4.689   5.791  0.9318 -0.6588  0.3294
 7261SOL    HW233417   2.679   4.684   5.761  2.8096  2.6476  1.1768
 7262SOL     OW33418   0.036   0.288  14.160  0.0653  0.2399 -0.2530
 7262SOL    HW133419   0.044   0.275  14.254 -1.5325  0.0745 -0.1294
 7262SOL    HW233420   0.033   0.196  14.133 -1.6211 -0.2637  1.7018
 7263SOL     OW33421   3.306   3.875   7.911  0.0782  0.4939  0.5784
 7263SOL    HW133422   3.394   3.873   7.949 -0.7749  1.3232  2.5809
 7263SOL    HW233423   3.289   3.788   7.946 -1.7661  0.6184  0.0033
 7264SOL     OW33424   4.438   1.058   2.257  0.1873  0.0807 -0.3164
 7264SOL    HW133425   4.470   1.112   2.185 -0.2797 -0.2400 -0.7661
 7264SOL    HW233426   4.415   1.128   2.318  1.9932  1.1442 -0.8537
 7265SOL     OW33427   2.731   2.785  16.786 -0.1428 -0.4425  0.8319
 7265SOL    HW133428   2.733   2.714  16.851  1.5186 -0.4283  0.7925
 7265SOL    HW233429   2.641   2.816  16.781  0.4762  0.9897 -1.2616
 7266SOL     OW33430   0.929   1.792  13.601 -0.5547  0.0089 -0.1162
 7266SOL    HW133431   0.873   1.721  13.632 -2.4794  2.5942  2.2622
 7266SOL    HW233432   1.018   1.759  13.615 -0.4664  0.5125  0.4811
 7267SOL     OW33433   0.934   1.277   4.811  0.2205 -0.3216 -0.3511
 7267SOL    HW133434   0.973   1.360   4.839 -2.0743 -0.2791  2.7855
 7267SOL    HW233435   0.841   1.298   4.822 -0.1090 -0.9386 -1.9684
 7268SOL     OW33436   3.717   0.917   7.970  0.0259 -0.8394 -0.2716
 7268SOL    HW133437   3.785   0.973   7.933 -0.3370 -0.0064  0.3394
 7268SOL    HW233438   3.766   0.871   8.039 -1.5826 -0.1016  1.3515
 7269SOL     OW33439   4.331   1.689   7.040  0.4889 -1.0023  0.6216
 7269SOL    HW133440   4.416   1.726   7.015 -0.9967  1.0945 -1.2069
 7269SOL    HW233441   4.302   1.746   7.111 -1.4856  0.6862 -1.5768
 7270SOL     OW33442   0.481   4.234   7.477  0.4533  0.0379  0.6913
 7270SOL    HW133443   0.479   4.176   7.553 -1.2584  1.1379  1.4995
 7270SOL    HW233444   0.415   4.301   7.496  0.2154  0.4429 -1.5592
 7271SOL     OW33445   2.923   1.796  14.296 -0.4939 -0.0372 -0.1096
 7271SOL    HW133446   2.930   1.878  14.247  0.1949 -0.9356 -1.4783
 7271SOL    HW233447   3.006   1.752  14.277 -0.2851  1.3319 -2.3175
 7272SOL     OW33448   2.731   2.592  14.196  0.0128  0.3101 -0.5193
 7272SOL    HW133449   2.767   2.587  14.284 -0.4303 -0.6521 -0.3938
 7272SOL    HW233450   2.768   2.517  14.149  0.7549 -0.8215  1.9128
 7273SOL     OW33451   0.105   3.435   3.374 -0.5134  0.3573 -0.2669
 7273SOL    HW133452   0.169   3.503   3.393  0.6404 -0.0847 -2.6208
 7273SOL    HW233453   0.151   3.357   3.402 -0.1671  0.1438 -1.4196
 7274SOL     OW33454   2.771   4.572   9.517  0.6234 -0.6606 -0.1306
 7274SOL    HW133455   2.849   4.596   9.467  0.8117 -1.2085 -0.0957
 7274SOL    HW233456   2.712   4.646   9.499 -0.4334 -1.1445  1.3288
 7275SOL     OW33457   2.992   4.224   2.924 -0.1518 -0.0697  0.3119
 7275SOL    HW133458   2.903   4.197   2.901 -0.8788  0.5624  2.3560
 7275SOL    HW233459   2.991   4.185   3.011 -0.6985  0.7189  0.6663
 7276SOL     OW33460   1.653   4.499   8.132 -0.3314  0.1293 -0.3359
 7276SOL    HW133461   1.704   4.422   8.159  1.5223  1.1260 -0.9997
 7276SOL    HW233462   1.663   4.567   8.199  0.3142 -1.8030  1.5226
 7277SOL     OW33463   0.630   3.614  16.899 -0.4199  0.7658  0.2541
 7277SOL    HW133464   0.609   3.638  16.809 -3.4325  0.7817  0.9464
 7277SOL    HW233465   0.571   3.541  16.919  0.2859  0.5170  1.4117
 7278SOL     OW33466   0.362   3.070   1.461  0.7318 -0.0749 -0.0269
 7278SOL    HW133467   0.283   3.115   1.491  2.3905  2.6382  0.1861
 7278SOL    HW233468   0.424   3.094   1.530  0.7463 -0.4583  0.0971
 7279SOL     OW33469   3.819   0.071   6.396  0.1488 -0.7028  0.2180
 7279SOL    HW133470   3.796   0.094   6.306  0.7061  1.4257  0.6246
 7279SOL    HW233471   3.772   0.132   6.453  2.0772 -1.1493  2.2893
 7280SOL     OW33472   3.007   1.710   9.662 -0.0433 -0.8741 -0.5448
 7280SOL    HW133473   3.061   1.676   9.592 -0.9068 -1.4436 -0.9346
 7280SOL    HW233474   2.927   1.707   9.609 -0.4706  0.8040  0.0119
 7281SOL     OW33475   0.729   3.505   2.312 -0.2332  0.2614 -0.2240
 7281SOL    HW133476   0.695   3.497   2.223  1.1327  1.1068 -0.8100
 7281SOL    HW233477   0.645   3.511   2.358 -1.1429  0.4142 -1.9155
 7282SOL     OW33478   0.292   3.576  13.518 -0.3512 -0.0200 -0.2426
 7282SOL    HW133479   0.219   3.603  13.462  1.5205  1.4449 -1.9541
 7282SOL    HW233480   0.367   3.626  13.487 -0.3292 -1.2117 -2.1281
 7283SOL     OW33481   0.585   1.600   2.988 -0.6964  0.4363  0.2037
 7283SOL    HW133482   0.596   1.553   2.905 -0.1286 -0.9512  1.0685
 7283SOL    HW233483   0.584   1.527   3.050 -1.4967  0.6197  0.4066
 7284SOL     OW33484   4.267   1.306   1.130 -0.8857  0.0637 -0.3569
 7284SOL    HW133485   4.341   1.351   1.171 -0.8116 -0.0902 -0.3246
 7284SOL    HW233486   4.286   1.214   1.147 -0.4648  0.3395  0.6641
 7285SOL     OW33487   0.691   0.292   6.346 -0.1388 -0.3737 -0.4870
 7285SOL    HW133488   0.658   0.380   6.366  1.1780  0.0143 -0.0735
 7285SOL    HW233489   0.670   0.236   6.421 -0.9090  3.0860  1.8600
 7286SOL     OW33490   2.569   1.025   6.594  0.1570 -0.0836  0.3733
 7286SOL    HW133491   2.631   0.967   6.638 -0.4852 -0.4852  0.7447
 7286SOL    HW233492   2.564   0.975   6.512  0.2501 -0.6913  0.7363
 7287SOL     OW33493   2.404   2.236  10.206  0.4804 -0.0232  0.3431
 7287SOL    HW133494   2.481   2.290  10.187  1.1974 -0.9372  0.6558
 7287SOL    HW233495   2.426   2.160  10.152 -0.1274  0.1004 -0.0795
 7288SOL     OW33496   1.146   0.000  17.188 -0.1806  0.5578 -0.4425
 7288SOL    HW133497   1.164   0.001  17.094  0.6036 -1.5994 -0.2990
 7288SOL    HW233498   1.064   4.691  17.198 -1.2070  1.9727 -1.9071
 7289SOL     OW33499   1.351   2.417   5.767 -0.4989  0.5368 -0.1357
 7289SOL    HW133500   1.292   2.342   5.766  0.2670 -0.0657  0.4043
 7289SOL    HW233501   1.404   2.410   5.688  0.8764 -0.8060  0.9155
 7290SOL     OW33502   4.350   0.795   5.352  0.3443  0.1305 -0.4620
 7290SOL    HW133503   4.262   0.812   5.318  0.1488  1.8389  0.8479
 7290SOL    HW233504   4.342   0.825   5.443  0.2528 -0.1255 -0.3857
 7291SOL     OW33505   2.752   1.300   0.538  0.0445 -0.0022  0.0987
 7291SOL    HW133506   2.770   1.349   0.618 -3.4540  1.3004  0.0476
 7291SOL    HW233507   2.660   1.321   0.522  0.0934  0.9824  1.1199
 7292SOL     OW33508   2.406   1.084   5.980  0.3350 -0.2267  0.6187
 7292SOL    HW133509   2.367   1.170   5.964  0.2941 -0.4353 -0.4021
 7292SOL    HW233510   2.332   1.024   5.986  0.1015  0.1545  1.4933
 7293SOL     OW33511   2.577   1.695   3.940 -1.0266  0.3713 -0.3544
 7293SOL    HW133512   2.614   1.768   3.891  0.2494 -0.7640 -1.0747
 7293SOL    HW233513   2.534   1.736   4.015  0.5885  2.8849 -0.8299
 7294SOL     OW33514   3.352   2.384  12.057  0.3461 -0.7588  0.2232
 7294SOL    HW133515   3.297   2.404  11.982 -0.2773  0.3166  0.9627
 7294SOL    HW233516   3.439   2.397  12.017 -0.0914 -1.3850 -0.9325
 7295SOL     OW33517   0.824   0.923   4.895  0.3040 -0.5589 -0.4866
 7295SOL    HW133518   0.821   1.002   4.949  1.0885  0.1422 -1.4636
 7295SOL    HW233519   0.918   0.908   4.887  0.7491  1.2695  1.3574
 7296SOL     OW33520   2.010   2.471   3.644  0.4584  0.0635 -0.2829
 7296SOL    HW133521   1.981   2.427   3.563  2.0079  2.0276 -1.8859
 7296SOL    HW233522   2.007   2.559   3.606 -0.0594  0.8868  1.6666
 7297SOL     OW33523   2.425   1.625   5.818  0.2845 -0.5794 -0.0613
 7297SOL    HW133524   2.421   1.647   5.725  0.6720  1.6763  0.4652
 7297SOL    HW233525   2.341   1.659   5.850  0.3417  1.5882 -2.2599
 7298SOL     OW33526   3.851   4.171   9.336 -0.2783  0.2939 -0.4799
 7298SOL    HW133527   3.767   4.138   9.305  0.2448 -0.6130 -0.9395
 7298SOL    HW233528   3.905   4.099   9.303  0.3826  0.0834  1.0794
 7299SOL     OW33529   2.106   4.224  15.706 -0.1665  0.0440  0.4000
 7299SOL    HW133530   2.144   4.277  15.776 -1.4866  1.1899  0.2462
 7299SOL    HW233531   2.014   4.215  15.732  0.7704  0.4474  3.9139
 7300SOL     OW33532   2.477   2.679   1.085  0.0083  0.0034  0.7348
 7300SOL    HW133533   2.491   2.749   1.149  0.0671  1.5466 -0.9410
 7300SOL    HW233534   2.460   2.601   1.137  0.2834 -1.8528 -1.9702
 7301SOL     OW33535   0.448   2.388   3.959 -0.6263 -0.1474 -0.3927
 7301SOL    HW133536   0.439   2.323   4.029 -0.8186  0.5429  0.2361
 7301SOL    HW233537   0.522   2.435   3.998  0.9023 -2.1702 -0.8818
 7302SOL     OW33538   1.392   1.615   2.864 -0.0585  0.0525  0.1234
 7302SOL    HW133539   1.431   1.681   2.806  0.2680 -2.3342 -2.3847
 7302SOL    HW233540   1.301   1.626   2.835 -0.2481 -1.3568  0.1643
 7303SOL     OW33541   2.760   3.791  15.463 -0.0610 -0.1298 -0.6237
 7303SOL    HW133542   2.819   3.823  15.395  1.9184 -0.9825  0.7136
 7303SOL    HW233543   2.780   3.699  15.479 -0.4296 -0.4250 -1.8609
 7304SOL     OW33544   1.232   4.015  11.932 -0.2597  0.1685  0.4285
 7304SOL    HW133545   1.237   3.924  11.903  2.9548  0.2888  0.6549
 7304SOL    HW233546   1.145   4.011  11.974 -0.1728 -2.5428  0.3713
 7305SOL     OW33547   3.301   1.604   4.836  0.3321 -0.0392  0.3129
 7305SOL    HW133548   3.295   1.561   4.751 -1.9523  1.8345 -0.4800
 7305SOL    HW233549   3.252   1.542   4.890  3.1870 -2.4731  0.1432
 7306SOL     OW33550   3.682   0.560   9.005  0.0266 -0.2243 -0.0124
 7306SOL    HW133551   3.776   0.543   8.999  0.2697  1.1282  0.0411
 7306SOL    HW233552   3.674   0.644   9.049  0.1399 -0.6758  0.8677
 7307SOL     OW33553   0.700   3.306  13.347 -0.6387  0.0375 -0.0443
 7307SOL    HW133554   0.789   3.271  13.353 -0.8828 -0.6234 -0.3260
 7307SOL    HW233555   0.700   3.357  13.266  0.3968 -1.3127 -0.9002
 7308SOL     OW33556   4.011   3.511   3.945 -0.1669  0.2908  0.2525
 7308SOL    HW133557   3.917   3.520   3.933 -0.3087  0.8319  1.6897
 7308SOL    HW233558   4.041   3.485   3.858 -1.8270 -2.9116  0.6280
 7309SOL     OW33559   1.472   0.228   1.142 -0.1964 -0.1662  0.2434
 7309SOL    HW133560   1.490   0.307   1.092  2.3199 -0.2559  0.9846
 7309SOL    HW233561   1.437   0.267   1.222  0.6535  0.4318  0.3284
 7310SOL     OW33562   2.719   3.400  15.478 -0.1190  0.2149 -0.0866
 7310SOL    HW133563   2.646   3.403  15.539 -0.8887  1.8539 -1.0784
 7310SOL    HW233564   2.776   3.468  15.513  1.2002  0.0633 -1.9541
 7311SOL     OW33565   4.523   1.332   3.966  0.6582 -0.2714  0.3497
 7311SOL    HW133566   4.518   1.240   3.943  2.0724 -0.2770  0.0513
 7311SOL    HW233567   4.530   1.374   3.880  0.5859  0.3958  0.6642
 7312SOL     OW33568   2.452   1.912   8.857 -0.0667 -0.3556  0.2890
 7312SOL    HW133569   2.495   1.840   8.811  0.1696  0.4637 -0.7748
 7312SOL    HW233570   2.483   1.985   8.802  0.4202 -0.9057 -0.1632
 7313SOL     OW33571   4.434   4.291   9.663 -0.0485 -0.0670 -0.1147
 7313SOL    HW133572   4.512   4.258   9.617  1.1858  0.6615  1.4752
 7313SOL    HW233573   4.379   4.327   9.593  0.2649 -1.8865 -1.2969
 7314SOL     OW33574   3.465   0.704   6.846  0.0488 -0.6504 -0.1852
 7314SOL    HW133575   3.559   0.717   6.828 -0.2678  0.2162 -1.2214
 7314SOL    HW233576   3.427   0.790   6.829  0.5217 -0.4256 -0.1008
 7315SOL     OW33577   1.695   3.071   3.521  0.0830  0.2992  0.1412
 7315SOL    HW133578   1.610   3.046   3.559  0.0629  0.2255  0.0505
 7315SOL    HW233579   1.744   3.095   3.599 -1.3896  0.3629  1.0409
 7316SOL     OW33580   1.230   3.289   4.888 -0.1773 -0.1780  0.5753
 7316SOL    HW133581   1.251   3.230   4.816 -0.8366 -2.0533  1.9258
 7316SOL    HW233582   1.313   3.332   4.912  0.2224 -0.3648 -0.4753
 7317SOL     OW33583   1.964   4.509   5.158  0.0456  0.4196 -1.0419
 7317SOL    HW133584   1.919   4.451   5.097  2.2850 -4.5637  1.9539
 7317SOL    HW233585   1.989   4.582   5.102  0.7912  0.0260 -1.2335
 7318SOL     OW33586   3.504   0.870   9.968 -0.3004  0.3258  0.0207
 7318SOL    HW133587   3.541   0.877   9.880  4.8134  1.3711  2.3028
 7318SOL    HW233588   3.420   0.829   9.947  0.7547 -2.0949  0.5043
 7319SOL     OW33589   0.519   0.087   6.585 -0.2084 -0.4336 -0.0062
 7319SOL    HW133590   0.584   0.033   6.540  1.2771 -0.8092  2.5803
 7319SOL    HW233591   0.572   0.143   6.641  0.2172 -1.0950  0.2656
 7320SOL     OW33592   1.645   0.981  16.783  0.2055  0.0718  0.2431
 7320SOL    HW133593   1.587   0.910  16.755 -0.2174  1.0508 -1.3281
 7320SOL    HW233594   1.592   1.059  16.767 -0.5442 -0.4649  0.1253
 7321SOL     OW33595   3.222   0.805   1.798 -0.0197  0.5258  0.2676
 7321SOL    HW133596   3.299   0.776   1.847  0.6880  2.7895  0.4685
 7321SOL    HW233597   3.229   0.758   1.715  0.7448 -0.8578  1.1062
 7322SOL     OW33598   1.350   0.645  13.984  0.1189  0.4978 -0.7627
 7322SOL    HW133599   1.271   0.686  14.017  0.2813  0.8949 -0.8577
 7322SOL    HW233600   1.389   0.725  13.949  0.6940  0.5975  0.1143
 7323SOL     OW33601   0.125   2.088   4.701  0.7967  0.4406  0.0968
 7323SOL    HW133602   0.076   2.142   4.638 -0.2647 -1.0024 -0.3068
 7323SOL    HW233603   0.171   2.039   4.634  2.6539  0.5859  1.2701
 7324SOL     OW33604   4.204   1.055   8.921  0.0062 -0.1439 -0.0706
 7324SOL    HW133605   4.190   1.103   9.003 -3.0555 -0.3546 -0.4672
 7324SOL    HW233606   4.289   1.087   8.889 -0.3213  1.3705  0.5479
 7325SOL     OW33607   3.274   2.187  10.557  0.2192  0.0332  0.3163
 7325SOL    HW133608   3.327   2.232  10.623  0.9883  0.3294 -0.4946
 7325SOL    HW233609   3.202   2.244  10.530  1.3341  1.3776  0.1543
 7326SOL     OW33610   2.677   1.682   6.830 -0.0784 -0.6274 -0.1023
 7326SOL    HW133611   2.759   1.635   6.815  0.0294 -0.7289  0.8159
 7326SOL    HW233612   2.617   1.607   6.830  2.4243 -2.6034 -0.1349
 7327SOL     OW33613   3.823   1.752   6.385  1.0560  0.2768 -0.3207
 7327SOL    HW133614   3.904   1.701   6.389  1.6633  1.2854  0.4572
 7327SOL    HW233615   3.808   1.766   6.291 -1.2500  1.6834  0.2486
 7328SOL     OW33616   0.814   1.890   6.121  0.3985  0.4749  0.2527
 7328SOL    HW133617   0.791   1.928   6.036 -2.1416 -2.9287 -0.5466
 7328SOL    HW233618   0.761   1.811   6.110 -0.5544  0.9002  1.8828
 7329SOL     OW33619   2.495   3.521   9.788  0.5901  0.1204 -0.1953
 7329SOL    HW133620   2.434   3.594   9.787  1.7905  1.0681 -4.0465
 7329SOL    HW233621   2.540   3.538   9.871  1.7684 -3.5198 -0.0853
 7330SOL     OW33622   2.782   0.368   8.312 -0.3243  0.6719  0.0977
 7330SOL    HW133623   2.691   0.344   8.291 -0.7421  1.0868  1.4606
 7330SOL    HW233624   2.781   0.357   8.407  1.6825  0.2893  0.0823
 7331SOL     OW33625   3.514   3.335   5.695  0.0013 -0.1409  0.3288
 7331SOL    HW133626   3.584   3.274   5.717  0.6646 -0.8962 -3.8087
 7331SOL    HW233627   3.430   3.303   5.728 -0.4600  0.3309 -0.3773
 7332SOL     OW33628   0.609   4.140   3.207 -0.6426  0.2570  0.1489
 7332SOL    HW133629   0.583   4.051   3.185 -0.5489  0.8645 -2.4143
 7332SOL    HW233630   0.524   4.184   3.206  0.3067  2.0816 -0.1246
 7333SOL     OW33631   0.241   1.331  15.002  0.4779 -0.1271  0.4194
 7333SOL    HW133632   0.247   1.354  14.910 -2.1620  1.0666  0.5357
 7333SOL    HW233633   0.306   1.393  15.034 -1.0849  0.6862  2.0187
 7334SOL     OW33634   0.543   1.481   4.704  0.4599  0.4384  0.5249
 7334SOL    HW133635   0.578   1.429   4.776  0.3769  0.0836  0.3129
 7334SOL    HW233636   0.578   1.570   4.712  2.2791 -0.2433  0.2385
 7335SOL     OW33637   0.303   0.093  10.339  0.1839 -0.3213  0.3826
 7335SOL    HW133638   0.284   0.068  10.249  0.3299  0.8232  0.0272
 7335SOL    HW233639   0.397   0.115  10.336 -0.2867  1.6265 -0.3303
 7336SOL     OW33640   2.316   4.649   7.804  0.0342 -0.0390  0.3751
 7336SOL    HW133641   2.281   4.634   7.716 -0.8964  1.8816  0.4190
 7336SOL    HW233642   2.405   4.672   7.779  0.6344 -2.4212  0.2945
 7337SOL     OW33643   2.583   3.759   1.656 -0.2278 -0.7409 -0.3534
 7337SOL    HW133644   2.606   3.685   1.600  0.6192 -0.0486 -0.9180
 7337SOL    HW233645   2.533   3.815   1.596  0.1860  2.1236  1.9816
 7338SOL     OW33646   0.048   3.152   4.733 -0.4236 -0.2034 -0.3379
 7338SOL    HW133647   0.008   3.121   4.814  2.5783 -1.0837  0.7937
 7338SOL    HW233648   4.718   3.125   4.672 -0.1709 -1.0335 -0.2580
 7339SOL     OW33649   0.470   0.315   3.215  0.2940 -0.1868 -0.0553
 7339SOL    HW133650   0.443   0.402   3.244 -2.5070 -0.6011 -1.3604
 7339SOL    HW233651   0.562   0.297   3.235  0.3058  0.6468  0.6440
 7340SOL     OW33652   3.911   1.216   9.934  0.5317  0.4499 -0.1742
 7340SOL    HW133653   3.864   1.138   9.962  2.3480  0.1898  2.1802
 7340SOL    HW233654   3.846   1.285   9.929  0.4975  0.3932 -0.5109
 7341SOL     OW33655   2.472   2.826   0.865 -0.1720 -0.1730 -0.3617
 7341SOL    HW133656   2.455   2.773   0.943  3.0646 -0.2070  0.3285
 7341SOL    HW233657   2.407   2.894   0.882  1.9241  2.0146 -0.9527
 7342SOL     OW33658   1.932   3.354   4.953 -0.1100  0.2595  0.5329
 7342SOL    HW133659   1.890   3.347   5.039 -0.1290 -0.7369  0.4458
 7342SOL    HW233660   1.979   3.271   4.963 -0.1799  0.2360  0.6714
 7343SOL     OW33661   4.487   4.035   8.755 -0.1224  0.0216 -0.2356
 7343SOL    HW133662   4.520   3.963   8.809  1.9622  1.4777  0.4220
 7343SOL    HW233663   4.483   3.984   8.674 -0.6637  3.0626 -2.1226
 7344SOL     OW33664   2.885   0.181   9.868  0.2915  0.5193  0.5831
 7344SOL    HW133665   2.975   0.179   9.902 -0.1012 -2.3601  1.4493
 7344SOL    HW233666   2.883   0.275   9.848 -0.5978  0.2798 -0.4148
 7345SOL     OW33667   0.147   1.757   2.455 -0.7044 -0.0148  0.2727
 7345SOL    HW133668   0.186   1.702   2.387  0.0838  2.5757 -1.3679
 7345SOL    HW233669   0.218   1.747   2.519 -0.9784 -1.4930  0.3471
 7346SOL     OW33670   1.781   1.041   5.500 -0.1499 -0.0181 -0.1839
 7346SOL    HW133671   1.745   0.969   5.551 -1.6957 -1.2466 -3.0243
 7346SOL    HW233672   1.721   1.047   5.426 -1.1435  2.8983  0.8553
 7347SOL     OW33673   3.605   1.128   5.820 -0.0884  0.1654  0.1840
 7347SOL    HW133674   3.593   1.174   5.904  0.1611 -0.7691  0.7303
 7347SOL    HW233675   3.568   1.193   5.760  0.4350  0.5671  0.2974
 7348SOL     OW33676   1.274   4.587   3.422  0.2922 -0.0057 -0.0076
 7348SOL    HW133677   1.363   4.621   3.411  0.2014 -0.1470 -1.1202
 7348SOL    HW233678   1.236   4.640   3.492  0.3482  1.2878 -0.9558
 7349SOL     OW33679   4.452   1.485   7.508 -0.2485 -0.4404  0.0610
 7349SOL    HW133680   4.373   1.502   7.560  0.3776  0.7410  0.6097
 7349SOL    HW233681   4.519   1.507   7.572  0.5703 -0.5793 -0.7477
 7350SOL     OW33682   1.978   0.789   6.110  0.3918  0.3746  0.1112
 7350SOL    HW133683   1.912   0.761   6.047  0.7498  0.0333 -0.1081
 7350SOL    HW233684   1.934   0.793   6.195  1.7754 -0.5242  0.8515
 7351SOL     OW33685   1.166   2.063   8.280 -0.7471  0.2957  0.1561
 7351SOL    HW133686   1.183   2.119   8.356  0.4204 -0.4364  0.4347
 7351SOL    HW233687   1.191   1.980   8.321  0.6944 -0.0381 -1.4192
 7352SOL     OW33688   3.178   0.831   7.985  0.1962  0.1670  0.4313
 7352SOL    HW133689   3.113   0.811   8.053  0.9153  0.4716  1.2035
 7352SOL    HW233690   3.217   0.745   7.970 -2.0673 -0.4819 -1.8598
 7353SOL     OW33691   0.026   0.847  11.256  0.2414  0.3212  0.5976
 7353SOL    HW133692   4.671   0.834  11.259  0.3219 -0.1525  1.0991
 7353SOL    HW233693   0.050   0.765  11.214 -1.0486  1.2232 -1.8583
 7354SOL     OW33694   1.033   3.148   0.367  0.1913  0.2475 -0.3203
 7354SOL    HW133695   0.965   3.130   0.433  0.3484  0.1260 -0.1917
 7354SOL    HW233696   0.991   3.213   0.310  1.3602  0.0652 -1.3633
 7355SOL     OW33697   1.432   0.937  13.950 -0.2185 -0.0494  0.4841
 7355SOL    HW133698   1.522   0.957  13.925  0.1456 -0.5726  1.3715
 7355SOL    HW233699   1.385   0.964  13.872  0.3340 -3.7073 -1.1190
 7356SOL     OW33700   4.240   2.942  10.678  0.0170 -0.1728  0.0085
 7356SOL    HW133701   4.329   2.907  10.678  0.0645 -0.0563 -1.1531
 7356SOL    HW233702   4.211   2.909  10.592 -3.3191  0.9751  0.6783
 7357SOL     OW33703   4.153   2.092   5.632 -0.0815 -0.6962  0.0042
 7357SOL    HW133704   4.171   2.086   5.538  2.0075  1.3853  0.2547
 7357SOL    HW233705   4.075   2.038   5.631  0.3624 -1.3329 -0.5529
 7358SOL     OW33706   4.487   1.179   0.436  0.6357 -0.3188 -0.0898
 7358SOL    HW133707   4.527   1.250   0.486 -0.0821  0.1264 -0.1344
 7358SOL    HW233708   4.472   1.212   0.347  2.6999 -0.3207 -0.4286
 7359SOL     OW33709   4.045   1.155  12.333 -0.0945  0.0230 -0.4211
 7359SOL    HW133710   4.099   1.079  12.355 -0.9889  0.1628  2.3369
 7359SOL    HW233711   4.106   1.228  12.344  1.4403 -1.2803 -0.3156
 7360SOL     OW33712   1.172   0.328  15.798  0.0558 -0.1541 -0.6241
 7360SOL    HW133713   1.145   0.385  15.726 -0.9159  0.3779  0.1731
 7360SOL    HW233714   1.237   0.273  15.754 -1.6744 -1.4542 -1.5927
 7361SOL     OW33715   1.754   3.034   5.555 -0.0133 -0.2556 -1.0376
 7361SOL    HW133716   1.826   2.979   5.524  1.4853 -0.1560  2.2780
 7361SOL    HW233717   1.794   3.096   5.616  0.2308 -1.7546  0.3425
 7362SOL     OW33718   2.847   3.610   4.192 -0.0004 -0.0533 -0.0152
 7362SOL    HW133719   2.857   3.678   4.259 -1.4854 -1.3719  1.5407
 7362SOL    HW233720   2.937   3.613   4.159  0.3153 -2.0373  0.6705
 7363SOL     OW33721   2.588   4.622   6.296  0.0320 -0.2574 -0.0538
 7363SOL    HW133722   2.574   4.715   6.313 -1.6339 -0.1445 -2.0092
 7363SOL    HW233723   2.681   4.621   6.273  0.2115  0.0450  0.6475
 7364SOL     OW33724   4.633   3.547   5.906  0.1563  0.1898 -0.3875
 7364SOL    HW133725   4.557   3.509   5.950 -0.9257  1.9671 -0.7295
 7364SOL    HW233726   4.592   3.545   5.820 -0.2688  2.0743 -0.2316
 7365SOL     OW33727   4.017   2.601  12.551  0.2318 -0.6542  0.3823
 7365SOL    HW133728   4.023   2.677  12.609  2.9312 -0.5495 -0.0463
 7365SOL    HW233729   3.965   2.539  12.602 -1.4987 -0.5321 -1.2198
 7366SOL     OW33730   2.883   3.598   6.577 -0.3720 -0.3061  0.2011
 7366SOL    HW133731   2.835   3.668   6.621 -0.0605 -0.8519  1.4313
 7366SOL    HW233732   2.815   3.580   6.512 -1.6815  2.2373  0.8443
 7367SOL     OW33733   4.141   3.733  15.957  0.0731  0.7309  0.2295
 7367SOL    HW133734   4.215   3.787  15.931  0.1959  0.3083 -0.3080
 7367SOL    HW233735   4.184   3.648  15.971  2.0551  1.2288 -2.7576
 7368SOL     OW33736   3.529   3.772  13.764  0.1294  0.4882 -0.6401
 7368SOL    HW133737   3.611   3.774  13.715  0.2376  1.5526 -0.4138
 7368SOL    HW233738   3.461   3.764  13.698  0.6659 -2.0336 -0.9169
 7369SOL     OW33739   4.207   1.400   0.865  0.4918 -0.2609  0.1820
 7369SOL    HW133740   4.195   1.394   0.960 -0.6015  1.3666  0.1418
 7369SOL    HW233741   4.282   1.458   0.870  1.9204 -2.3640  2.9582
 7370SOL     OW33742   0.085   3.983   6.390 -0.2391  0.1824  0.0363
 7370SOL    HW133743   4.734   3.960   6.411 -0.6210  1.2489 -0.4597
 7370SOL    HW233744   0.138   3.907   6.416 -0.5362  0.2595  0.8655
 7371SOL     OW33745   0.537   4.287  10.053 -0.0162 -0.0609  0.0692
 7371SOL    HW133746   0.496   4.312  10.135 -1.1903 -1.0825 -0.2152
 7371SOL    HW233747   0.627   4.264  10.075  0.3774 -0.1808 -1.6355
 7372SOL     OW33748   0.518   3.295  10.930 -0.7084 -0.1595 -0.0903
 7372SOL    HW133749   0.442   3.320  10.983 -2.0527  1.8470 -2.9745
 7372SOL    HW233750   0.576   3.355  10.977  0.0178  0.5287 -1.8581
 7373SOL     OW33751   0.642   2.537   5.000 -0.9278 -0.5625 -0.5647
 7373SOL    HW133752   0.579   2.510   4.934 -1.1631  1.5526 -1.2236
 7373SOL    HW233753   0.613   2.476   5.068 -0.9296  0.5222  0.4119
 7374SOL     OW33754   0.226   3.142   7.045  0.3111 -1.0224  0.2599
 7374SOL    HW133755   0.175   3.223   7.047  1.1710 -0.5023  1.1080
 7374SOL    HW233756   0.148   3.093   7.022  0.0122  0.2806 -1.5386
 7375SOL     OW33757   3.335   0.522   5.593 -0.6764  0.0054  0.4338
 7375SOL    HW133758   3.358   0.440   5.549 -1.6105  0.4022 -0.7656
 7375SOL    HW233759   3.394   0.519   5.669  0.3837 -3.8800 -0.5629
 7376SOL     OW33760   1.637   1.858   8.737 -0.2316 -0.3398 -0.2613
 7376SOL    HW133761   1.631   1.766   8.760 -0.7928 -0.3854 -0.5922
 7376SOL    HW233762   1.635   1.850   8.642  1.6367  2.1593 -0.5242
 7377SOL     OW33763   2.471   2.807   6.541  0.4486 -0.1616  0.0212
 7377SOL    HW133764   2.462   2.784   6.633  0.0406 -1.9318 -0.4577
 7377SOL    HW233765   2.500   2.897   6.558  1.8784 -0.4124 -1.0942
 7378SOL     OW33766   4.069   0.576   7.380  0.1240  0.4769  0.0040
 7378SOL    HW133767   4.135   0.582   7.449  1.4979 -0.5599 -1.2325
 7378SOL    HW233768   4.124   0.564   7.303 -0.7970  0.9917 -0.7417
 7379SOL     OW33769   2.653   3.202   5.101 -0.0533 -0.1546  0.0932
 7379SOL    HW133770   2.693   3.141   5.163 -0.8704  1.4417  2.1896
 7379SOL    HW233771   2.728   3.213   5.042  0.0520  0.5081  0.3540
 7380SOL     OW33772   1.986   4.342  16.954 -0.2489 -0.1492 -0.4192
 7380SOL    HW133773   1.936   4.327  16.874 -1.1006  1.8305 -0.2582
 7380SOL    HW233774   2.008   4.250  16.967  0.0669 -0.0847 -0.4950
 7381SOL     OW33775   1.559   4.204   3.048  0.4321  0.2117  1.1001
 7381SOL    HW133776   1.525   4.130   2.996 -1.2382  1.9659 -0.3094
 7381SOL    HW233777   1.491   4.271   3.048 -0.7281 -0.9601  1.6152
 7382SOL     OW33778   1.917   3.982  10.342  0.3192  0.0969  0.0215
 7382SOL    HW133779   1.959   3.924  10.278  0.8382 -0.9787  1.3190
 7382SOL    HW233780   1.904   3.922  10.415 -0.5106 -1.6519 -1.5539
 7383SOL     OW33781   4.237   3.598   4.726 -0.0093  0.1573 -0.1028
 7383SOL    HW133782   4.279   3.659   4.786 -3.0474  1.6965  0.4670
 7383SOL    HW233783   4.263   3.631   4.640  1.2990  1.3183  0.7418
 7384SOL     OW33784   3.794   0.405   3.978 -0.2202 -0.0971  0.2376
 7384SOL    HW133785   3.761   0.459   4.050 -0.8252 -1.4340  0.9606
 7384SOL    HW233786   3.884   0.436   3.986 -0.8515  0.6649  4.5292
 7385SOL     OW33787   0.482   3.800   0.755  0.3180  0.2435  0.1814
 7385SOL    HW133788   0.503   3.771   0.667  1.5203  0.8278  0.2691
 7385SOL    HW233789   0.532   3.882   0.762 -0.9256  0.8816  1.6412
 7386SOL     OW33790   2.973   1.416   9.325 -0.0858  0.0807  0.1346
 7386SOL    HW133791   3.029   1.492   9.310  0.3812 -0.3071 -0.0888
 7386SOL    HW233792   3.012   1.389   9.408 -1.7981  1.0377  1.2441
 7387SOL     OW33793   4.095   4.550  11.839 -0.1293 -0.6067  0.1254
 7387SOL    HW133794   4.181   4.583  11.864 -0.3704 -0.1600  0.3494
 7387SOL    HW233795   4.105   4.456  11.851  0.9078 -0.1264  3.0259
 7388SOL     OW33796   0.671   4.556   6.957  0.6607  0.6677 -0.2426
 7388SOL    HW133797   0.706   4.592   6.876  0.0861  1.4913 -0.1280
 7388SOL    HW233798   0.697   4.620   7.024 -2.8777  0.8113  1.0076
 7389SOL     OW33799   1.751   0.008   5.255 -0.1039 -0.2116 -0.0918
 7389SOL    HW133800   1.823   0.029   5.315 -0.3120 -0.9898  0.4322
 7389SOL    HW233801   1.760   0.061   5.176 -0.6477  1.4323  0.9654
 7390SOL     OW33802   4.616   3.816  12.977 -0.3341 -0.3118  0.2402
 7390SOL    HW133803   4.653   3.877  12.913  0.3066 -0.5234  0.4142
 7390SOL    HW233804   4.675   3.745  12.955  0.1612  0.5231 -1.1073
 7391SOL     OW33805   1.345   4.516   8.299 -0.3452 -0.5153  0.0149
 7391SOL    HW133806   1.384   4.457   8.235  2.4650  1.4333 -0.1070
 7391SOL    HW233807   1.400   4.497   8.374  1.5584  1.4449 -0.8716
 7392SOL     OW33808   3.076   4.586   5.636 -0.2750  0.2549 -0.0017
 7392SOL    HW133809   3.124   4.524   5.581 -0.5113  0.9107 -0.9585
 7392SOL    HW233810   3.155   4.631   5.665  0.0045 -1.8058  2.3863
 7393SOL     OW33811   1.490   3.806   6.391 -0.0716  0.6304  0.0620
 7393SOL    HW133812   1.545   3.754   6.332  0.4556  0.7248  0.4730
 7393SOL    HW233813   1.403   3.797   6.352 -0.8361  0.0852  1.9339
 7394SOL     OW33814   4.291   4.053   2.064  0.0122 -0.6630  0.2701
 7394SOL    HW133815   4.258   4.012   2.144  0.6281  1.1002  1.4102
 7394SOL    HW233816   4.240   4.133   2.072 -1.1376 -1.2502 -1.2303
 7395SOL     OW33817   1.650   4.541  14.082  0.3953 -0.3856 -0.2737
 7395SOL    HW133818   1.651   4.485  14.159  0.2224  0.8854  0.6579
 7395SOL    HW233819   1.737   4.525  14.044  0.8497 -0.5091  0.8207
 7396SOL     OW33820   3.385   3.696  13.992 -0.0600  0.2079 -0.0955
 7396SOL    HW133821   3.452   3.739  13.939  1.8658 -1.2585  1.1501
 7396SOL    HW233822   3.315   3.760  13.982 -1.0347 -0.8422  0.0707
 7397SOL     OW33823   0.979   0.046   4.241 -0.3221  0.0221  0.2164
 7397SOL    HW133824   1.040   0.120   4.249  2.5724 -2.3385  0.0949
 7397SOL    HW233825   0.974   0.005   4.328  0.5048 -1.3227 -0.3776
 7398SOL     OW33826   1.541   0.239   4.700  0.0352 -0.3865  0.3344
 7398SOL    HW133827   1.515   0.317   4.750  1.9642 -0.0470  0.7915
 7398SOL    HW233828   1.498   0.172   4.753 -1.0388 -0.5475 -0.7379
 7399SOL     OW33829   0.052   2.541   7.391  0.2821 -0.0247 -0.5646
 7399SOL    HW133830   4.727   2.502   7.451 -0.9578 -0.8951 -2.4501
 7399SOL    HW233831   0.124   2.479   7.404 -1.2714 -1.8558 -0.6597
 7400SOL     OW33832   3.812   4.440   7.084 -0.0893  0.5415  0.3645
 7400SOL    HW133833   3.824   4.360   7.135  2.0057 -0.2124 -1.2899
 7400SOL    HW233834   3.864   4.410   7.010 -0.9916 -0.5811  0.1723
 7401SOL     OW33835   1.532   2.638   6.433  0.1874 -0.0175 -0.6283
 7401SOL    HW133836   1.607   2.672   6.384  1.4682 -1.3329  0.4066
 7401SOL    HW233837   1.481   2.607   6.358 -0.2096 -3.9747  1.2747
 7402SOL     OW33838   1.970   2.655   3.236 -0.2288  0.7458  0.5317
 7402SOL    HW133839   2.020   2.703   3.170  0.5020  0.0640  0.5843
 7402SOL    HW233840   1.879   2.659   3.206  0.1871 -1.0640 -0.9629
 7403SOL     OW33841   0.256   2.288   3.263  0.0228 -0.0742 -0.4369
 7403SOL    HW133842   0.242   2.382   3.274  0.9744  0.4131 -3.1652
 7403SOL    HW233843   0.224   2.269   3.175 -0.2334  4.3615 -1.2948
 7404SOL     OW33844   0.461   0.970   7.099 -0.6988  0.3859  0.4563
 7404SOL    HW133845   0.542   0.974   7.048 -1.3893  1.4404 -0.5645
 7404SOL    HW233846   0.486   0.904   7.164 -1.9066  0.9405  1.4816
 7405SOL     OW33847   0.766   3.331   5.822  0.2129 -0.1667  0.2485
 7405SOL    HW133848   0.741   3.254   5.770 -0.1128  0.3299 -0.3187
 7405SOL    HW233849   0.744   3.303   5.911 -1.2686  0.3061  0.0303
 7406SOL     OW33850   2.848   1.058   9.034 -0.4594 -0.6068 -0.3251
 7406SOL    HW133851   2.879   1.112   9.106  0.7140 -0.3235 -1.0549
 7406SOL    HW233852   2.816   0.981   9.082  0.7305 -1.7905 -1.4370
 7407SOL     OW33853   1.627   3.700   6.183 -0.2575 -0.3669 -0.1272
 7407SOL    HW133854   1.559   3.648   6.141 -0.7421  0.2112 -0.0556
 7407SOL    HW233855   1.691   3.636   6.215  0.2988  0.0118 -0.4758
 7408SOL     OW33856   3.204   2.030   9.011 -0.0112 -0.2625  1.1030
 7408SOL    HW133857   3.230   1.949   8.967  1.7510  1.7599 -1.5809
 7408SOL    HW233858   3.255   2.028   9.093  1.6618 -0.2881  0.0754
 7409SOL     OW33859   0.047   1.403   3.468 -0.1551  0.0101 -0.9540
 7409SOL    HW133860   0.007   1.489   3.476  1.5571  0.5636  1.9068
 7409SOL    HW233861   0.106   1.409   3.543 -0.5459 -2.1553 -0.4742
 7410SOL     OW33862   0.779   3.830   7.939 -0.3848  0.3147  0.0128
 7410SOL    HW133863   0.804   3.922   7.953  1.1999 -0.1019 -0.1086
 7410SOL    HW233864   0.757   3.810   8.029 -0.8590 -1.6820 -0.5590
 7411SOL     OW33865   2.879   3.414   2.186  0.6235  0.0522  0.2993
 7411SOL    HW133866   2.939   3.343   2.207  0.3896  0.0742  1.0497
 7411SOL    HW233867   2.928   3.495   2.201  1.1879 -0.0729 -0.8847
 7412SOL     OW33868   2.562   0.592   5.147 -0.6680  0.1402 -0.4667
 7412SOL    HW133869   2.529   0.554   5.065  0.6436 -1.4408 -0.2816
 7412SOL    HW233870   2.483   0.642   5.169 -1.1261 -0.1796 -1.3863
 7413SOL     OW33871   1.335   1.285   4.173  0.2748 -0.1474 -0.7890
 7413SOL    HW133872   1.315   1.272   4.266  2.9622  0.4887 -0.1352
 7413SOL    HW233873   1.409   1.228   4.152  1.8235  0.8486  2.0068
 7414SOL     OW33874   3.834   1.352   0.003 -0.0106  0.3900  0.3233
 7414SOL    HW133875   3.840   1.397  17.675 -1.8591  2.7990  1.4886
 7414SOL    HW233876   3.742   1.324   0.006  0.2206 -0.3428  0.7014
 7415SOL     OW33877   2.226   1.161   7.958  0.4696 -0.3707  0.4357
 7415SOL    HW133878   2.151   1.165   8.017  0.7107 -0.1827  0.7236
 7415SOL    HW233879   2.216   1.076   7.915  1.7082 -1.1049  1.6159
 7416SOL     OW33880   3.847   1.129  11.188 -0.4806  0.0576  0.8842
 7416SOL    HW133881   3.865   1.215  11.152 -0.1769 -1.2458 -2.0876
 7416SOL    HW233882   3.924   1.103  11.238 -1.3797 -0.4141  2.0438
 7417SOL     OW33883   1.006   3.573   6.805 -0.1671  0.0202  0.2377
 7417SOL    HW133884   1.038   3.657   6.775  0.7719 -0.6835 -0.7013
 7417SOL    HW233885   0.942   3.593   6.874 -0.4502  1.7252 -0.5188
 7418SOL     OW33886   0.389   2.217   4.159 -0.2138  0.3093  0.2063
 7418SOL    HW133887   0.325   2.266   4.212 -0.8758  0.5171 -0.7824
 7418SOL    HW233888   0.444   2.176   4.225 -1.4750 -0.8942  0.5165
 7419SOL     OW33889   1.137   3.470   7.882 -0.2353  0.3362  0.0501
 7419SOL    HW133890   1.093   3.449   7.800 -0.0655 -0.9074  0.2802
 7419SOL    HW233891   1.219   3.508   7.852 -1.1884  4.0884  2.1495
 7420SOL     OW33892   2.896   4.005   8.190 -0.3730  0.2915  0.6061
 7420SOL    HW133893   2.885   4.040   8.279 -0.0365 -0.6871  1.0245
 7420SOL    HW233894   2.895   3.910   8.201 -0.8522 -0.0207 -2.1519
 7421SOL     OW33895   0.701   2.371   6.041 -0.6585  0.1432  0.3835
 7421SOL    HW133896   0.758   2.386   6.116  3.1538 -0.2820 -2.4088
 7421SOL    HW233897   0.623   2.331   6.080 -1.0791 -1.1045 -1.7409
 7422SOL     OW33898   0.838   2.418   7.517  0.6313  0.1148  0.0779
 7422SOL    HW133899   0.775   2.480   7.554 -0.9127 -1.1866 -0.4036
 7422SOL    HW233900   0.870   2.370   7.593  0.7195 -1.3244 -0.8629
 7423SOL     OW33901   2.041   2.581  15.231  0.6147  0.1798 -0.4497
 7423SOL    HW133902   2.025   2.498  15.275  1.5842  1.1357  1.6992
 7423SOL    HW233903   2.072   2.631  15.306  1.2945 -0.2497 -0.4449
 7424SOL     OW33904   2.684   4.341   7.144 -0.4113  0.2597  0.4458
 7424SOL    HW133905   2.663   4.408   7.078  0.8167 -0.5536 -0.7687
 7424SOL    HW233906   2.763   4.391   7.165  0.6309 -1.6355  0.9894
 7425SOL     OW33907   2.194   0.178   3.098 -0.0278  0.0741 -0.1336
 7425SOL    HW133908   2.224   0.108   3.041 -0.0134 -1.2731  1.5330
 7425SOL    HW233909   2.106   0.196   3.066 -0.7866  0.5102  2.1774
 7426SOL     OW33910   2.623   3.185   4.187  0.1298  0.2086 -0.0828
 7426SOL    HW133911   2.650   3.246   4.256 -1.0236 -0.7104  1.1828
 7426SOL    HW233912   2.681   3.111   4.202 -1.2907 -1.2972 -1.9773
 7427SOL     OW33913   2.945   1.593   4.095 -0.5426  0.2450 -0.1152
 7427SOL    HW133914   2.918   1.599   4.003  0.0376 -0.1861 -0.3134
 7427SOL    HW233915   2.959   1.499   4.106 -1.2768  0.3345  1.5217
 7428SOL     OW33916   3.445   1.175   2.017  0.1106  0.1777 -0.0450
 7428SOL    HW133917   3.393   1.245   2.056  1.0489  0.9701 -0.2128
 7428SOL    HW233918   3.385   1.152   1.946 -0.3181  0.9465  0.0692
 7429SOL     OW33919   0.077   0.693   4.081  0.0779  0.5048 -0.2349
 7429SOL    HW133920   0.028   0.673   4.160 -2.0721  0.9640 -1.4464
 7429SOL    HW233921   0.036   0.772   4.046  0.6556  0.9928  0.2059
 7430SOL     OW33922   4.587   1.751  15.559  0.1322 -0.2859 -0.2244
 7430SOL    HW133923   4.492   1.751  15.553  0.0979 -3.7874  0.8016
 7430SOL    HW233924   4.605   1.836  15.517 -0.7854 -0.2780 -0.6015
 7431SOL     OW33925   1.763   4.258   3.230  0.1293  0.3237 -0.4202
 7431SOL    HW133926   1.747   4.326   3.165 -0.7929  1.9714  1.5082
 7431SOL    HW233927   1.726   4.185   3.180  0.8448 -0.5394  0.3043
 7432SOL     OW33928   0.734   0.607   2.248 -0.1817 -0.6952  0.0188
 7432SOL    HW133929   0.681   0.537   2.209  1.3295 -0.5150 -2.3351
 7432SOL    HW233930   0.820   0.568   2.234 -0.8205 -2.2430  0.3752
 7433SOL     OW33931   0.513   3.010   4.392 -0.3496  0.2644 -0.0528
 7433SOL    HW133932   0.607   3.025   4.393 -0.4357  1.1176 -2.2335
 7433SOL    HW233933   0.475   3.098   4.386  3.4141  1.8190 -1.0262
 7434SOL     OW33934   3.527   0.960  13.587 -0.0437 -0.4874 -0.4030
 7434SOL    HW133935   3.465   0.900  13.629  0.5920  1.2320  2.9611
 7434SOL    HW233936   3.475   1.010  13.524  0.3929  0.9870  0.3981
 7435SOL     OW33937   3.992   2.620   3.564 -0.7980  0.0253  0.4231
 7435SOL    HW133938   4.012   2.657   3.478  1.0959 -0.0177  0.8458
 7435SOL    HW233939   4.041   2.685   3.615 -1.2154  0.8002 -0.1637
 7436SOL     OW33940   1.480   1.783   7.497  0.6529 -0.3550  0.2403
 7436SOL    HW133941   1.520   1.862   7.461  0.9777 -0.0712  1.2065
 7436SOL    HW233942   1.542   1.716   7.469  1.0148  1.0953 -2.3475
 7437SOL     OW33943   1.787   3.283  12.050  0.0469 -0.1319  0.1085
 7437SOL    HW133944   1.825   3.318  12.131 -1.1598 -0.2503  0.7350
 7437SOL    HW233945   1.700   3.244  12.064 -1.1078  2.5031  0.3651
 7438SOL     OW33946   2.775   3.945   0.751  0.7921 -0.3911 -0.6492
 7438SOL    HW133947   2.725   3.932   0.831 -0.4597 -0.8952 -1.5260
 7438SOL    HW233948   2.720   4.002   0.697  0.4548  0.3812  0.5282
 7439SOL     OW33949   1.837   2.174   4.998 -0.0078 -0.2851 -0.4789
 7439SOL    HW133950   1.876   2.174   4.910 -1.1465 -1.4275 -0.9853
 7439SOL    HW233951   1.842   2.079   5.004  2.0346 -0.1597  0.0113
 7440SOL     OW33952   2.648   2.500   2.387  0.4237  0.4178 -1.1926
 7440SOL    HW133953   2.600   2.569   2.434 -2.5417 -1.1766 -1.9406
 7440SOL    HW233954   2.662   2.540   2.301  1.2597 -1.5064 -1.9422
 7441SOL     OW33955   0.347   1.683   3.268  0.2194  0.2848  0.0127
 7441SOL    HW133956   0.413   1.644   3.211  0.9932  2.0584 -0.2973
 7441SOL    HW233957   0.406   1.722   3.332  2.1691  1.0947 -2.2728
 7442SOL     OW33958   1.522   2.109   2.551 -0.5898 -0.6756 -0.1817
 7442SOL    HW133959   1.517   2.187   2.607  2.2155  0.6679 -1.8151
 7442SOL    HW233960   1.457   2.135   2.486 -0.7710  1.1746  0.7422
 7443SOL     OW33961   4.417   4.395   2.603  0.1257  0.2101  0.2058
 7443SOL    HW133962   4.332   4.437   2.592 -1.0968 -2.5800 -1.0840
 7443SOL    HW233963   4.467   4.466   2.643  2.6922 -0.8546 -1.0534
 7444SOL     OW33964   4.621   1.421   8.421  0.0327  0.4908  0.4504
 7444SOL    HW133965   4.693   1.411   8.483  1.0808  0.4113 -0.7778
 7444SOL    HW233966   4.645   1.356   8.354  1.5395  1.6117 -0.1095
 7445SOL     OW33967   3.756   2.538  10.984  0.0401  0.2270  0.3373
 7445SOL    HW133968   3.724   2.537  10.894  0.3797  0.7787  0.2080
 7445SOL    HW233969   3.817   2.611  10.988 -1.0456  1.3080 -2.6704
 7446SOL     OW33970   3.209   2.726   7.658 -0.1116  0.6430  0.0855
 7446SOL    HW133971   3.282   2.664   7.651  0.3128  1.1207  0.3009
 7446SOL    HW233972   3.200   2.745   7.564 -1.6424 -0.7266 -0.0381
 7447SOL     OW33973   3.127   3.876  12.271  0.5320 -0.1222  0.6476
 7447SOL    HW133974   3.207   3.920  12.244  0.2912  0.0561  0.2205
 7447SOL    HW233975   3.106   3.820  12.196  1.9723  0.1293  0.0585
 7448SOL     OW33976   2.721   1.078  11.275 -0.4115 -0.1725  0.1959
 7448SOL    HW133977   2.639   1.028  11.270 -1.0359  0.9042 -0.2958
 7448SOL    HW233978   2.764   1.042  11.198 -0.4792 -1.0719  0.5758
 7449SOL     OW33979   4.683   1.623   1.031 -0.1382 -0.0016  0.1868
 7449SOL    HW133980   4.693   1.658   0.942  1.9220  0.4753  0.6047
 7449SOL    HW233981   0.033   1.616   1.065 -0.3356 -1.0836  0.4798
 7450SOL     OW33982   1.976   1.629   4.209 -0.5155  0.3406 -0.4115
 7450SOL    HW133983   1.929   1.702   4.168 -0.4465 -0.6926 -2.3281
 7450SOL    HW233984   2.055   1.620   4.156  0.6281  2.4831  0.9482
 7451SOL     OW33985   1.034   4.260   0.634 -0.4119  0.4919 -0.0360
 7451SOL    HW133986   1.000   4.182   0.591  0.2247 -0.9449  2.0384
 7451SOL    HW233987   1.088   4.228   0.706 -3.0656 -0.3712  1.5955
 7452SOL     OW33988   2.499   1.273   5.123 -0.5456 -0.0999 -0.2358
 7452SOL    HW133989   2.571   1.320   5.082  1.1268  0.7462  3.6668
 7452SOL    HW233990   2.525   1.275   5.215 -1.0164  0.4922 -0.1180
 7453SOL     OW33991   0.937   4.419   0.860  0.1967 -0.6460 -0.5356
 7453SOL    HW133992   0.877   4.460   0.923 -0.4874  0.3861 -1.8679
 7453SOL    HW233993   0.992   4.360   0.912  0.9369  0.6708  0.1631
 7454SOL     OW33994   4.314   1.783   5.455  0.5727 -0.1460  0.0972
 7454SOL    HW133995   4.276   1.868   5.433  0.9777  0.2509  0.9263
 7454SOL    HW233996   4.305   1.784   5.550  1.0068  1.4590  0.1248
 7455SOL     OW33997   3.705   0.327   5.471 -0.2340  0.4596 -0.7391
 7455SOL    HW133998   3.789   0.299   5.506  0.2007  0.7593 -1.5474
 7455SOL    HW233999   3.727   0.326   5.378 -1.1538 -0.7742 -0.9492
 7456SOL     OW34000   3.303   0.027   1.298 -0.7862  0.0319 -0.0575
 7456SOL    HW134001   3.266   0.002   1.213  0.6569  0.0412 -0.6961
 7456SOL    HW234002   3.226   0.069   1.336 -0.5877  0.7623 -0.4551
 7457SOL     OW34003   0.690   0.213   8.637 -0.4464 -0.3258 -0.0839
 7457SOL    HW134004   0.783   0.193   8.641 -0.4389 -0.1390  0.5149
 7457SOL    HW234005   0.656   0.128   8.607 -2.9791  0.0300  1.7502
 7458SOL     OW34006   4.737   1.003   4.016  0.2655  0.1052 -0.3017
 7458SOL    HW134007   0.021   1.086   4.056 -2.8785  0.7331  0.2734
 7458SOL    HW234008   0.045   0.995   3.933  1.7727 -1.5184  0.7312
 7459SOL     OW34009   4.002   4.461  17.457  0.2090 -0.5563 -0.1689
 7459SOL    HW134010   4.087   4.474  17.414 -0.2685 -1.3802 -1.3465
 7459SOL    HW234011   3.950   4.437  17.381 -0.9368  1.2537  0.0431
 7460SOL     OW34012   2.693   2.796   4.014  0.6779  0.4410  0.2061
 7460SOL    HW134013   2.779   2.826   4.043  2.4475 -2.6412 -1.8441
 7460SOL    HW234014   2.689   2.710   4.057 -0.9671  0.4252  0.0005
 7461SOL     OW34015   0.666   1.768   3.997 -0.4547  0.3016  0.7064
 7461SOL    HW134016   0.641   1.859   4.012 -0.2869  0.7152 -1.6026
 7461SOL    HW234017   0.583   1.729   4.026 -0.9176 -0.3329 -1.5316
 7462SOL     OW34018   1.983   2.457  14.763  0.0074  0.1038 -0.0471
 7462SOL    HW134019   1.941   2.430  14.845 -2.3340  1.5446 -0.8006
 7462SOL    HW234020   1.918   2.422  14.703 -1.2737  0.6952  0.9912
 7463SOL     OW34021   2.443   3.720  10.399  0.6567 -0.3543 -0.3710
 7463SOL    HW134022   2.445   3.812  10.424 -2.0703 -0.6586  0.9630
 7463SOL    HW234023   2.511   3.686  10.457  0.1072 -1.2593 -0.2522
 7464SOL     OW34024   1.618   2.430   4.391 -0.4362  0.0916  0.9980
 7464SOL    HW134025   1.608   2.335   4.382 -0.6558  0.3398 -1.5305
 7464SOL    HW234026   1.543   2.442   4.449 -0.4588  1.4376  0.6796
 7465SOL     OW34027   1.797   4.126   4.913 -0.4373 -0.3512 -0.2780
 7465SOL    HW134028   1.853   4.109   4.837  0.3921 -1.1577  0.5104
 7465SOL    HW234029   1.730   4.061   4.893  1.1781 -1.5383 -1.8186
 7466SOL     OW34030   4.373   0.426   0.680 -0.3478  1.0474 -0.3347
 7466SOL    HW134031   4.295   0.434   0.625 -0.1036 -0.7969 -0.9567
 7466SOL    HW234032   4.408   0.514   0.672  1.4140  0.6033  2.6289
 7467SOL     OW34033   0.674   3.536   4.758 -0.1267  0.3341 -0.0409
 7467SOL    HW134034   0.698   3.600   4.824 -0.9139 -0.5975  1.1374
 7467SOL    HW234035   0.611   3.579   4.700 -1.2663 -0.4129  0.6390
 7468SOL     OW34036   4.432   0.807  14.716  0.3247  0.0506 -0.1255
 7468SOL    HW134037   4.391   0.761  14.789  0.4893 -1.8063 -1.1980
 7468SOL    HW234038   4.356   0.852  14.678  0.8357  0.5413 -0.5578
 7469SOL     OW34039   0.711   0.262   7.107  0.2594  0.3506  0.3176
 7469SOL    HW134040   0.805   0.282   7.102  0.6462 -1.3497  0.9756
 7469SOL    HW234041   0.723   0.170   7.129  0.8324 -0.1202 -1.9576
 7470SOL     OW34042   0.662   4.216   6.246  0.2253  0.4746  0.3085
 7470SOL    HW134043   0.690   4.179   6.162 -1.9684  1.0611 -0.6877
 7470SOL    HW234044   0.570   4.189   6.244  1.7247 -4.4777 -1.6549
 7471SOL     OW34045   1.049   3.519   6.026  0.1762 -0.5608 -0.3073
 7471SOL    HW134046   1.106   3.544   5.953  0.1393 -0.4838 -0.3093
 7471SOL    HW234047   0.976   3.580   6.016 -1.4506 -2.4067  0.0267
 7472SOL     OW34048   4.424   2.312   2.701  0.6962 -0.3607  0.1284
 7472SOL    HW134049   4.474   2.314   2.619 -2.1999  2.7620 -1.5678
 7472SOL    HW234050   4.408   2.406   2.701 -0.3559 -0.5420 -2.0469
 7473SOL     OW34051   1.992   1.718  13.522 -0.3107 -0.2534 -0.3630
 7473SOL    HW134052   1.978   1.662  13.599 -1.4076  0.4949 -0.0161
 7473SOL    HW234053   2.029   1.795  13.564 -0.1456 -0.7907  0.4972
 7474SOL     OW34054   3.020   1.745   3.882  0.3546  0.0978 -0.2112
 7474SOL    HW134055   3.064   1.812   3.933  1.1503 -0.1967 -0.5179
 7474SOL    HW234056   2.939   1.790   3.858 -0.0861 -0.1062  0.9268
 7475SOL     OW34057   0.003   3.256   6.199 -0.2156  0.1465  0.2180
 7475SOL    HW134058   4.710   3.172   6.229 -1.7906  0.5850 -0.2525
 7475SOL    HW234059   0.013   3.289   6.288  0.4773  0.4373  0.0398
 7476SOL     OW34060   3.950   3.214   7.352 -0.2918  0.7498 -0.4256
 7476SOL    HW134061   4.013   3.198   7.423 -0.3337  0.2146 -0.5037
 7476SOL    HW234062   3.954   3.307   7.333  0.7495  0.5607 -1.0906
 7477SOL     OW34063   1.278   2.600   4.930 -0.2500 -0.1121 -0.1121
 7477SOL    HW134064   1.219   2.527   4.912 -1.2870  0.7785 -0.2804
 7477SOL    HW234065   1.369   2.569   4.928  0.3326  1.5854  0.7350
 7478SOL     OW34066   1.776   1.817   4.481  0.1101  0.0208  0.1475
 7478SOL    HW134067   1.844   1.757   4.510 -0.3589 -0.7776 -0.4286
 7478SOL    HW234068   1.829   1.876   4.426 -0.4396  0.3485 -0.0352
 7479SOL     OW34069   0.806   3.669   2.030 -0.1921  0.1082 -0.3290
 7479SOL    HW134070   0.784   3.710   2.114 -0.7354 -0.1609 -0.3392
 7479SOL    HW234071   0.760   3.731   1.974 -0.4104  1.3238  1.1884
 7480SOL     OW34072   1.040   0.308  16.053  0.5923  0.2110 -0.0572
 7480SOL    HW134073   1.100   0.306  15.979 -0.2635  0.7786 -0.7654
 7480SOL    HW234074   1.111   0.321  16.115  1.8551 -3.1305 -0.8319
 7481SOL     OW34075   3.047   4.174  10.843  0.3813 -0.0104  1.0135
 7481SOL    HW134076   3.141   4.158  10.833  0.4925  0.9170  0.5475
 7481SOL    HW234077   3.048   4.230  10.921 -0.1485 -0.5980  1.4416
 7482SOL     OW34078   2.791   4.540  12.486 -0.0963 -0.3830 -0.6945
 7482SOL    HW134079   2.708   4.498  12.466 -0.2021 -0.3634 -0.2937
 7482SOL    HW234080   2.760   4.610  12.543  0.1022 -0.2452 -0.7575
 7483SOL     OW34081   0.915   3.112   9.104 -0.4288  0.1779 -0.3366
 7483SOL    HW134082   1.003   3.077   9.092 -0.0110  0.8980  0.6238
 7483SOL    HW234083   0.864   3.035   9.130 -0.5005  0.2771 -0.1857
 7484SOL     OW34084   0.125   4.687   9.320  0.2531  0.3306 -0.4232
 7484SOL    HW134085   0.162   4.602   9.294  1.0035 -0.0621  1.9752
 7484SOL    HW234086   0.159   0.006   9.252 -0.0924 -0.2040 -1.0581
 7485SOL     OW34087   1.202   0.818   2.567  0.0630 -0.3238  0.0673
 7485SOL    HW134088   1.153   0.742   2.537 -1.0617  0.9619 -1.3540
 7485SOL    HW234089   1.148   0.842   2.643 -1.0534 -1.2526 -0.4372
 7486SOL     OW34090   3.497   1.280   7.012 -0.5360  0.2142  0.4545
 7486SOL    HW134091   3.527   1.292   7.102 -2.8206 -1.3931  1.4182
 7486SOL    HW234092   3.500   1.185   6.998 -0.0574  0.4704 -1.1920
 7487SOL     OW34093   2.975   4.050  10.345  0.2990 -0.3061  0.0445
 7487SOL    HW134094   2.984   4.133  10.393 -0.0649  0.2870 -0.9175
 7487SOL    HW234095   2.907   4.017  10.404  0.2715 -0.7928 -0.2639
 7488SOL     OW34096   2.420   2.363   2.976  0.2364 -0.4797  0.4006
 7488SOL    HW134097   2.482   2.291   2.958  0.5762  0.1856 -1.1123
 7488SOL    HW234098   2.408   2.395   2.887 -3.3267 -0.5286  0.8788
 7489SOL     OW34099   1.778   3.057   4.370 -0.3832  0.1456  0.5022
 7489SOL    HW134100   1.865   3.019   4.361 -0.1016  0.5879  1.3624
 7489SOL    HW234101   1.758   3.025   4.458 -0.8172 -1.1675 -0.0770
 7490SOL     OW34102   3.351   3.329  11.844  0.7318 -0.1869  0.0777
 7490SOL    HW134103   3.430   3.380  11.861 -1.1061  2.6053  0.1448
 7490SOL    HW234104   3.357   3.297  11.754 -0.6246 -0.6164  0.1376
 7491SOL     OW34105   2.564   4.414  16.303  0.1555 -0.1211 -0.1354
 7491SOL    HW134106   2.584   4.507  16.289  0.2649 -0.2563 -0.9275
 7491SOL    HW234107   2.638   4.385  16.356  1.1881  1.0814 -0.9207
 7492SOL     OW34108   3.530   4.732   9.153  0.7936 -0.2760  0.0747
 7492SOL    HW134109   3.526   0.023   9.243 -1.9583 -2.3499  0.6512
 7492SOL    HW234110   3.606   0.043   9.124  0.3254  0.3421 -0.0669
 7493SOL     OW34111   0.633   3.129   8.741  0.2243 -0.3597  0.0590
 7493SOL    HW134112   0.619   3.069   8.814  0.8969 -1.5872 -0.8136
 7493SOL    HW234113   0.679   3.060   8.692 -1.3511 -0.5253 -1.1594
 7494SOL     OW34114   3.597   2.871   5.791 -0.1247 -0.0160 -0.2737
 7494SOL    HW134115   3.644   2.795   5.755  2.2482  0.9619  0.6992
 7494SOL    HW234116   3.503   2.862   5.783 -0.3088  0.4160  1.2638
 7495SOL     OW34117   2.722   2.000   5.164 -0.7856  0.2905 -0.2906
 7495SOL    HW134118   2.657   1.973   5.229 -0.7706 -0.8931 -0.7722
 7495SOL    HW234119   2.662   2.024   5.094 -1.5910 -0.2728  0.2104
 7496SOL     OW34120   3.340   3.301   2.160  0.3223  0.3343  0.2130
 7496SOL    HW134121   3.391   3.377   2.190  2.7481 -1.7753  1.4109
 7496SOL    HW234122   3.267   3.310   2.222  0.9122 -0.1128  0.9746
 7497SOL     OW34123   3.609   4.702   6.158 -0.0043  0.7200 -0.0414
 7497SOL    HW134124   3.667   0.039   6.167  0.9170 -0.1772  1.7113
 7497SOL    HW234125   3.533   4.736   6.111 -0.4103  0.1836  0.2376
 7498SOL     OW34126   3.834   4.244   2.106 -0.7693  0.6452  0.4805
 7498SOL    HW134127   3.890   4.321   2.098 -0.3720  0.1579 -1.5705
 7498SOL    HW234128   3.752   4.284   2.133  0.1552  1.3518  2.2204
 7499SOL     OW34129   0.332   1.083   2.839  0.1915 -0.1932 -0.2763
 7499SOL    HW134130   0.347   0.989   2.838 -0.4781 -0.2941 -0.9247
 7499SOL    HW234131   0.414   1.115   2.878  0.4025  0.5848 -1.3632
 7500SOL     OW34132   3.692   3.170   3.328 -0.2281  0.1776 -0.4322
 7500SOL    HW134133   3.660   3.248   3.283 -1.3180  1.2774  2.2971
 7500SOL    HW234134   3.783   3.166   3.298 -0.0579  0.1142  0.0943
 7501SOL     OW34135   4.036   3.995   9.216  0.3121  0.6705  0.0188
 7501SOL    HW134136   4.022   3.904   9.242  2.6245  0.4599  0.5010
 7501SOL    HW234137   4.112   3.980   9.160  0.3648  2.8538 -0.4983
 7502SOL     OW34138   4.738   0.246   1.001 -0.2596  0.1065  0.2920
 7502SOL    HW134139   0.057   0.201   0.940  0.6006  1.0286  0.4265
 7502SOL    HW234140   4.671   0.281   0.943 -0.3603  0.8215  0.8393
 7503SOL     OW34141   3.847   1.866  14.748 -0.0145  0.3627 -0.2851
 7503SOL    HW134142   3.845   1.859  14.843  0.8456  1.7460 -0.1571
 7503SOL    HW234143   3.914   1.934  14.754 -0.1216  0.4101  0.3107
 7504SOL     OW34144   1.818   4.221   0.881 -0.3035 -0.0707 -0.3149
 7504SOL    HW134145   1.730   4.190   0.903  0.1564 -0.9937  0.2539
 7504SOL    HW234146   1.851   4.172   0.956 -0.1742  1.7306  0.8159
 7505SOL     OW34147   0.409   2.580  13.609 -0.4903  0.1744  0.0357
 7505SOL    HW134148   0.353   2.504  13.630  0.6609 -1.1582 -1.6793
 7505SOL    HW234149   0.415   2.570  13.514 -0.0255 -0.8575  0.1766
 7506SOL     OW34150   4.637   2.406   5.643  0.4246  0.1066 -0.3357
 7506SOL    HW134151   4.655   2.323   5.599  0.0742 -0.6682  0.9602
 7506SOL    HW234152   4.542   2.397   5.656  0.4732 -0.8341 -0.6336
 7507SOL     OW34153   0.654   1.030   3.208  0.4439  0.8017 -0.0340
 7507SOL    HW134154   0.700   1.041   3.291  1.1332 -1.4473 -0.1150
 7507SOL    HW234155   0.716   0.977   3.157 -1.6759 -0.0473 -1.7288
 7508SOL     OW34156   4.158   0.608  16.718  0.3358 -0.1629  0.0073
 7508SOL    HW134157   4.232   0.584  16.774  0.8045  2.3018  0.4252
 7508SOL    HW234158   4.184   0.560  16.639 -0.6462 -0.7285  0.0196
 7509SOL     OW34159   0.126   4.136   0.389 -0.7962 -0.2926  0.1550
 7509SOL    HW134160   0.056   4.168   0.332 -0.4168 -0.6309 -0.5012
 7509SOL    HW234161   0.196   4.120   0.326 -0.5099 -0.1819  0.4430
 7510SOL     OW34162   0.340   3.523   4.641 -0.0837 -0.2777  0.7183
 7510SOL    HW134163   0.306   3.444   4.600  0.2207 -0.0119 -0.0504
 7510SOL    HW234164   0.314   3.585   4.572 -2.9169 -2.8088 -0.4793
 7511SOL     OW34165   1.249   2.147   5.782 -0.6077  0.3951 -0.1714
 7511SOL    HW134166   1.238   2.141   5.687 -1.8215 -3.2807  0.1987
 7511SOL    HW234167   1.172   2.098   5.812  1.1033 -2.7256 -0.9139
 7512SOL     OW34168   1.130   2.035  16.657 -0.0147 -0.8863  0.0407
 7512SOL    HW134169   1.077   2.057  16.734  0.0710 -0.4849 -0.0164
 7512SOL    HW234170   1.139   2.120  16.614  0.8189 -1.0842 -0.1916
 7513SOL     OW34171   1.102   3.051   3.070 -0.0504 -0.3677 -0.0967
 7513SOL    HW134172   1.012   3.081   3.068  0.1371  0.1508 -1.2024
 7513SOL    HW234173   1.086   2.970   3.118 -0.7193 -0.8381 -1.1335
 7514SOL     OW34174   3.410   1.935   6.596  0.1734 -0.4249  1.0187
 7514SOL    HW134175   3.402   1.951   6.690 -0.3925  1.2594  0.6918
 7514SOL    HW234176   3.316   1.923   6.581  0.3819 -1.8733  0.8905
 7515SOL     OW34177   2.048   4.007  16.161 -0.5544 -0.6795 -0.1565
 7515SOL    HW134178   2.078   3.946  16.094  2.0981 -0.3122  0.6806
 7515SOL    HW234179   2.058   4.095  16.125  0.0029 -0.1185  1.3567
 7516SOL     OW34180   3.613   1.336   2.304 -0.2883 -0.4599  0.2033
 7516SOL    HW134181   3.586   1.245   2.310 -2.6893  0.2419  0.2404
 7516SOL    HW234182   3.621   1.363   2.396 -1.2184  0.5302 -0.0016
 7517SOL     OW34183   3.670   1.994  15.961 -0.0399  0.1050  0.1284
 7517SOL    HW134184   3.618   1.978  16.040  0.1624  0.6348  0.3742
 7517SOL    HW234185   3.758   1.992  16.000 -0.2636 -2.2414  0.4776
 7518SOL     OW34186   1.343   0.504  10.462 -0.4440 -0.0515 -0.0702
 7518SOL    HW134187   1.381   0.592  10.458 -1.3154  0.3478  0.5604
 7518SOL    HW234188   1.282   0.515  10.390  1.3547 -0.6279 -1.6903
 7519SOL     OW34189   3.093   0.053   6.222 -0.0736 -0.3748 -0.4894
 7519SOL    HW134190   3.168   0.100   6.258  0.9445 -0.5855 -2.3620
 7519SOL    HW234191   3.090   4.715   6.278  0.6239  0.7528  1.1129
 7520SOL     OW34192   1.289   4.374   7.049 -0.1181 -0.0309 -0.0631
 7520SOL    HW134193   1.263   4.376   6.957  1.7279  1.1313 -0.5508
 7520SOL    HW234194   1.303   4.468   7.060 -0.2517  0.0817 -0.8988
 7521SOL     OW34195   0.609   2.694   8.816 -0.8251 -0.2675  0.1039
 7521SOL    HW134196   0.696   2.658   8.800 -0.3761 -0.3348  2.6854
 7521SOL    HW234197   0.639   2.776   8.855 -1.1442 -0.5849  1.0201
 7522SOL     OW34198   3.085   2.354   0.360  0.4697  0.5328  0.8443
 7522SOL    HW134199   3.153   2.311   0.309  0.0917  0.7528  0.1590
 7522SOL    HW234200   3.141   2.392   0.427 -0.5396  0.9333  1.4709
 7523SOL     OW34201   4.180   4.208  15.616  0.3207  0.2093  0.3199
 7523SOL    HW134202   4.114   4.266  15.577 -0.0390 -1.3688 -1.4055
 7523SOL    HW234203   4.188   4.141  15.548 -0.7054  0.9760 -0.5528
 7524SOL     OW34204   0.580   3.560   3.659  0.1622 -0.0252 -0.0574
 7524SOL    HW134205   0.672   3.540   3.679 -0.3066 -0.7200  1.4174
 7524SOL    HW234206   0.539   3.486   3.703  1.4906 -1.3588 -1.0703
 7525SOL     OW34207   4.069   0.281   7.750 -0.1376  0.0076  0.1641
 7525SOL    HW134208   4.034   0.327   7.826 -0.2878  1.0375 -0.5272
 7525SOL    HW234209   4.102   0.352   7.694 -0.4039 -1.3263 -1.6675
 7526SOL     OW34210   2.847   2.756   1.517  0.1844 -0.3819  0.1006
 7526SOL    HW134211   2.934   2.720   1.498  0.7599  0.5887  0.8529
 7526SOL    HW234212   2.793   2.682   1.491 -1.9699  0.8536  1.1092
 7527SOL     OW34213   3.607   1.788  14.667  0.8435 -0.3420 -0.0835
 7527SOL    HW134214   3.631   1.769  14.577  2.0163  1.8899 -0.2527
 7527SOL    HW234215   3.691   1.823  14.697  1.0067  1.7124 -2.9291
 7528SOL     OW34216   0.618   1.822   4.378  0.0409  0.3177 -0.3559
 7528SOL    HW134217   0.650   1.900   4.333 -0.7325  0.4103 -0.7434
 7528SOL    HW234218   0.673   1.755   4.339 -0.5268  0.2607 -1.0519
 7529SOL     OW34219   0.866   1.912   8.263 -0.3309  0.3934  0.0290
 7529SOL    HW134220   0.908   1.996   8.247 -2.5243  1.6983  1.1196
 7529SOL    HW234221   0.838   1.932   8.353  0.0714 -0.8500  0.4303
 7530SOL     OW34222   2.679   2.694   6.399 -0.2996  0.8049  0.2976
 7530SOL    HW134223   2.600   2.733   6.437  0.4000  1.6196  0.9083
 7530SOL    HW234224   2.751   2.756   6.410  0.9083 -0.5815  0.0966
 7531SOL     OW34225   1.900   2.585   8.378  0.8101 -0.2277 -0.1406
 7531SOL    HW134226   1.835   2.596   8.308  1.1911  1.4531 -0.2305
 7531SOL    HW234227   1.836   2.547   8.438  0.4655 -4.0725 -2.8893
 7532SOL     OW34228   3.621   2.219   2.505  0.0012  0.0923 -0.1465
 7532SOL    HW134229   3.620   2.129   2.472 -0.3969 -0.4917  1.4608
 7532SOL    HW234230   3.525   2.225   2.502 -0.0019  0.0222 -0.1937
 7533SOL     OW34231   2.084   4.553   4.200 -0.0431  0.4470  0.1113
 7533SOL    HW134232   2.071   4.606   4.122  1.4112 -0.2997 -0.6327
 7533SOL    HW234233   2.013   4.490   4.192 -0.0343  0.2305  1.8217
 7534SOL     OW34234   0.668   4.602  17.646  0.2684  0.0060  0.1147
 7534SOL    HW134235   0.683   4.695  17.665 -1.4298  1.1074 -3.9491
 7534SOL    HW234236   0.691   4.593  17.554 -0.2268  0.8388 -0.0891
 7535SOL     OW34237   0.193   4.481   3.392  0.7048 -0.2341 -0.2515
 7535SOL    HW134238   0.211   4.524   3.476 -0.0993 -0.1105 -0.1386
 7535SOL    HW234239   0.110   4.519   3.364  0.3521 -1.4697 -0.9038
 7536SOL     OW34240   0.677   0.362  16.184  0.2046  0.2140 -0.3083
 7536SOL    HW134241   0.691   0.452  16.154 -1.3306  0.6891  0.3972
 7536SOL    HW234242   0.626   0.381  16.263  4.1284  1.3219  1.9974
 7537SOL     OW34243   0.753   1.915   3.629  0.1124 -0.1893  0.1031
 7537SOL    HW134244   0.674   1.928   3.682  0.4743 -0.4993  0.7242
 7537SOL    HW234245   0.739   1.945   3.540 -1.9009 -1.8560 -0.1512
 7538SOL     OW34246   2.208   2.401   7.336  0.1327 -0.5234 -0.6239
 7538SOL    HW134247   2.127   2.433   7.297  0.7300 -0.8601 -2.1155
 7538SOL    HW234248   2.162   2.361   7.411  0.4415  1.5640  0.6734
 7539SOL     OW34249   3.956   3.562   4.570  0.4953 -0.1432 -0.5234
 7539SOL    HW134250   3.957   3.617   4.648 -3.0267 -0.0619 -0.5664
 7539SOL    HW234251   3.920   3.621   4.504  0.9119 -3.3516 -3.5774
 7540SOL     OW34252   0.322   0.452  14.116  0.8426  0.2675 -0.1699
 7540SOL    HW134253   0.265   0.529  14.125 -0.0928 -0.7116  2.2484
 7540SOL    HW234254   0.261   0.390  14.075 -0.2032 -0.0664  1.8869
 7541SOL     OW34255   0.729   4.647   5.002 -0.2864  0.2572 -0.1658
 7541SOL    HW134256   0.692   4.663   4.915 -1.3956 -2.8921 -0.2729
 7541SOL    HW234257   0.787   4.723   5.007 -0.7810  0.5836  0.5552
 7542SOL     OW34258   2.092   3.240  11.566 -0.1112 -0.0237  0.0136
 7542SOL    HW134259   2.169   3.284  11.600 -0.0971  2.3255 -3.0548
 7542SOL    HW234260   2.077   3.186  11.644  1.8680 -0.5002  0.0516
 7543SOL     OW34261   3.140   2.714   7.927  0.0244 -0.3843  0.3400
 7543SOL    HW134262   3.100   2.627   7.938  2.3592 -1.7486 -1.7253
 7543SOL    HW234263   3.158   2.716   7.833  1.4512  0.3990  0.6278
 7544SOL     OW34264   0.753   1.317   8.834 -1.4942  0.0113 -0.1636
 7544SOL    HW134265   0.695   1.252   8.872 -0.8931  0.4052  1.4367
 7544SOL    HW234266   0.834   1.275   8.862 -1.7722  0.2071  0.9363
 7545SOL     OW34267   1.491   4.205   9.503  0.2948 -0.3535 -0.7644
 7545SOL    HW134268   1.536   4.221   9.420  0.5767 -0.8732 -0.7157
 7545SOL    HW234269   1.412   4.165   9.467  1.4320 -3.1884 -0.1162
 7546SOL     OW34270   0.226   4.297  15.325  0.5128 -0.0828  0.0057
 7546SOL    HW134271   0.251   4.325  15.414 -0.2224 -2.2125  0.8789
 7546SOL    HW234272   0.154   4.354  15.301  0.7448  0.3566  0.3409
 7547SOL     OW34273   0.576   4.318  17.433  0.2103  0.0386  0.0289
 7547SOL    HW134274   0.600   4.410  17.431 -0.3615  0.1825 -0.2609
 7547SOL    HW234275   0.656   4.267  17.445 -0.2583 -0.8112 -0.4368
 7548SOL     OW34276   4.410   1.428  14.780 -0.5095 -0.1402  0.1010
 7548SOL    HW134277   4.340   1.391  14.727 -1.6443 -0.0867  1.5779
 7548SOL    HW234278   4.398   1.371  14.856 -0.7442 -0.6738 -0.3392
 7549SOL     OW34279   1.591   0.670  14.228  0.3165 -0.2819  0.2445
 7549SOL    HW134280   1.501   0.700  14.238  0.3524 -0.0998 -0.0082
 7549SOL    HW234281   1.641   0.735  14.277 -2.0380  0.9713  0.9563
 7550SOL     OW34282   0.351   2.312   6.877  0.1426 -0.0769 -0.3395
 7550SOL    HW134283   0.366   2.399   6.915 -1.3590 -0.2330  0.6256
 7550SOL    HW234284   0.412   2.253   6.920 -0.4414 -2.0952 -2.2772
 7551SOL     OW34285   1.878   3.112  11.063 -0.4422  0.3168  0.2707
 7551SOL    HW134286   1.873   3.047  11.133  0.4121 -2.4608 -2.2937
 7551SOL    HW234287   1.956   3.083  11.018  0.1723  1.2960  0.6918
 7552SOL     OW34288   2.420   4.382   7.634 -0.5170 -0.1370 -0.4775
 7552SOL    HW134289   2.401   4.465   7.590  2.0119  1.1566  0.9008
 7552SOL    HW234290   2.371   4.385   7.716  1.5898 -1.4840  0.7979
 7553SOL     OW34291   2.125   3.872   7.100  0.1120  0.0955 -0.2928
 7553SOL    HW134292   2.179   3.808   7.055 -3.4129 -2.4003 -0.8707
 7553SOL    HW234293   2.180   3.882   7.179 -0.0609 -0.0751 -0.1508
 7554SOL     OW34294   3.615   1.928   9.713 -0.2779 -0.1087 -0.2652
 7554SOL    HW134295   3.630   2.022   9.723  2.9831 -0.6073 -0.3009
 7554SOL    HW234296   3.540   1.919   9.772  0.2880 -0.1652  0.4601
 7555SOL     OW34297   3.259   4.496   7.151 -0.4315  0.7798 -0.1902
 7555SOL    HW134298   3.253   4.535   7.063 -2.8485 -0.5619 -0.6191
 7555SOL    HW234299   3.188   4.434   7.163 -0.1809  0.6781  0.8021
 7556SOL     OW34300   1.300   4.436   5.850  0.6490  0.1020  0.3325
 7556SOL    HW134301   1.378   4.394   5.814  0.8808  1.3121 -0.5589
 7556SOL    HW234302   1.251   4.360   5.880 -1.2019  1.9102  1.9357
 7557SOL     OW34303   2.219   2.702   6.173  0.0468 -0.2539  0.0403
 7557SOL    HW134304   2.210   2.652   6.254 -1.3554  1.2949  0.8252
 7557SOL    HW234305   2.154   2.771   6.186  1.2779  0.7791  0.7240
 7558SOL     OW34306   1.974   1.234   5.511  0.2251 -0.6307  0.1907
 7558SOL    HW134307   1.935   1.153   5.544 -0.4040  0.1124  1.3008
 7558SOL    HW234308   1.966   1.217   5.418 -0.9001  0.0668  0.1530
 7559SOL     OW34309   3.726   2.620   5.791  0.0011  0.1839  0.1872
 7559SOL    HW134310   3.752   2.597   5.880 -1.6051 -1.1148  0.3110
 7559SOL    HW234311   3.741   2.535   5.750 -0.6455  0.4221 -0.5580
 7560SOL     OW34312   4.483   1.064   1.886 -0.3248 -0.0310 -1.0515
 7560SOL    HW134313   4.520   1.117   1.816  1.7223 -1.2400 -0.9162
 7560SOL    HW234314   4.491   0.983   1.836  0.7813 -0.2371 -0.5559
 7561SOL     OW34315   2.171   2.009  10.511 -0.3983 -1.0078 -0.0205
 7561SOL    HW134316   2.180   1.934  10.570 -1.2501 -1.1619 -0.0965
 7561SOL    HW234317   2.256   2.013  10.467 -0.4447  0.1360 -0.0131
 7562SOL     OW34318   3.526   4.313   5.935  0.1217  0.3733  0.0425
 7562SOL    HW134319   3.594   4.372   5.903  1.1547 -0.2515  1.0868
 7562SOL    HW234320   3.467   4.383   5.960 -1.1443 -1.1007  1.1973
 7563SOL     OW34321   3.601   3.222   3.583  0.4449 -0.0116 -0.2184
 7563SOL    HW134322   3.642   3.208   3.498 -0.4944 -0.4936 -0.5869
 7563SOL    HW234323   3.616   3.135   3.622  0.1817  0.0534  0.0262
 7564SOL     OW34324   4.316   1.823   1.629 -0.2455 -0.4150 -0.9595
 7564SOL    HW134325   4.290   1.738   1.593  0.1833  0.0759 -2.4274
 7564SOL    HW234326   4.349   1.798   1.715 -1.3066 -1.4966 -0.8591
 7565SOL     OW34327   0.495   1.592   4.124 -0.4584 -0.9109  0.3049
 7565SOL    HW134328   0.461   1.603   4.212  2.2900 -0.1337  1.2954
 7565SOL    HW234329   0.417   1.583   4.070 -0.5586 -0.7101  0.4173
 7566SOL     OW34330   3.593   1.577   6.010 -0.2288  0.1666 -0.2828
 7566SOL    HW134331   3.552   1.647   6.061 -0.3589 -0.0030 -0.1548
 7566SOL    HW234332   3.618   1.626   5.931  0.6145  0.8163  0.4050
 7567SOL     OW34333   2.190   2.694   1.240  0.2466  0.1780  0.0529
 7567SOL    HW134334   2.118   2.735   1.194 -0.5388 -1.2695  0.0043
 7567SOL    HW234335   2.157   2.604   1.241 -0.2337  0.3607  0.3607
 7568SOL     OW34336   2.170   2.345  17.503 -0.3851  0.5514 -0.1398
 7568SOL    HW134337   2.253   2.393  17.495  1.4176 -2.6325 -0.6485
 7568SOL    HW234338   2.164   2.359  17.597  1.5253  2.5232 -0.2973
 7569SOL     OW34339   2.082   2.219  10.053  0.1144  0.9250 -0.0412
 7569SOL    HW134340   1.994   2.223  10.090  0.2833  0.4010  0.4357
 7569SOL    HW234341   2.125   2.178  10.129 -1.0997 -2.0197 -0.9266
 7570SOL     OW34342   3.317   4.285  10.276 -0.0474  0.4529  0.2566
 7570SOL    HW134343   3.330   4.379  10.275 -0.1501  0.4803  1.9742
 7570SOL    HW234344   3.231   4.276  10.234 -0.2878  0.2779  0.7858
 7571SOL     OW34345   0.902   2.008   2.668 -0.3290 -0.5572 -0.3011
 7571SOL    HW134346   0.884   2.079   2.730  1.6594 -0.2803 -0.0124
 7571SOL    HW234347   0.950   2.054   2.599  0.9427 -0.3718  0.7028
 7572SOL     OW34348   0.997   3.716   6.264 -0.4142  0.0344  0.5994
 7572SOL    HW134349   1.063   3.693   6.329  1.1278  2.4654 -0.1047
 7572SOL    HW234350   0.939   3.640   6.269 -1.7582  0.9655 -0.6963
 7573SOL     OW34351   3.035   2.947   5.920  0.4282  0.3560 -0.1233
 7573SOL    HW134352   3.090   3.003   5.976  1.0266 -2.3413  1.9925
 7573SOL    HW234353   3.000   3.019   5.868 -0.1887  1.0846  1.2867
 7574SOL     OW34354   4.119   2.227   3.667  0.2628 -0.3241 -0.7333
 7574SOL    HW134355   4.068   2.152   3.697  1.9766 -1.7146 -1.2818
 7574SOL    HW234356   4.158   2.190   3.588  1.3844  0.3525 -0.4859
 7575SOL     OW34357   2.308   0.637   5.575  0.1586  0.4397 -0.2126
 7575SOL    HW134358   2.334   0.651   5.666  1.2097  1.8801 -0.7324
 7575SOL    HW234359   2.386   0.585   5.559  0.4809  1.1628 -1.0345
 7576SOL     OW34360   2.834   2.058   0.959 -0.3133  0.3349  0.3511
 7576SOL    HW134361   2.850   1.969   0.927  2.4643  0.8852  0.2362
 7576SOL    HW234362   2.807   2.098   0.876  0.5726 -0.6490 -0.4026
 7577SOL     OW34363   4.673   2.783   5.453  0.7800  0.5569 -0.1012
 7577SOL    HW134364   4.703   2.745   5.370 -0.2344 -1.4653  0.4598
 7577SOL    HW234365   4.577   2.776   5.446  0.7535  1.2588 -0.4902
 7578SOL     OW34366   1.071   2.431  16.354 -0.1109  0.2749  0.2386
 7578SOL    HW134367   1.029   2.493  16.414  1.1547  2.6092 -1.2697
 7578SOL    HW234368   1.107   2.493  16.290 -0.7854  1.1456  0.7100
 7579SOL     OW34369   1.277   3.761  15.741 -0.5930 -0.4337  0.0724
 7579SOL    HW134370   1.257   3.767  15.648 -0.7247  0.8766  0.1902
 7579SOL    HW234371   1.371   3.747  15.732 -0.1455  1.3819  1.7977
 7580SOL     OW34372   3.518   1.137   4.468  0.0311 -0.4572  0.1016
 7580SOL    HW134373   3.595   1.157   4.521  0.0299  0.5780 -0.2735
 7580SOL    HW234374   3.498   1.056   4.514  0.5701 -1.2357 -1.0572
 7581SOL     OW34375   1.115   3.984   7.292 -0.3632  0.6923 -0.8273
 7581SOL    HW134376   1.031   3.971   7.335 -0.4854 -1.4538 -1.6906
 7581SOL    HW234377   1.154   4.056   7.342  0.3650 -1.4979  1.7874
 7582SOL     OW34378   3.930   2.584   5.018 -0.9063  0.7104  0.2290
 7582SOL    HW134379   3.953   2.502   5.061 -0.1564  0.3015 -0.9605
 7582SOL    HW234380   3.835   2.571   5.012 -0.6424 -0.4656 -1.2274
 7583SOL     OW34381   2.729   2.043   7.497  0.3961 -0.2866  0.1231
 7583SOL    HW134382   2.743   2.103   7.425 -1.6028 -1.3432 -1.1447
 7583SOL    HW234383   2.772   2.083   7.573 -2.1377  0.4047  1.1960
 7584SOL     OW34384   0.521   0.197   7.660  0.7765  0.5506 -0.2108
 7584SOL    HW134385   0.573   0.154   7.592 -0.2553 -1.3914  0.2085
 7584SOL    HW234386   0.513   0.284   7.623 -0.4881  0.3188 -0.4862
 7585SOL     OW34387   0.731   3.780  15.639  0.4982 -0.5800 -0.0486
 7585SOL    HW134388   0.699   3.798  15.551 -0.2031 -1.6266 -0.0133
 7585SOL    HW234389   0.712   3.687  15.653 -1.4058 -0.0401  1.0275
 7586SOL     OW34390   2.450   0.751   2.084 -0.3844 -0.6559  0.0079
 7586SOL    HW134391   2.541   0.722   2.084 -0.5772 -1.2183  4.3389
 7586SOL    HW234392   2.446   0.803   2.004 -1.8346  0.9889  1.1536
 7587SOL     OW34393   0.900   2.054   5.550  0.7452  0.2648  0.2476
 7587SOL    HW134394   0.897   2.143   5.514 -1.0063 -0.3425 -1.1202
 7587SOL    HW234395   0.934   2.069   5.638  1.5078  0.8321 -0.1459
 7588SOL     OW34396   4.617   1.158   8.184  0.0647 -0.1484 -0.2821
 7588SOL    HW134397   4.699   1.179   8.141  1.1396 -1.4208  1.1583
 7588SOL    HW234398   4.604   1.066   8.161 -2.4530  0.1622 -0.0947
 7589SOL     OW34399   3.343   2.155   3.111  0.4450  0.3313 -0.1123
 7589SOL    HW134400   3.272   2.179   3.052 -2.1214 -0.5949  2.6131
 7589SOL    HW234401   3.405   2.111   3.053  1.2543  0.1785  0.8670
 7590SOL     OW34402   3.022   2.823   7.266 -0.4410  0.2293 -0.7343
 7590SOL    HW134403   2.949   2.830   7.327 -0.1496  0.2202 -0.3863
 7590SOL    HW234404   3.085   2.776   7.320  2.2454  2.1778 -2.1543
 7591SOL     OW34405   2.847   3.406  16.718  0.4254  0.4372 -0.4712
 7591SOL    HW134406   2.860   3.415  16.812  0.8609 -1.3940 -0.3573
 7591SOL    HW234407   2.915   3.466  16.688 -0.8305  1.6233 -0.9910
 7592SOL     OW34408   4.509   3.923  11.260  0.3472  0.1088  0.3074
 7592SOL    HW134409   4.603   3.908  11.254  0.5079  1.3681 -0.3942
 7592SOL    HW234410   4.506   4.004  11.210 -1.0893  0.8524  1.5997
 7593SOL     OW34411   3.987   2.843  12.695 -0.0998  0.0457 -0.1289
 7593SOL    HW134412   4.069   2.889  12.676 -0.2682 -0.0142 -1.0127
 7593SOL    HW234413   3.940   2.896  12.760 -1.2874  0.2758 -1.1770
 7594SOL     OW34414   3.286   1.320   3.490 -0.7922 -0.1738 -0.1854
 7594SOL    HW134415   3.299   1.413   3.504  1.5972 -0.4699 -0.4926
 7594SOL    HW234416   3.355   1.291   3.431 -0.5697 -2.7271  1.3018
 7595SOL     OW34417   2.210   4.496  12.953 -0.4178  0.3887  0.0640
 7595SOL    HW134418   2.189   4.413  12.912 -2.2073  2.0678 -2.4160
 7595SOL    HW234419   2.123   4.519  12.985 -0.3568  1.5294 -0.5963
 7596SOL     OW34420   1.259   2.073  17.335 -0.5968  0.0839 -0.4202
 7596SOL    HW134421   1.287   1.986  17.307 -0.0504  0.7570 -1.9834
 7596SOL    HW234422   1.255   2.058  17.429 -1.6784  0.6807 -0.3687
 7597SOL     OW34423   0.376   1.263  16.594 -0.1916 -0.0750 -0.1485
 7597SOL    HW134424   0.282   1.267  16.577 -0.6678  2.1277  2.9030
 7597SOL    HW234425   0.377   1.218  16.678  1.7719  0.1192 -0.0666
 7598SOL     OW34426   1.522   4.483   3.244 -0.2079  0.0130 -0.0091
 7598SOL    HW134427   1.513   4.573   3.274  2.1659 -0.0453  0.9337
 7598SOL    HW234428   1.613   4.472   3.216  0.2150 -1.3384  1.8481
 7599SOL     OW34429   0.586   0.810   8.078  0.0761 -0.5686 -0.8453
 7599SOL    HW134430   0.496   0.808   8.047  0.9224 -0.0166 -3.3365
 7599SOL    HW234431   0.587   0.762   8.161  2.5200  0.2036 -0.4164
 7600SOL     OW34432   1.266   1.718   0.136  0.4619 -0.0022  0.6340
 7600SOL    HW134433   1.346   1.666   0.131  0.4461  0.2420 -1.9600
 7600SOL    HW234434   1.250   1.713   0.042 -1.4797  3.1483  0.8098
 7601SOL     OW34435   4.487   0.016   5.569  0.0622 -0.3715  0.7338
 7601SOL    HW134436   4.452   4.701   5.640 -2.2185  1.3269  0.9136
 7601SOL    HW234437   4.534   0.080   5.622 -0.6544  0.3371  0.5028
 7602SOL     OW34438   3.464   0.657   9.625 -0.3388 -0.0531  0.0383
 7602SOL    HW134439   3.485   0.593   9.692 -2.5418 -1.0330 -0.2020
 7602SOL    HW234440   3.526   0.727   9.646 -0.8456  0.3486  0.1996
 7603SOL     OW34441   0.080   2.051   6.543  0.0795  0.0458  0.2959
 7603SOL    HW134442   0.172   2.026   6.533 -0.0690 -0.8580  1.1168
 7603SOL    HW234443   0.088   2.082   6.633 -0.2810 -1.4608  0.8502
 7604SOL     OW34444   3.786   2.345   4.669 -0.3891 -0.5148  0.2273
 7604SOL    HW134445   3.798   2.329   4.576  0.9330 -0.5069  0.4023
 7604SOL    HW234446   3.824   2.433   4.670 -2.9987  0.5833  3.3446
 7605SOL     OW34447   0.569   2.177   8.296  0.2219  0.9152  0.0805
 7605SOL    HW134448   0.568   2.130   8.379 -2.1942  1.3081  0.2857
 7605SOL    HW234449   0.486   2.223   8.281  2.6326  4.9046 -0.8036
 7606SOL     OW34450   3.670   3.955   3.110 -0.2401  0.4931 -0.6221
 7606SOL    HW134451   3.656   4.026   3.172 -1.1583  0.3839 -0.7167
 7606SOL    HW234452   3.765   3.942   3.119 -0.2248  0.1612 -1.2298
 7607SOL     OW34453   1.327   2.765   8.441 -0.3078  0.6138  0.0071
 7607SOL    HW134454   1.310   2.679   8.403  1.2745  0.2027  0.2027
 7607SOL    HW234455   1.248   2.810   8.414 -1.7145 -0.0015  3.0996
 7608SOL     OW34456   2.874   2.291  11.154 -0.4467  0.0971 -0.4227
 7608SOL    HW134457   2.860   2.198  11.137 -1.2094 -0.0171  0.7940
 7608SOL    HW234458   2.939   2.311  11.086  2.4550 -2.5600  1.5569
 7609SOL     OW34459   1.063   3.092  14.529  0.0040 -0.1513  1.0052
 7609SOL    HW134460   1.127   3.086  14.458  1.3510  2.4826  1.9684
 7609SOL    HW234461   1.035   3.184  14.534  1.0471  0.3108 -1.4196
 7610SOL     OW34462   0.831   0.256   5.458  0.3601  0.0695 -0.0794
 7610SOL    HW134463   0.765   0.256   5.388  2.1239  2.4704 -1.7543
 7610SOL    HW234464   0.883   0.336   5.444  1.2252 -0.3216  0.9632
 7611SOL     OW34465   2.840   1.211   1.325 -0.0518  0.5254 -0.1694
 7611SOL    HW134466   2.754   1.200   1.283  0.3954  1.3412 -1.2945
 7611SOL    HW234467   2.894   1.142   1.288 -1.4923 -0.2019 -0.9059
 7612SOL     OW34468   1.597   1.779   5.344 -0.8426  0.0856  0.9388
 7612SOL    HW134469   1.623   1.841   5.412  4.2620 -0.5276 -0.5218
 7612SOL    HW234470   1.515   1.752   5.386 -0.9285 -0.9629  0.1080
 7613SOL     OW34471   3.728   4.696   9.712  0.3504  0.0737  0.2632
 7613SOL    HW134472   3.650   4.727   9.758  0.6139  3.3979 -1.5899
 7613SOL    HW234473   3.701   4.655   9.630  0.0071 -2.2543  1.5144
 7614SOL     OW34474   0.357   0.292   6.966  0.8198  0.0667 -0.4917
 7614SOL    HW134475   0.313   0.247   7.038  0.5554  1.6197  0.2991
 7614SOL    HW234476   0.296   0.362   6.944 -0.1374 -0.5287  0.2854
 7615SOL     OW34477   2.662   1.968   2.152 -0.4388  0.2456 -0.3013
 7615SOL    HW134478   2.591   1.933   2.205 -0.9250  0.8267 -0.5616
 7615SOL    HW234479   2.658   2.063   2.162 -0.2722  0.2854 -0.6147
 7616SOL     OW34480   0.486   0.958   2.529 -0.4158 -0.3496  0.3777
 7616SOL    HW134481   0.419   0.890   2.527 -1.1333  0.3801 -1.0867
 7616SOL    HW234482   0.558   0.934   2.587  1.6172 -0.0379 -1.9860
 7617SOL     OW34483   4.361   4.547   5.411 -0.1915  0.3737  0.0988
 7617SOL    HW134484   4.407   4.575   5.333 -2.8915  3.4107 -0.3726
 7617SOL    HW234485   4.365   4.630   5.459 -1.2437  0.5310 -0.1007
 7618SOL     OW34486   3.039   3.908   3.853  0.2915 -0.0228 -0.0225
 7618SOL    HW134487   3.060   3.870   3.768 -1.2820 -1.7957  0.3789
 7618SOL    HW234488   2.945   3.889   3.848  0.6484 -2.3142  2.0383
 7619SOL     OW34489   4.615   0.503   2.710  0.1607 -0.5619 -0.2268
 7619SOL    HW134490   4.655   0.464   2.788  2.9290  0.2778 -1.2030
 7619SOL    HW234491   4.641   0.595   2.700 -0.4432 -0.1379  1.9508
 7620SOL     OW34492   3.087   2.165   2.383 -0.4279 -0.1987  0.2273
 7620SOL    HW134493   3.097   2.072   2.367  1.4129 -0.2262  1.6935
 7620SOL    HW234494   2.999   2.186   2.351  0.3173  2.1874 -0.2811
 7621SOL     OW34495   3.318   0.445  17.438  0.5438  0.1043  0.3483
 7621SOL    HW134496   3.365   0.364  17.415 -1.8519 -0.1947 -3.5673
 7621SOL    HW234497   3.325   0.429  17.532  1.0383 -0.7988  0.1567
 7622SOL     OW34498   3.481   1.922  10.795  0.0041  0.4254 -0.3180
 7622SOL    HW134499   3.413   1.898  10.857  0.5697  0.3146  0.2654
 7622SOL    HW234500   3.484   2.016  10.816 -0.0513 -0.0579  1.8365
 7623SOL     OW34501   1.332   3.887   3.723  0.1744  0.0989  0.0507
 7623SOL    HW134502   1.384   3.839   3.659 -0.3014 -1.9225  1.1938
 7623SOL    HW234503   1.400   3.910   3.786  1.7950  0.7212 -1.9147
 7624SOL     OW34504   3.264   0.437   4.126 -0.1730 -0.0927  0.2863
 7624SOL    HW134505   3.265   0.351   4.086  1.5939  0.1688 -0.2471
 7624SOL    HW234506   3.206   0.483   4.066 -0.5355 -3.5617 -1.9860
 7625SOL     OW34507   4.289   3.751  11.229 -0.1553  0.2299  0.8125
 7625SOL    HW134508   4.209   3.734  11.278 -0.9358  1.8793  0.1207
 7625SOL    HW234509   4.333   3.833  11.253 -0.7716  1.1677 -1.2380
 7626SOL     OW34510   1.289   4.243  10.130  0.5082  0.4319  0.2814
 7626SOL    HW134511   1.330   4.165  10.093  0.7317  0.2349  0.9319
 7626SOL    HW234512   1.269   4.285  10.047 -1.2326 -0.3126  0.3333
 7627SOL     OW34513   2.241   0.885   3.079 -0.6842 -0.6642 -0.2933
 7627SOL    HW134514   2.270   0.808   3.030  0.3121  0.8429 -2.0529
 7627SOL    HW234515   2.273   0.955   3.022 -1.9973  0.4270  0.3083
 7628SOL     OW34516   3.698   1.595   7.172  0.5105 -0.1263  0.8117
 7628SOL    HW134517   3.729   1.512   7.134 -0.1317  0.1459 -0.2958
 7628SOL    HW234518   3.777   1.631   7.213 -0.3818 -0.1468  2.5509
 7629SOL     OW34519   3.475   1.813   6.125 -0.3393  0.9735  0.1717
 7629SOL    HW134520   3.395   1.766   6.149  1.5604 -0.9565  2.6745
 7629SOL    HW234521   3.450   1.904   6.134 -0.1850  0.9255  1.0737
 7630SOL     OW34522   1.803   0.008   3.099  0.6894 -0.0476  0.4886
 7630SOL    HW134523   1.795   0.045   3.187  0.5506 -2.2668  1.4129
 7630SOL    HW234524   1.876   0.062   3.069  2.2254 -1.1891  2.1444
 7631SOL     OW34525   3.323   2.879   4.493  0.0948 -0.1041  0.2653
 7631SOL    HW134526   3.402   2.915   4.453 -0.7025 -1.2948 -2.3387
 7631SOL    HW234527   3.325   2.911   4.584 -3.1416  0.5459  0.1041
 7632SOL     OW34528   2.997   0.997   1.203  0.5973  0.2479  0.4761
 7632SOL    HW134529   2.941   0.921   1.188  3.1076 -1.6497  0.7156
 7632SOL    HW234530   3.057   0.974   1.132  0.3931 -0.9160  0.6920
 7633SOL     OW34531   2.969   4.180   2.223  0.3730 -0.3323  0.5496
 7633SOL    HW134532   2.949   4.087   2.210 -1.5266  0.1986 -0.3612
 7633SOL    HW234533   2.993   4.211   2.136 -0.1067 -0.3391  0.4097
 7634SOL     OW34534   1.836   2.000   3.232  0.6180  0.3107 -0.1500
 7634SOL    HW134535   1.785   1.929   3.193  1.9427 -1.5737  1.5898
 7634SOL    HW234536   1.917   1.949   3.222  2.3283  2.5555  2.4764
 7635SOL     OW34537   0.906   2.106   2.393  0.0768 -0.6492 -0.0922
 7635SOL    HW134538   0.937   2.196   2.379 -1.1805 -0.0155  1.2783
 7635SOL    HW234539   0.822   2.124   2.434  0.2579 -1.2797  0.5372
 7636SOL     OW34540   3.347   0.675   3.933 -0.3370  0.6653  0.4279
 7636SOL    HW134541   3.259   0.664   3.899  0.8142 -1.2951 -1.9328
 7636SOL    HW234542   3.406   0.637   3.868  0.7186 -1.3641  2.5298
 7637SOL     OW34543   3.280   3.335   1.741 -0.1034  0.0706  0.4765
 7637SOL    HW134544   3.246   3.415   1.782  0.0161  0.6459 -0.5631
 7637SOL    HW234545   3.197   3.287   1.738  1.2523 -2.3090  1.0659
 7638SOL     OW34546   1.218   3.922   7.767 -0.1148 -0.2463 -0.3707
 7638SOL    HW134547   1.191   3.832   7.750  1.2937 -1.0883  1.8656
 7638SOL    HW234548   1.255   3.940   7.681  0.8424  2.6183  0.6405
 7639SOL     OW34549   0.196   4.588   3.696 -0.0595 -0.4055 -0.1550
 7639SOL    HW134550   0.160   4.525   3.758  1.1203 -2.0724 -1.1612
 7639SOL    HW234551   0.122   4.636   3.660  1.6186  1.3643 -1.2987
 7640SOL     OW34552   3.664   4.051   7.027 -0.1573 -0.1192 -0.3155
 7640SOL    HW134553   3.738   4.092   7.072 -0.0758  0.2084 -0.7465
 7640SOL    HW234554   3.626   4.134   6.999 -0.8163 -0.4472 -0.4056
 7641SOL     OW34555   2.512   4.332   7.330 -0.2736  0.0878  0.0725
 7641SOL    HW134556   2.574   4.338   7.257  0.3624  0.8036  0.6639
 7641SOL    HW234557   2.557   4.370   7.407  0.6989 -2.5048  0.7710
 7642SOL     OW34558   2.970   4.002   9.655  0.0860 -0.1605  0.4682
 7642SOL    HW134559   2.978   3.908   9.635 -0.5287  0.2576 -1.7431
 7642SOL    HW234560   2.946   4.042   9.572 -0.4696  0.6820  1.0403
 7643SOL     OW34561   2.054   2.049   1.579 -0.3452 -0.3752  0.0606
 7643SOL    HW134562   1.960   2.056   1.558 -0.6696 -2.5925  0.7868
 7643SOL    HW234563   2.068   1.956   1.598  1.0992 -0.4842 -1.5297
 7644SOL     OW34564   2.869   2.615   4.646  0.5588  0.3313  0.2471
 7644SOL    HW134565   2.823   2.556   4.587 -1.9288  1.1925  1.3076
 7644SOL    HW234566   2.791   2.650   4.688  0.3500  0.3663 -0.1726
 7645SOL     OW34567   2.228   1.306   5.871  0.2846 -0.0356 -0.5526
 7645SOL    HW134568   2.248   1.392   5.833 -1.4652  0.4462 -0.4005
 7645SOL    HW234569   2.144   1.328   5.913  0.6709 -1.2125  0.8354
 7646SOL     OW34570   2.941   0.644   9.239  0.0384 -0.4566  0.0477
 7646SOL    HW134571   2.981   0.582   9.300 -0.8844  0.0494  1.1494
 7646SOL    HW234572   3.014   0.660   9.178 -1.4760  1.8573 -1.1563
 7647SOL     OW34573   0.052   3.507   5.634  0.2330  0.2684 -0.5253
 7647SOL    HW134574   4.716   3.449   5.647  1.4133 -0.8839  1.2816
 7647SOL    HW234575   0.128   3.449   5.641 -2.4898 -2.8841  3.1029
 7648SOL     OW34576   3.936   0.023   0.145 -0.0528 -0.6946  0.2918
 7648SOL    HW134577   3.993   0.022   0.069  2.4085  0.4135  2.1406
 7648SOL    HW234578   3.851   0.046   0.108 -0.3504 -2.0041  0.1456
 7649SOL     OW34579   0.339   0.109   4.850 -0.1430  0.1674 -0.1225
 7649SOL    HW134580   0.421   0.106   4.801  0.4765  2.0788  0.7889
 7649SOL    HW234581   0.284   0.156   4.787 -0.8444 -0.4795  0.0121
 7650SOL     OW34582   4.603   4.430   8.977  0.3511  0.4507 -0.1037
 7650SOL    HW134583   4.652   4.479   8.911 -1.3531 -1.2897 -2.6350
 7650SOL    HW234584   4.639   4.342   8.974  0.6922  0.5047  2.1933
 7651SOL     OW34585   3.679   4.171   4.059 -0.1542 -0.0959 -0.0081
 7651SOL    HW134586   3.610   4.188   3.994 -1.3175 -0.5191  1.1003
 7651SOL    HW234587   3.633   4.218   4.129 -1.0636  0.8389 -1.2470
 7652SOL     OW34588   3.883   3.178   8.901 -0.1541 -0.6611 -0.3471
 7652SOL    HW134589   3.906   3.166   8.809 -0.2730  0.8263 -0.5778
 7652SOL    HW234590   3.966   3.153   8.941  0.9672  0.5854 -1.8803
 7653SOL     OW34591   2.374   0.665   8.346  0.0580  0.1284  0.3907
 7653SOL    HW134592   2.421   0.738   8.387  1.9897 -0.7114 -0.3792
 7653SOL    HW234593   2.390   0.677   8.253 -1.8187 -1.3607 -0.1260
 7654SOL     OW34594   3.284   2.432   1.494 -0.1735 -0.3322 -0.0725
 7654SOL    HW134595   3.289   2.492   1.420  2.6769 -1.8589 -1.1152
 7654SOL    HW234596   3.194   2.400   1.496 -1.0251  2.0194 -0.5698
 7655SOL     OW34597   2.837   2.185   3.542 -0.5727  0.1918 -0.2288
 7655SOL    HW134598   2.930   2.201   3.526 -0.2947  1.5524  2.6839
 7655SOL    HW234599   2.841   2.096   3.576  0.6367 -0.3181 -1.7291
 7656SOL     OW34600   0.860   3.061  12.382  0.0821  0.1118  0.0333
 7656SOL    HW134601   0.841   3.152  12.360  1.3462  0.3209 -0.2189
 7656SOL    HW234602   0.808   3.045  12.461 -0.5716 -0.5578 -0.5311
 7657SOL     OW34603   0.817   1.210   0.341 -0.1945  0.0811 -0.3143
 7657SOL    HW134604   0.859   1.161   0.412  2.5965 -0.2656 -2.1949
 7657SOL    HW234605   0.849   1.299   0.357 -0.4154 -0.0258  0.7012
 7658SOL     OW34606   4.135   1.410   2.765 -0.4856  0.1400  0.2471
 7658SOL    HW134607   4.049   1.374   2.785  1.2433 -3.7339  0.7185
 7658SOL    HW234608   4.188   1.381   2.839 -2.0247 -1.3148  0.7781
 7659SOL     OW34609   0.791   1.117   3.417  0.0820 -0.1073 -0.3197
 7659SOL    HW134610   0.856   1.106   3.347 -1.3716  0.8057 -1.8285
 7659SOL    HW234611   0.818   1.062   3.490 -1.4009 -0.1329  0.2084
 7660SOL     OW34612   1.398   2.325   0.554  0.4883 -0.6123 -0.4918
 7660SOL    HW134613   1.425   2.335   0.646  0.6867  0.4941 -0.6785
 7660SOL    HW234614   1.322   2.382   0.552  1.8216  1.1993  0.1688
 7661SOL     OW34615   1.025   1.684  14.240 -0.2502 -0.2482  0.4858
 7661SOL    HW134616   1.014   1.619  14.171  2.2156 -0.9863  0.8018
 7661SOL    HW234617   1.043   1.762  14.187 -1.9619  0.9552  1.6740
 7662SOL     OW34618   1.292   4.629  10.956  0.2952 -0.5937  0.3451
 7662SOL    HW134619   1.253   4.599  11.038 -0.2479 -0.1642  0.2501
 7662SOL    HW234620   1.246   4.583  10.885 -0.6526 -0.0695  0.6081
 7663SOL     OW34621   1.842   3.817   7.190 -0.3320 -0.0952  0.1522
 7663SOL    HW134622   1.908   3.818   7.120  0.3841 -2.4765  0.7766
 7663SOL    HW234623   1.819   3.726   7.208 -1.4559  0.1440 -0.0859
 7664SOL     OW34624   3.486   4.726   8.045  0.1221  0.6059  0.4765
 7664SOL    HW134625   3.540   4.658   8.005 -1.2454 -3.0209  4.6970
 7664SOL    HW234626   3.555   0.049   8.068 -0.5438  1.7748 -0.7101
 7665SOL     OW34627   4.080   0.547  11.796  0.6700 -0.2383  0.4295
 7665SOL    HW134628   4.094   0.456  11.820  2.9135  0.4969  1.8756
 7665SOL    HW234629   3.991   0.552  11.763  0.8145  3.2011  0.4969
 7666SOL     OW34630   4.397   2.718   5.129 -0.2064  0.4889  0.2038
 7666SOL    HW134631   4.432   2.786   5.188 -0.1570  1.5446 -1.0468
 7666SOL    HW234632   4.305   2.746   5.128 -0.7348 -1.2888 -0.4003
 7667SOL     OW34633   1.484   0.000   9.375  0.1143 -0.2554 -0.0534
 7667SOL    HW134634   1.562   0.055   9.372  1.1520 -1.6885  0.9886
 7667SOL    HW234635   1.502   4.706   9.463  2.0731  1.0900  0.0392
 7668SOL     OW34636   0.295   3.353   6.542 -0.5949 -0.1266 -0.3720
 7668SOL    HW134637   0.298   3.427   6.603 -0.0471 -0.6023  0.1832
 7668SOL    HW234638   0.350   3.295   6.595 -1.0415 -1.8434 -1.8244
 7669SOL     OW34639   0.919   3.805  16.901 -0.0531 -0.4694 -0.6331
 7669SOL    HW134640   0.828   3.826  16.922 -0.5185 -1.6345 -1.4372
 7669SOL    HW234641   0.963   3.870  16.956 -0.5185  0.2692 -1.1381
 7670SOL     OW34642   0.580   1.365  15.092 -0.7393 -0.6036  0.1527
 7670SOL    HW134643   0.554   1.447  15.050  0.0318  1.6382  4.0179
 7670SOL    HW234644   0.662   1.349  15.046 -1.0236  0.6353 -0.7837
 7671SOL     OW34645   0.632   0.797  16.781 -0.1591  0.0626  0.0103
 7671SOL    HW134646   0.662   0.805  16.871 -0.5392 -1.3510  0.2632
 7671SOL    HW234647   0.613   0.890  16.768 -2.9066 -0.1450  2.5249
 7672SOL     OW34648   2.787   0.334   9.577 -0.0593  0.3179  0.2148
 7672SOL    HW134649   2.695   0.325   9.600  0.1326  0.4214  1.0525
 7672SOL    HW234650   2.803   0.251   9.531  0.3785  1.1906 -1.2020
 7673SOL     OW34651   4.466   2.179   7.232  0.4827  0.4581 -0.4501
 7673SOL    HW134652   4.387   2.174   7.178  0.2425  0.1540 -0.0686
 7673SOL    HW234653   4.479   2.087   7.252 -1.8588 -0.1353 -1.5975
 7674SOL     OW34654   2.875   1.219   6.503 -0.0979  0.1123  0.3090
 7674SOL    HW134655   2.873   1.157   6.431  1.3850 -0.5505  0.8443
 7674SOL    HW234656   2.834   1.299   6.468 -0.1074 -0.8536 -1.8673
 7675SOL     OW34657   1.858   0.728   8.426 -0.0788  0.1848  0.3486
 7675SOL    HW134658   1.814   0.643   8.419  0.0311  0.1737 -0.1580
 7675SOL    HW234659   1.923   0.721   8.356 -0.1958 -1.4359  0.3997
 7676SOL     OW34660   0.658   3.804   5.245  0.1449  0.0671  0.0554
 7676SOL    HW134661   0.703   3.734   5.291  0.4853  0.3270  0.1247
 7676SOL    HW234662   0.695   3.877   5.295 -0.4054 -0.8214  1.7238
 7677SOL     OW34663   3.056   3.336   6.270 -0.0812  0.0602 -0.5960
 7677SOL    HW134664   3.017   3.397   6.207 -0.2873  1.2639  0.6884
 7677SOL    HW234665   3.114   3.401   6.310 -1.1138 -0.9080  2.4296
 7678SOL     OW34666   2.659   0.138   0.675  0.3456  0.0170  0.0559
 7678SOL    HW134667   2.753   0.138   0.693  0.3883  0.6971 -0.1478
 7678SOL    HW234668   2.644   0.056   0.629  0.3646 -0.3627  0.7273
 7679SOL     OW34669   2.543   3.875   6.595 -0.0447 -0.2829 -0.0983
 7679SOL    HW134670   2.485   3.919   6.532  0.7700  1.6768  0.5378
 7679SOL    HW234671   2.488   3.800   6.620  0.3988 -0.9369 -1.0678
 7680SOL     OW34672   1.520   4.567   4.574  0.2908  0.3296  0.0943
 7680SOL    HW134673   1.517   4.491   4.515 -0.8808 -1.0280  1.9114
 7680SOL    HW234674   1.544   4.525   4.656 -3.1242  1.1909  1.5324
 7681SOL     OW34675   1.942   1.575   6.453 -0.4081  0.5824  0.4873
 7681SOL    HW134676   1.944   1.536   6.541  2.3681  0.6305  0.4509
 7681SOL    HW234677   1.921   1.493   6.408  2.6483  1.2242 -2.0805
 7682SOL     OW34678   1.409   3.065   9.465  0.1578  0.0835  0.4862
 7682SOL    HW134679   1.379   3.155   9.478  0.6234  0.3680 -0.3864
 7682SOL    HW234680   1.488   3.090   9.512 -1.2805  1.9851  1.9117
 7683SOL     OW34681   1.345   2.294   4.731  0.2535 -0.8085  0.4280
 7683SOL    HW134682   1.258   2.258   4.748 -0.7323  1.1788 -0.4769
 7683SOL    HW234683   1.392   2.212   4.712 -0.6476 -1.1037 -0.5848
 7684SOL     OW34684   0.310   0.994   0.964 -0.0865  0.0419  0.0854
 7684SOL    HW134685   0.383   1.027   1.016 -0.5432 -1.8539  1.9320
 7684SOL    HW234686   0.362   0.947   0.899  1.9267  1.2248  0.8354
 7685SOL     OW34687   2.652   3.244   7.671  0.1657  0.5938  0.0239
 7685SOL    HW134688   2.660   3.332   7.707  1.3811  0.8649 -0.8961
 7685SOL    HW234689   2.738   3.220   7.636  0.4180 -0.2408  1.2521
 7686SOL     OW34690   1.266   4.477   9.214 -0.6805 -0.5967 -0.1495
 7686SOL    HW134691   1.225   4.547   9.265 -1.2077 -0.9743 -0.0629
 7686SOL    HW234692   1.334   4.517   9.159 -1.7138  1.0367 -0.2320
 7687SOL     OW34693   4.300   3.479   8.817  0.4358 -0.3766  0.0246
 7687SOL    HW134694   4.372   3.417   8.831 -0.5505 -1.3298  0.8350
 7687SOL    HW234695   4.353   3.558   8.804 -0.5010 -0.0760 -1.9816
 7688SOL     OW34696   3.330   0.009   0.163 -0.2124 -0.4284 -0.0288
 7688SOL    HW134697   3.267   4.688   0.124 -0.2992  0.0186 -0.5829
 7688SOL    HW234698   3.346   4.706   0.247 -0.6590 -0.2750  0.1364
 7689SOL     OW34699   0.584   3.291   8.183 -0.2111 -0.4088 -0.1182
 7689SOL    HW134700   0.582   3.318   8.275 -3.5505  1.2621 -0.6768
 7689SOL    HW234701   0.677   3.269   8.180 -0.2879 -0.8566  0.7959
 7690SOL     OW34702   2.653   2.449  13.507 -0.0127 -0.5568  0.5593
 7690SOL    HW134703   2.567   2.478  13.538 -0.8404  0.1455 -2.4245
 7690SOL    HW234704   2.642   2.487  13.420 -1.4078 -0.0904  0.9289
 7691SOL     OW34705   2.953   1.576   6.773  0.2802  0.4434  0.0971
 7691SOL    HW134706   2.987   1.664   6.756  1.4715  0.1987  1.2520
 7691SOL    HW234707   3.008   1.528   6.711 -0.2962  0.3249 -0.3222
 7692SOL     OW34708   3.630   1.623   6.548  0.2662  0.2743  0.2050
 7692SOL    HW134709   3.702   1.619   6.486  0.2373 -1.3540  0.2590
 7692SOL    HW234710   3.638   1.715   6.573  0.5902  1.2716 -3.5921
 7693SOL     OW34711   1.340   1.206   8.224  0.4340 -0.4099 -0.1801
 7693SOL    HW134712   1.357   1.153   8.301  1.1097  0.1408  0.0500
 7693SOL    HW234713   1.332   1.142   8.153  1.5773  0.1290 -0.8090
 7694SOL     OW34714   0.151   3.661   8.567  0.6725 -0.1261  0.3495
 7694SOL    HW134715   0.216   3.724   8.536 -0.1558  1.7496  2.4454
 7694SOL    HW234716   0.204   3.591   8.605  0.9711 -0.6415 -1.0206
 7695SOL     OW34717   4.370   1.152  11.482 -0.6209  0.1227 -0.1342
 7695SOL    HW134718   4.327   1.106  11.555 -1.0240 -0.5414 -0.7930
 7695SOL    HW234719   4.372   1.088  11.411  0.4352  1.2115 -1.0714
 7696SOL     OW34720   0.288   0.108   7.769  0.2070  0.5253  0.8657
 7696SOL    HW134721   0.371   0.134   7.730  0.0730  1.3445  1.1223
 7696SOL    HW234722   0.235   0.080   7.695  1.5831  1.3348 -0.4249
 7697SOL     OW34723   0.193   1.408   5.782  0.2490  0.3999  0.3605
 7697SOL    HW134724   0.287   1.420   5.778  0.4962 -2.5489 -2.7368
 7697SOL    HW234725   0.181   1.364   5.866 -2.0522 -2.0926 -1.2853
 7698SOL     OW34726   2.876   1.706   2.769  0.2326 -0.8020  0.0081
 7698SOL    HW134727   2.929   1.650   2.825  1.7663 -0.5005 -1.1362
 7698SOL    HW234728   2.797   1.654   2.752 -0.0213 -1.5128  3.3488
 7699SOL     OW34729   4.414   1.473  11.500 -0.2349 -0.3296 -0.2295
 7699SOL    HW134730   4.339   1.497  11.554 -0.5415 -1.3556 -0.2033
 7699SOL    HW234731   4.395   1.381  11.484  0.1664 -0.4215 -0.1909
 7700SOL     OW34732   0.202   2.777   7.075  0.5795  0.3342 -0.0169
 7700SOL    HW134733   0.267   2.739   7.015  2.0878  2.4828  0.2492
 7700SOL    HW234734   0.153   2.830   7.012 -2.8330 -0.0312  2.3430
 7701SOL     OW34735   1.221   3.295  15.259 -0.4610  0.4329 -0.2930
 7701SOL    HW134736   1.185   3.274  15.344 -0.6492  0.8535 -0.2659
 7701SOL    HW234737   1.272   3.215  15.247 -0.7162  0.2744 -0.3035
 7702SOL     OW34738   3.286   4.461   9.944 -0.0067 -0.1930 -0.1582
 7702SOL    HW134739   3.193   4.482   9.939  0.2329  1.1185  0.9941
 7702SOL    HW234740   3.290   4.366   9.929 -0.9829 -0.4391  1.1759
 7703SOL     OW34741   4.382   4.095   1.784  0.0147  0.1917 -0.3627
 7703SOL    HW134742   4.359   4.187   1.800 -0.6590 -0.3199  1.6464
 7703SOL    HW234743   4.375   4.051   1.869  1.4524 -0.1679 -0.4345
 7704SOL     OW34744   3.480   0.643   3.319 -0.3156 -0.1444 -0.5423
 7704SOL    HW134745   3.553   0.663   3.260 -0.4564  2.4964  0.1709
 7704SOL    HW234746   3.445   0.728   3.346  0.2002  0.0534 -0.4983
 7705SOL     OW34747   3.652   2.127   5.951  0.2054 -0.3028 -0.2159
 7705SOL    HW134748   3.586   2.078   6.000  1.2505 -1.0795  0.4202
 7705SOL    HW234749   3.614   2.152   5.867 -0.0989  0.5752  0.1819
 7706SOL     OW34750   3.638   4.006   3.646 -0.0435  0.4463  0.6035
 7706SOL    HW134751   3.713   4.011   3.705  2.2831  1.5185 -2.3973
 7706SOL    HW234752   3.624   3.912   3.636 -0.5618  0.6315 -0.4288
 7707SOL     OW34753   4.686   3.682   6.946  0.5537  1.2572  0.5331
 7707SOL    HW134754   4.626   3.677   7.021  0.1766  0.2385  0.1531
 7707SOL    HW234755   0.025   3.688   7.002  1.1315  2.1419 -0.3588
 7708SOL     OW34756   3.008   2.981   8.862  0.1320 -0.3599 -0.2236
 7708SOL    HW134757   3.017   2.938   8.777 -0.4329 -1.4298  0.2640
 7708SOL    HW234758   2.950   3.056   8.849  1.8597  0.8988 -0.7748
 7709SOL     OW34759   0.892   3.364   9.304 -0.2885 -0.9326  0.3887
 7709SOL    HW134760   0.861   3.369   9.214  1.3170  2.0641  0.0099
 7709SOL    HW234761   0.851   3.437   9.351 -0.9817 -1.3904  0.4946
 7710SOL     OW34762   0.447   3.795   3.647 -0.6748  0.5349  0.0560
 7710SOL    HW134763   0.499   3.852   3.590  0.2095  0.5280  0.8636
 7710SOL    HW234764   0.512   3.725   3.648 -0.2408  0.9311 -0.4799
 7711SOL     OW34765   4.642   1.041   6.522 -0.4551  0.0421 -0.1782
 7711SOL    HW134766   4.704   1.113   6.519 -2.4331  1.7382  0.1057
 7711SOL    HW234767   4.570   1.079   6.571  1.4840  2.6252  0.6436
 7712SOL     OW34768   2.721   4.573   9.093  0.1467 -0.0287 -0.2445
 7712SOL    HW134769   2.633   4.537   9.102  0.5441 -0.9365  0.0578
 7712SOL    HW234770   2.710   4.660   9.131  1.2608 -0.1536  0.3577
 7713SOL     OW34771   1.229   2.022   0.088  0.7273 -0.2548 -0.5129
 7713SOL    HW134772   1.224   1.935   0.048  0.7349 -1.1469  1.4504
 7713SOL    HW234773   1.141   2.036   0.123  0.9457 -1.6012  0.5732
 7714SOL     OW34774   1.399   2.448  16.340  0.2121  0.2431 -0.2809
 7714SOL    HW134775   1.478   2.499  16.321  0.7757 -1.5647 -2.8023
 7714SOL    HW234776   1.352   2.464  16.258 -0.1174 -0.6407 -0.2588
 7715SOL     OW34777   0.623   1.686   6.058 -0.1530 -0.0012 -0.4307
 7715SOL    HW134778   0.611   1.596   6.087 -1.5163 -0.2243 -1.6748
 7715SOL    HW234779   0.592   1.688   5.967  2.0400  0.0858 -1.1907
 7716SOL     OW34780   1.802   4.369   7.666  0.0029  0.1787 -0.5188
 7716SOL    HW134781   1.884   4.330   7.637  0.3710  0.2553  0.4048
 7716SOL    HW234782   1.842   4.427   7.731 -2.7318  2.5441 -0.9524
 7717SOL     OW34783   2.836   4.179   0.958  0.3014  0.2666 -0.2949
 7717SOL    HW134784   2.862   4.090   0.934  0.6651 -0.2557  2.0590
 7717SOL    HW234785   2.907   4.221   0.911  0.3999  1.2456  0.7337
 7718SOL     OW34786   2.031   2.343  16.752  0.1445 -0.3597  0.5756
 7718SOL    HW134787   2.026   2.259  16.798 -3.4390 -0.1293  0.5798
 7718SOL    HW234788   1.986   2.403  16.811 -0.1161  0.8795 -0.8954
 7719SOL     OW34789   3.460   2.304   3.929 -0.0443 -0.0798  0.1561
 7719SOL    HW134790   3.490   2.367   3.863 -0.1029 -1.3394 -1.0870
 7719SOL    HW234791   3.379   2.281   3.883 -0.3336  0.3173  0.4688
 7720SOL     OW34792   2.090   2.041   8.707  0.7678  0.5951 -0.3746
 7720SOL    HW134793   2.109   2.094   8.630  1.0640 -0.6364 -1.1600
 7720SOL    HW234794   2.118   1.959   8.665 -0.3139 -0.1833  0.4073
 7721SOL     OW34795   2.889   3.437   6.059 -0.0658  0.2971 -0.0977
 7721SOL    HW134796   2.822   3.497   6.090 -0.9572 -2.3020  3.1156
 7721SOL    HW234797   2.844   3.352   6.062  1.3898 -0.5235 -2.0441
 7722SOL     OW34798   1.640   0.818   5.559  0.1365  0.7194  0.1923
 7722SOL    HW134799   1.584   0.832   5.635 -0.0436  1.5573 -0.0847
 7722SOL    HW234800   1.575   0.822   5.488 -1.5195  0.5336  1.7046
 7723SOL     OW34801   3.527   0.276   2.200 -0.2156 -0.6232  0.1730
 7723SOL    HW134802   3.595   0.292   2.266  0.8656 -1.1678 -0.8090
 7723SOL    HW234803   3.452   0.306   2.251 -1.2131 -0.3075 -1.4750
 7724SOL     OW34804   2.471   0.159   2.559  0.9350  0.3164  0.4956
 7724SOL    HW134805   2.395   0.106   2.582  1.1007  0.5518  1.5647
 7724SOL    HW234806   2.525   0.117   2.492  0.0260  2.0761 -1.3397
 7725SOL     OW34807   3.125   4.255   9.662  0.1601  0.0930  0.1766
 7725SOL    HW134808   3.068   4.289   9.731 -1.3109 -1.3439 -0.3326
 7725SOL    HW234809   3.090   4.166   9.670  0.6607 -0.0302  0.9272
 7726SOL     OW34810   3.883   0.842   4.573 -0.1971 -0.3096  0.2638
 7726SOL    HW134811   3.909   0.805   4.658  2.0130 -0.8222 -0.6322
 7726SOL    HW234812   3.803   0.790   4.560 -0.7251  0.7961 -0.8765
 7727SOL     OW34813   3.009   0.663   1.032 -0.1326 -0.5389  0.2788
 7727SOL    HW134814   3.036   0.629   0.947 -1.4356 -2.1667  0.5096
 7727SOL    HW234815   2.937   0.718   1.004 -0.1907 -0.5050  0.4929
 7728SOL     OW34816   0.127   4.266   3.078 -0.5220 -0.1159  0.7589
 7728SOL    HW134817   0.035   4.286   3.060 -0.1130  1.2387  0.1855
 7728SOL    HW234818   0.168   4.260   2.992 -0.0735 -2.5303  1.1617
 7729SOL     OW34819   2.226   1.672  10.322 -0.1231  0.1900 -0.4260
 7729SOL    HW134820   2.267   1.592  10.356  2.5442  1.1376 -1.3963
 7729SOL    HW234821   2.288   1.740  10.349  1.4542 -1.9433  1.3409
 7730SOL     OW34822   2.323   0.515  15.677  0.0158  0.3282 -1.1485
 7730SOL    HW134823   2.297   0.595  15.631  0.2933  1.4261  0.6189
 7730SOL    HW234824   2.347   0.551  15.762 -1.6882  2.1079 -1.4275
 7731SOL     OW34825   2.242   2.746   8.572  0.1603 -0.1338 -0.7764
 7731SOL    HW134826   2.153   2.724   8.602  0.3292  0.7126  0.3352
 7731SOL    HW234827   2.246   2.709   8.484  1.1591  0.5141 -0.9988
 7732SOL     OW34828   3.183   0.015   8.650  0.8012 -1.0073 -0.1651
 7732SOL    HW134829   3.203   4.713   8.565  0.6904  2.6384 -1.9779
 7732SOL    HW234830   3.109   4.699   8.672 -0.4529 -0.0338 -1.8997
 7733SOL     OW34831   1.180   4.166   5.907  0.0156  0.0631  0.0669
 7733SOL    HW134832   1.106   4.166   5.846 -0.8011  3.8410  1.0579
 7733SOL    HW234833   1.235   4.109   5.853 -0.4758 -1.1252  0.8376
 7734SOL     OW34834   1.418   0.440   4.839 -0.2512 -0.2270  0.6603
 7734SOL    HW134835   1.340   0.474   4.882  0.1892  0.9945  0.4878
 7734SOL    HW234836   1.488   0.470   4.897  0.3164  0.3533 -0.3132
 7735SOL     OW34837   1.861   4.415   6.842  0.1470  0.3314 -0.2755
 7735SOL    HW134838   1.806   4.341   6.818 -0.0981 -0.1589  1.8207
 7735SOL    HW234839   1.850   4.464   6.760 -1.2416  0.7175  0.1384
 7736SOL     OW34840   4.704   1.609  15.769  0.3361 -0.2124 -0.1555
 7736SOL    HW134841   0.031   1.553  15.727  1.3304 -0.2825  1.5262
 7736SOL    HW234842   4.670   1.651  15.690  0.3275  0.3253  0.1340
 7737SOL     OW34843   1.844   3.964   3.359 -0.1736  0.1364  0.1389
 7737SOL    HW134844   1.820   3.931   3.272  1.1632  0.4901 -0.3749
 7737SOL    HW234845   1.761   3.988   3.400 -0.9976 -1.0496 -0.8297
 7738SOL     OW34846   0.280   0.805   2.619 -0.2328 -0.1388 -0.0992
 7738SOL    HW134847   0.293   0.831   2.710  2.4517  0.0824 -0.5287
 7738SOL    HW234848   0.295   0.711   2.616 -0.8870 -0.2933  1.6464
 7739SOL     OW34849   2.912   1.643   7.552 -0.5058  0.3142 -0.5872
 7739SOL    HW134850   2.868   1.560   7.536  1.9676 -0.6611 -2.2416
 7739SOL    HW234851   2.855   1.682   7.619 -2.2416  0.2678 -2.0179
 7740SOL     OW34852   1.245   1.705   4.622 -0.0806  0.0433  0.1010
 7740SOL    HW134853   1.271   1.644   4.554 -1.1595  0.5978 -0.7916
 7740SOL    HW234854   1.314   1.772   4.617 -0.3090  0.0325 -3.1703
 7741SOL     OW34855   2.067   3.622   9.757  0.2433  0.2946  0.4287
 7741SOL    HW134856   2.073   3.717   9.751 -1.4212  0.2485 -1.9651
 7741SOL    HW234857   2.159   3.599   9.747  0.2515 -2.0384  5.9400
 7742SOL     OW34858   1.487   3.129   1.681 -0.3304  0.1769  0.2492
 7742SOL    HW134859   1.427   3.179   1.737  0.1404  1.0018  0.0169
 7742SOL    HW234860   1.559   3.150   1.741  0.0812 -1.4380  0.3231
 7743SOL     OW34861   4.526   3.322   8.853  0.4853 -0.6837 -0.5602
 7743SOL    HW134862   4.559   3.331   8.764 -0.1575 -2.6182 -0.9821
 7743SOL    HW234863   4.608   3.341   8.900 -0.4689 -1.0873  1.2688
 7744SOL     OW34864   0.324   0.761   6.354  0.6024  0.1916  0.2624
 7744SOL    HW134865   0.291   0.745   6.265  1.2286 -2.1338  0.4431
 7744SOL    HW234866   0.248   0.779   6.410  1.2598  1.3080  0.7794
 7745SOL     OW34867   1.319   3.237  13.706 -0.1447  0.1741 -0.0360
 7745SOL    HW134868   1.328   3.258  13.613 -0.3182  0.0673 -0.0778
 7745SOL    HW234869   1.391   3.176  13.716 -0.7494 -0.3915  0.8095
 7746SOL     OW34870   0.898   1.776   4.672  0.0080 -0.2133 -0.1238
 7746SOL    HW134871   0.844   1.801   4.747 -0.4988  1.4380 -1.0287
 7746SOL    HW234872   0.950   1.855   4.656 -0.4862  0.4549  1.5938
 7747SOL     OW34873   1.147   3.348   2.302 -0.2354  0.2846 -0.3204
 7747SOL    HW134874   1.119   3.384   2.218 -1.1020  0.8044  0.1898
 7747SOL    HW234875   1.076   3.288   2.322 -1.0722  1.6730  0.9256
 7748SOL     OW34876   1.728   1.338  12.761  0.0114 -0.1597  1.1255
 7748SOL    HW134877   1.748   1.254  12.802 -2.1733 -0.8825  0.7031
 7748SOL    HW234878   1.766   1.389  12.833  0.2305 -2.2224  2.4558
 7749SOL     OW34879   3.793   3.700   4.361  0.4266 -0.4617 -0.0523
 7749SOL    HW134880   3.865   3.740   4.312 -0.9743 -2.1561 -3.5227
 7749SOL    HW234881   3.758   3.644   4.292  3.2031 -2.2647  0.0233
 7750SOL     OW34882   4.487   1.620   4.103  0.2327 -0.2896  0.5991
 7750SOL    HW134883   4.519   1.667   4.026 -2.3007  0.7402  0.1761
 7750SOL    HW234884   4.512   1.529   4.089 -1.7054 -0.5592 -1.2152
 7751SOL     OW34885   1.033   3.303   5.788 -0.4991  0.1884 -0.6373
 7751SOL    HW134886   1.077   3.329   5.869 -1.5096  0.8473 -0.3036
 7751SOL    HW234887   0.949   3.347   5.797 -1.3284 -1.4862 -0.1179
 7752SOL     OW34888   0.117   0.533   0.521  0.1966  0.0995  0.2084
 7752SOL    HW134889   0.105   0.443   0.551  3.0990 -1.8285 -4.4583
 7752SOL    HW234890   0.030   0.573   0.528  0.1941 -0.0959  1.2232
 7753SOL     OW34891   2.826   3.539   4.568 -0.3896 -0.3476  0.0633
 7753SOL    HW134892   2.865   3.507   4.650 -1.0127 -2.1033 -0.3171
 7753SOL    HW234893   2.755   3.587   4.610  0.4513  1.7087 -0.8515
 7754SOL     OW34894   2.847   4.695   6.142 -0.1992  0.2457  0.5335
 7754SOL    HW134895   2.867   4.624   6.081 -0.7285  1.0020 -0.5175
 7754SOL    HW234896   2.936   4.729   6.155 -0.3668  0.6412  0.6560
 7755SOL     OW34897   2.338   3.212   4.312  0.5662 -0.3473 -0.1297
 7755SOL    HW134898   2.349   3.117   4.317 -0.4083 -0.3646  1.6451
 7755SOL    HW234899   2.275   3.219   4.239  1.2701  1.7713 -0.5239
 7756SOL     OW34900   0.150   0.277  12.290 -0.2346  0.3137 -0.6510
 7756SOL    HW134901   0.180   0.200  12.339  0.2982  2.3596  2.2328
 7756SOL    HW234902   0.200   0.348  12.330 -1.5447 -0.0463  1.6342
 7757SOL     OW34903   0.740   4.400   0.086 -0.1742 -0.3227  0.2996
 7757SOL    HW134904   0.796   4.452   0.143  0.4280 -1.5860  0.8640
 7757SOL    HW234905   0.681   4.466   0.050  0.6961 -0.3082 -1.1138
 7758SOL     OW34906   1.320   4.419  16.378  0.0452  0.5314 -0.0526
 7758SOL    HW134907   1.229   4.437  16.404 -0.2228 -0.8448 -0.0110
 7758SOL    HW234908   1.340   4.492  16.319 -2.7955  2.0456  0.8508
 7759SOL     OW34909   4.191   2.517   6.102  0.0618 -0.0119  0.1580
 7759SOL    HW134910   4.149   2.603   6.109  1.8507  0.7923  1.0025
 7759SOL    HW234911   4.284   2.531   6.084  0.3528 -1.9228  0.2310
 7760SOL     OW34912   3.717   0.953   3.664 -0.2620 -0.0836  0.0430
 7760SOL    HW134913   3.811   0.958   3.682 -0.1556 -1.3199 -0.1923
 7760SOL    HW234914   3.706   0.988   3.575 -0.5056 -2.2335 -0.7617
 7761SOL     OW34915   4.142   1.155   4.121 -0.7831  0.5200 -0.5779
 7761SOL    HW134916   4.108   1.220   4.182  1.4402  0.8509  0.3063
 7761SOL    HW234917   4.086   1.079   4.141 -0.1077  0.0942 -0.2868
 7762SOL     OW34918   1.671   2.438  10.489  0.1333 -0.1267  0.1050
 7762SOL    HW134919   1.630   2.379  10.552  1.4246  0.1886  1.2518
 7762SOL    HW234920   1.764   2.416  10.500 -0.1633 -1.6227 -0.4022
 7763SOL     OW34921   4.175   0.084  11.451 -0.6969 -0.5306  0.5586
 7763SOL    HW134922   4.263   0.054  11.473 -0.7187  0.1047  1.5051
 7763SOL    HW234923   4.178   0.088  11.355  2.0671 -0.2224  0.6405
 7764SOL     OW34924   0.047   4.391   7.503 -0.8166 -0.3404 -0.1634
 7764SOL    HW134925   0.035   4.329   7.431 -0.8702 -1.2224  0.6049
 7764SOL    HW234926   0.025   4.324   7.568  0.8126  0.6602  1.3803
 7765SOL     OW34927   1.301   3.734   9.589  0.3029  0.1670  0.0486
 7765SOL    HW134928   1.236   3.788   9.634 -0.4808 -0.6765 -0.0605
 7765SOL    HW234929   1.287   3.645   9.623  0.1456  0.1272 -0.1204
 7766SOL     OW34930   4.397   3.021  10.998 -0.3109 -0.4218  0.2757
 7766SOL    HW134931   4.424   2.959  11.065  2.4207  0.1537 -0.2907
 7766SOL    HW234932   4.482   3.059  10.975 -0.2429  0.3753  1.8773
 7767SOL     OW34933   4.380   1.559  17.743  0.4350 -0.0598 -0.7437
 7767SOL    HW134934   4.310   1.507  17.704 -0.3613 -0.6203  1.4362
 7767SOL    HW234935   4.355   1.555   0.079  1.0362 -1.2498 -0.6270
 7768SOL     OW34936   3.212   1.631   4.209 -0.1481 -0.1122  0.3256
 7768SOL    HW134937   3.200   1.718   4.246  1.1502 -0.3848  1.3668
 7768SOL    HW234938   3.137   1.632   4.149  0.0852 -1.1851  0.0117
 7769SOL     OW34939   0.156   4.635   6.790 -0.4473  0.6051 -0.3617
 7769SOL    HW134940   0.137   4.605   6.701  0.1407  1.1103 -0.6621
 7769SOL    HW234941   0.213   4.709   6.769 -0.2529  1.0728  1.8292
 7770SOL     OW34942   2.943   0.932   7.568  0.7095  0.3565 -0.0547
 7770SOL    HW134943   3.017   0.916   7.510  0.4360  1.2199 -0.6325
 7770SOL    HW234944   2.987   0.993   7.629 -0.5606 -0.6121  1.8331
 7771SOL     OW34945   1.178   3.000   2.268  0.6791  0.3245 -0.1465
 7771SOL    HW134946   1.169   3.009   2.363 -1.5403 -3.1956 -0.0379
 7771SOL    HW234947   1.102   3.055   2.249  0.4945 -0.0906 -0.6157
 7772SOL     OW34948   2.181   0.718   3.463  0.5948 -0.3713 -0.0050
 7772SOL    HW134949   2.186   0.792   3.524 -1.5229 -1.1596  1.1353
 7772SOL    HW234950   2.088   0.721   3.438  0.7128  1.7055 -0.2657
 7773SOL     OW34951   2.779   0.857   5.679 -0.6429  0.7312  0.1266
 7773SOL    HW134952   2.748   0.809   5.602 -2.1621  0.2366  1.0382
 7773SOL    HW234953   2.714   0.926   5.690 -0.0638  1.3138 -0.0775
 7774SOL     OW34954   1.792   0.938   5.129 -0.1580 -0.3483  0.6353
 7774SOL    HW134955   1.743   1.009   5.170  0.6160  1.4185 -1.5286
 7774SOL    HW234956   1.777   0.951   5.035 -2.5518 -1.3209  0.8800
 7775SOL     OW34957   2.516   0.593   8.913 -0.2743  0.5412 -0.0721
 7775SOL    HW134958   2.600   0.549   8.929  0.5543  1.8210 -0.8820
 7775SOL    HW234959   2.534   0.665   8.973 -0.7199  2.5724 -2.3589
 7776SOL     OW34960   3.925   2.729   8.723 -0.2736  0.0502  0.2549
 7776SOL    HW134961   3.935   2.811   8.676 -0.5353 -0.6223 -0.9827
 7776SOL    HW234962   3.868   2.776   8.784  0.9545  0.5104  1.0438
 7777SOL     OW34963   3.977   0.026   1.893  0.4127 -0.0873  0.2234
 7777SOL    HW134964   3.925   4.688   1.918 -0.0232 -0.5260 -2.0250
 7777SOL    HW234965   4.000   4.722   1.811  1.2339  1.2910 -0.2697
 7778SOL     OW34966   2.378   1.040   9.091  0.4269  0.6538  0.0420
 7778SOL    HW134967   2.360   1.117   9.037 -1.7954  0.8457  1.0695
 7778SOL    HW234968   2.419   1.079   9.169  1.4587  0.3236 -0.3365
 7779SOL     OW34969   0.740   2.663   6.217 -0.1434  0.1910  0.0473
 7779SOL    HW134970   0.788   2.585   6.244 -0.9480 -0.3634 -0.1252
 7779SOL    HW234971   0.728   2.638   6.125 -2.5393 -0.3637  0.5246
 7780SOL     OW34972   1.552   2.707   9.478 -0.4191  0.3980 -0.2453
 7780SOL    HW134973   1.630   2.742   9.522 -0.2517 -1.1871  0.7434
 7780SOL    HW234974   1.533   2.630   9.533 -0.5733  0.3189 -0.4112
 7781SOL     OW34975   1.501   2.404   6.141 -0.3704  0.2213  0.1715
 7781SOL    HW134976   1.553   2.336   6.099  1.5087  1.2614  0.8042
 7781SOL    HW234977   1.440   2.340   6.180  1.7555 -0.9724  1.5494
 7782SOL     OW34978   1.521   0.584   2.375  0.4098  0.5889  0.2625
 7782SOL    HW134979   1.586   0.594   2.306  1.4102  0.5581  1.2123
 7782SOL    HW234980   1.580   0.564   2.448  0.5144  1.4334  0.4013
 7783SOL     OW34981   3.956   3.804  16.659 -0.4214 -0.5214  0.0335
 7783SOL    HW134982   3.896   3.847  16.598  0.9611 -0.8527 -1.5952
 7783SOL    HW234983   4.037   3.812  16.608 -0.6886  0.4127 -0.2267
 7784SOL     OW34984   3.526   4.463   1.912 -0.4530 -0.4412  0.1946
 7784SOL    HW134985   3.444   4.453   1.960 -1.4688  0.5610 -1.3245
 7784SOL    HW234986   3.504   4.429   1.825 -0.8922  2.3706 -0.7900
 7785SOL     OW34987   0.631   3.275  12.552  0.1793 -0.0050 -0.5214
 7785SOL    HW134988   0.651   3.191  12.594 -1.4621 -0.1806 -0.0815
 7785SOL    HW234989   0.634   3.338  12.624  1.9296  2.0376 -2.3899
 7786SOL     OW34990   4.201   0.856   9.992 -0.3088  0.1890 -0.4459
 7786SOL    HW134991   4.281   0.906   9.979  0.6430 -1.0781  0.5724
 7786SOL    HW234992   4.159   0.885   9.910 -1.0625 -2.6777 -1.0674
 7787SOL     OW34993   0.168   0.022  10.849 -0.0169  0.0011 -0.2549
 7787SOL    HW134994   0.137   4.696  10.787 -0.8780 -1.1286  1.3795
 7787SOL    HW234995   0.180   0.098  10.792  0.1763  1.6076  1.9167
 7788SOL     OW34996   3.420   3.399   8.215  0.1952  0.2686  0.0107
 7788SOL    HW134997   3.504   3.405   8.261  1.4543 -3.8423 -1.8209
 7788SOL    HW234998   3.419   3.477   8.160 -0.9847 -0.6263 -1.1993
 7789SOL     OW34999   3.002   2.616  13.260  0.2904  0.7027  0.0495
 7789SOL    HW135000   2.962   2.653  13.338  1.4788 -2.1260  2.0030
 7789SOL    HW235001   2.939   2.644  13.193 -0.2072 -0.4141  0.0553
 7790SOL     OW35002   2.699   4.404   2.509  0.1838 -0.2116 -0.1277
 7790SOL    HW135003   2.699   4.336   2.443 -1.1372 -1.3555  1.0556
 7790SOL    HW235004   2.628   4.389   2.571  0.7402 -1.6750  0.1529
 7791SOL     OW35005   3.835   4.731   8.696 -0.2434  0.5579 -0.1818
 7791SOL    HW135006   3.812   0.081   8.722 -2.6070 -0.2645  0.5897
 7791SOL    HW235007   3.886   4.704   8.772  0.5761 -0.8402 -1.2246
 7792SOL     OW35008   1.917   2.168   3.462  0.7824  0.0861 -0.7276
 7792SOL    HW135009   1.976   2.238   3.435 -0.1977  0.6043 -1.5225
 7792SOL    HW235010   1.862   2.148   3.386  0.3361  1.0696 -0.6604
 7793SOL     OW35011   0.553   1.852   2.341 -0.6259 -0.6190 -0.0680
 7793SOL    HW135012   0.587   1.861   2.430  0.8884  0.4520 -0.7583
 7793SOL    HW235013   0.514   1.765   2.335 -1.4660 -0.2475 -0.0191
 7794SOL     OW35014   4.382   2.312   5.626 -0.1217 -0.1517 -0.1675
 7794SOL    HW135015   4.289   2.298   5.641 -0.0124 -1.2010 -0.4966
 7794SOL    HW235016   4.386   2.318   5.531  1.1641  3.3948  0.0927
 7795SOL     OW35017   0.620   3.777   8.755  0.2046 -0.3516  0.3714
 7795SOL    HW135018   0.699   3.830   8.750 -0.5387  0.3220 -3.6624
 7795SOL    HW235019   0.649   3.697   8.800  0.8297  1.2853  2.8585
 7796SOL     OW35020   0.848   3.624   9.992  0.4142 -0.4234 -0.0096
 7796SOL    HW135021   0.864   3.624  10.086  0.4955  2.5971 -0.0283
 7796SOL    HW235022   0.870   3.536   9.962 -0.4670 -0.3716 -0.8216
 7797SOL     OW35023   0.329   0.119  10.043  0.4934  0.1361  0.0001
 7797SOL    HW135024   0.392   0.190  10.033 -0.9172  1.5989  1.3664
 7797SOL    HW235025   0.259   0.167  10.088  2.4382  2.3263  0.6926
 7798SOL     OW35026   0.652   1.156   5.169 -0.4963  0.1453 -0.4628
 7798SOL    HW135027   0.574   1.132   5.119 -0.2212  0.3222 -0.9805
 7798SOL    HW235028   0.724   1.153   5.106  1.2219 -1.7094  1.6238
 7799SOL     OW35029   0.905   0.312  12.542  0.1308  0.5623 -0.0187
 7799SOL    HW135030   0.870   0.395  12.576  0.2764  1.2275 -1.4931
 7799SOL    HW235031   0.938   0.268  12.620 -0.4169  0.0999 -0.0546
 7800SOL     OW35032   4.544   1.647   8.244 -0.4725 -1.1567  0.1853
 7800SOL    HW135033   4.570   1.591   8.317  0.5852 -0.6622  0.1890
 7800SOL    HW235034   4.576   1.730   8.279 -0.2966 -2.0849  2.2581
 7801SOL     OW35035   0.380   4.245   5.516  0.4668  0.2532  0.3769
 7801SOL    HW135036   0.423   4.166   5.484  1.1044  0.3734  0.9291
 7801SOL    HW235037   0.289   4.227   5.492  0.4838  0.3760  0.2168
 7802SOL     OW35038   2.211   1.962   2.387 -0.3654  0.2650 -0.4560
 7802SOL    HW135039   2.218   1.892   2.452 -1.8140 -0.0204 -0.6189
 7802SOL    HW235040   2.116   1.966   2.381 -0.3597 -0.8839 -1.2940
 7803SOL     OW35041   4.054   1.715   4.706  0.2175 -0.4489  0.0912
 7803SOL    HW135042   4.083   1.802   4.736  1.0745 -0.7548  0.1568
 7803SOL    HW235043   4.020   1.687   4.791  0.7710 -2.1232 -0.2502
 7804SOL     OW35044   0.319   1.833   2.680  0.2776 -0.3313  0.6660
 7804SOL    HW135045   0.302   1.781   2.759  0.8824 -0.4122  0.7410
 7804SOL    HW235046   0.413   1.825   2.671  0.4800  0.0663  2.4524
 7805SOL     OW35047   1.502   2.962   7.545  0.4302 -0.4486 -0.1364
 7805SOL    HW135048   1.568   2.905   7.583  1.8012  0.1753 -1.5788
 7805SOL    HW235049   1.484   3.020   7.619  1.4632  0.1517 -0.3508
 7806SOL     OW35050   1.690   2.133   9.077  0.2336 -0.1208  0.0821
 7806SOL    HW135051   1.643   2.111   8.997 -4.1638  1.1076  2.3311
 7806SOL    HW235052   1.783   2.126   9.054 -0.5703 -0.4329 -2.9845
 7807SOL     OW35053   3.415   3.681   9.812 -0.0747  0.0419 -0.5031
 7807SOL    HW135054   3.416   3.637   9.897  1.0467  0.1015 -0.4854
 7807SOL    HW235055   3.422   3.608   9.751  1.6272 -0.5174  0.3805
 7808SOL     OW35056   4.254   0.310  12.646  0.2350  0.3028 -0.5308
 7808SOL    HW135057   4.332   0.366  12.637  0.0063  0.6876 -0.0915
 7808SOL    HW235058   4.220   0.313  12.556 -1.2278 -0.4388  0.0069
 7809SOL     OW35059   1.755   3.390   3.073 -0.6007  0.0836 -0.0606
 7809SOL    HW135060   1.662   3.370   3.085 -0.6755 -1.6530 -3.6276
 7809SOL    HW235061   1.761   3.472   3.121  3.1243 -0.5075  0.5277
 7810SOL     OW35062   0.770   1.755   3.145  0.3028  0.2101  0.4657
 7810SOL    HW135063   0.768   1.703   3.226  0.1572 -1.2367 -0.4516
 7810SOL    HW235064   0.713   1.701   3.090  0.1109 -1.0781  1.9205
 7811SOL     OW35065   2.773   0.798   3.046  0.4383 -0.1515 -0.1295
 7811SOL    HW135066   2.744   0.854   3.118  0.4581  1.8137 -1.6368
 7811SOL    HW235067   2.856   0.771   3.086  0.4116 -2.0838 -1.3790
 7812SOL     OW35068   3.863   2.952   8.585  0.3981 -0.6454 -1.3320
 7812SOL    HW135069   3.918   3.030   8.577  0.4147 -0.5859 -0.6509
 7812SOL    HW235070   3.773   2.978   8.563  0.9515  2.8220  0.4799
 7813SOL     OW35071   0.443   1.459   8.236  0.3834 -0.0827 -0.8902
 7813SOL    HW135072   0.405   1.372   8.250  0.0945  0.3981  1.3014
 7813SOL    HW235073   0.510   1.468   8.304 -0.2989  0.4489 -0.2871
 7814SOL     OW35074   1.716   4.079   0.011  0.1317  0.0722 -0.5941
 7814SOL    HW135075   1.632   4.103  17.727 -0.3331  0.9315  0.8975
 7814SOL    HW235076   1.780   4.124  17.711 -1.4220  0.2512 -2.2226
 7815SOL     OW35077   3.473   1.515   7.686  0.0098 -0.0161  0.1137
 7815SOL    HW135078   3.383   1.500   7.659  0.7157 -0.7890 -1.7824
 7815SOL    HW235079   3.523   1.455   7.631 -0.5247 -0.4629  0.1118
 7816SOL     OW35080   1.321   1.836  14.736  0.1690  0.3246  0.6545
 7816SOL    HW135081   1.293   1.745  14.745 -0.8436  0.6527  0.8138
 7816SOL    HW235082   1.240   1.886  14.720  1.3272  2.4438  1.4094
 7817SOL     OW35083   0.774   0.576   5.125  0.2525 -0.4992  0.3034
 7817SOL    HW135084   0.856   0.624   5.113 -0.1656  0.4626  1.3004
 7817SOL    HW235085   0.741   0.566   5.035  1.6672 -1.8854 -0.0525
 7818SOL     OW35086   0.103   1.887  15.849  0.0156  0.1423 -0.4843
 7818SOL    HW135087   0.072   1.803  15.815 -1.1148 -1.0481  3.5010
 7818SOL    HW235088   0.030   1.946  15.829  0.3686  0.2918 -1.3142
 7819SOL     OW35089   3.747   3.013   9.121 -0.2897 -0.0407 -0.1172
 7819SOL    HW135090   3.810   3.053   9.181 -0.7540  2.2892 -1.1632
 7819SOL    HW235091   3.720   3.085   9.064  0.2017 -0.5966 -1.0529
 7820SOL     OW35092   0.999   0.930   1.855 -0.3924 -0.4656  0.1573
 7820SOL    HW135093   1.035   1.008   1.812  0.8481 -1.4679 -0.6084
 7820SOL    HW235094   1.002   0.954   1.947  1.0712  1.4318 -0.3807
 7821SOL     OW35095   3.281   4.204   9.447 -0.6199 -0.5949  0.3720
 7821SOL    HW135096   3.332   4.148   9.506 -1.0242 -2.0994 -0.7327
 7821SOL    HW235097   3.211   4.225   9.509 -1.1800 -1.3463 -0.0174
 7822SOL     OW35098   1.370   4.361  14.375 -0.2181 -0.3452 -0.4933
 7822SOL    HW135099   1.304   4.317  14.321  0.8308  0.7032 -2.6146
 7822SOL    HW235100   1.371   4.304  14.452  0.4113 -1.1277 -1.0761
 7823SOL     OW35101   1.599   0.349   3.213 -0.5369  0.3278  0.0198
 7823SOL    HW135102   1.605   0.346   3.118 -1.6193  1.0417 -0.0640
 7823SOL    HW235103   1.517   0.395   3.231  0.5286  2.2077  0.0639
 7824SOL     OW35104   0.901   2.036   6.696  0.1411 -0.0744  0.1445
 7824SOL    HW135105   0.850   1.997   6.625 -1.5698  0.7890  0.9143
 7824SOL    HW235106   0.985   2.051   6.654  0.3656 -0.2382  0.5310
 7825SOL     OW35107   1.660   0.788   0.617 -0.3622  0.6627 -0.5073
 7825SOL    HW135108   1.699   0.830   0.693  0.5401  0.6693 -0.9799
 7825SOL    HW235109   1.665   0.695   0.641 -0.5968  0.8503  0.2516
 7826SOL     OW35110   4.639   1.181  12.203 -0.0713  0.5190 -0.3540
 7826SOL    HW135111   4.661   1.200  12.295  3.4870 -1.7027 -0.7603
 7826SOL    HW235112   4.729   1.163  12.176  0.4428  0.1400  1.5791
 7827SOL     OW35113   2.992   2.659   8.973 -0.3942  0.9912  0.5721
 7827SOL    HW135114   3.029   2.648   8.885  0.1849  0.7106  0.8458
 7827SOL    HW235115   3.036   2.591   9.025  0.7410  2.6603  1.8137
 7828SOL     OW35116   3.475   1.903   4.487  0.0431  0.1738 -0.0158
 7828SOL    HW135117   3.519   1.877   4.568  0.2351  2.4798  0.6231
 7828SOL    HW235118   3.457   1.819   4.446  1.3207  0.6772 -1.5654
 7829SOL     OW35119   2.233   3.955  16.376 -0.2415  0.3378  0.6676
 7829SOL    HW135120   2.141   3.961  16.350 -0.3953 -0.3593  1.0343
 7829SOL    HW235121   2.253   4.048  16.370 -2.5323  0.7282 -1.5184
 7830SOL     OW35122   2.488   0.533   9.314  0.2602  1.0485 -1.1580
 7830SOL    HW135123   2.474   0.443   9.343  0.0038  1.2183 -0.7638
 7830SOL    HW235124   2.424   0.535   9.243 -1.4754 -0.3260  0.3589
 7831SOL     OW35125   2.947   1.193   7.953  0.2909  0.3014 -0.6818
 7831SOL    HW135126   3.040   1.214   7.942 -0.3615  4.3847  1.6727
 7831SOL    HW235127   2.915   1.219   7.867  0.8664 -0.7556 -1.2072
 7832SOL     OW35128   1.122   4.004   9.203 -0.1274  0.7137 -0.2142
 7832SOL    HW135129   1.143   3.918   9.166 -2.6694 -0.3053  0.6645
 7832SOL    HW235130   1.205   4.048   9.186  0.3651 -0.6299 -1.2891
 7833SOL     OW35131   1.022   2.564   2.789 -0.3668  0.1335  0.3934
 7833SOL    HW135132   1.072   2.560   2.870 -1.3506  0.5265  1.0129
 7833SOL    HW235133   1.084   2.524   2.727  1.7991  2.7934  0.8817
 7834SOL     OW35134   1.394   1.306   8.973  0.0596 -0.2136 -0.5367
 7834SOL    HW135135   1.363   1.221   8.941 -0.6368 -1.0303  2.3343
 7834SOL    HW235136   1.478   1.279   9.009  0.0661  1.6762  0.8464
 7835SOL     OW35137   3.844   2.178   9.567  0.5591 -0.5615 -0.2847
 7835SOL    HW135138   3.797   2.256   9.595  0.8696  0.1476 -1.6983
 7835SOL    HW235139   3.846   2.126   9.647  0.7696 -1.0171 -0.5803
 7836SOL     OW35140   2.163   3.470   6.324 -0.2730 -0.0803 -0.5160
 7836SOL    HW135141   2.099   3.541   6.336  0.4217  0.7611 -1.7680
 7836SOL    HW235142   2.189   3.490   6.233  0.0898  3.3416  0.3233
 7837SOL     OW35143   2.688   1.529   2.692 -0.2237  0.1906  0.2581
 7837SOL    HW135144   2.682   1.438   2.720  2.7438  0.5807  2.2078
 7837SOL    HW235145   2.598   1.561   2.694 -0.1271  0.4464  0.5156
 7838SOL     OW35146   3.502   0.384  11.478 -0.9861 -0.1148  0.1394
 7838SOL    HW135147   3.596   0.380  11.462 -1.3333 -0.8636 -1.7046
 7838SOL    HW235148   3.487   0.478  11.470  0.3795 -0.1058 -2.1577
 7839SOL     OW35149   3.419   3.004   7.965  0.5401  0.5515  0.2837
 7839SOL    HW135150   3.370   2.970   7.890  0.7692 -2.4279  1.4580
 7839SOL    HW235151   3.356   3.059   8.011  0.7252  0.8852  0.1374
 7840SOL     OW35152   1.204   1.547  11.773 -0.3085 -0.4944  0.0981
 7840SOL    HW135153   1.293   1.580  11.756 -0.8409  0.4860 -0.8035
 7840SOL    HW235154   1.222   1.456  11.750  2.5664 -0.0370  0.5351
 7841SOL     OW35155   2.704   3.329   5.483 -0.3079 -0.2758  0.2057
 7841SOL    HW135156   2.775   3.319   5.419  0.8297  0.8153  1.2955
 7841SOL    HW235157   2.753   3.352   5.562 -2.3782  0.1491  1.3699
 7842SOL     OW35158   3.626   2.513   3.173  0.1665  0.5060  0.2603
 7842SOL    HW135159   3.606   2.607   3.178 -0.5223  0.4706 -1.5831
 7842SOL    HW235160   3.537   2.479   3.163  0.1499 -0.2312  3.0906
 7843SOL     OW35161   0.953   0.457  11.902 -0.2056 -0.3321  0.5118
 7843SOL    HW135162   1.010   0.382  11.920  0.6761 -0.1501 -1.4696
 7843SOL    HW235163   0.976   0.516  11.974  0.6129 -1.0671  0.8487
 7844SOL     OW35164   2.059   1.170  14.128  0.0601  0.0428 -0.6378
 7844SOL    HW135165   2.002   1.238  14.163  0.6065 -0.4488  1.2658
 7844SOL    HW235166   2.144   1.184  14.169 -0.8588 -0.4900  1.4886
 7845SOL     OW35167   2.506   2.266   6.074 -0.5231 -0.1472 -0.0397
 7845SOL    HW135168   2.536   2.328   6.141  0.6840 -0.4186 -0.3357
 7845SOL    HW235169   2.588   2.221   6.052 -0.3265 -0.0818  0.5663
 7846SOL     OW35170   3.755   0.032  17.065  0.2652  0.0024 -0.0779
 7846SOL    HW135171   3.833   4.729  17.030 -0.8187 -1.1852 -1.0956
 7846SOL    HW235172   3.720   0.086  16.994  1.1650  1.7073  0.7747
 7847SOL     OW35173   3.370   4.543   5.948 -0.3811  0.3826  0.1099
 7847SOL    HW135174   3.352   4.630   5.984 -0.3545  0.3329  0.2441
 7847SOL    HW235175   3.352   4.563   5.856  1.3532 -0.8550 -0.4909
 7848SOL     OW35176   1.573   2.277   3.915  0.1230  0.4936  0.6673
 7848SOL    HW135177   1.537   2.257   3.829  0.3940  1.3711  0.3534
 7848SOL    HW235178   1.567   2.194   3.963 -0.9854 -0.0384 -0.3856
 7849SOL     OW35179   2.019   2.686   9.401 -0.4753 -0.3196  0.1065
 7849SOL    HW135180   2.068   2.678   9.319  0.0714 -2.1543  0.6103
 7849SOL    HW235181   2.028   2.780   9.417  0.5600 -0.4969  0.5614
 7850SOL     OW35182   0.255   0.434  17.305  0.0800 -0.5730 -0.2747
 7850SOL    HW135183   0.328   0.372  17.296 -0.5770 -1.6658  1.8918
 7850SOL    HW235184   0.303   0.512  17.332 -1.0681 -0.3694  1.1647
 7851SOL     OW35185   0.430   3.101   8.067  0.0142 -0.1133  0.3908
 7851SOL    HW135186   0.450   3.185   8.108 -0.5193 -0.1700  0.7687
 7851SOL    HW235187   0.388   3.061   8.144 -0.4288 -1.4111 -0.5218
 7852SOL     OW35188   0.763   0.561   8.956  0.2475  0.3292 -0.3586
 7852SOL    HW135189   0.743   0.514   8.875 -3.5898  2.2914 -0.5254
 7852SOL    HW235190   0.716   0.643   8.940  3.2632  2.0867 -0.2212
 7853SOL     OW35191   4.350   2.557   4.497  0.3548  0.2752  0.4223
 7853SOL    HW135192   4.372   2.634   4.550  0.0158 -0.4414  1.6014
 7853SOL    HW235193   4.438   2.537   4.465  0.3060 -1.8198  1.6063
 7854SOL     OW35194   1.843   3.223  10.099  0.2444 -0.1519 -0.0757
 7854SOL    HW135195   1.894   3.233  10.019  1.0346  0.0990  0.4651
 7854SOL    HW235196   1.763   3.183  10.063  0.4692  1.0493 -1.8680
 7855SOL     OW35197   0.085   3.296   5.046  0.4797 -0.1901  0.0922
 7855SOL    HW135198   0.057   3.205   5.036  0.4297 -0.0805 -0.7433
 7855SOL    HW235199   0.132   3.279   5.128 -1.5674 -3.1098  0.6592
 7856SOL     OW35200   3.990   3.814   5.117  0.0671 -0.9937 -0.3403
 7856SOL    HW135201   4.033   3.730   5.133 -1.5151 -1.6811  0.4204
 7856SOL    HW235202   3.915   3.787   5.064  0.1887 -2.0704  0.0337
 7857SOL     OW35203   1.853   2.766   4.177 -0.5598  0.0520 -0.0446
 7857SOL    HW135204   1.897   2.806   4.252 -0.4672  0.3348 -0.2494
 7857SOL    HW235205   1.878   2.674   4.188  2.3816  0.8452 -0.2245
 7858SOL     OW35206   2.698   2.419   6.630 -0.2302 -0.6872 -0.1656
 7858SOL    HW135207   2.735   2.477   6.697  0.7508 -1.1357 -0.3302
 7858SOL    HW235208   2.604   2.441   6.633  0.1759  0.8873  1.3478
 7859SOL     OW35209   3.445   3.935   5.317 -0.3929 -0.5300 -0.3099
 7859SOL    HW135210   3.400   3.885   5.385 -0.1150  0.8593  0.9095
 7859SOL    HW235211   3.522   3.972   5.361 -2.0813  0.4146  1.8593
 7860SOL     OW35212   3.345   2.807   5.858 -0.0122  0.1204 -0.0106
 7860SOL    HW135213   3.276   2.799   5.924 -0.3415  2.3675 -0.0910
 7860SOL    HW235214   3.317   2.751   5.785 -1.2255 -0.9073  1.2387
 7861SOL     OW35215   1.503   3.725   2.801 -0.3099 -0.2395 -0.0191
 7861SOL    HW135216   1.452   3.786   2.854  0.4767  1.4837 -1.2521
 7861SOL    HW235217   1.479   3.647   2.851  1.2684 -0.9376 -0.3402
 7862SOL     OW35218   0.272   2.131   5.098 -0.2701  0.4870 -0.4554
 7862SOL    HW135219   0.351   2.084   5.071  0.4563  0.7091  1.3433
 7862SOL    HW235220   0.290   2.128   5.192 -0.8811 -0.7202 -0.3721
 7863SOL     OW35221   1.831   1.886   8.958 -0.3013  0.5314 -0.6058
 7863SOL    HW135222   1.758   1.840   8.917 -1.0624  0.8464  0.3877
 7863SOL    HW235223   1.846   1.956   8.895 -0.3309 -0.8879 -2.2037
 7864SOL     OW35224   3.794   0.066   7.876 -0.3426 -0.4294 -0.3401
 7864SOL    HW135225   3.782   0.020   7.958 -0.8970 -0.7190 -0.5855
 7864SOL    HW235226   3.881   0.043   7.843  0.3099  1.0178  0.3585
 7865SOL     OW35227   3.366   2.016   9.230  0.0407 -0.8197 -0.2896
 7865SOL    HW135228   3.448   2.034   9.183 -0.3346  0.5708 -0.4240
 7865SOL    HW235229   3.393   1.944   9.288 -1.5171 -1.0598  0.1232
 7866SOL     OW35230   2.480   3.824  16.464 -0.4879 -0.8096  0.1879
 7866SOL    HW135231   2.397   3.868  16.445 -0.1759 -0.4544 -0.3557
 7866SOL    HW235232   2.446   3.762  16.529 -1.4098 -2.5141 -1.9210
 7867SOL     OW35233   0.588   2.188  11.978  0.2001 -0.1334  0.0049
 7867SOL    HW135234   0.588   2.252  11.907  0.0143 -1.1626 -0.9341
 7867SOL    HW235235   0.636   2.129  11.920  1.3045  0.6352  0.1599
 7868SOL     OW35236   3.554   4.379   0.665  0.2367  0.1014  0.2095
 7868SOL    HW135237   3.525   4.428   0.741 -0.9600 -1.2696  0.6439
 7868SOL    HW235238   3.616   4.450   0.652 -1.1925  1.3419  0.1681
 7869SOL     OW35239   3.286   4.519   6.672  0.0089  1.1646 -0.0676
 7869SOL    HW135240   3.374   4.508   6.636  0.8609  1.4302  1.9091
 7869SOL    HW235241   3.305   4.552   6.760  4.7224 -3.1326  0.5632
 7870SOL     OW35242   2.231   4.133   3.868  0.5671  0.0380 -0.2396
 7870SOL    HW135243   2.221   4.178   3.953  0.6799 -0.2691 -0.0650
 7870SOL    HW235244   2.271   4.055   3.906 -1.3582 -1.2559 -0.8623
 7871SOL     OW35245   1.282   4.238  13.471  0.0654  0.2227  0.4723
 7871SOL    HW135246   1.305   4.217  13.562  0.3499  0.6275  0.4927
 7871SOL    HW235247   1.246   4.154  13.445  1.8925 -0.8710  1.4579
 7872SOL     OW35248   1.891   1.567   9.057 -0.3502  0.2255 -0.7611
 7872SOL    HW135249   1.847   1.599   9.135  0.3181 -2.3717  0.6651
 7872SOL    HW235250   1.815   1.570   8.999 -0.7412 -1.4199 -0.3238
 7873SOL     OW35251   1.656   4.493   5.233  0.0018  0.1503 -0.4107
 7873SOL    HW135252   1.705   4.566   5.271 -1.6912  1.0345  0.0642
 7873SOL    HW235253   1.710   4.479   5.155  0.5481 -0.8655  0.1638
 7874SOL     OW35254   4.239   1.422   4.021 -0.4049 -0.4314 -0.2246
 7874SOL    HW135255   4.260   1.335   4.054 -0.6835 -1.0683 -1.7434
 7874SOL    HW235256   4.321   1.461   3.990 -1.3859  0.0972 -2.1508
 7875SOL     OW35257   1.701   2.049  17.172  0.0683 -0.4320  0.6633
 7875SOL    HW135258   1.751   2.119  17.214  0.3089  1.0035 -1.9794
 7875SOL    HW235259   1.652   2.093  17.103  1.5969  3.0516  1.8252
 7876SOL     OW35260   3.286   1.828   8.831 -0.5691 -0.2845 -0.2814
 7876SOL    HW135261   3.213   1.802   8.774 -0.2962  0.6182 -1.0480
 7876SOL    HW235262   3.344   1.753   8.817 -1.8850 -1.1500 -1.1213
 7877SOL     OW35263   1.809   3.733   8.896 -0.5468 -0.5204 -0.2017
 7877SOL    HW135264   1.854   3.746   8.812 -1.9540  2.4169 -0.4883
 7877SOL    HW235265   1.757   3.655   8.876  0.7261 -0.6948 -2.8771
 7878SOL     OW35266   0.255   2.995   4.201  0.1889  0.0105 -0.1471
 7878SOL    HW135267   0.213   3.070   4.160  1.2684  0.2791 -0.7396
 7878SOL    HW235268   0.235   3.006   4.294 -0.0794  2.1741 -0.4634
 7879SOL     OW35269   1.011   0.738   5.470 -0.1477  0.3731 -0.4266
 7879SOL    HW135270   0.965   0.797   5.411 -2.7956  0.0182  1.2918
 7879SOL    HW235271   0.990   0.653   5.431  0.3499 -0.0633  0.2407
 7880SOL     OW35272   2.405   2.976   7.557 -0.1335 -0.8985  0.0313
 7880SOL    HW135273   2.485   2.935   7.593  1.3655  0.1590 -2.1220
 7880SOL    HW235274   2.367   3.006   7.640  1.2761 -1.5986  0.9437
 7881SOL     OW35275   2.711   2.020  14.937 -0.2989  0.1725 -0.1270
 7881SOL    HW135276   2.647   2.013  15.008  0.0110  1.3203  0.2642
 7881SOL    HW235277   2.741   1.930  14.923  2.8143  0.9957  1.1959
 7882SOL     OW35278   1.254   4.128   2.946  0.5074  0.1141 -0.0509
 7882SOL    HW135279   1.230   4.120   3.038 -4.1657  0.8952 -1.2305
 7882SOL    HW235280   1.177   4.169   2.907 -0.1022  0.4926  1.5552
 7883SOL     OW35281   1.024   2.767  14.542  0.1444 -0.2936 -0.1240
 7883SOL    HW135282   1.043   2.861  14.539 -0.2205 -0.1682  1.2546
 7883SOL    HW235283   0.960   2.766  14.613 -0.4664 -0.3732 -0.6773
 7884SOL     OW35284   0.401   1.237   4.621  0.8089  0.0246  0.2629
 7884SOL    HW135285   0.455   1.177   4.672 -0.5595 -2.4605 -1.1894
 7884SOL    HW235286   0.441   1.323   4.627  0.6996  0.0355  0.8248
 7885SOL     OW35287   1.032   1.862   7.595 -0.0350  0.4388 -0.0875
 7885SOL    HW135288   1.104   1.807   7.563 -1.1990 -0.5159 -1.0525
 7885SOL    HW235289   0.965   1.796   7.608  0.1864  0.0069 -1.1296
 7886SOL     OW35290   2.638   3.680   4.712 -0.0688  0.3451  0.8695
 7886SOL    HW135291   2.548   3.652   4.729 -0.1440 -0.3906 -0.7657
 7886SOL    HW235292   2.666   3.684   4.804  1.9716  2.0743  0.1746
 7887SOL     OW35293   1.441   0.019   8.363  0.2517  0.3091 -0.3687
 7887SOL    HW135294   1.396   4.675   8.348 -0.7902  0.7753  0.2207
 7887SOL    HW235295   1.523   0.008   8.315  0.9623 -1.0212  1.1636
 7888SOL     OW35296   3.188   2.715   3.912 -0.0045  0.2696  0.2884
 7888SOL    HW135297   3.276   2.745   3.938 -0.3053  0.4203  1.1372
 7888SOL    HW235298   3.201   2.674   3.826  1.9572 -2.0375  1.6562
 7889SOL     OW35299   4.714   2.990   2.211 -1.0762  0.0192 -0.1959
 7889SOL    HW135300   4.713   2.905   2.167  0.6880 -0.1087  0.0136
 7889SOL    HW235301   4.624   3.024   2.206 -1.3086 -0.5476  0.1319
 7890SOL     OW35302   4.535   1.066   3.590  0.1633  0.4378 -0.4123
 7890SOL    HW135303   4.553   1.055   3.497 -1.2568  0.8245 -0.7226
 7890SOL    HW235304   4.616   1.104   3.624  1.0010 -0.5924 -1.2727
 7891SOL     OW35305   0.040   0.221   6.755  0.3826  0.3970  0.1885
 7891SOL    HW135306   0.126   0.179   6.759 -0.2618 -0.9261  0.2909
 7891SOL    HW235307   4.716   0.157   6.723  0.2321  0.5661  0.1469
 7892SOL     OW35308   4.456   3.647   6.222  0.1414  0.0428  0.6827
 7892SOL    HW135309   4.546   3.630   6.250  0.4500 -2.3689 -1.7593
 7892SOL    HW235310   4.467   3.742   6.230  1.2171 -0.1349  1.2896
 7893SOL     OW35311   2.671   4.566   7.465  0.1064  0.0923 -0.0412
 7893SOL    HW135312   2.693   4.653   7.433  1.7436  0.0315  0.9114
 7893SOL    HW235313   2.729   4.519   7.404 -0.9090 -1.2648  0.0355
 7894SOL     OW35314   4.262   4.598   5.096 -0.2657  0.2163 -0.0285
 7894SOL    HW135315   4.343   4.568   5.136  0.0779  0.7633 -0.3047
 7894SOL    HW235316   4.226   4.515   5.066  1.1533 -0.4109  0.0142
 7895SOL     OW35317   2.231   3.022  14.040 -0.3022 -0.1963 -0.0735
 7895SOL    HW135318   2.228   2.985  14.129 -1.9922  1.4021  0.5402
 7895SOL    HW235319   2.237   2.944  13.986  0.4603 -0.7080  0.7414
 7896SOL     OW35320   1.753   3.793  12.361 -0.3256  0.3645  0.8073
 7896SOL    HW135321   1.739   3.730  12.291  2.3922  1.8232 -1.0472
 7896SOL    HW235322   1.828   3.754  12.404  0.5130  1.5115  0.3860
 7897SOL     OW35323   3.201   0.454   4.383 -0.4648  0.6133  0.1692
 7897SOL    HW135324   3.238   0.432   4.298 -0.9490 -0.5140  0.2528
 7897SOL    HW235325   3.126   0.511   4.365 -1.0672 -1.0726 -2.6455
 7898SOL     OW35326   4.039   1.247  10.542 -0.0188  1.0141 -0.0401
 7898SOL    HW135327   4.072   1.255  10.632 -0.6978  0.5121  0.2462
 7898SOL    HW235328   3.945   1.264  10.548 -0.0415  2.2437 -3.8532
 7899SOL     OW35329   0.097   4.694   0.048 -0.0922  0.6003 -0.0840
 7899SOL    HW135330   0.024   0.015   0.063  0.5339  1.5753 -0.9176
 7899SOL    HW235331   0.142   4.733  17.729 -1.9924  1.1393 -0.9583
 7900SOL     OW35332   4.542   3.434   8.541 -0.3280 -0.1727 -0.1962
 7900SOL    HW135333   4.565   3.443   8.448 -0.9836  3.1438 -0.0358
 7900SOL    HW235334   4.477   3.363   8.536  0.2477 -0.5775 -1.8682
 7901SOL     OW35335   0.429   0.883  15.812 -0.0047 -0.0574 -0.3674
 7901SOL    HW135336   0.431   0.956  15.751 -1.0238  0.3630  0.0949
 7901SOL    HW235337   0.362   0.834  15.764  0.3700  0.3648 -1.3088
 7902SOL     OW35338   0.213   2.229  14.780 -0.2350 -0.5494  0.4291
 7902SOL    HW135339   0.239   2.186  14.698 -0.2128 -2.3359  1.3708
 7902SOL    HW235340   0.248   2.315  14.756 -2.9623  0.2902 -0.6234
 7903SOL     OW35341   2.677   2.669   8.988  0.0442 -0.2069  0.1359
 7903SOL    HW135342   2.756   2.723   8.980  0.9558 -1.4245  0.9128
 7903SOL    HW235343   2.707   2.578   8.986 -1.0040 -0.5707  0.6511
 7904SOL     OW35344   0.279   3.464   5.227  0.4393 -0.4033 -0.1444
 7904SOL    HW135345   0.241   3.496   5.145 -3.0983  0.9901  2.0535
 7904SOL    HW235346   0.218   3.395   5.251 -1.4728  1.7550  1.2588
 7905SOL     OW35347   1.164   0.517   4.125 -0.5840 -0.4333 -0.0546
 7905SOL    HW135348   1.217   0.449   4.084  0.2949  0.2121  0.0090
 7905SOL    HW235349   1.081   0.495   4.083 -0.6723 -0.6976  0.2672
 7906SOL     OW35350   1.620   3.349   3.705  0.2743 -0.3645  0.3083
 7906SOL    HW135351   1.579   3.323   3.623  0.3319  1.6512 -0.3689
 7906SOL    HW235352   1.704   3.303   3.702 -0.6287 -1.9149 -0.8814
 7907SOL     OW35353   4.618   2.252   3.192  0.1610 -0.5592  0.0921
 7907SOL    HW135354   4.572   2.245   3.109 -0.6721 -2.2790  0.7040
 7907SOL    HW235355   4.686   2.186   3.178 -0.5495 -1.3365  0.3560
 7908SOL     OW35356   1.894   2.946   8.646  0.0292 -0.6244 -0.1575
 7908SOL    HW135357   1.931   2.991   8.722 -1.0577 -1.6453  0.9901
 7908SOL    HW235358   1.922   2.855   8.655  4.1430  0.9201  2.3971
 7909SOL     OW35359   2.336   3.472   5.157 -0.7321  0.0399 -0.0689
 7909SOL    HW135360   2.273   3.501   5.092  0.5175  0.7218 -0.9734
 7909SOL    HW235361   2.345   3.378   5.139  0.9554  0.0197  0.8072
 7910SOL     OW35362   2.228   1.800   9.520 -0.0410  0.6471  0.0149
 7910SOL    HW135363   2.191   1.824   9.435 -1.3186  0.1470  0.4187
 7910SOL    HW235364   2.144   1.782   9.563 -0.8642  1.8735 -1.1019
 7911SOL     OW35365   1.859   3.730   8.444  0.0369 -0.7962  0.5610
 7911SOL    HW135366   1.835   3.739   8.352 -0.7495 -1.4953  0.6960
 7911SOL    HW235367   1.931   3.668   8.431  1.7438  1.1699  0.6825
 7912SOL     OW35368   0.290   0.800   9.376  0.1244  0.0290  0.0809
 7912SOL    HW135369   0.334   0.766   9.298  1.5614  0.9565  0.4772
 7912SOL    HW235370   0.304   0.732   9.442 -2.2887 -1.6202 -1.1417
 7913SOL     OW35371   1.175   3.578  13.982 -0.0735  0.0822  0.1113
 7913SOL    HW135372   1.150   3.624  13.901 -0.3359 -0.2627 -0.0035
 7913SOL    HW235373   1.155   3.486  13.963  1.3627 -0.1798 -0.1375
 7914SOL     OW35374   4.232   4.011   4.226  0.0255 -0.4986  0.1620
 7914SOL    HW135375   4.283   3.947   4.275  1.5934  1.0463  0.5498
 7914SOL    HW235376   4.300   4.041   4.165  2.2038  2.1537  3.8729
 7915SOL     OW35377   0.496   3.226   2.572  0.0563 -0.2829  0.0676
 7915SOL    HW135378   0.473   3.170   2.498  0.3085 -1.0063  0.5395
 7915SOL    HW235379   0.410   3.250   2.607  0.4382  0.8213  0.2596
 7916SOL     OW35380   2.997   1.743   5.775  0.2391  0.1575 -0.1388
 7916SOL    HW135381   3.066   1.807   5.757  1.0009 -0.2013  1.5433
 7916SOL    HW235382   3.008   1.725   5.868  1.1007  3.0835  0.3284
 7917SOL     OW35383   0.128   0.442   6.620  0.1666 -0.2963  0.1836
 7917SOL    HW135384   0.086   0.360   6.647  0.3661 -1.4144 -2.9235
 7917SOL    HW235385   0.194   0.418   6.556  0.3627 -0.5266  0.4719
 7918SOL     OW35386   4.037   3.129   5.366 -0.0912 -0.0400  0.0642
 7918SOL    HW135387   4.035   3.225   5.362  0.8212 -0.0619 -0.6892
 7918SOL    HW235388   3.969   3.123   5.433 -0.5217 -0.2396 -0.3906
 7919SOL     OW35389   2.527   0.935   0.440  0.1357  0.4888  0.0353
 7919SOL    HW135390   2.558   0.970   0.524 -0.6809 -2.5087  1.5683
 7919SOL    HW235391   2.528   1.017   0.390 -1.2002  1.2872  1.2975
 7920SOL     OW35392   2.283   1.457   9.062  0.4416 -0.1149 -0.0241
 7920SOL    HW135393   2.341   1.456   9.138  0.7146 -1.4097 -0.2532
 7920SOL    HW235394   2.281   1.551   9.044  2.4284 -0.2424 -0.9235
 7921SOL     OW35395   0.154   0.979   7.949  0.1833  0.3538 -0.0560
 7921SOL    HW135396   0.094   1.040   7.908 -0.5592  0.4879  1.2471
 7921SOL    HW235397   0.126   0.898   7.905  1.6218 -0.6182  0.8071
 7922SOL     OW35398   3.592   3.502   2.693 -0.3111 -0.0576  0.0930
 7922SOL    HW135399   3.642   3.530   2.616 -1.7514 -2.1388 -1.6206
 7922SOL    HW235400   3.503   3.520   2.663 -0.6980 -2.3015 -0.1511
 7923SOL     OW35401   3.632   1.576   9.336 -0.2824  0.1548  0.1378
 7923SOL    HW135402   3.613   1.494   9.292  1.6598 -1.4031  2.1820
 7923SOL    HW235403   3.684   1.615   9.266 -0.0634 -1.5285 -0.6384
 7924SOL     OW35404   0.602   1.066  16.764  0.6702  0.4463 -0.0201
 7924SOL    HW135405   0.660   1.113  16.824 -2.0596  1.7961  1.5438
 7924SOL    HW235406   0.661   1.053  16.690 -0.7547  1.1978 -1.2907
 7925SOL     OW35407   4.392   2.008   3.663 -0.2183 -0.1443  0.3333
 7925SOL    HW135408   4.303   2.010   3.699 -0.6445 -1.8918 -0.5744
 7925SOL    HW235409   4.441   2.077   3.708 -0.8833 -1.2079  2.6975
 7926SOL     OW35410   1.627   1.540   4.140 -0.4543 -0.3997  0.5180
 7926SOL    HW135411   1.672   1.470   4.187  2.1270  0.8689 -0.0403
 7926SOL    HW235412   1.584   1.579   4.216 -2.9076 -0.7761 -0.6844
 7927SOL     OW35413   4.340   0.823   8.578 -0.0664 -0.4636  0.2166
 7927SOL    HW135414   4.246   0.814   8.558  0.0367  0.2523 -0.5792
 7927SOL    HW235415   4.348   0.903   8.526  0.5618 -0.2932  0.5769
 7928SOL     OW35416   2.948   3.520   5.428  0.0683  0.1361  0.1702
 7928SOL    HW135417   2.956   3.471   5.510 -0.8328 -1.6257 -0.7959
 7928SOL    HW235418   2.855   3.544   5.434  0.0352 -0.1924  0.9366
 7929SOL     OW35419   1.586   1.616   7.141  0.1465 -0.6830  0.5122
 7929SOL    HW135420   1.672   1.575   7.129 -0.3332 -1.7895  0.8866
 7929SOL    HW235421   1.561   1.648   7.054  1.0624 -0.9427  0.1440
 7930SOL     OW35422   0.577   1.458   5.118 -0.0538 -0.0122  0.5149
 7930SOL    HW135423   0.566   1.364   5.130  0.9844 -0.1674  0.2914
 7930SOL    HW235424   0.581   1.499   5.205 -0.0294 -0.6408  0.8072
 7931SOL     OW35425   0.594   0.792   0.168  0.3614 -0.4257 -0.7346
 7931SOL    HW135426   0.686   0.800   0.192  0.3194 -1.8152 -0.0865
 7931SOL    HW235427   0.591   0.706   0.127 -0.2214 -1.6445  1.9014
 7932SOL     OW35428   3.230   2.569   4.361 -0.0674 -0.0763 -0.4264
 7932SOL    HW135429   3.281   2.514   4.302  0.2294  0.4374 -0.6400
 7932SOL    HW235430   3.200   2.644   4.310 -2.4596  0.2713  1.4985
 7933SOL     OW35431   4.456   4.298   3.884 -0.0932  0.1467 -0.1478
 7933SOL    HW135432   4.538   4.332   3.848 -0.2698  0.1540 -0.5405
 7933SOL    HW235433   4.450   4.330   3.974  0.5836 -1.5002  0.5004
 7934SOL     OW35434   1.431   1.414   6.539  0.7453 -0.2906 -0.0763
 7934SOL    HW135435   1.382   1.333   6.523 -0.5002  0.7336 -1.4677
 7934SOL    HW235436   1.518   1.388   6.509  1.1025  0.6324  0.1420
 7935SOL     OW35437   4.126   0.851   6.066  0.3502  0.7870  0.3935
 7935SOL    HW135438   4.122   0.940   6.100 -0.6657  0.6190  0.7293
 7935SOL    HW235439   4.203   0.863   6.010 -0.2127 -0.7878 -0.7326
 7936SOL     OW35440   0.768   0.925  11.364  0.3540 -0.3766 -0.3996
 7936SOL    HW135441   0.731   0.995  11.311  1.1237 -1.1389 -1.9573
 7936SOL    HW235442   0.692   0.868  11.373  1.6828 -1.8095  1.8742
 7937SOL     OW35443   1.869   4.520   5.562  0.5662  0.4381 -0.3088
 7937SOL    HW135444   1.919   4.480   5.633 -0.6235 -1.7421 -0.7059
 7937SOL    HW235445   1.886   4.448   5.500 -1.4643  0.3945 -0.8024
 7938SOL     OW35446   3.887   4.486   7.884  0.1783  0.3614  0.2019
 7938SOL    HW135447   3.921   4.574   7.867  0.7101  0.0534 -0.3344
 7938SOL    HW235448   3.884   4.452   7.795 -0.7626 -0.9196  0.7302
 7939SOL     OW35449   2.972   3.140   6.851  0.0938  0.1675 -0.0082
 7939SOL    HW135450   3.061   3.166   6.828  0.4656 -1.1358 -0.0538
 7939SOL    HW235451   2.923   3.195   6.790  2.5606  1.5208 -0.7787
 7940SOL     OW35452   1.440   3.785  14.644 -0.4498  0.1483 -0.0852
 7940SOL    HW135453   1.382   3.812  14.572 -2.2366 -0.8849  0.9914
 7940SOL    HW235454   1.396   3.817  14.722 -1.6234  1.0334 -1.0953
 7941SOL     OW35455   2.037   0.450   8.616 -0.2313 -0.2833  0.3763
 7941SOL    HW135456   2.099   0.427   8.686  2.1114 -2.4799 -2.4363
 7941SOL    HW235457   2.064   0.400   8.539 -0.3384  0.1742  0.0397
 7942SOL     OW35458   4.237   0.429   8.176 -0.4151 -0.7747 -0.2311
 7942SOL    HW135459   4.266   0.341   8.201  2.3027 -0.0331 -0.8303
 7942SOL    HW235460   4.174   0.445   8.247  1.0053 -0.9539  1.0628
 7943SOL     OW35461   2.919   2.090   5.850  0.3792 -0.3797 -0.3526
 7943SOL    HW135462   2.969   2.039   5.785  1.2381  0.9497 -0.7261
 7943SOL    HW235463   2.981   2.085   5.922  1.5154  1.6917 -1.1987
 7944SOL     OW35464   0.168   4.222   6.644 -0.7357 -0.9123 -0.2174
 7944SOL    HW135465   0.075   4.220   6.619 -0.1714  0.6639 -2.4791
 7944SOL    HW235466   0.199   4.242   6.555 -1.3934  0.8542 -0.0426
 7945SOL     OW35467   1.832   4.100   2.384  0.0815  0.0263 -0.2437
 7945SOL    HW135468   1.896   4.078   2.315 -0.9254 -0.1656 -1.1213
 7945SOL    HW235469   1.852   4.037   2.453 -1.6566  0.8279  0.9939
 7946SOL     OW35470   1.750   1.722   9.793  0.1686  0.7411 -0.7884
 7946SOL    HW135471   1.714   1.801   9.753 -1.1333  0.4818 -0.1245
 7946SOL    HW235472   1.729   1.753   9.881 -3.2548 -2.4046 -0.4930
 7947SOL     OW35473   4.583   4.240   6.985  0.3922  0.0721  0.2482
 7947SOL    HW135474   4.519   4.231   7.055 -1.8120  0.1202 -1.7524
 7947SOL    HW235475   4.593   4.152   6.949 -0.6461  0.7330 -1.6236
 7948SOL     OW35476   2.157   0.389   2.645 -0.5669  0.1259 -0.0695
 7948SOL    HW135477   2.221   0.378   2.715  0.5826 -0.8165 -1.2912
 7948SOL    HW235478   2.120   0.476   2.660 -0.4172  0.2305 -0.3111
 7949SOL     OW35479   0.998   0.117  12.712  0.5494  0.0402 -0.1405
 7949SOL    HW135480   1.019   0.039  12.762  2.2549  0.0142 -0.9041
 7949SOL    HW235481   1.033   0.178  12.777  1.5954 -0.8620  0.1332
 7950SOL     OW35482   3.904   1.871   2.774 -0.6365  0.0450 -0.2717
 7950SOL    HW135483   3.924   1.783   2.743 -1.3033  0.1182 -0.9060
 7950SOL    HW235484   3.963   1.923   2.720  0.3670  0.3780  1.1448
 7951SOL     OW35485   0.354   1.694   8.541 -0.7903 -0.3615 -0.4268
 7951SOL    HW135486   0.332   1.612   8.584 -0.5665  0.0153  0.4127
 7951SOL    HW235487   0.440   1.660   8.518 -0.1647  0.6558  0.3812
 7952SOL     OW35488   0.831   3.196   2.591 -0.1795  0.3368  0.9708
 7952SOL    HW135489   0.745   3.239   2.588  0.6197  1.9456  1.1766
 7952SOL    HW235490   0.889   3.272   2.585 -0.7358  0.6931  0.0223
 7953SOL     OW35491   0.664   0.136  17.640 -0.1659  0.0480 -0.4759
 7953SOL    HW135492   0.590   0.193  17.659 -0.0263 -0.5620  1.9054
 7953SOL    HW235493   0.702   0.134  17.727 -0.2936  1.7890 -0.3820
 7954SOL     OW35494   2.360   0.252   5.511 -0.1313  0.4943  0.1690
 7954SOL    HW135495   2.405   0.331   5.539  1.0181  0.4110 -1.4502
 7954SOL    HW235496   2.270   0.281   5.498 -1.3182 -2.6226  1.3480
 7955SOL     OW35497   1.211   0.425   2.695  0.5465  0.2377  0.9156
 7955SOL    HW135498   1.306   0.425   2.689  0.4022  1.0381 -1.5963
 7955SOL    HW235499   1.208   0.408   2.789  0.3300 -0.6782  0.7471
 7956SOL     OW35500   1.913   0.214   4.702  0.1443 -0.6071  0.3043
 7956SOL    HW135501   1.980   0.161   4.659 -0.3737 -1.1783  0.2025
 7956SOL    HW235502   1.854   0.141   4.722  1.2174 -1.0842  1.6809
 7957SOL     OW35503   3.615   3.381   4.995  0.0867 -0.1844 -0.2113
 7957SOL    HW135504   3.695   3.378   4.943 -0.3185  1.5764 -0.9353
 7957SOL    HW235505   3.647   3.406   5.081 -3.4935  0.2072  1.0282
 7958SOL     OW35506   2.652   1.158   9.892 -0.6704 -0.2384 -0.3551
 7958SOL    HW135507   2.636   1.141   9.799 -1.9688  1.1627 -0.3858
 7958SOL    HW235508   2.740   1.196   9.895 -1.2585  1.1219 -0.2238
 7959SOL     OW35509   1.877   1.917   2.559 -0.5396 -0.1483  0.5616
 7959SOL    HW135510   1.941   1.973   2.604 -0.2118 -1.1664  1.3756
 7959SOL    HW235511   1.883   1.835   2.609  0.9651 -0.6655 -0.4510
 7960SOL     OW35512   3.327   2.002   2.667 -0.3071 -0.1484  0.1662
 7960SOL    HW135513   3.415   1.965   2.681 -0.3529  0.2151  1.4333
 7960SOL    HW235514   3.289   1.938   2.607  1.5935 -1.2530  0.1483
 7961SOL     OW35515   4.615   1.673   6.073 -0.6025 -0.7561 -0.4164
 7961SOL    HW135516   4.566   1.651   6.153 -2.0493 -0.6896 -1.2807
 7961SOL    HW235517   4.699   1.711   6.100 -1.7404  0.6496  1.1626
 7962SOL     OW35518   2.286   1.240   8.916  0.5518 -0.0926 -0.0899
 7962SOL    HW135519   2.285   1.316   8.974  2.1304 -1.9029  2.3072
 7962SOL    HW235520   2.198   1.207   8.935  0.3729 -0.4256 -1.5088
 7963SOL     OW35521   0.287   4.585   4.815 -0.0766  0.1220  0.0809
 7963SOL    HW135522   0.194   4.607   4.804 -0.0777 -0.4483 -1.0469
 7963SOL    HW235523   0.317   4.672   4.842 -0.1193  0.2306 -0.2236
 7964SOL     OW35524   3.307   1.866  12.633  0.4106 -0.1834  0.5838
 7964SOL    HW135525   3.334   1.833  12.547  0.2902 -0.0263  0.4861
 7964SOL    HW235526   3.377   1.834  12.690  1.9284 -0.5898 -1.5123
 7965SOL     OW35527   1.629   0.930  12.650 -0.4870 -0.3159  0.0794
 7965SOL    HW135528   1.628   0.837  12.672 -1.2862 -0.0840  1.0424
 7965SOL    HW235529   1.720   0.948  12.627 -0.8993  0.3281 -1.0876
 7966SOL     OW35530   3.405   0.969   6.454  0.0769  0.1208  0.1906
 7966SOL    HW135531   3.466   0.898   6.475  0.5198  0.6749  0.7622
 7966SOL    HW235532   3.420   0.974   6.360 -1.8806 -2.0334 -0.2567
 7967SOL     OW35533   1.479   2.396   5.084  0.1293 -0.1639 -0.6516
 7967SOL    HW135534   1.529   2.469   5.049 -0.1737  0.2283 -0.2703
 7967SOL    HW235535   1.547   2.371   5.147  0.4757 -1.5075 -1.5552
 7968SOL     OW35536   2.952   0.884   0.762  0.5917 -0.7605  0.2620
 7968SOL    HW135537   3.036   0.929   0.749  0.5128 -1.2388 -1.9576
 7968SOL    HW235538   2.903   0.912   0.685 -0.1965 -2.8528  0.0093
 7969SOL     OW35539   3.149   1.629   9.357 -0.1105 -0.7526 -0.2253
 7969SOL    HW135540   3.174   1.654   9.268  0.6296  0.2087  0.2507
 7969SOL    HW235541   3.178   1.712   9.395 -0.5549 -0.4096 -0.6388
 7970SOL     OW35542   1.375   3.260   0.896  0.1056 -0.2878 -0.2180
 7970SOL    HW135543   1.420   3.342   0.914  1.7535 -1.5826  1.4789
 7970SOL    HW235544   1.334   3.273   0.810  1.7453 -2.0568 -1.2711
 7971SOL     OW35545   2.317   1.944  16.760 -0.2447  0.3821  0.0605
 7971SOL    HW135546   2.236   1.976  16.800 -1.9748 -1.4972 -1.9935
 7971SOL    HW235547   2.384   2.004  16.792 -0.3481  0.6555 -0.2432
 7972SOL     OW35548   0.507   2.335   0.985  0.0280 -0.3418  0.2683
 7972SOL    HW135549   0.412   2.348   0.986  0.1340  0.5232 -3.1987
 7972SOL    HW235550   0.547   2.406   0.935  0.1814  0.3721  1.3835
 7973SOL     OW35551   2.182   3.883   9.807  0.6022  0.8821  0.0694
 7973SOL    HW135552   2.201   3.869   9.714  2.2529  0.2758  0.4943
 7973SOL    HW235553   2.261   3.846   9.845  0.5293  1.1816  0.5053
 7974SOL     OW35554   2.778   4.145   9.007  0.1041  0.9884 -0.2676
 7974SOL    HW135555   2.822   4.060   9.015  0.0629  0.9425 -0.5064
 7974SOL    HW235556   2.683   4.130   9.007  0.8204 -3.6326  0.1663
 7975SOL     OW35557   2.049   4.712  16.087 -0.0873 -0.1379 -0.3445
 7975SOL    HW135558   1.966   4.665  16.077  0.7699 -1.6710 -0.2953
 7975SOL    HW235559   2.036   0.026  16.009 -0.3527 -1.6436 -1.3409
 7976SOL     OW35560   0.814   1.663   9.209  0.4036 -0.4148 -0.1376
 7976SOL    HW135561   0.895   1.637   9.166 -0.4107 -1.0875 -1.2672
 7976SOL    HW235562   0.797   1.735   9.148 -1.8276 -0.4344  0.4382
 7977SOL     OW35563   2.788   1.608   8.040  0.1041 -0.1580 -0.1700
 7977SOL    HW135564   2.712   1.580   7.988  0.6546 -0.8704 -0.5975
 7977SOL    HW235565   2.761   1.697   8.062  1.6191  0.2979 -0.1401
 7978SOL     OW35566   2.278   2.411   3.689  0.0065 -0.0956 -0.4214
 7978SOL    HW135567   2.191   2.451   3.679 -0.6885 -1.4978  0.1100
 7978SOL    HW235568   2.276   2.317   3.671  2.0871 -0.1615 -0.2267
 7979SOL     OW35569   0.055   0.180  14.670  0.7231 -0.8493  0.5205
 7979SOL    HW135570   0.075   0.247  14.735  0.8762  0.1423 -0.5493
 7979SOL    HW235571   4.705   0.160  14.700  0.4755  1.0226  1.0273
 7980SOL     OW35572   1.586   0.924   7.245 -0.1498 -0.1031  0.0998
 7980SOL    HW135573   1.548   0.837   7.236 -0.7423  0.1690 -0.0912
 7980SOL    HW235574   1.590   0.957   7.155  0.0446  1.5638  0.7163
 7981SOL     OW35575   2.022   3.751   8.077  0.9169 -0.0172  0.6446
 7981SOL    HW135576   1.928   3.752   8.097  1.3294  0.9143  2.4700
 7981SOL    HW235577   2.025   3.829   8.022 -0.8966  0.1951  0.8479
 7982SOL     OW35578   4.301   0.468   2.716 -0.3591  0.2447  0.0117
 7982SOL    HW135579   4.287   0.562   2.725  1.7876  0.7331 -1.7638
 7982SOL    HW235580   4.388   0.463   2.756 -0.3028  0.3524 -0.0995
 7983SOL     OW35581   3.487   4.086   3.275  0.3094 -0.0825  0.7430
 7983SOL    HW135582   3.498   4.095   3.370 -1.8816  2.8179  0.7089
 7983SOL    HW235583   3.483   4.178   3.248 -2.7303 -0.2212  0.7568
 7984SOL     OW35584   4.657   0.104   2.494 -0.1360  0.0661 -0.1581
 7984SOL    HW135585   4.660   0.197   2.470 -0.9284 -0.2391 -1.4225
 7984SOL    HW235586   4.723   0.113   2.563  0.4101 -1.9680 -0.4464
 7985SOL     OW35587   4.397   2.946  16.603 -0.0603 -0.3789  0.2243
 7985SOL    HW135588   4.338   2.871  16.609  0.5824 -0.8154  1.0134
 7985SOL    HW235589   4.408   2.970  16.695  1.6645 -0.1529 -0.0373
 7986SOL     OW35590   1.289   1.529   8.578 -0.8291  0.3355 -0.2081
 7986SOL    HW135591   1.312   1.514   8.487  1.4096 -0.2377  0.4541
 7986SOL    HW235592   1.284   1.440   8.612  1.9002  0.5100  0.6414
 7987SOL     OW35593   0.190   1.451  17.492 -0.2660 -0.1474  0.3429
 7987SOL    HW135594   0.145   1.392  17.431  3.5944 -1.0424 -1.6464
 7987SOL    HW235595   0.154   1.532  17.456  2.4173  0.1077 -1.7457
 7988SOL     OW35596   0.653   2.937  11.341  0.1715  0.2158 -0.1896
 7988SOL    HW135597   0.574   2.926  11.289  1.7706  1.8186 -2.9289
 7988SOL    HW235598   0.603   2.938  11.423  1.0388 -0.5195  0.3505
 7989SOL     OW35599   4.229   4.371   3.490  0.3751  0.0340  0.1638
 7989SOL    HW135600   4.230   4.293   3.545  3.6615 -0.5951 -0.7850
 7989SOL    HW235601   4.139   4.403   3.494  0.2260 -0.4536  0.6648
 7990SOL     OW35602   2.813   2.431   1.669 -0.1047 -0.1932  0.4002
 7990SOL    HW135603   2.741   2.493   1.671  1.2501  1.4249 -1.0821
 7990SOL    HW235604   2.778   2.350   1.705 -0.4617 -1.4324 -2.6902
 7991SOL     OW35605   3.546   1.792   5.537  0.2238  0.3898  0.2729
 7991SOL    HW135606   3.494   1.721   5.575  0.3313 -1.2285 -2.5800
 7991SOL    HW235607   3.487   1.866   5.537  2.0977  1.8790  0.1055
 7992SOL     OW35608   1.688   1.310  12.464  0.0607  0.6159 -0.2635
 7992SOL    HW135609   1.643   1.226  12.454  1.3299  0.1602 -2.0275
 7992SOL    HW235610   1.675   1.340  12.554  1.0601 -0.6659  0.3011
 7993SOL     OW35611   2.106   3.080   7.082  0.0021  0.0739 -0.0974
 7993SOL    HW135612   2.067   3.001   7.045  2.0857 -0.6354 -0.8124
 7993SOL    HW235613   2.189   3.085   7.034 -0.3328 -3.0106 -0.9797
 7994SOL     OW35614   1.978   3.075   6.665  0.1159  0.1293  0.0824
 7994SOL    HW135615   2.039   3.142   6.695  2.9957 -1.7634 -1.5857
 7994SOL    HW235616   1.995   3.060   6.572  0.5329 -0.8514  0.3192
 7995SOL     OW35617   3.779   3.285   9.338  0.0786 -0.2901 -0.1964
 7995SOL    HW135618   3.858   3.231   9.332  0.5193  0.3997 -0.7075
 7995SOL    HW235619   3.798   3.346   9.266  0.5843  0.0794  0.2455
 7996SOL     OW35620   1.456   4.600   9.627 -0.2914 -0.3389  0.5274
 7996SOL    HW135621   1.491   4.530   9.682 -0.7745 -0.4679  0.6665
 7996SOL    HW235622   1.420   4.654   9.697  1.1133  1.1304  0.1176
 7997SOL     OW35623   3.907   4.127   5.705  0.0630 -0.3305 -0.3646
 7997SOL    HW135624   3.962   4.154   5.779 -2.0392  1.3751  0.6089
 7997SOL    HW235625   3.844   4.199   5.704  1.5241  0.9513  1.1443
 7998SOL     OW35626   4.030   0.603  11.178  0.6042  0.2133  0.6265
 7998SOL    HW135627   3.971   0.671  11.146  1.8098  0.1345 -1.7139
 7998SOL    HW235628   3.969   0.529  11.169  0.8443 -0.1961  2.2802
 7999SOL     OW35629   1.999   0.209  14.035 -0.5612 -0.1505 -0.3721
 7999SOL    HW135630   2.079   0.187  14.083 -1.2100 -0.8874  0.3647
 7999SOL    HW235631   1.990   0.125  13.989 -0.7329  1.1819 -2.7826
 8000SOL     OW35632   4.729   2.501   3.124 -0.1534 -0.6071 -0.1237
 8000SOL    HW135633   4.726   2.405   3.123 -0.2220 -0.6049 -0.1691
 8000SOL    HW235634   0.080   2.517   3.098  0.0667 -0.6812  0.6122
 8001SOL     OW35635   1.874   3.492   3.652  0.2694 -0.5861 -0.0920
 8001SOL    HW135636   1.809   3.562   3.665 -0.4737 -1.3167  0.0883
 8001SOL    HW235637   1.829   3.435   3.590 -1.1901  1.1961 -0.6745
 8002SOL     OW35638   3.253   1.186   4.529  0.1259  0.0210  0.1912
 8002SOL    HW135639   3.343   1.178   4.498 -0.3036  1.6077 -1.4765
 8002SOL    HW235640   3.271   1.209   4.620  0.7317 -0.8936  0.3030
 8003SOL     OW35641   4.416   0.627   2.445  0.2121  0.4333  0.4265
 8003SOL    HW135642   4.395   0.703   2.391  1.6007  2.1944  2.3569
 8003SOL    HW235643   4.481   0.660   2.508  0.5118  0.2322  0.2200
 8004SOL     OW35644   3.549   1.616  13.754  0.2363 -0.1162  0.3801
 8004SOL    HW135645   3.596   1.543  13.714 -0.7074 -1.2885  1.4064
 8004SOL    HW235646   3.469   1.570  13.778  1.1380 -2.7741 -1.7549
 8005SOL     OW35647   1.933   2.580   7.595  0.7218  0.3217 -0.4572
 8005SOL    HW135648   1.956   2.512   7.531 -0.6325 -0.1452 -0.4503
 8005SOL    HW235649   1.842   2.559   7.616  0.7003  2.3588  1.4377
 8006SOL     OW35650   4.589   2.856   3.524  0.5237 -0.0724 -0.3796
 8006SOL    HW135651   4.588   2.943   3.565  2.7760 -0.6779  0.9061
 8006SOL    HW235652   4.642   2.796   3.576  0.3289  0.1070  0.0234
 8007SOL     OW35653   3.189   1.699   7.879  0.0104  0.3404 -0.5232
 8007SOL    HW135654   3.197   1.685   7.785 -2.0282 -1.1529 -0.4764
 8007SOL    HW235655   3.175   1.610   7.911  1.8763 -0.2434 -1.3798
 8008SOL     OW35656   3.660   4.733  17.333  1.2168 -0.3602 -0.0143
 8008SOL    HW135657   3.625   0.076  17.365 -1.0341 -1.1925 -0.3237
 8008SOL    HW235658   3.663   0.017  17.240  1.5488 -1.0074 -0.1674
 8009SOL     OW35659   0.363   1.725   5.870 -0.2816 -0.1240  0.5483
 8009SOL    HW135660   0.335   1.640   5.905 -0.0571  0.9826  3.3917
 8009SOL    HW235661   0.357   1.774   5.952  2.5146 -0.7579  1.1373
 8010SOL     OW35662   1.733   4.034   7.047  0.1095  0.2150  0.6279
 8010SOL    HW135663   1.747   3.955   7.099 -1.2499  0.0643  0.7422
 8010SOL    HW235664   1.638   4.035   7.044  0.1225 -0.6068 -0.1055
 8011SOL     OW35665   0.566   3.548   6.664 -0.0220 -0.0939  0.0259
 8011SOL    HW135666   0.538   3.550   6.756 -0.6779  1.3166 -0.2106
 8011SOL    HW235667   0.577   3.643   6.661 -0.9043 -0.0111 -0.5001
 8012SOL     OW35668   3.125   1.086   7.689  0.5045 -0.5450 -0.1987
 8012SOL    HW135669   3.148   1.123   7.774  2.3309 -1.3701 -0.3255
 8012SOL    HW235670   3.165   1.151   7.631 -0.0914  0.6007  0.6772
 8013SOL     OW35671   4.183   2.988   3.306  0.0783  0.3750  0.1399
 8013SOL    HW135672   4.260   2.967   3.360 -0.4430  0.3550  0.8666
 8013SOL    HW235673   4.139   2.905   3.325  1.5838 -0.7022 -1.0357
 8014SOL     OW35674   3.682   1.482   9.597 -0.0211  0.7091 -0.9437
 8014SOL    HW135675   3.651   1.496   9.508 -1.0856 -1.3521 -0.9054
 8014SOL    HW235676   3.599   1.468   9.643  0.4528  0.2078 -0.2268
 8015SOL     OW35677   2.377   1.774   7.747  0.3303 -0.7292 -0.1130
 8015SOL    HW135678   2.424   1.745   7.669 -0.2790 -3.3692  0.4998
 8015SOL    HW235679   2.294   1.746   7.708  0.4240  1.1664 -1.6753
 8016SOL     OW35680   1.855   0.738   5.310 -0.5867 -0.3756 -0.9280
 8016SOL    HW135681   1.820   0.791   5.239  0.8701 -0.2946 -1.5799
 8016SOL    HW235682   1.775   0.689   5.330  0.5735 -2.3004 -0.9748
 8017SOL     OW35683   2.629   4.233   5.767  0.1665 -0.1432  0.6612
 8017SOL    HW135684   2.701   4.267   5.714 -0.4306 -3.7974 -2.5613
 8017SOL    HW235685   2.580   4.172   5.711  0.4151  1.1532 -0.9447
 8018SOL     OW35686   3.312   4.441  14.307  0.0035 -0.1865  0.4915
 8018SOL    HW135687   3.274   4.362  14.268 -0.3612  1.0635 -1.6697
 8018SOL    HW235688   3.247   4.440  14.378  0.6733 -1.1710  1.0811
 8019SOL     OW35689   4.613   0.423   5.266  0.3170  0.5366 -0.4074
 8019SOL    HW135690   4.670   0.384   5.200  0.7259  0.7162 -0.1609
 8019SOL    HW235691   4.656   0.393   5.346  0.1953 -2.9326 -1.6442
 8020SOL     OW35692   2.863   3.212   4.924 -0.0304 -0.2266  0.1344
 8020SOL    HW135693   2.940   3.269   4.928  0.4284 -0.8053 -0.4338
 8020SOL    HW235694   2.873   3.157   4.846 -0.9202 -0.7345  0.3934
 8021SOL     OW35695   2.269   3.786   3.100 -0.2433  0.5158  0.2657
 8021SOL    HW135696   2.318   3.868   3.098 -0.4054  0.5501 -2.0330
 8021SOL    HW235697   2.206   3.789   3.028 -1.2700 -1.5664  1.0762
 8022SOL     OW35698   3.795   4.560   6.300 -0.1766  0.2741  0.1928
 8022SOL    HW135699   3.814   4.641   6.348  0.7191  0.3383 -0.2666
 8022SOL    HW235700   3.726   4.590   6.240 -0.2577 -0.9652 -0.3131
 8023SOL     OW35701   3.660   1.393   0.457 -0.5081  0.2124  0.2482
 8023SOL    HW135702   3.721   1.321   0.440 -0.1288  0.6632 -0.2940
 8023SOL    HW235703   3.636   1.380   0.549  1.3459 -0.0546  0.7034
 8024SOL     OW35704   0.125   0.701  10.039 -0.0150 -0.0949 -0.4238
 8024SOL    HW135705   0.187   0.747  10.096  0.2169 -1.9394  0.8265
 8024SOL    HW235706   0.111   0.626  10.096  0.5263 -0.0054 -0.1720
 8025SOL     OW35707   1.201   0.791  11.360 -0.2312  0.0106 -0.1088
 8025SOL    HW135708   1.117   0.750  11.383 -0.2044  1.7948  3.1243
 8025SOL    HW235709   1.172   0.875  11.322 -2.3537 -0.2786  0.8750
 8026SOL     OW35710   1.263   0.226   8.330  0.8972 -0.0743  0.1826
 8026SOL    HW135711   1.256   0.198   8.239 -1.3815 -0.5271  0.4968
 8026SOL    HW235712   1.326   0.158   8.355  0.0707 -1.8741 -2.6669
 8027SOL     OW35713   3.419   0.316   0.571  0.2766  0.0376  0.0675
 8027SOL    HW135714   3.417   0.377   0.645 -0.7910 -2.8469  2.3800
 8027SOL    HW235715   3.513   0.299   0.564  0.8326  3.0653  0.0390
 8028SOL     OW35716   3.138   0.685   4.585 -0.2193  0.1515 -0.4405
 8028SOL    HW135717   3.077   0.617   4.557 -0.6791  1.5661 -2.8761
 8028SOL    HW235718   3.114   0.758   4.527 -3.4474 -0.6432 -0.1384
 8029SOL     OW35719   3.764   0.103  11.789  0.1240  0.0332 -0.1851
 8029SOL    HW135720   3.834   0.110  11.725  0.6900  0.5417  0.4979
 8029SOL    HW235721   3.734   0.193  11.799  1.0174  0.4079 -0.9741
 8030SOL     OW35722   2.774   0.754  17.723  0.2340  0.4164 -0.3428
 8030SOL    HW135723   2.711   0.702   0.017  1.8208  1.2314  2.5504
 8030SOL    HW235724   2.725   0.834  17.702  1.9962  1.6630  0.3235
 8031SOL     OW35725   4.497   3.946  12.434 -0.1940  0.1330  1.0258
 8031SOL    HW135726   4.537   4.032  12.426 -0.7546  0.2263 -0.7527
 8031SOL    HW235727   4.558   3.879  12.403 -1.2298  0.4788 -1.7728
 8032SOL     OW35728   0.461   0.434   0.724  0.2362 -0.3004 -0.8525
 8032SOL    HW135729   0.402   0.440   0.799  0.4985 -0.0325 -0.6647
 8032SOL    HW235730   0.461   0.529   0.710  2.5597 -0.4354 -1.6918
 8033SOL     OW35731   2.705   1.443   4.012 -0.4738 -0.4265  0.0333
 8033SOL    HW135732   2.698   1.408   4.100 -0.9298 -1.4981 -0.4244
 8033SOL    HW235733   2.640   1.512   4.026  0.2765  0.3325 -0.2144
 8034SOL     OW35734   2.456   2.942   1.968  0.0548 -0.7269  0.6403
 8034SOL    HW135735   2.536   2.918   2.016  1.0377 -0.2576 -0.7439
 8034SOL    HW235736   2.402   2.979   2.038  0.2620  1.2237 -0.2417
 8035SOL     OW35737   2.387   4.048   3.043  0.4117 -0.1134  0.3811
 8035SOL    HW135738   2.450   4.120   3.049 -0.6209  0.5850  2.7251
 8035SOL    HW235739   2.376   4.034   2.949 -2.4315  0.2591  0.6748
 8036SOL     OW35740   1.759   1.326   3.661 -0.2858  0.1072  0.2357
 8036SOL    HW135741   1.809   1.397   3.701  0.7671 -0.4560 -0.0527
 8036SOL    HW235742   1.831   1.264   3.649  0.2098  0.9067 -0.9475
 8037SOL     OW35743   1.526   0.529  11.644  0.5106 -0.4155 -0.0571
 8037SOL    HW135744   1.608   0.571  11.616  0.5383 -2.3337 -2.8456
 8037SOL    HW235745   1.555   0.487  11.724  0.1243 -1.8000 -0.6465
 8038SOL     OW35746   2.240   4.141   2.280  0.5204  0.1158 -0.3143
 8038SOL    HW135747   2.168   4.151   2.218 -0.1848 -0.6410  0.3840
 8038SOL    HW235748   2.291   4.210   2.238  2.4397  0.0357  1.8341
 8039SOL     OW35749   0.960   4.670   9.845 -0.0594 -0.5524  0.0954
 8039SOL    HW135750   0.967   0.014   9.892 -2.4220  0.0553 -0.6564
 8039SOL    HW235751   0.900   4.629   9.907 -1.4113 -0.3919 -1.1026
 8040SOL     OW35752   3.843   0.051   0.406  0.0386 -0.0749  0.7511
 8040SOL    HW135753   3.889   0.128   0.439 -2.6950  1.2805  1.3443
 8040SOL    HW235754   3.885   0.039   0.320 -1.0919 -0.6444  0.2819
 8041SOL     OW35755   4.038   1.656   8.085  0.6052 -0.0496  0.6318
 8041SOL    HW135756   4.126   1.693   8.090  1.6439 -2.5353  0.6608
 8041SOL    HW235757   4.037   1.584   8.148 -1.1310 -1.1655 -0.6898
 8042SOL     OW35758   3.565   3.789   3.378 -0.5143 -0.2479  0.4107
 8042SOL    HW135759   3.506   3.785   3.303  1.1667 -0.9356 -0.8594
 8042SOL    HW235760   3.635   3.839   3.336 -0.6110 -0.5629 -0.1268
 8043SOL     OW35761   0.394   2.659   6.856  0.2372  0.8434 -0.2351
 8043SOL    HW135762   0.457   2.642   6.925  0.2816 -0.9328 -0.7308
 8043SOL    HW235763   0.430   2.732   6.805  1.0801  2.0170  2.0463
 8044SOL     OW35764   4.415   3.613   3.942  0.9046  0.3361  0.3106
 8044SOL    HW135765   4.387   3.532   3.900  4.0793 -1.8376  2.3146
 8044SOL    HW235766   4.483   3.641   3.880 -0.1572  0.8909 -0.5889
 8045SOL     OW35767   0.980   3.786   5.695 -0.4623 -0.6925  0.5961
 8045SOL    HW135768   0.935   3.707   5.722 -3.2258  0.9507  0.7590
 8045SOL    HW235769   0.904   3.844   5.692  1.3547  1.6550 -0.5507
 8046SOL     OW35770   0.573   3.349   0.346 -0.2097 -0.2193 -0.5317
 8046SOL    HW135771   0.544   3.402   0.420  1.6057  0.9614 -0.6511
 8046SOL    HW235772   0.490   3.310   0.321  0.1880 -1.4363  0.0491
 8047SOL     OW35773   3.776   0.636   8.592 -0.0268 -0.1169  0.5421
 8047SOL    HW135774   3.777   0.731   8.586  1.6266  0.0265  3.0396
 8047SOL    HW235775   3.684   0.628   8.616  0.5785 -1.3240  2.4324
 8048SOL     OW35776   1.714   4.292   1.750  0.0150 -0.4199 -0.5315
 8048SOL    HW135777   1.627   4.317   1.717  0.5297  2.9453  0.6411
 8048SOL    HW235778   1.721   4.313   1.843 -0.8342 -0.1038 -0.5350
 8049SOL     OW35779   2.260   3.936   5.134  0.1142 -0.1952 -0.0887
 8049SOL    HW135780   2.328   3.887   5.088 -1.1041  0.1622 -2.2780
 8049SOL    HW235781   2.186   3.877   5.122 -1.2492  1.5793 -0.4270
 8050SOL     OW35782   4.511   2.897  10.665  0.0678 -0.4642  0.1647
 8050SOL    HW135783   4.503   2.823  10.725 -1.6404  0.4682  1.1101
 8050SOL    HW235784   4.600   2.881  10.634 -0.2915 -2.1426 -0.0054
 8051SOL     OW35785   0.731   3.567  12.285 -0.2058  0.4486 -0.1752
 8051SOL    HW135786   0.793   3.636  12.262 -0.4496  0.6569 -0.2160
 8051SOL    HW235787   0.672   3.624  12.334  1.8847  1.0618  1.6550
 8052SOL     OW35788   3.458   0.091   6.567  1.0614 -0.3446 -0.0038
 8052SOL    HW135789   3.486   0.003   6.589  0.4455 -0.8437 -1.1782
 8052SOL    HW235790   3.380   0.099   6.622  0.8948 -1.8254 -0.0396
 8053SOL     OW35791   2.053   3.263   8.598 -0.2784  0.2820 -0.1334
 8053SOL    HW135792   2.050   3.207   8.676 -0.1198 -1.0658 -1.0918
 8053SOL    HW235793   2.143   3.255   8.567 -0.2777 -0.1655 -0.0217
 8054SOL     OW35794   3.221   3.031   7.741 -0.1618 -0.2213  0.0490
 8054SOL    HW135795   3.212   2.940   7.712  0.6877 -0.8800  1.8799
 8054SOL    HW235796   3.263   3.073   7.666 -0.7706  1.2049  0.5290
 8055SOL     OW35797   1.935   2.196  17.174  0.1476  0.6244 -0.2502
 8055SOL    HW135798   1.890   2.208  17.091 -0.6303  0.4916  0.1489
 8055SOL    HW235799   2.008   2.253  17.151  0.4044  0.8911  1.1699
 8056SOL     OW35800   3.577   3.552   6.321  0.3281  0.1334 -0.5814
 8056SOL    HW135801   3.531   3.573   6.403 -0.5765  0.9459 -1.3025
 8056SOL    HW235802   3.626   3.634   6.309 -3.2816  2.0967 -2.0411
 8057SOL     OW35803   0.467   0.419   7.537 -0.4859 -0.0737  0.4551
 8057SOL    HW135804   0.394   0.462   7.582 -0.1021  0.0205  0.9825
 8057SOL    HW235805   0.437   0.404   7.448 -1.4670  1.6962  0.4718
 8058SOL     OW35806   0.920   3.854  11.414 -0.3153 -0.8208 -0.6123
 8058SOL    HW135807   0.970   3.774  11.396  1.5896 -0.1940  2.0000
 8058SOL    HW235808   0.875   3.865  11.330 -0.3099 -0.3383 -0.5488
 8059SOL     OW35809   0.811   3.670   5.965 -0.3230 -0.1752 -0.5833
 8059SOL    HW135810   0.720   3.644   5.950 -0.8128  1.2803 -0.1749
 8059SOL    HW235811   0.801   3.717   6.048 -0.2379 -0.0310 -0.6544
 8060SOL     OW35812   2.342   0.123   8.299 -0.2303 -0.0285  0.6325
 8060SOL    HW135813   2.392   0.050   8.263  0.4765  0.1978  1.1568
 8060SOL    HW235814   2.412   0.167   8.349  1.0827 -0.0062 -1.2114
 8061SOL     OW35815   2.593   1.471   8.983  0.0532 -0.0991  0.4894
 8061SOL    HW135816   2.614   1.399   8.924 -0.2847 -1.5033  2.0736
 8061SOL    HW235817   2.513   1.502   8.942 -0.2433 -0.0230  1.1302
 8062SOL     OW35818   0.035   3.435   0.477  0.0058 -0.4667 -0.3444
 8062SOL    HW135819   4.718   3.501   0.437  2.2130  1.8081  0.3766
 8062SOL    HW235820   4.723   3.353   0.472 -0.0102 -0.5263  0.7049
 8063SOL     OW35821   3.364   3.750   1.764  0.5115  0.1284  0.1536
 8063SOL    HW135822   3.370   3.794   1.679  0.2779  3.8233  2.0576
 8063SOL    HW235823   3.277   3.713   1.750  0.1849  0.9160  0.1191
 8064SOL     OW35824   1.064   0.351   2.485  0.5677 -0.7370 -0.1610
 8064SOL    HW135825   1.125   0.369   2.414  1.7396 -0.2548  0.9742
 8064SOL    HW235826   1.122   0.367   2.559 -1.6171  0.2636  1.3551
 8065SOL     OW35827   0.208   4.040  14.581  0.6616 -0.0110  0.2914
 8065SOL    HW135828   0.168   3.997  14.506  3.2374 -1.3865 -0.2831
 8065SOL    HW235829   0.166   4.126  14.574  0.7301  0.1211  1.5076
 8066SOL     OW35830   4.085   3.034   2.368  0.0789 -0.7973  0.0024
 8066SOL    HW135831   4.015   3.099   2.371  0.0616 -0.8979  1.5688
 8066SOL    HW235832   4.048   2.971   2.430 -0.7965  0.4181  0.7025
 8067SOL     OW35833   2.632   3.844   5.822  0.0772 -0.1561  0.1893
 8067SOL    HW135834   2.554   3.898   5.834 -0.1294  0.0475 -1.9954
 8067SOL    HW235835   2.632   3.833   5.727  0.8777 -1.5652  0.3567
 8068SOL     OW35836   0.829   3.998  17.501  0.3003 -0.4297  0.4057
 8068SOL    HW135837   0.750   4.002  17.447  0.8086  1.0663 -0.2311
 8068SOL    HW235838   0.822   4.077  17.555 -0.3311 -0.1336 -0.1029
 8069SOL     OW35839   0.316   4.065   4.447 -0.0740  0.3176 -0.0960
 8069SOL    HW135840   0.350   4.052   4.359 -1.6093 -4.8757  0.0457
 8069SOL    HW235841   0.389   4.027   4.498 -0.9440  0.5893  1.3498
 8070SOL     OW35842   3.168   1.527   3.791  0.4792  0.1337 -0.3811
 8070SOL    HW135843   3.251   1.501   3.833  1.1474  2.5982 -0.1714
 8070SOL    HW235844   3.154   1.610   3.837 -1.0629 -0.3205 -0.0193
 8071SOL     OW35845   0.410   1.146   8.580 -0.3533 -0.3108 -0.5900
 8071SOL    HW135846   0.398   1.145   8.485  0.9399  0.6783 -0.7610
 8071SOL    HW235847   0.495   1.102   8.574 -0.0079  0.1630  0.8793
 8072SOL     OW35848   3.663   2.844   3.055  0.3759  0.4256 -0.0327
 8072SOL    HW135849   3.690   2.819   3.143 -1.1898  0.0201  0.3298
 8072SOL    HW235850   3.745   2.817   3.012 -0.4706 -2.1798  0.0025
 8073SOL     OW35851   1.860   2.453   1.890  0.3400  0.4862  0.2389
 8073SOL    HW135852   1.803   2.376   1.889 -1.2160  1.6375 -0.1619
 8073SOL    HW235853   1.786   2.508   1.913  0.9463  1.7159 -0.7314
 8074SOL     OW35854   0.904   3.485   7.641 -0.0469  0.3183  0.0953
 8074SOL    HW135855   0.953   3.402   7.638  1.1649  1.1307 -2.3877
 8074SOL    HW235856   0.887   3.505   7.549  0.4855 -0.5943 -0.2048
 8075SOL     OW35857   3.866   0.569   7.763  0.1354 -0.8392  0.0601
 8075SOL    HW135858   3.865   0.522   7.846  0.8373 -1.4431 -0.2714
 8075SOL    HW235859   3.789   0.528   7.723 -0.1004  0.4982 -0.8712
 8076SOL     OW35860   4.375   1.201  12.151  0.1097 -0.1318  0.5991
 8076SOL    HW135861   4.466   1.201  12.182  0.2956  0.4023  0.0269
 8076SOL    HW235862   4.324   1.241  12.222 -0.1983  0.4913  0.0175
 8077SOL     OW35863   1.910   1.326   2.437  0.1947 -0.0196  0.4568
 8077SOL    HW135864   1.979   1.361   2.494 -0.5046  0.4356  1.0274
 8077SOL    HW235865   1.856   1.404   2.426 -0.6923 -0.6918  0.0155
 8078SOL     OW35866   0.484   0.188  15.429 -0.4272 -0.4836 -0.3463
 8078SOL    HW135867   0.574   0.157  15.439  0.2465  1.1216 -1.5215
 8078SOL    HW235868   0.434   0.107  15.417  1.3378 -1.6179  0.0194
 8079SOL     OW35869   3.023   1.405   9.579  0.2779 -0.3336 -0.0160
 8079SOL    HW135870   2.931   1.423   9.598  0.5609  1.3079 -0.2515
 8079SOL    HW235871   3.052   1.374   9.665  1.4369  0.2513 -0.1974
 8080SOL     OW35872   2.307   0.761   2.826  0.1210  0.4743  0.0889
 8080SOL    HW135873   2.336   0.739   2.738 -1.5743 -0.7891 -0.1712
 8080SOL    HW235874   2.220   0.800   2.812 -0.9247 -0.9187  2.7273
 8081SOL     OW35875   1.272   2.581   6.810  0.1378 -0.0677 -0.5522
 8081SOL    HW135876   1.316   2.665   6.822  1.1524 -0.2975 -2.6685
 8081SOL    HW235877   1.201   2.621   6.760  0.2800  0.9790  0.0779
 8082SOL     OW35878   3.479   2.402   4.647 -0.1289 -0.4379  0.0306
 8082SOL    HW135879   3.407   2.463   4.630  0.5149  1.3082  3.4212
 8082SOL    HW235880   3.439   2.315   4.644  1.4487 -1.2583  2.2409
 8083SOL     OW35881   1.954   1.223   4.654  0.1876  0.5215 -0.3936
 8083SOL    HW135882   1.953   1.154   4.587 -1.4049  0.5169 -0.3680
 8083SOL    HW235883   2.019   1.287   4.627 -2.0715  2.2916 -1.5899
 8084SOL     OW35884   0.587   1.641   8.429 -0.0474 -0.1462 -0.0285
 8084SOL    HW135885   0.614   1.688   8.350 -0.4811  0.8001  0.3829
 8084SOL    HW235886   0.670   1.625   8.474 -0.3877 -0.6858  0.3948
 8085SOL     OW35887   1.996   3.498  12.193 -0.4233 -0.4519 -0.0886
 8085SOL    HW135888   2.026   3.587  12.210 -2.1667  0.0033  0.5338
 8085SOL    HW235889   1.908   3.518  12.161 -0.3314 -0.9630 -0.6574
 8086SOL     OW35890   0.294   1.308   7.264 -0.0477 -0.4796 -0.2306
 8086SOL    HW135891   0.342   1.288   7.345  0.5599 -1.3938 -0.8177
 8086SOL    HW235892   0.205   1.296   7.297 -0.4476  0.0403 -1.1516
 8087SOL     OW35893   3.325   1.402   9.480 -0.0608 -0.1556  0.3913
 8087SOL    HW135894   3.353   1.383   9.570  3.0091 -0.0654 -0.5429
 8087SOL    HW235895   3.239   1.443   9.482 -0.6211 -1.2416 -0.9531
 8088SOL     OW35896   4.412   3.793   4.595 -0.2722 -0.4316  0.3943
 8088SOL    HW135897   4.449   3.875   4.565 -2.1566 -0.5688 -2.3050
 8088SOL    HW235898   4.334   3.793   4.539 -0.4051 -0.4103  0.5790
 8089SOL     OW35899   2.029   1.977   7.909 -0.8838 -0.0591 -0.2801
 8089SOL    HW135900   2.049   2.050   7.850 -1.1038  1.8476  2.0004
 8089SOL    HW235901   1.947   1.944   7.872  0.4625 -2.5781 -0.9532
 8090SOL     OW35902   3.995   4.532  13.729 -0.0516 -0.1003 -0.5174
 8090SOL    HW135903   3.970   4.590  13.801  0.5855 -0.2500 -0.1770
 8090SOL    HW235904   3.977   4.446  13.766  1.7140 -0.5029 -0.5687
 8091SOL     OW35905   1.967   1.822  15.235 -0.1418  0.4042  0.4243
 8091SOL    HW135906   2.056   1.790  15.218 -0.6942 -0.5645 -0.6125
 8091SOL    HW235907   1.950   1.765  15.310 -0.3394 -0.5610 -0.3515
 8092SOL     OW35908   1.917   0.374   5.216  0.3406 -0.0054  0.0689
 8092SOL    HW135909   1.863   0.384   5.294 -2.2801 -1.2763 -1.6076
 8092SOL    HW235910   1.978   0.448   5.224 -0.2224  0.7318 -2.4776
 8093SOL     OW35911   2.910   3.575  15.536  0.6964 -0.3697 -0.0385
 8093SOL    HW135912   2.966   3.590  15.612 -2.1136 -1.2581  2.2033
 8093SOL    HW235913   2.977   3.585  15.468 -1.6553  0.1348 -2.2884
 8094SOL     OW35914   3.370   1.549   5.303  0.7663 -0.2709  0.2280
 8094SOL    HW135915   3.334   1.461   5.293 -3.3417  1.2819  1.7067
 8094SOL    HW235916   3.357   1.586   5.216  0.0641  0.1458  0.5121
 8095SOL     OW35917   2.841   3.431   3.982  0.4410 -0.0874 -0.7498
 8095SOL    HW135918   2.833   3.480   4.064  0.7549  1.4836 -1.6545
 8095SOL    HW235919   2.748   3.420   3.961  0.9199 -0.9408 -2.3482
 8096SOL     OW35920   1.045   2.006   3.076  0.0089  0.1052 -0.3266
 8096SOL    HW135921   0.990   2.085   3.066 -0.0846 -0.2257 -2.5929
 8096SOL    HW235922   1.007   1.954   3.005 -0.3340 -1.7138  1.1950
 8097SOL     OW35923   4.143   0.099   2.106 -0.2981 -0.2887 -0.1031
 8097SOL    HW135924   4.075   0.126   2.167 -0.9368 -0.6361 -0.6577
 8097SOL    HW235925   4.101   0.046   2.038 -4.1708 -0.8862  2.7745
 8098SOL     OW35926   2.973   1.231  11.122  0.1537 -0.0002  0.2290
 8098SOL    HW135927   3.030   1.214  11.197  1.0254  2.4538  0.0990
 8098SOL    HW235928   2.992   1.324  11.112 -2.1031  0.4905  0.3136
 8099SOL     OW35929   4.174   3.853  10.898 -0.1106  0.1005  0.1119
 8099SOL    HW135930   4.163   3.758  10.906  0.7753 -0.0484 -0.4955
 8099SOL    HW235931   4.258   3.870  10.855 -0.1101  2.9777  1.3011
 8100SOL     OW35932   0.240   0.195   8.902 -0.2037  0.2717 -0.6368
 8100SOL    HW135933   0.160   0.198   8.850  0.9391  0.3065 -2.3795
 8100SOL    HW235934   0.276   0.281   8.880  1.8630 -0.2707  0.5062
 8101SOL     OW35935   1.569   3.995   7.657  0.1608 -0.3021 -0.4453
 8101SOL    HW135936   1.660   3.981   7.685 -0.2284 -3.6127 -0.8445
 8101SOL    HW235937   1.553   4.079   7.699  3.6468 -0.5834  1.4613
 8102SOL     OW35938   1.534   0.155  13.523  0.2582 -0.1018 -0.6336
 8102SOL    HW135939   1.612   0.192  13.483 -0.0711 -1.5714 -2.6829
 8102SOL    HW235940   1.568   0.133  13.610  2.0962  0.1666 -1.2901
 8103SOL     OW35941   1.814   2.871  10.426  0.2454 -0.4086  1.0546
 8103SOL    HW135942   1.860   2.871  10.511  1.8558  0.3922  0.1875
 8103SOL    HW235943   1.738   2.816  10.445  0.7215 -1.4228 -0.0134
 8104SOL     OW35944   4.546   2.315   8.849 -0.2440  0.0438 -0.2027
 8104SOL    HW135945   4.488   2.366   8.792 -0.8274  1.7659  1.9179
 8104SOL    HW235946   4.563   2.231   8.806  1.4640  0.0947  0.4052
 8105SOL     OW35947   1.168   2.454   2.574 -0.4032 -0.2662  0.5422
 8105SOL    HW135948   1.244   2.509   2.556 -0.2359 -0.2146  1.3853
 8105SOL    HW235949   1.144   2.438   2.483 -0.4083  3.6646 -0.1284
 8106SOL     OW35950   2.490   0.352  17.292  0.5999 -0.1862 -0.1913
 8106SOL    HW135951   2.421   0.393  17.240  1.2383 -1.1002 -1.7463
 8106SOL    HW235952   2.490   0.405  17.372 -0.2171  0.2294 -0.4658
 8107SOL     OW35953   4.037   1.706  17.750  0.0885  0.5525 -1.0498
 8107SOL    HW135954   4.065   1.797   0.005  2.2655 -0.0616 -1.4619
 8107SOL    HW235955   4.077   1.682  17.666 -0.4532 -0.3841 -1.0374
 8108SOL     OW35956   4.177   4.299   2.100 -0.4844  0.4253 -0.1771
 8108SOL    HW135957   4.116   4.371   2.116  0.2492  1.0218 -0.0182
 8108SOL    HW235958   4.230   4.298   2.180 -0.7921  0.1271  0.0203
 8109SOL     OW35959   3.635   4.533   7.955  0.0142  0.3697 -0.2789
 8109SOL    HW135960   3.606   4.449   7.918 -0.3590  1.0281 -1.4702
 8109SOL    HW235961   3.730   4.526   7.954 -0.0281 -0.4343  1.5127
 8110SOL     OW35962   1.287   4.666   5.521  0.2576 -0.0123 -0.1531
 8110SOL    HW135963   1.328   4.629   5.443 -0.0225 -0.8604  0.1061
 8110SOL    HW235964   1.193   4.674   5.502 -0.4231  0.1555  3.2216
 8111SOL     OW35965   2.033   4.597   7.072  0.0570  0.0929 -0.0890
 8111SOL    HW135966   1.961   4.567   7.017  0.0149 -2.5784  1.4367
 8111SOL    HW235967   2.098   4.530   7.050  1.8992  2.5651 -2.1691
 8112SOL     OW35968   2.178   3.318  10.727 -0.0167  0.1188  0.6078
 8112SOL    HW135969   2.124   3.248  10.690  2.1286  0.1199 -2.5985
 8112SOL    HW235970   2.125   3.343  10.802 -1.0516 -0.6950  0.1527
 8113SOL     OW35971   0.538   4.667   9.361 -0.3631 -0.8833  0.5226
 8113SOL    HW135972   0.491   4.641   9.440 -2.0209 -0.4556 -0.3280
 8113SOL    HW235973   0.593   4.588   9.359 -0.3550 -0.8958  1.0643
 8114SOL     OW35974   0.546   3.814  16.256 -0.2734 -1.0458 -0.1802
 8114SOL    HW135975   0.628   3.780  16.293  0.3052  1.3298  0.6751
 8114SOL    HW235976   0.491   3.741  16.285 -1.6313 -0.2459 -0.7421
 8115SOL     OW35977   1.291   1.034   5.603  1.0129  0.6478  0.1401
 8115SOL    HW135978   1.290   0.939   5.597  1.7091  0.6277  0.2448
 8115SOL    HW235979   1.266   1.056   5.693 -0.3096  0.2052 -0.1215
 8116SOL     OW35980   0.954   0.981   5.873 -0.0290  0.0697  0.4987
 8116SOL    HW135981   0.906   1.042   5.817 -2.0138  0.2959  2.4554
 8116SOL    HW235982   0.931   0.894   5.838 -0.4866  0.9856 -1.4720
 8117SOL     OW35983   4.581   1.716   4.364  0.3759  0.0806 -0.0296
 8117SOL    HW135984   4.556   1.690   4.275  1.2480  0.5550 -0.4195
 8117SOL    HW235985   4.676   1.703   4.361  0.3293 -0.5964  1.4069
 8118SOL     OW35986   3.236   1.145   1.237  0.2692  0.6554 -0.3927
 8118SOL    HW135987   3.273   1.095   1.164  0.8918 -0.0150  0.3831
 8118SOL    HW235988   3.151   1.102   1.245  0.5169  0.1166 -0.6711
 8119SOL     OW35989   3.173   0.962   3.900 -0.0642 -0.0382  0.5407
 8119SOL    HW135990   3.146   0.921   3.983  0.9793 -0.5739  0.6063
 8119SOL    HW235991   3.245   1.019   3.927  1.5550 -2.5462  1.5391
 8120SOL     OW35992   3.347   0.290   9.797  0.1964  0.9003  0.5166
 8120SOL    HW135993   3.415   0.344   9.758  0.6418  0.2613  0.4228
 8120SOL    HW235994   3.291   0.356   9.837  0.9858  1.2794  0.9771
 8121SOL     OW35995   2.607   1.788   0.987  0.1009 -0.2598 -0.3209
 8121SOL    HW135996   2.610   1.811   0.894  0.8812  1.1067  0.0419
 8121SOL    HW235997   2.702   1.790   1.003  0.0750  0.3982 -0.2543
 8122SOL     OW35998   3.064   1.360   7.480 -0.2393  0.3382  0.5691
 8122SOL    HW135999   3.078   1.420   7.407 -0.5325 -2.5337 -1.8394
 8122SOL    HW236000   3.078   1.277   7.435  1.3637  1.2565 -0.6392
 8123SOL     OW36001   1.924   2.249   5.404  0.1345  0.0687 -0.4330
 8123SOL    HW136002   1.901   2.340   5.383 -0.7727 -0.2027 -0.6148
 8123SOL    HW236003   1.954   2.264   5.494 -0.6421  0.7780 -0.2879
 8124SOL     OW36004   3.958   2.419   3.747 -0.5469  0.4002  0.5033
 8124SOL    HW136005   3.948   2.483   3.676  0.2228  1.7511  1.6050
 8124SOL    HW236006   4.041   2.374   3.729 -0.6323  0.7525 -0.7810
 8125SOL     OW36007   1.048   2.774   5.704 -0.3814  0.1518 -0.1009
 8125SOL    HW136008   1.137   2.808   5.717 -0.3540  0.2524 -0.5346
 8125SOL    HW236009   1.006   2.859   5.717  1.2336  1.0005 -0.3327
 8126SOL     OW36010   4.601   2.467   6.202  0.2418 -0.3385 -0.0287
 8126SOL    HW136011   4.670   2.410   6.169 -0.1756 -0.9550  0.1718
 8126SOL    HW236012   4.527   2.444   6.146 -0.6589  3.1707 -0.3146
 8127SOL     OW36013   0.465   3.155   5.397  0.2841 -1.1173  0.0025
 8127SOL    HW136014   0.502   3.200   5.472 -0.8869  0.3961 -0.3355
 8127SOL    HW236015   0.381   3.125   5.431  1.0911 -3.3231  0.0560
 8128SOL     OW36016   1.396   1.882   6.187 -0.6122  0.1237 -0.1526
 8128SOL    HW136017   1.305   1.895   6.162 -1.0575 -0.4737  1.1706
 8128SOL    HW236018   1.382   1.900   6.280  1.9484  0.4101  0.1881
 8129SOL     OW36019   2.216   3.691  16.309 -0.1024 -0.1941 -0.0064
 8129SOL    HW136020   2.233   3.784  16.320 -3.4795  0.0949  2.7495
 8129SOL    HW236021   2.120   3.696  16.305 -0.0520 -1.5986 -3.0023
 8130SOL     OW36022   4.134   3.315   4.484 -0.3640  0.1621  0.5211
 8130SOL    HW136023   4.067   3.298   4.417 -0.0836 -0.8708  0.5090
 8130SOL    HW236024   4.082   3.386   4.522 -0.8842 -0.6886  1.3937
 8131SOL     OW36025   0.654   3.911  17.736 -0.3719 -0.3182 -0.2982
 8131SOL    HW136026   0.693   3.855   0.048 -0.4947  0.5814  0.5259
 8131SOL    HW236027   0.722   3.945  17.678 -0.8800  1.0292 -0.1059
 8132SOL     OW36028   3.667   2.553   9.210 -0.2885 -0.2024  0.5736
 8132SOL    HW136029   3.675   2.622   9.145 -0.1045 -1.0585 -0.3104
 8132SOL    HW236030   3.593   2.500   9.182  0.7659 -0.8786 -0.9110
 8133SOL     OW36031   3.057   3.524   7.148  0.1163 -0.2445  0.0378
 8133SOL    HW136032   3.043   3.521   7.243  0.7096  0.8412  0.1692
 8133SOL    HW236033   2.969   3.496   7.124  0.2019 -0.5291  0.0529
 8134SOL     OW36034   3.796   0.213   4.409  0.1225  0.5080  0.7777
 8134SOL    HW136035   3.817   0.130   4.366  0.0004  0.0971  1.5213
 8134SOL    HW236036   3.769   0.179   4.494  1.0391 -0.7113  0.5876
 8135SOL     OW36037   1.904   0.960  12.647  0.1914 -0.4263 -0.0874
 8135SOL    HW136038   1.902   0.918  12.733  2.2274  2.6895  1.4816
 8135SOL    HW236039   1.992   0.996  12.641 -0.7954  1.6517 -2.0761
 8136SOL     OW36040   1.462   0.010   4.904  0.4869 -0.1381  0.0536
 8136SOL    HW136041   1.454   4.654   4.913  1.4463 -0.1758  0.4997
 8136SOL    HW236042   1.557   0.013   4.896  0.5650  1.2495  1.4817
 8137SOL     OW36043   3.667   2.439  10.716  0.2542 -0.3540 -0.0680
 8137SOL    HW136044   3.667   2.361  10.661 -1.2874 -1.0315  0.8839
 8137SOL    HW236045   3.663   2.504  10.646  1.3830 -0.9663 -0.6825
 8138SOL     OW36046   2.767   2.238   8.482  0.5430 -0.4362  0.2766
 8138SOL    HW136047   2.720   2.167   8.526  2.6601 -1.4721  0.8726
 8138SOL    HW236048   2.707   2.311   8.494 -0.0536 -0.9135  0.2327
 8139SOL     OW36049   4.376   1.952   2.863 -0.2300  0.2261 -0.7847
 8139SOL    HW136050   4.393   1.902   2.943 -0.4469  0.7604 -0.3992
 8139SOL    HW236051   4.317   1.891   2.819  0.2492 -1.7541  1.3167
 8140SOL     OW36052   2.314   3.631   8.758  0.7903  0.0742 -0.0217
 8140SOL    HW136053   2.409   3.620   8.765  0.5807 -0.6656  1.5684
 8140SOL    HW236054   2.278   3.583   8.832 -0.5428  1.6033  0.3340
 8141SOL     OW36055   0.985   2.272   3.024 -0.0785 -0.1596  0.5929
 8141SOL    HW136056   0.937   2.303   3.100 -0.8436 -0.0217  0.0505
 8141SOL    HW236057   1.045   2.345   3.008  0.0048 -0.6639 -1.4359
 8142SOL     OW36058   3.517   0.718   1.305  0.0888  0.0076 -0.7496
 8142SOL    HW136059   3.460   0.712   1.228  0.1428 -0.2359 -0.7687
 8142SOL    HW236060   3.490   0.805   1.334  0.5899  0.7832 -2.5671
 8143SOL     OW36061   1.329   3.978  11.584 -0.5260  0.1548 -0.1561
 8143SOL    HW136062   1.240   4.009  11.600 -0.3561 -0.5704  2.3133
 8143SOL    HW236063   1.313   3.938  11.499 -0.0971 -0.8130  0.2152
 8144SOL     OW36064   1.221   4.327  17.340  0.0136  0.7549  0.0855
 8144SOL    HW136065   1.131   4.293  17.341  0.2736  0.1281  1.4616
 8144SOL    HW236066   1.217   4.365  17.252  3.0247  1.5237  0.2853
 8145SOL     OW36067   0.915   0.241  10.299 -0.3779  0.2190  0.1313
 8145SOL    HW136068   0.961   0.262  10.380  0.1514 -1.4723  0.2716
 8145SOL    HW236069   0.937   0.150  10.282 -0.5904  0.6799 -2.7485
 8146SOL     OW36070   1.445   2.062  16.218 -0.6119 -0.7156  0.1584
 8146SOL    HW136071   1.428   2.011  16.297  0.5431 -0.3104  0.6609
 8146SOL    HW236072   1.357   2.080  16.183 -1.4228 -2.5492  1.3062
 8147SOL     OW36073   3.652   0.827   2.343  0.5343 -0.3505 -0.2327
 8147SOL    HW136074   3.587   0.779   2.395  0.6397  0.7417  0.8967
 8147SOL    HW236075   3.724   0.765   2.335 -0.3658 -1.3046 -1.0515
 8148SOL     OW36076   3.802   4.233  12.547 -0.6439 -0.5351 -0.2169
 8148SOL    HW136077   3.876   4.261  12.602 -1.0959 -0.3174  0.2744
 8148SOL    HW236078   3.809   4.138  12.557 -2.1971 -0.4118  1.9697
 8149SOL     OW36079   2.206   3.799  15.455  0.6132  0.3614  0.3988
 8149SOL    HW136080   2.123   3.797  15.407 -0.2265 -0.9121  1.8885
 8149SOL    HW236081   2.264   3.841  15.392 -0.2984 -0.6969 -1.1657
 8150SOL     OW36082   0.666   2.251  13.817 -0.6332  0.4769 -0.4397
 8150SOL    HW136083   0.743   2.219  13.769  0.1060  1.4783  0.0913
 8150SOL    HW236084   0.680   2.343  13.793  2.1115  0.4846  1.1906
 8151SOL     OW36085   3.929   2.696   6.431  0.4501 -0.1722 -0.7440
 8151SOL    HW136086   3.950   2.609   6.396 -0.3064 -0.3385 -0.7954
 8151SOL    HW236087   4.013   2.741   6.438 -0.5311  1.5188 -0.0361
 8152SOL     OW36088   2.649   2.415  17.349 -0.0421 -0.1772 -0.0217
 8152SOL    HW136089   2.587   2.342  17.349  1.5291 -1.5026 -1.2297
 8152SOL    HW236090   2.622   2.470  17.422  0.6496 -0.0881  0.1639
 8153SOL     OW36091   0.824   3.685  11.912 -0.1583  0.0171 -0.4138
 8153SOL    HW136092   0.790   3.699  12.000  2.1058  0.5185  0.3809
 8153SOL    HW236093   0.919   3.680  11.927 -0.4170  1.8704  1.9030
 8154SOL     OW36094   0.937   1.515   6.147  0.0315 -0.0010 -0.4816
 8154SOL    HW136095   0.927   1.540   6.055  0.3787 -2.2712 -1.1127
 8154SOL    HW236096   1.008   1.576   6.169 -0.0428 -0.3074  0.6003
 8155SOL     OW36097   4.541   3.533   0.310  0.5394  0.2813  0.0697
 8155SOL    HW136098   4.588   3.514   0.229 -0.7235 -0.3966 -0.4996
 8155SOL    HW236099   4.458   3.568   0.277  1.2245  0.3024 -1.6360
 8156SOL     OW36100   1.426   4.449   4.345  0.1441  0.8142 -0.1425
 8156SOL    HW136101   1.424   4.505   4.268  2.7519  1.9347  0.5989
 8156SOL    HW236102   1.386   4.366   4.320  2.1622 -0.4607  0.8428
 8157SOL     OW36103   3.826   0.223   5.232 -0.2874 -0.0261  0.5201
 8157SOL    HW136104   3.898   0.263   5.281 -0.5308 -1.0424  1.6958
 8157SOL    HW236105   3.865   0.219   5.144  0.8946  1.1990  0.9935
 8158SOL     OW36106   4.487   4.301   5.563  0.0918  0.4059 -0.4439
 8158SOL    HW136107   4.404   4.314   5.608  0.1202  4.5841 -1.5938
 8158SOL    HW236108   4.492   4.383   5.513  1.1262  2.2264  2.6430
 8159SOL     OW36109   1.699   0.974   1.392  0.1343 -0.1428  0.2777
 8159SOL    HW136110   1.620   1.027   1.403  1.1314  1.2652  0.7404
 8159SOL    HW236111   1.763   1.044   1.400 -0.3117  0.1155  1.6313
 8160SOL     OW36112   3.617   3.191  12.099 -0.3082 -0.4932 -0.2630
 8160SOL    HW136113   3.696   3.136  12.096 -1.9460 -2.8244 -0.8754
 8160SOL    HW236114   3.635   3.258  12.034  0.3122 -0.5703 -0.1760
 8161SOL     OW36115   3.467   0.367   0.999  0.0807 -0.2320  0.0574
 8161SOL    HW136116   3.452   0.334   1.088  0.0600 -0.1169  0.0967
 8161SOL    HW236117   3.451   0.289   0.947 -0.2175  0.5885 -1.0966
 8162SOL     OW36118   4.281   4.341   1.834 -0.2966 -0.2721 -0.1325
 8162SOL    HW136119   4.259   4.326   1.926 -0.7598  1.7294  0.0788
 8162SOL    HW236120   4.219   4.408   1.805  0.6991 -0.5193 -2.8473
 8163SOL     OW36121   0.958   3.084  17.325 -0.0017  0.2658 -0.4196
 8163SOL    HW136122   1.050   3.108  17.336  0.0769 -0.6562  0.9644
 8163SOL    HW236123   0.916   3.129  17.398  1.1700 -1.8845  1.6014
 8164SOL     OW36124   2.454   2.188   8.806  0.0187  0.2353 -0.2462
 8164SOL    HW136125   2.445   2.284   8.811 -0.8615  0.1721 -0.6490
 8164SOL    HW236126   2.474   2.175   8.899  0.2468 -1.4205 -0.5296
 8165SOL     OW36127   3.281   3.379  15.662  0.1015 -0.3756 -0.1096
 8165SOL    HW136128   3.302   3.287  15.677  1.1904 -0.2558 -0.8551
 8165SOL    HW236129   3.258   3.376  15.569 -1.9709  0.0897  0.3936
 8166SOL     OW36130   1.324   3.023  12.996  0.2073 -0.3841 -0.3559
 8166SOL    HW136131   1.371   2.950  12.956 -0.0619 -2.3067  2.7480
 8166SOL    HW236132   1.323   2.997  13.089  1.2250 -1.2522 -0.5873
 8167SOL     OW36133   3.031   2.747  11.337  0.1895 -0.1070 -0.4127
 8167SOL    HW136134   2.952   2.800  11.325  1.8438  2.2971 -0.7627
 8167SOL    HW236135   2.992   2.663  11.363 -1.0883  0.1738 -1.4389
 8168SOL     OW36136   0.713   2.940   8.569 -0.2794 -0.0977  0.2300
 8168SOL    HW136137   0.791   2.981   8.530 -0.7899  1.1792  0.5567
 8168SOL    HW236138   0.725   2.846   8.551  0.9177 -0.0431  0.7208
 8169SOL     OW36139   4.168   3.624  14.888 -0.1296  1.0032  0.1040
 8169SOL    HW136140   4.088   3.629  14.836 -0.0114 -1.1056 -0.2698
 8169SOL    HW236141   4.224   3.580  14.825 -1.4389 -0.4055 -0.0739
 8170SOL     OW36142   1.788   0.131   5.879  0.8136 -0.1266  0.3406
 8170SOL    HW136143   1.868   0.182   5.866  0.4697  0.6564  1.2646
 8170SOL    HW236144   1.782   0.070   5.806 -0.7133  0.1358  0.2497
 8171SOL     OW36145   1.617   1.799  10.642 -0.4471  0.4765  0.7764
 8171SOL    HW136146   1.658   1.715  10.623 -2.8928 -0.4303 -0.4315
 8171SOL    HW236147   1.587   1.823  10.554 -0.8763  2.4765  1.4521
 8172SOL     OW36148   3.186   0.877   7.422 -0.0843  0.0123 -0.5590
 8172SOL    HW136149   3.218   0.825   7.495  1.6922 -0.2201 -1.4996
 8172SOL    HW236150   3.247   0.832   7.364  0.3289  0.5951 -0.5745
 8173SOL     OW36151   0.396   1.436   0.498 -0.5227 -0.1042 -0.1253
 8173SOL    HW136152   0.448   1.374   0.447 -1.7550 -0.5191 -0.8785
 8173SOL    HW236153   0.421   1.425   0.590 -0.2432 -1.8846 -0.4334
 8174SOL     OW36154   3.714   0.466  12.865  0.0700 -0.4930  0.6509
 8174SOL    HW136155   3.744   0.532  12.803  0.1268 -1.2702 -0.1469
 8174SOL    HW236156   3.786   0.408  12.887  0.4412 -0.7763 -1.3030
 8175SOL     OW36157   0.628   3.177   2.225  0.4051 -0.4250 -0.2383
 8175SOL    HW136158   0.595   3.259   2.188 -0.9233 -0.9748 -0.2792
 8175SOL    HW236159   0.567   3.153   2.294  0.2808 -0.9313 -0.5280
 8176SOL     OW36160   1.578   2.203   8.543 -0.1850  0.4380  0.1461
 8176SOL    HW136161   1.543   2.282   8.584 -0.0483  0.2948  0.5406
 8176SOL    HW236162   1.497   2.152   8.531  0.3001  0.2335 -2.1175
 8177SOL     OW36163   2.887   1.675   3.139  0.1071  0.4289  0.7333
 8177SOL    HW136164   2.967   1.643   3.181  0.7677  0.6367 -0.3646
 8177SOL    HW236165   2.893   1.621   3.060 -0.0599 -0.5493  1.3857
 8178SOL     OW36166   0.130   4.543   1.848  1.0922  0.5640  0.0737
 8178SOL    HW136167   0.161   4.617   1.901 -0.0739  1.5993 -0.6849
 8178SOL    HW236168   0.041   4.576   1.836  1.1119  0.3373 -0.7062
 8179SOL     OW36169   2.261   1.579   6.673 -0.2028  0.4222  0.4626
 8179SOL    HW136170   2.213   1.654   6.709  0.0851  0.8616 -0.0672
 8179SOL    HW236171   2.185   1.529   6.642 -0.4074  1.0925 -0.1223
 8180SOL     OW36172   3.587   0.738  10.191 -0.4043  0.1429  0.1687
 8180SOL    HW136173   3.549   0.786  10.117  0.7094  0.7677  0.0100
 8180SOL    HW236174   3.624   0.663  10.145 -0.0738 -0.1170  0.8602
 8181SOL     OW36175   1.645   1.957   6.067  0.3111 -0.2366  0.0340
 8181SOL    HW136176   1.561   1.968   6.111 -0.1389  1.7188 -1.3460
 8181SOL    HW236177   1.706   1.957   6.140  0.6795 -3.0271 -0.2676
 8182SOL     OW36178   0.473   3.982   2.929 -0.1997  0.0483  0.4579
 8182SOL    HW136179   0.484   3.948   3.017  0.6177 -0.1467  0.2811
 8182SOL    HW236180   0.380   3.959   2.922  0.0429 -0.8740  0.3017
 8183SOL     OW36181   0.825   0.633   7.044 -0.1216 -0.6154 -0.1430
 8183SOL    HW136182   0.789   0.637   7.132 -1.4762 -1.0401 -0.6830
 8183SOL    HW236183   0.814   0.543   7.015  2.3153 -0.3913 -1.8725
 8184SOL     OW36184   3.714   3.029   2.537  0.4465 -0.4033  0.6760
 8184SOL    HW136185   3.695   3.030   2.630 -1.7743  0.6280  0.2262
 8184SOL    HW236186   3.710   2.934   2.525 -1.4454 -0.2340 -0.0027
 8185SOL     OW36187   1.830   3.456   4.433 -0.1049  0.0750  0.2979
 8185SOL    HW136188   1.768   3.516   4.474 -2.2439 -2.0555  0.1902
 8185SOL    HW236189   1.861   3.421   4.517  0.6022  0.2152  0.0957
 8186SOL     OW36190   3.193   1.003  17.077  0.3386  0.0603 -0.1924
 8186SOL    HW136191   3.100   0.979  17.076  0.3214  0.1502 -1.6443
 8186SOL    HW236192   3.200   1.063  17.002  0.6888  0.5222  0.2077
 8187SOL     OW36193   3.477   1.502  10.375  0.1064 -0.0139 -0.3043
 8187SOL    HW136194   3.533   1.544  10.441 -2.2441 -0.7603  2.1308
 8187SOL    HW236195   3.413   1.572  10.369 -1.4115 -1.2281  1.6676
 8188SOL     OW36196   2.072   0.383  13.842 -0.3119  0.4319  0.1597
 8188SOL    HW136197   2.048   0.460  13.893  0.2230 -0.8757  2.3962
 8188SOL    HW236198   2.039   0.317  13.903 -0.0251  1.1917  1.1311
 8189SOL     OW36199   1.809   4.642  16.234  0.2193 -0.1890 -0.4193
 8189SOL    HW136200   1.785   4.590  16.311  1.2580 -1.2546 -0.8169
 8189SOL    HW236201   1.769   4.726  16.256 -0.2198 -0.7033  0.7659
 8190SOL     OW36202   1.448   0.594  13.013 -0.1128  0.0099 -0.2406
 8190SOL    HW136203   1.539   0.565  13.005  0.5518  1.8575  0.5303
 8190SOL    HW236204   1.465   0.659  13.081 -0.7727  2.2325 -2.1775
 8191SOL     OW36205   3.885   1.754  13.049  0.7011 -0.1630  0.0608
 8191SOL    HW136206   3.910   1.675  13.097  2.0138 -0.9053 -1.8449
 8191SOL    HW236207   3.846   1.705  12.976  1.4010 -0.5089 -0.0847
 8192SOL     OW36208   2.126   2.667  10.740 -0.2384  0.0982 -0.4930
 8192SOL    HW136209   2.154   2.620  10.819  0.9292 -2.2119 -2.2847
 8192SOL    HW236210   2.200   2.724  10.719  1.0250 -1.3769 -0.0331
 8193SOL     OW36211   2.212   2.681   9.209  0.5396  0.0261  0.0495
 8193SOL    HW136212   2.255   2.598   9.187 -1.1276 -1.4570  2.3478
 8193SOL    HW236213   2.258   2.689   9.293 -0.2038 -1.4787  0.6031
 8194SOL     OW36214   2.306   3.125   8.625 -0.2192 -0.4885  0.1232
 8194SOL    HW136215   2.341   3.196   8.678 -1.0834  0.3736 -0.4748
 8194SOL    HW236216   2.278   3.070   8.698 -1.0414 -0.0283  0.1460
 8195SOL     OW36217   3.063   1.585   3.325  0.2149 -0.6611  0.2191
 8195SOL    HW136218   3.044   1.603   3.417  1.6125  0.5958  0.2727
 8195SOL    HW236219   3.157   1.602   3.325  0.4685 -2.0778 -1.5742
 8196SOL     OW36220   4.241   0.809  16.397 -0.0274  0.2253  0.6165
 8196SOL    HW136221   4.328   0.768  16.392 -1.8600 -3.3299 -1.6715
 8196SOL    HW236222   4.196   0.753  16.335  0.3773 -0.2426  0.7436
 8197SOL     OW36223   2.775   2.445   4.450 -0.1491 -0.1266 -0.7760
 8197SOL    HW136224   2.680   2.440   4.457 -0.3434  3.9393 -0.4850
 8197SOL    HW236225   2.797   2.444   4.357 -1.2609 -2.0048 -1.0141
 8198SOL     OW36226   3.157   4.323  12.809  0.0209 -0.8842  0.2692
 8198SOL    HW136227   3.247   4.291  12.800  0.2213  0.2760 -1.8636
 8198SOL    HW236228   3.155   4.419  12.803 -0.6395 -0.8807  0.6354
 8199SOL     OW36229   2.725   3.000   6.203  0.3264  0.1846  0.1623
 8199SOL    HW136230   2.632   2.983   6.191  0.3481  0.0230  0.2171
 8199SOL    HW236231   2.759   2.911   6.209 -1.1508 -0.3369  0.7301
 8200SOL     OW36232   2.905   0.811  11.837  0.0237 -0.0981 -0.2143
 8200SOL    HW136233   2.878   0.893  11.879 -0.2503  0.3057 -1.1816
 8200SOL    HW236234   2.995   0.813  11.867  0.1054 -0.8403 -0.4057
 8201SOL     OW36235   2.236   0.546  16.661  0.4983  0.4901 -0.1600
 8201SOL    HW136236   2.271   0.520  16.746  0.9048  0.1001 -0.4502
 8201SOL    HW236237   2.151   0.584  16.683 -0.9676 -1.5921 -2.2657
 8202SOL     OW36238   0.355   2.682   4.339 -0.3385  0.0085  0.4611
 8202SOL    HW136239   0.286   2.748   4.343 -0.3653  0.0764 -1.4322
 8202SOL    HW236240   0.423   2.732   4.293 -1.3412  0.5173 -0.4647
 8203SOL     OW36241   1.606   4.252   9.274  0.3352  0.2343  0.3400
 8203SOL    HW136242   1.613   4.173   9.220  0.7964  0.2107  0.4305
 8203SOL    HW236243   1.666   4.314   9.231  0.6338 -0.0206  0.3843
 8204SOL     OW36244   3.423   3.458   7.154 -0.1417 -0.2255  0.0011
 8204SOL    HW136245   3.458   3.514   7.085 -0.5743 -0.2218 -0.2158
 8204SOL    HW236246   3.495   3.406   7.190 -0.3611 -0.9965 -0.6771
 8205SOL     OW36247   3.396   3.793   3.631  0.8232 -0.0934  0.5536
 8205SOL    HW136248   3.463   3.800   3.563  0.8967 -0.4707  0.5878
 8205SOL    HW236249   3.330   3.856   3.602  0.0383 -1.3490 -0.3793
 8206SOL     OW36250   0.415   4.601  17.266  0.5019  0.4463  0.0131
 8206SOL    HW136251   0.370   4.591  17.182 -0.3464  1.5043  0.3314
 8206SOL    HW236252   0.337   4.593  17.321  0.5002  1.7675  0.2231
 8207SOL     OW36253   3.296   0.580   7.872  0.3757  0.0679 -0.0557
 8207SOL    HW136254   3.334   0.514   7.929  2.2044  0.6697 -0.5942
 8207SOL    HW236255   3.230   0.525   7.829  0.8344 -0.0668 -0.5806
 8208SOL     OW36256   0.440   4.304   7.940 -0.0077 -0.6117 -0.0570
 8208SOL    HW136257   0.516   4.270   7.893  0.1449  1.0329 -1.0177
 8208SOL    HW236258   0.380   4.327   7.870 -0.3079  1.3262  0.8311
 8209SOL     OW36259   3.484   0.797   0.715  0.1150  0.0231 -0.7770
 8209SOL    HW136260   3.510   0.714   0.754  1.4028  1.3199  1.1872
 8209SOL    HW236261   3.398   0.778   0.678 -0.7086 -1.6899  2.0587
 8210SOL     OW36262   2.385   4.520   4.917 -0.1599 -0.9179 -0.3989
 8210SOL    HW136263   2.433   4.466   4.980 -1.4862 -0.2090  1.2200
 8210SOL    HW236264   2.418   4.607   4.939  0.7951 -0.8636 -2.0268
 8211SOL     OW36265   0.613   1.041  12.287  0.0398  0.5203 -0.1862
 8211SOL    HW136266   0.618   0.962  12.233 -0.1959  1.6626 -1.8901
 8211SOL    HW236267   0.690   1.085  12.252  0.2018  1.2300  1.0851
 8212SOL     OW36268   2.267   1.664   9.981 -0.3528 -0.4456 -0.2476
 8212SOL    HW136269   2.220   1.582  10.000  0.1143 -1.2166 -2.3771
 8212SOL    HW236270   2.356   1.637  10.005 -0.7883 -0.5172  1.2704
 8213SOL     OW36271   2.585   2.625   8.722  0.2989  0.0054  0.8198
 8213SOL    HW136272   2.524   2.688   8.682 -0.4902 -0.1574  1.7545
 8213SOL    HW236273   2.594   2.645   8.815  3.3252  0.9301  0.3240
 8214SOL     OW36274   1.816   2.864  16.544  0.0502 -0.3722 -0.1372
 8214SOL    HW136275   1.724   2.843  16.527 -0.7565  2.6379  0.5528
 8214SOL    HW236276   1.847   2.784  16.585 -0.0864 -0.4051 -0.0986
 8215SOL     OW36277   0.269   4.390   6.893 -0.0557 -0.2253  0.1731
 8215SOL    HW136278   0.232   4.326   6.833 -0.5522  0.8872 -0.6893
 8215SOL    HW236279   0.236   4.473   6.860 -0.0465 -0.9131 -1.5425
 8216SOL     OW36280   0.163   1.847  11.226  0.5548 -0.0625  0.2881
 8216SOL    HW136281   0.068   1.832  11.224  0.4773  0.6579 -1.6400
 8216SOL    HW236282   0.184   1.838  11.133  3.8146 -1.9185  1.2191
 8217SOL     OW36283   3.484   4.404   9.424  0.5411  0.1776 -0.1889
 8217SOL    HW136284   3.524   4.441   9.503 -0.1149  3.2976 -1.3122
 8217SOL    HW236285   3.402   4.369   9.458  0.2931  1.5346  0.6563
 8218SOL     OW36286   4.569   3.655   3.186  0.5072 -0.4744 -0.5138
 8218SOL    HW136287   4.624   3.677   3.111 -0.0879  0.3732 -0.7054
 8218SOL    HW236288   4.543   3.566   3.162  2.1715 -0.7841 -1.1717
 8219SOL     OW36289   0.830   1.622   3.389 -0.0980 -0.1579  0.5482
 8219SOL    HW136290   0.865   1.534   3.400  1.5057  0.3155 -0.8008
 8219SOL    HW236291   0.829   1.648   3.481  0.3102 -0.6111  0.6806
 8220SOL     OW36292   4.345   4.429  10.160 -0.3025  0.1539  0.1089
 8220SOL    HW136293   4.321   4.389  10.244  0.1229  1.2284  0.7410
 8220SOL    HW236294   4.361   4.353  10.105  2.0594 -0.3695  1.5281
 8221SOL     OW36295   2.568   1.393   2.940  0.3704  0.1076 -0.6908
 8221SOL    HW136296   2.575   1.350   2.855 -2.0353  0.8866 -1.2916
 8221SOL    HW236297   2.631   1.342   2.992 -0.7828  1.4991  2.1109
 8222SOL     OW36298   1.144   2.594   9.613  0.0980 -0.6363 -0.7008
 8222SOL    HW136299   1.139   2.652   9.689 -0.7379 -1.3927 -0.1827
 8222SOL    HW236300   1.225   2.622   9.569  0.0977  0.1356 -0.2208
 8223SOL     OW36301   3.325   0.664  12.390 -0.0742  0.4413 -0.2574
 8223SOL    HW136302   3.413   0.631  12.409  0.1295  0.7402 -0.6670
 8223SOL    HW236303   3.336   0.713  12.308 -0.6563 -2.0791 -1.8474
 8224SOL     OW36304   0.455   2.105   2.923  0.0869  0.3592 -0.0423
 8224SOL    HW136305   0.491   2.118   2.835 -0.9357 -1.0381 -0.6707
 8224SOL    HW236306   0.363   2.125   2.907  0.8546  3.0055 -1.1879
 8225SOL     OW36307   3.672   0.272   6.517 -0.0696 -0.2324  0.0638
 8225SOL    HW136308   3.598   0.216   6.541 -0.1855  0.2648  0.8688
 8225SOL    HW236309   3.674   0.338   6.587  2.3020 -0.0636 -0.1391
 8226SOL     OW36310   3.774   1.530  11.723  0.1005  0.0760 -0.0965
 8226SOL    HW136311   3.732   1.554  11.806 -0.2240 -1.7781  0.2815
 8226SOL    HW236312   3.845   1.470  11.747 -0.9286 -2.6593 -3.9401
 8227SOL     OW36313   4.641   3.014  13.279 -0.2219  0.1178  0.6324
 8227SOL    HW136314   4.578   2.959  13.232  0.1844  0.3400 -0.1677
 8227SOL    HW236315   4.682   3.060  13.206 -1.4537 -1.0990 -0.8129
 8228SOL     OW36316   2.994   4.456  16.518  0.1450  0.3621 -0.5828
 8228SOL    HW136317   2.913   4.406  16.525 -0.9304  1.7985 -2.8980
 8228SOL    HW236318   3.049   4.399  16.465  2.7834  3.4009 -1.1152
 8229SOL     OW36319   2.433   1.797  10.453  0.5368 -0.5597  0.3759
 8229SOL    HW136320   2.373   1.774  10.524 -0.2718  0.1375 -0.0881
 8229SOL    HW236321   2.455   1.888  10.475  0.5532 -0.0664 -1.7268
 8230SOL     OW36322   4.321   1.624   1.419 -0.0923 -0.5464  0.3806
 8230SOL    HW136323   4.342   1.532   1.402  1.5951 -0.1599  0.3044
 8230SOL    HW236324   4.251   1.642   1.357 -0.1450 -0.2031  0.5340
 8231SOL     OW36325   2.473   4.197   0.421  0.4649 -0.0776  0.5084
 8231SOL    HW136326   2.410   4.193   0.349 -1.2424 -1.6601  2.1126
 8231SOL    HW236327   2.508   4.283   0.397 -1.0758  0.9820  2.0766
 8232SOL     OW36328   2.818   3.356   9.450  0.3899 -0.0591 -0.0998
 8232SOL    HW136329   2.851   3.412   9.520 -0.4298  0.1973  0.0797
 8232SOL    HW236330   2.880   3.283   9.459 -0.5274 -0.9301 -0.8259
 8233SOL     OW36331   1.702   2.580   2.679 -0.2734  0.1007  0.2142
 8233SOL    HW136332   1.649   2.590   2.600  1.1329  1.7081 -0.5300
 8233SOL    HW236333   1.675   2.658   2.727 -0.2626  0.3210 -0.1362
 8234SOL     OW36334   2.554   2.437   3.668  0.0545 -0.4794  0.2988
 8234SOL    HW136335   2.628   2.488   3.635 -1.3824  1.5429  0.2429
 8234SOL    HW236336   2.476   2.485   3.643  0.8279  1.1238  0.9509
 8235SOL     OW36337   2.118   0.921   3.640  0.3036  0.2152  0.1927
 8235SOL    HW136338   2.034   0.881   3.664 -1.4780  3.8651  0.0715
 8235SOL    HW236339   2.148   0.925   3.730  0.6198  3.6463 -0.0888
 8236SOL     OW36340   1.722   1.118  14.542  0.1879 -0.4200  0.5508
 8236SOL    HW136341   1.638   1.164  14.546 -2.2406 -4.6698 -1.1727
 8236SOL    HW236342   1.769   1.134  14.624  0.4416 -0.6951  0.4608
 8237SOL     OW36343   3.021   1.599   1.043  0.3056 -0.1745 -0.1797
 8237SOL    HW136344   2.956   1.559   1.100 -0.5200  1.2677 -0.1307
 8237SOL    HW236345   3.053   1.515   1.010  2.6823  1.2385 -1.4913
 8238SOL     OW36346   3.028   4.254   3.591 -1.0175 -0.0680  0.1084
 8238SOL    HW136347   2.973   4.325   3.624 -0.6008  0.4265 -0.2462
 8238SOL    HW236348   2.957   4.192   3.579 -0.1315 -1.1692  0.5227
 8239SOL     OW36349   3.139   0.729   9.017  0.1659  0.0603 -0.8505
 8239SOL    HW136350   3.112   0.820   9.005 -0.0741  0.1386  0.2695
 8239SOL    HW236351   3.121   0.703   8.927  0.6492  1.2969 -1.3005
 8240SOL     OW36352   2.291   2.473   1.471 -0.0670 -0.0194 -0.4669
 8240SOL    HW136353   2.208   2.453   1.428 -0.4434  2.0918 -0.6954
 8240SOL    HW236354   2.293   2.567   1.490  0.3055 -0.5711  2.3611
 8241SOL     OW36355   0.589   0.373   9.803 -0.0541  0.5457 -0.0868
 8241SOL    HW136356   0.675   0.414   9.792  1.1162 -0.9338  3.5087
 8241SOL    HW236357   0.550   0.395   9.719  0.3410 -0.4512 -0.5264
 8242SOL     OW36358   4.242   4.516   0.488 -0.2580  0.0103  0.3824
 8242SOL    HW136359   4.318   4.573   0.478  0.4439 -0.9684  0.1812
 8242SOL    HW236360   4.269   4.431   0.452  1.9029  1.6261 -1.8339
 8243SOL     OW36361   2.592   2.186   3.340 -0.4700  0.2018 -0.1492
 8243SOL    HW136362   2.653   2.200   3.412 -0.9035 -1.0283  0.4692
 8243SOL    HW236363   2.509   2.156   3.377 -0.8403  1.7956  0.2672
 8244SOL     OW36364   2.497   3.937  14.967  0.2285  0.2396 -1.0923
 8244SOL    HW136365   2.464   4.027  14.975 -0.8712 -0.2785  0.2984
 8244SOL    HW236366   2.585   3.958  14.935  0.4442 -0.0505 -0.7000
 8245SOL     OW36367   0.605   3.798   7.727  0.2695 -0.5554  0.6045
 8245SOL    HW136368   0.522   3.830   7.764 -0.4372 -1.2354 -0.3886
 8245SOL    HW236369   0.668   3.810   7.798  2.1817  2.1745 -1.5820
 8246SOL     OW36370   1.170   3.214  13.233 -0.6371 -0.1291 -0.2119
 8246SOL    HW136371   1.262   3.188  13.242 -1.0062 -1.7469 -1.2118
 8246SOL    HW236372   1.165   3.239  13.140  1.7989  2.8142  0.4442
 8247SOL     OW36373   1.350   1.265   3.832  0.8203 -0.1535 -0.0126
 8247SOL    HW136374   1.395   1.339   3.872  0.4649 -0.1621  0.3978
 8247SOL    HW236375   1.309   1.309   3.758  0.7927 -0.2193 -0.0369
 8248SOL     OW36376   2.557   0.203   8.463 -0.9323 -0.6369 -0.0786
 8248SOL    HW136377   2.482   0.237   8.512 -0.4453 -0.7837  0.7701
 8248SOL    HW236378   2.629   0.244   8.511 -2.0489  1.3676 -0.0705
 8249SOL     OW36379   4.598   3.343   9.957  0.4646  0.1980 -0.0778
 8249SOL    HW136380   4.630   3.427   9.925  1.2410 -0.2611 -0.5020
 8249SOL    HW236381   4.509   3.338   9.922  0.4526 -0.8482  0.0842
 8250SOL     OW36382   1.672   1.445  10.004 -0.3259 -0.8905 -0.6872
 8250SOL    HW136383   1.729   1.504  10.055 -2.3205  0.9707 -0.6196
 8250SOL    HW236384   1.584   1.475  10.027  1.9490  3.0237  2.9105
 8251SOL     OW36385   2.799   0.059   1.732  0.7957 -0.0666  0.1864
 8251SOL    HW136386   2.819   0.006   1.809 -0.5197  2.5189  2.2743
 8251SOL    HW236387   2.752   0.135   1.764 -0.4116 -0.1080 -1.4917
 8252SOL     OW36388   4.477   4.490   4.418  0.6267  0.5686  0.2545
 8252SOL    HW136389   4.432   4.417   4.460  1.5556  1.0332  2.0408
 8252SOL    HW236390   4.409   4.558   4.422  2.4296  2.3489  0.5013
 8253SOL     OW36391   2.904   4.561   7.774  0.1224 -0.3132  0.0452
 8253SOL    HW136392   2.881   4.648   7.807 -0.2522 -0.3638 -0.0912
 8253SOL    HW236393   2.952   4.594   7.697 -1.3984  1.7196 -0.0485
 8254SOL     OW36394   4.488   2.940   7.235 -0.0451  0.0292 -0.0189
 8254SOL    HW136395   4.406   2.958   7.280  1.0437 -1.1584  2.4723
 8254SOL    HW236396   4.472   2.857   7.190  0.4465 -0.7806  1.2786
 8255SOL     OW36397   2.607   3.516  15.268 -0.3251  0.6257 -0.2791
 8255SOL    HW136398   2.566   3.440  15.227 -0.1479  1.2714 -1.6629
 8255SOL    HW236399   2.634   3.479  15.352  0.3004 -1.8772 -1.5641
 8256SOL     OW36400   0.578   4.316  10.629  0.2785  0.8761 -0.3100
 8256SOL    HW136401   0.516   4.387  10.640 -0.8882  0.0018 -1.2785
 8256SOL    HW236402   0.521   4.240  10.641  1.7188 -0.1725 -0.0151
 8257SOL     OW36403   1.777   1.673   0.542  0.0261  0.2038  0.9586
 8257SOL    HW136404   1.841   1.626   0.488 -0.5312 -0.5717  0.9779
 8257SOL    HW236405   1.765   1.757   0.496  3.1119  0.2027  0.1763
 8258SOL     OW36406   3.675   2.610   5.190 -0.4018 -0.6299  0.5052
 8258SOL    HW136407   3.657   2.545   5.257 -0.3577 -2.2132 -1.0207
 8258SOL    HW236408   3.721   2.676   5.242  1.5483 -0.8145 -0.9952
 8259SOL     OW36409   1.958   0.602   6.548 -0.0695  0.2564  0.2371
 8259SOL    HW136410   1.919   0.519   6.575  1.1116 -0.0496  1.0135
 8259SOL    HW236411   2.037   0.559   6.516  0.2979  0.5812  0.7175
 8260SOL     OW36412   3.415   1.968   8.033 -0.2003 -0.2125 -0.5417
 8260SOL    HW136413   3.485   2.017   7.989  2.0845 -1.4516  1.6592
 8260SOL    HW236414   3.341   1.980   7.975 -1.1861 -1.2304  0.5088
 8261SOL     OW36415   1.218   0.491   6.560  0.0133 -0.0958  0.7235
 8261SOL    HW136416   1.237   0.402   6.588 -0.4775 -0.0013  1.3512
 8261SOL    HW236417   1.177   0.468   6.477  2.3497 -2.3688  0.1967
 8262SOL     OW36418   2.916   4.530   4.679 -0.0474 -0.4684 -0.1216
 8262SOL    HW136419   2.894   4.535   4.772  0.1868 -0.8059 -0.0491
 8262SOL    HW236420   2.824   4.548   4.659  0.3635  1.9334  0.1232
 8263SOL     OW36421   4.573   4.074   5.667 -0.1165 -0.5984 -0.1583
 8263SOL    HW136422   4.535   4.065   5.754 -0.4899  1.3317 -0.1377
 8263SOL    HW236423   4.559   4.166   5.647 -0.8198 -0.3200  1.6180
 8264SOL     OW36424   2.862   2.876   9.078 -0.5169 -0.2982  0.5711
 8264SOL    HW136425   2.905   2.799   9.040 -1.7300 -0.4404 -0.4984
 8264SOL    HW236426   2.885   2.931   9.003  0.4754 -1.3527  0.1011
 8265SOL     OW36427   1.112   2.646  13.505 -0.8478 -0.8721 -0.3671
 8265SOL    HW136428   1.101   2.552  13.490 -1.8038 -0.7078 -0.6816
 8265SOL    HW236429   1.123   2.651  13.600 -0.8332  1.2479 -0.4728
 8266SOL     OW36430   0.750   4.718  16.376  0.0958  0.4226 -0.6765
 8266SOL    HW136431   0.820   4.662  16.342 -1.2820 -2.9310  2.1747
 8266SOL    HW236432   0.786   0.063  16.348  0.9682  0.0149 -0.7746
 8267SOL     OW36433   1.511   3.023   3.189 -0.4043 -0.1540  0.0125
 8267SOL    HW136434   1.592   2.996   3.232  0.4949  0.0098 -1.5956
 8267SOL    HW236435   1.546   3.074   3.116  0.3607 -0.4591  0.1769
 8268SOL     OW36436   3.000   3.075   3.518  0.3721 -0.1469  0.5014
 8268SOL    HW136437   2.968   2.991   3.550  0.5382 -0.6256 -0.5766
 8268SOL    HW236438   3.068   3.098   3.581  0.7933 -1.5895  0.5836
 8269SOL     OW36439   1.192   0.894   4.152  0.3288  0.1904  0.3140
 8269SOL    HW136440   1.211   0.962   4.217  0.9389  0.9859 -0.7044
 8269SOL    HW236441   1.178   0.953   4.078 -2.8050 -0.1725  0.6294
 8270SOL     OW36442   1.768   0.938   9.074 -0.1523  0.1331 -0.3738
 8270SOL    HW136443   1.787   0.886   8.996 -2.7018 -1.2924 -0.0459
 8270SOL    HW236444   1.827   0.909   9.145  0.3232  0.2738 -0.7111
 8271SOL     OW36445   1.446   0.138   7.373 -0.1318  0.5262  0.7731
 8271SOL    HW136446   1.526   0.094   7.344 -1.1609 -1.1987  0.5723
 8271SOL    HW236447   1.448   0.213   7.314 -2.1663 -0.3879 -0.4360
 8272SOL     OW36448   4.308   1.292   5.097 -0.4222 -0.3943  0.6159
 8272SOL    HW136449   4.288   1.312   5.189  0.5499  4.7999 -0.3192
 8272SOL    HW236450   4.347   1.206   5.115 -0.6771 -1.1964 -2.6995
 8273SOL     OW36451   3.092   3.324   4.085 -0.0068  0.2763  0.4119
 8273SOL    HW136452   3.016   3.380   4.071 -0.4300 -0.4413 -0.1412
 8273SOL    HW236453   3.165   3.374   4.050  1.1290 -2.4085 -1.0194
 8274SOL     OW36454   2.222   3.383  10.045  0.0423 -0.9557 -0.0634
 8274SOL    HW136455   2.248   3.391   9.954 -2.1261  0.2013 -0.5846
 8274SOL    HW236456   2.214   3.287  10.050  2.7654 -1.1538  0.1654
 8275SOL     OW36457   4.512   0.653   7.458  0.7164  0.2114  0.1156
 8275SOL    HW136458   4.543   0.743   7.472  2.8230 -0.6196  0.8105
 8275SOL    HW236459   4.428   0.647   7.503  0.3591 -1.0153 -0.7328
 8276SOL     OW36460   4.251   0.240  12.169  0.5682 -0.1526 -0.6323
 8276SOL    HW136461   4.265   0.145  12.174 -2.2955 -0.5378  0.0189
 8276SOL    HW236462   4.157   0.243  12.152  0.7346  2.4695 -1.0008
 8277SOL     OW36463   3.368   1.478   4.586  0.2465  0.2437  0.3803
 8277SOL    HW136464   3.362   1.462   4.492 -2.7346  0.1861  0.6040
 8277SOL    HW236465   3.460   1.501   4.604  0.4039  0.5540 -0.8609
 8278SOL     OW36466   0.107   0.977  12.379  0.4774 -0.1910  0.6316
 8278SOL    HW136467   0.193   0.940  12.399  1.3400  0.6269 -1.6236
 8278SOL    HW236468   0.112   0.984  12.284 -2.5583  1.5123  0.6067
 8279SOL     OW36469   0.137   0.720   6.607 -0.4859  0.8603  0.1187
 8279SOL    HW136470   0.152   0.629   6.633 -0.6886  1.1820  1.3423
 8279SOL    HW236471   0.196   0.753   6.675 -0.1000  0.6395 -0.1073
 8280SOL     OW36472   3.027   1.347   1.932  0.3548 -0.3053  0.0909
 8280SOL    HW136473   3.057   1.364   1.842  0.9660  0.6940  0.4745
 8280SOL    HW236474   2.959   1.281   1.923 -1.5914  1.8749 -1.3007
 8281SOL     OW36475   1.320   3.728  11.775 -0.1531  0.0122 -0.1709
 8281SOL    HW136476   1.329   3.806  11.721  0.3608  0.5265  0.6436
 8281SOL    HW236477   1.406   3.721  11.817  0.0448  0.2738 -0.5390
 8282SOL     OW36478   0.750   3.716   4.965  0.0563  0.4800  0.0554
 8282SOL    HW136479   0.708   3.736   5.048 -2.8434  1.0659 -1.5607
 8282SOL    HW236480   0.842   3.732   4.988 -0.0030  0.9267 -0.0027
 8283SOL     OW36481   3.281   2.762   5.204  0.1523 -0.1465  0.1909
 8283SOL    HW136482   3.196   2.779   5.245 -1.6083 -2.6976 -2.5001
 8283SOL    HW236483   3.339   2.736   5.276 -1.7486 -0.7829  1.4989
 8284SOL     OW36484   3.382   2.938  12.270  1.1114  0.5417  0.1577
 8284SOL    HW136485   3.369   2.942  12.365  1.3207  1.9787  0.1319
 8284SOL    HW236486   3.401   2.845  12.259  1.8610  0.8028 -0.6762
 8285SOL     OW36487   1.280   0.730  12.166 -0.5900  0.1582 -0.1179
 8285SOL    HW136488   1.184   0.726  12.172 -0.5645  1.9077  1.3752
 8285SOL    HW236489   1.288   0.637  12.143  0.9964  0.4557 -0.8141
 8286SOL     OW36490   3.137   2.955   6.413  0.5290  0.4257  0.7264
 8286SOL    HW136491   3.167   2.922   6.329  0.1910 -0.5149  0.9792
 8286SOL    HW236492   3.180   3.041   6.410  1.2795 -0.0472 -1.4329
 8287SOL     OW36493   3.233   3.797   2.417  0.1356  0.3395 -0.1261
 8287SOL    HW136494   3.264   3.864   2.356  0.4792  0.4588  0.1759
 8287SOL    HW236495   3.308   3.737   2.412 -2.3605 -2.8830  1.2219
 8288SOL     OW36496   0.037   4.510   2.242 -0.0019 -0.1927 -0.2574
 8288SOL    HW136497   0.013   4.448   2.173 -0.4062  0.1316 -0.4084
 8288SOL    HW236498   0.128   4.522   2.219  0.0430  0.0776  0.0591
 8289SOL     OW36499   2.353   0.482   7.250  0.0904  0.0676  0.6815
 8289SOL    HW136500   2.262   0.459   7.231 -0.1031  1.9811 -0.6480
 8289SOL    HW236501   2.339   0.575   7.266  0.7161  0.2797 -0.0056
 8290SOL     OW36502   4.444   0.965   2.752  0.4083 -0.3236  0.1358
 8290SOL    HW136503   4.524   0.999   2.793 -0.6398  0.5886  1.4085
 8290SOL    HW236504   4.473   0.882   2.715 -3.2392 -0.9503 -1.2638
 8291SOL     OW36505   3.696   2.771   5.421  0.7665 -0.1020 -1.1666
 8291SOL    HW136506   3.633   2.835   5.389  2.1551  0.1365 -3.4513
 8291SOL    HW236507   3.639   2.706   5.463 -1.4847  1.6035 -1.5987
 8292SOL     OW36508   0.143   0.993  11.683 -0.2543  0.5119 -0.5262
 8292SOL    HW136509   0.127   1.081  11.716 -2.9772 -1.3654  3.1793
 8292SOL    HW236510   0.104   0.943  11.754  1.7468 -0.2713  0.0313
 8293SOL     OW36511   1.643   0.975   6.565 -0.4061 -0.0166  0.4111
 8293SOL    HW136512   1.574   0.963   6.630 -1.2158  0.6953 -0.3149
 8293SOL    HW236513   1.720   0.947   6.614  1.3024  3.6508 -0.1128
 8294SOL     OW36514   3.372   2.419  10.796 -0.5234 -0.3069 -0.1843
 8294SOL    HW136515   3.443   2.475  10.764 -1.7545  2.4091  1.8007
 8294SOL    HW236516   3.300   2.482  10.791 -0.4715  0.0230  3.2682
 8295SOL     OW36517   3.544   2.648   8.288 -0.2233  0.2946  0.5904
 8295SOL    HW136518   3.451   2.635   8.270 -0.3886 -0.5210  2.0397
 8295SOL    HW236519   3.575   2.560   8.267  1.4786  0.8204  0.9214
 8296SOL     OW36520   1.214   1.775   3.896 -0.1407  0.2756 -0.0081
 8296SOL    HW136521   1.146   1.741   3.955 -0.2263  1.8929  0.8191
 8296SOL    HW236522   1.283   1.786   3.962  1.1398  1.2799 -1.5110
 8297SOL     OW36523   3.126   0.021   2.057 -0.8029  0.1105  0.3747
 8297SOL    HW136524   3.216   0.002   2.084 -0.4206 -1.3887 -1.9035
 8297SOL    HW236525   3.083   0.037   2.141 -1.1559  1.0779  0.0117
 8298SOL     OW36526   2.489   1.449   7.392 -0.3295 -0.2095 -0.2952
 8298SOL    HW136527   2.528   1.369   7.358  0.9592 -0.6153  2.1615
 8298SOL    HW236528   2.400   1.421   7.371 -0.4331  1.8092 -2.5384
 8299SOL     OW36529   2.538   4.079   2.455 -0.0010 -0.2501  0.5061
 8299SOL    HW136530   2.594   4.120   2.390 -1.1331  0.1163 -0.2431
 8299SOL    HW236531   2.452   4.068   2.415  1.6224 -0.0829 -3.0073
 8300SOL     OW36532   1.334   2.725   3.096 -0.2504 -0.2670  0.4710
 8300SOL    HW136533   1.416   2.715   3.144  0.6270 -2.4510 -1.4834
 8300SOL    HW236534   1.356   2.775   3.017  0.3636 -2.4828 -0.7697
 8301SOL     OW36535   0.827   0.233   1.929 -0.3847 -0.3780  0.0087
 8301SOL    HW136536   0.882   0.156   1.915 -3.1062 -2.2421 -0.3309
 8301SOL    HW236537   0.890   0.305   1.921  0.5031 -1.3220 -1.5488
 8302SOL     OW36538   0.196   2.520  11.596 -0.0227 -0.5471  0.4476
 8302SOL    HW136539   0.244   2.451  11.641  0.9856 -0.5175 -0.5886
 8302SOL    HW236540   0.115   2.519  11.647  0.8885  0.1104  1.8936
 8303SOL     OW36541   1.097   4.640   7.920 -0.3366  0.4663  0.0645
 8303SOL    HW136542   1.015   4.606   7.955 -1.1453 -0.3479 -2.6030
 8303SOL    HW236543   1.140   4.664   8.002 -1.3609  1.3946  0.3243
 8304SOL     OW36544   0.707   3.264   9.743 -0.2589 -0.0032  0.3580
 8304SOL    HW136545   0.709   3.356   9.720  0.9542 -0.2623 -0.5581
 8304SOL    HW236546   0.800   3.245   9.729 -0.9323 -3.1229  0.0369
 8305SOL     OW36547   4.580   0.112   2.867 -0.2834  0.1756 -0.2729
 8305SOL    HW136548   4.498   0.141   2.827 -0.6696 -1.0364 -0.3421
 8305SOL    HW236549   4.595   0.038   2.809 -0.6788 -0.5468  0.5514
 8306SOL     OW36550   4.523   2.836   7.584  0.5592  0.3245  0.2959
 8306SOL    HW136551   4.554   2.914   7.538 -1.7114  1.3960  0.5529
 8306SOL    HW236552   4.449   2.814   7.527 -0.5067  0.7554  1.5213
 8307SOL     OW36553   3.370   0.655   5.049 -0.2786 -0.4814 -0.5578
 8307SOL    HW136554   3.429   0.731   5.052 -2.0607  1.0246 -2.9362
 8307SOL    HW236555   3.356   0.658   5.144 -2.1066 -1.6195 -0.8018
 8308SOL     OW36556   4.427   4.039   3.971 -0.2343  0.3335 -0.0364
 8308SOL    HW136557   4.435   4.127   3.935  2.2726  0.1913  0.1340
 8308SOL    HW236558   4.516   4.004   3.975 -1.4015 -2.7611 -0.8981
 8309SOL     OW36559   1.540   4.412  12.441  0.0846 -0.1082 -0.6812
 8309SOL    HW136560   1.472   4.356  12.480  0.5377 -0.2803 -0.1398
 8309SOL    HW236561   1.547   4.361  12.361 -1.4841  1.7789 -2.0109
 8310SOL     OW36562   3.143   2.613   9.711  0.0285  0.1733  0.3482
 8310SOL    HW136563   3.148   2.700   9.750  0.4595  0.5502 -0.5679
 8310SOL    HW236564   3.072   2.630   9.650  0.0443 -0.0570  0.2664
 8311SOL     OW36565   1.058   0.916   8.935 -0.6659 -0.1979 -0.3820
 8311SOL    HW136566   1.038   0.836   8.886  3.0145  0.9941 -3.8230
 8311SOL    HW236567   1.063   0.884   9.025 -0.1229 -0.4642 -0.5050
 8312SOL     OW36568   0.223   4.489   9.152 -0.1572  0.5283 -0.1673
 8312SOL    HW136569   0.190   4.470   9.064  0.0859 -0.7109  0.0184
 8312SOL    HW236570   0.231   4.401   9.187  1.5982  0.1426 -1.5473
 8313SOL     OW36571   1.990   1.339   6.017 -0.0042  0.0788  0.7625
 8313SOL    HW136572   1.932   1.263   6.013  0.0573  0.1192 -1.2370
 8313SOL    HW236573   1.926   1.408   6.034  0.8883  0.4961  2.3585
 8314SOL     OW36574   3.472   0.527   5.859 -0.6969  0.1591  0.0455
 8314SOL    HW136575   3.493   0.481   5.940 -1.3939  0.1446  0.2157
 8314SOL    HW236576   3.540   0.595   5.852 -1.1833  0.2518 -4.0696
 8315SOL     OW36577   0.575   2.780   2.386 -0.1025 -0.1273 -0.0782
 8315SOL    HW136578   0.642   2.832   2.429  2.3573 -1.8462 -1.8176
 8315SOL    HW236579   0.563   2.839   2.311 -0.4879  2.7163  2.2259
 8316SOL     OW36580   0.690   1.864   2.599  0.1701 -0.1748 -0.0268
 8316SOL    HW136581   0.659   1.876   2.689  0.9645 -2.1152  0.5095
 8316SOL    HW236582   0.768   1.916   2.617 -0.6413  1.2563 -0.6643
 8317SOL     OW36583   1.670   2.323   5.310 -0.3438  0.5617 -1.0135
 8317SOL    HW136584   1.631   2.355   5.392  0.8954  0.6752 -0.4689
 8317SOL    HW236585   1.722   2.247   5.335  0.2445  1.6791  1.1498
 8318SOL     OW36586   4.517   3.271   2.934  0.6415  0.9713 -0.2549
 8318SOL    HW136587   4.545   3.305   3.019 -1.1810 -1.3113  1.2912
 8318SOL    HW236588   4.513   3.353   2.885  0.0584  1.0191 -0.1351
 8319SOL     OW36589   2.901   2.865   9.369  0.1215 -0.5398 -0.1799
 8319SOL    HW136590   2.899   2.863   9.274  1.9011  0.4743 -0.2505
 8319SOL    HW236591   2.931   2.955   9.385 -2.1460  0.3150 -0.7195
 8320SOL     OW36592   2.690   3.580  10.478 -0.1378  0.1541 -0.6576
 8320SOL    HW136593   2.747   3.510  10.510 -0.1224  1.2109  1.6337
 8320SOL    HW236594   2.735   3.657  10.513  1.3029 -1.4062  0.8763
 8321SOL     OW36595   0.992   3.066   3.368  0.4726 -0.5735 -0.1379
 8321SOL    HW136596   1.024   3.007   3.300 -0.3209 -1.4553  0.2532
 8321SOL    HW236597   0.899   3.067   3.347  0.6996 -0.8767 -1.1585
 8322SOL     OW36598   3.482   2.388  12.768  0.2170 -0.3588  0.2047
 8322SOL    HW136599   3.457   2.409  12.858 -1.0781 -2.0610  0.2459
 8322SOL    HW236600   3.502   2.295  12.780  0.4289 -0.0570  2.1688
 8323SOL     OW36601   2.583   1.606  10.299  0.0467 -0.4442 -0.2602
 8323SOL    HW136602   2.664   1.644  10.266  0.1047 -0.0097  0.3684
 8323SOL    HW236603   2.540   1.679  10.344  2.5577 -0.3154  1.9175
 8324SOL     OW36604   0.270   1.768   3.951 -0.5994  0.2105 -0.1348
 8324SOL    HW136605   0.193   1.711   3.958  1.1524 -1.9247  1.7441
 8324SOL    HW236606   0.217   1.843   3.977 -1.3946  0.0985 -1.4191
 8325SOL     OW36607   0.402   4.263  14.316 -0.0458 -0.2019 -0.2055
 8325SOL    HW136608   0.424   4.325  14.386  2.3880 -1.4868  0.1599
 8325SOL    HW236609   0.432   4.310  14.238 -0.2435  1.3479  0.6395
 8326SOL     OW36610   4.609   1.776   4.868  0.8229  0.5776 -0.2608
 8326SOL    HW136611   4.702   1.793   4.854  1.4778 -3.2496 -0.5140
 8326SOL    HW236612   4.618   1.683   4.847  1.7973  0.4399  0.7381
 8327SOL     OW36613   1.877   2.444  15.982 -0.6814 -0.1604  0.2192
 8327SOL    HW136614   1.936   2.386  15.934  0.6678  2.6689 -1.5305
 8327SOL    HW236615   1.860   2.401  16.066 -1.6357  0.7369  0.4943
 8328SOL     OW36616   2.942   1.939  15.842 -0.8697 -0.4528 -0.1936
 8328SOL    HW136617   2.940   2.031  15.815 -3.5127 -0.1730  0.9146
 8328SOL    HW236618   3.032   1.926  15.870 -0.9927 -0.8166  0.0414
 8329SOL     OW36619   0.318   0.386   6.409  0.6210 -0.1004  0.1047
 8329SOL    HW136620   0.379   0.324   6.369 -0.8661 -0.3221 -1.8070
 8329SOL    HW236621   0.251   0.393   6.342  0.7019 -0.6575 -0.0284
 8330SOL     OW36622   1.089   4.487   6.485  0.1423  0.3890 -0.2357
 8330SOL    HW136623   1.049   4.400   6.488  0.4652  0.3352  3.2695
 8330SOL    HW236624   1.094   4.499   6.390  0.8158 -1.3083 -0.3940
 8331SOL     OW36625   3.341   1.192  17.655  0.0067 -0.9690  0.0482
 8331SOL    HW136626   3.419   1.137  17.661  0.8062  0.1076 -0.4445
 8331SOL    HW236627   3.274   1.135  17.619 -1.4946  1.4798 -1.0226
 8332SOL     OW36628   2.188   4.536   1.759  0.5634 -0.1917  0.0641
 8332SOL    HW136629   2.144   4.609   1.715 -3.4857 -2.6893  0.0534
 8332SOL    HW236630   2.117   4.474   1.773 -0.8679  1.7050  1.2008
 8333SOL     OW36631   3.785   1.353   8.343 -0.4081 -0.7754 -0.2204
 8333SOL    HW136632   3.693   1.380   8.346 -0.4691 -1.3193  3.7556
 8333SOL    HW236633   3.783   1.267   8.386  0.3486 -0.1836  0.9971
 8334SOL     OW36634   3.102   0.649   8.750  0.3283  0.1508  0.3471
 8334SOL    HW136635   3.011   0.660   8.775  0.4460  2.4924 -0.2713
 8334SOL    HW236636   3.100   0.666   8.656 -0.0138  1.3987  0.5708
 8335SOL     OW36637   1.024   0.510  14.834 -0.5617  0.0521  0.1685
 8335SOL    HW136638   0.995   0.541  14.749  2.1773 -1.0036 -1.1346
 8335SOL    HW236639   1.055   0.425  14.803  0.1228 -0.4896  2.3007
 8336SOL     OW36640   4.453   4.411   3.215  0.2216 -0.2723  0.4559
 8336SOL    HW136641   4.423   4.436   3.127  3.0211 -1.5462 -0.8616
 8336SOL    HW236642   4.372   4.365   3.237  0.8104 -1.8523 -0.6653
 8337SOL     OW36643   1.443   2.387   0.053 -0.1635 -0.5186 -0.1188
 8337SOL    HW136644   1.480   2.303   0.026 -1.0257 -1.0055  0.2181
 8337SOL    HW236645   1.371   2.363   0.110  1.2255 -0.9864  1.4461
 8338SOL     OW36646   4.499   2.633  12.836  0.1102 -0.2216  0.3064
 8338SOL    HW136647   4.489   2.538  12.840 -2.3043  0.0497  0.9850
 8338SOL    HW236648   4.424   2.665  12.786  0.9866  0.4476 -0.5742
 8339SOL     OW36649   1.756   0.004   5.638  0.5987 -0.5527  0.2116
 8339SOL    HW136650   1.768   0.039   5.550  0.5394  1.2698  0.9323
 8339SOL    HW236651   1.779   4.655   5.610 -1.7943 -2.2087  3.4056
 8340SOL     OW36652   3.289   2.650   1.716 -0.1611  0.0016 -0.1199
 8340SOL    HW136653   3.208   2.611   1.683 -0.5595  0.4957  0.2579
 8340SOL    HW236654   3.271   2.744   1.702 -0.7568  0.0128  0.7034
 8341SOL     OW36655   3.971   1.639   6.896 -0.4759  0.0824 -0.4111
 8341SOL    HW136656   4.010   1.582   6.829 -0.2746 -1.9991  1.4813
 8341SOL    HW236657   3.947   1.578   6.965  1.6730 -1.0486 -0.6701
 8342SOL     OW36658   2.562   1.999  10.158  0.0335  0.0736 -0.3143
 8342SOL    HW136659   2.469   1.985  10.175  0.2846 -1.0492  0.1433
 8342SOL    HW236660   2.577   1.931  10.092 -2.0169  0.4722 -1.1605
 8343SOL     OW36661   0.349   1.714  13.207 -0.6827 -0.0318 -0.2536
 8343SOL    HW136662   0.298   1.711  13.288  0.1104 -1.0752  0.2043
 8343SOL    HW236663   0.396   1.797  13.215 -0.4725 -0.3950  2.3252
 8344SOL     OW36664   0.669   0.225   3.000  0.2046  0.2284 -0.0363
 8344SOL    HW136665   0.629   0.158   3.056  0.7329  0.2864  0.4084
 8344SOL    HW236666   0.600   0.289   2.988  0.9536  1.3722  1.8341
 8345SOL     OW36667   0.363   0.282   5.275  0.5155 -0.5502  0.7437
 8345SOL    HW136668   0.316   0.216   5.224  0.6087 -1.5075  1.9081
 8345SOL    HW236669   0.309   0.361   5.263  0.0613 -1.3323 -2.4844
 8346SOL     OW36670   4.074   4.621   3.265 -0.5237 -0.9450  0.1257
 8346SOL    HW136671   3.990   4.665   3.253  0.0398  0.0427 -0.1475
 8346SOL    HW236672   4.042   4.532   3.247  0.0286 -0.5509 -2.7377
 8347SOL     OW36673   3.234   1.399   6.224  0.3725 -0.1285  0.7366
 8347SOL    HW136674   3.251   1.348   6.303 -0.5157 -1.3801  0.1071
 8347SOL    HW236675   3.151   1.367   6.190  0.1840  0.6485  0.4555
 8348SOL     OW36676   3.965   2.914   6.758 -0.0791 -0.3687 -0.3719
 8348SOL    HW136677   3.911   2.954   6.826  0.8843 -2.3972  1.5915
 8348SOL    HW236678   4.048   2.958   6.774 -1.1455  1.2588  0.5581
 8349SOL     OW36679   1.597   2.237  16.119  0.0919  0.1094  0.4178
 8349SOL    HW136680   1.542   2.166  16.153 -1.0378  0.2486 -1.1241
 8349SOL    HW236681   1.571   2.237  16.027  1.4107 -0.7639  0.0545
 8350SOL     OW36682   2.126   0.452   7.532 -0.1927 -0.2264  0.0031
 8350SOL    HW136683   2.191   0.517   7.560 -1.1637  0.6337  0.2557
 8350SOL    HW236684   2.044   0.485   7.568  1.0411  2.2482  0.5764
 8351SOL     OW36685   1.356   3.842  14.321  0.1347 -0.3960 -0.2748
 8351SOL    HW136686   1.353   3.810  14.231 -3.1962 -0.3240 -0.1851
 8351SOL    HW236687   1.448   3.862  14.333  0.4894 -1.4426 -1.2085
 8352SOL     OW36688   0.106   2.729   2.737  0.5673 -0.7490  0.2487
 8352SOL    HW136689   0.024   2.779   2.740  1.1339  0.1172  1.6536
 8352SOL    HW236690   0.118   2.721   2.643  0.0711 -0.2400  0.1399
 8353SOL     OW36691   4.069   1.041  11.317 -0.2152 -0.3607 -0.2457
 8353SOL    HW136692   4.121   0.997  11.250  1.0011  3.1451 -1.5781
 8353SOL    HW236693   4.051   0.964  11.371  1.1261 -0.7902 -0.4133
 8354SOL     OW36694   0.409   2.901   2.023 -0.3424  0.1641  0.4844
 8354SOL    HW136695   0.373   2.989   2.026  1.6474  0.9312  1.7928
 8354SOL    HW236696   0.337   2.843   2.049  0.4052 -0.9379  0.0880
 8355SOL     OW36697   3.977   1.252   5.394 -0.0251 -0.2944  0.7822
 8355SOL    HW136698   3.933   1.199   5.461 -2.1405 -0.0067 -0.3611
 8355SOL    HW236699   3.912   1.314   5.362  1.0055  1.4656  2.1051
 8356SOL     OW36700   1.808   3.634   5.293  0.4703  0.3521 -0.4479
 8356SOL    HW136701   1.807   3.684   5.375  2.6310 -0.6590  0.1685
 8356SOL    HW236702   1.852   3.692   5.231 -1.2351  1.6914 -0.4261
 8357SOL     OW36703   3.007   1.726   6.049  0.2709 -0.4366  0.3830
 8357SOL    HW136704   2.941   1.668   6.086  1.0735 -2.1771 -0.8902
 8357SOL    HW236705   3.020   1.786   6.121  0.7526 -1.2678  0.9908
 8358SOL     OW36706   1.343   1.550   1.705 -0.3977  0.2465  0.1470
 8358SOL    HW136707   1.378   1.617   1.647 -0.5480 -0.7333 -1.0756
 8358SOL    HW236708   1.268   1.519   1.654  0.4122 -0.0702 -0.8326
 8359SOL     OW36709   3.962   0.340   0.355 -0.2341 -0.1020  0.2764
 8359SOL    HW136710   4.032   0.314   0.296  0.4698  2.1844  0.1133
 8359SOL    HW236711   3.905   0.381   0.289  2.3329  0.6958 -1.4338
 8360SOL     OW36712   1.179   4.706   8.155  0.0683 -0.2609  0.3083
 8360SOL    HW136713   1.193   4.641   8.224 -0.5925 -0.4849  0.2300
 8360SOL    HW236714   1.109   0.018   8.196  1.9786  1.1250  1.8485
 8361SOL     OW36715   3.384   1.603   3.066 -0.2030 -0.4455  0.4038
 8361SOL    HW136716   3.350   1.647   3.144  0.5552  1.0517 -0.0995
 8361SOL    HW236717   3.326   1.640   2.999 -1.1693  1.4473  2.2929
 8362SOL     OW36718   0.868   2.762  11.283 -0.0879 -0.0175  0.2374
 8362SOL    HW136719   0.933   2.824  11.251  1.2173 -0.6781  1.6490
 8362SOL    HW236720   0.791   2.817  11.300 -0.7760 -0.6020 -0.9764
 8363SOL     OW36721   0.858   2.026   1.841 -0.1191 -0.7332  0.6242
 8363SOL    HW136722   0.832   2.093   1.904 -0.0349 -0.2654  0.1672
 8363SOL    HW236723   0.780   1.970   1.845 -2.0932  1.7662 -2.6935
 8364SOL     OW36724   4.045   3.698   8.296  0.6256 -0.0890  0.5025
 8364SOL    HW136725   4.026   3.758   8.368 -0.5814  1.5675 -1.2034
 8364SOL    HW236726   4.126   3.661   8.331  0.1396  1.2830  3.0326
 8365SOL     OW36727   1.193   4.598   9.490 -0.0102 -0.6245 -0.4551
 8365SOL    HW136728   1.110   4.566   9.524 -0.3317 -1.6907 -2.2474
 8365SOL    HW236729   1.265   4.578   9.550 -2.6447  0.6551  3.1053
 8366SOL     OW36730   1.411   2.347  11.311  0.8655  0.3287  0.2859
 8366SOL    HW136731   1.386   2.437  11.334  1.9966  0.3253  1.5247
 8366SOL    HW236732   1.491   2.365  11.261 -0.5907 -0.5371 -2.3352
 8367SOL     OW36733   1.976   1.118   6.865 -0.7367 -0.1209  0.3277
 8367SOL    HW136734   2.040   1.170   6.817  0.2246 -2.8978 -1.4359
 8367SOL    HW236735   1.942   1.185   6.924 -0.0199 -0.8188  1.5377
 8368SOL     OW36736   2.171   2.220   8.500  0.3751 -0.3132  0.0767
 8368SOL    HW136737   2.130   2.221   8.414 -1.0600  0.4759  0.7778
 8368SOL    HW236738   2.260   2.234   8.466  0.4876 -1.4557 -0.0804
 8369SOL     OW36739   0.838   1.937   8.541 -0.0068  0.7605 -0.0842
 8369SOL    HW136740   0.850   1.842   8.543  0.2556  0.8472  2.0541
 8369SOL    HW236741   0.891   1.952   8.619  0.1492  1.2827 -0.2941
 8370SOL     OW36742   3.569   1.324   7.267 -0.2903  0.1972  0.2125
 8370SOL    HW136743   3.612   1.371   7.338 -2.2600  3.3748 -0.6846
 8370SOL    HW236744   3.494   1.311   7.326 -1.3823  0.1566 -1.1747
 8371SOL     OW36745   3.649   2.196  10.601 -0.1031 -0.3919  0.4578
 8371SOL    HW136746   3.582   2.209  10.668 -0.6248 -2.1556  0.2897
 8371SOL    HW236747   3.719   2.168  10.661  0.8469 -0.5095 -0.7065
 8372SOL     OW36748   0.757   1.910   4.870 -0.2139 -0.7059  0.4624
 8372SOL    HW136749   0.662   1.911   4.854 -0.0068  1.8128 -0.4572
 8372SOL    HW236750   0.779   2.002   4.883 -0.8195 -0.8605  2.7433
 8373SOL     OW36751   0.909   2.209  15.368 -0.3151  0.0358  0.2814
 8373SOL    HW136752   0.989   2.174  15.330  0.2493  1.1319  0.4574
 8373SOL    HW236753   0.850   2.137  15.342 -1.3151  1.9178 -2.6876
 8374SOL     OW36754   0.137   3.669   3.674  0.4964  0.0320  0.5290
 8374SOL    HW136755   0.195   3.665   3.599  1.7314 -0.4435  1.5134
 8374SOL    HW236756   0.127   3.764   3.680  1.5381  0.2981 -2.3093
 8375SOL     OW36757   4.136   0.486   4.823 -0.2601  0.4650  0.4464
 8375SOL    HW136758   4.177   0.444   4.747  0.2642  0.4416  0.7392
 8375SOL    HW236759   4.046   0.474   4.793  0.7113 -2.0378 -1.5596
 8376SOL     OW36760   0.703   3.867  11.590 -0.0354 -0.0675 -0.3576
 8376SOL    HW136761   0.690   3.773  11.601 -1.5913  0.3215  1.0847
 8376SOL    HW236762   0.776   3.866  11.528 -0.9590  0.0065 -1.4529
 8377SOL     OW36763   0.147   0.951   2.313  0.2975  0.4290  0.3061
 8377SOL    HW136764   0.098   1.021   2.269 -0.7024 -0.7047 -0.3625
 8377SOL    HW236765   0.164   0.901   2.233  0.5831 -1.1280  1.3447
 8378SOL     OW36766   1.736   1.668   2.093 -0.3075  0.3773  0.8717
 8378SOL    HW136767   1.710   1.737   2.032 -0.1737 -0.3381 -0.0054
 8378SOL    HW236768   1.798   1.712   2.150 -0.5777  1.1594  0.5591
 8379SOL     OW36769   2.641   4.014   4.030 -0.0544 -0.3791  0.6515
 8379SOL    HW136770   2.580   4.088   4.029 -2.6385 -2.5469 -1.6609
 8379SOL    HW236771   2.610   3.955   4.099  2.5154 -1.4792  0.8456
 8380SOL     OW36772   0.517   4.641  12.578  0.2688  0.1319  0.4201
 8380SOL    HW136773   0.580   4.664  12.510 -1.4271  0.8870 -0.9116
 8380SOL    HW236774   0.575   4.620  12.650  1.4636 -0.2045 -0.6474
 8381SOL     OW36775   0.652   1.986  12.221 -0.0984 -0.0141  0.0618
 8381SOL    HW136776   0.703   1.921  12.173  0.1051 -0.5858  1.0591
 8381SOL    HW236777   0.637   2.054  12.155  1.6346 -0.8583 -1.2082
 8382SOL     OW36778   0.500   1.365   6.626  0.0977 -1.0575 -0.2048
 8382SOL    HW136779   0.468   1.430   6.564 -1.4216 -0.0631  1.6055
 8382SOL    HW236780   0.443   1.290   6.612 -3.1589  1.5391 -0.8890
 8383SOL     OW36781   3.479   2.932   1.885 -0.5248  0.6646 -0.0143
 8383SOL    HW136782   3.435   3.009   1.919  0.6454  1.1651  0.3464
 8383SOL    HW236783   3.428   2.919   1.804 -0.3929  0.0039  0.0075
 8384SOL     OW36784   1.249   0.210   8.029 -0.4368  0.3152 -0.1925
 8384SOL    HW136785   1.242   0.115   8.037 -1.4312  0.4975  0.9586
 8384SOL    HW236786   1.333   0.205   7.984 -0.9494 -0.1389 -1.1107
 8385SOL     OW36787   4.518   2.497  10.226  0.2795  0.4315 -0.3154
 8385SOL    HW136788   4.501   2.415  10.272 -0.8977  1.1294  0.5154
 8385SOL    HW236789   4.600   2.513  10.272 -1.3620  2.1542  1.9846
 8386SOL     OW36790   3.371   1.997   6.848 -0.2068 -0.1754 -0.0089
 8386SOL    HW136791   3.370   1.973   6.941 -1.4302 -0.0940  0.0051
 8386SOL    HW236792   3.282   1.970   6.826 -0.5174  1.6177 -0.9736
 8387SOL     OW36793   1.236   3.758   9.118  0.0038 -0.3999 -0.4247
 8387SOL    HW136794   1.250   3.726   9.029  0.2315 -0.3206 -0.4175
 8387SOL    HW236795   1.177   3.692   9.155  1.1957 -1.2891 -0.1000
 8388SOL     OW36796   3.224   2.749  12.428  0.5619 -0.2778 -0.1641
 8388SOL    HW136797   3.234   2.672  12.485  2.4935  0.0139 -0.1090
 8388SOL    HW236798   3.291   2.730  12.363 -3.1279  0.3778 -4.1220
 8389SOL     OW36799   0.289   0.123   6.760 -0.4346 -0.5887 -0.6162
 8389SOL    HW136800   0.327   0.183   6.825 -3.0085 -1.2150  1.4724
 8389SOL    HW236801   0.359   0.124   6.695  1.3261 -3.5963  1.1905
 8390SOL     OW36802   4.115   1.161  16.948  0.4718  0.1904  0.4604
 8390SOL    HW136803   4.100   1.184  17.039  0.0142  0.4600  0.3151
 8390SOL    HW236804   4.033   1.117  16.926  0.0120  0.4548  1.6544
 8391SOL     OW36805   2.062   4.573   7.368 -0.1576 -0.6922  0.1735
 8391SOL    HW136806   1.975   4.599   7.400  0.9734  1.7702  1.3193
 8391SOL    HW236807   2.055   4.595   7.275  0.2973 -0.7476  0.1294
 8392SOL     OW36808   2.217   4.107   2.588  0.6475 -0.2758 -0.3722
 8392SOL    HW136809   2.233   4.177   2.524  1.2485  0.8426  1.0012
 8392SOL    HW236810   2.217   4.029   2.533 -1.6886 -1.9629  2.0221
 8393SOL     OW36811   2.658   3.063   2.344 -0.1819  0.8331  0.1528
 8393SOL    HW136812   2.700   3.109   2.417  1.7312 -0.2135 -0.3057
 8393SOL    HW236813   2.677   3.122   2.271 -2.9751  1.4511 -0.0999
 8394SOL     OW36814   0.193   0.264  11.693 -0.4056 -0.4511 -0.1245
 8394SOL    HW136815   0.278   0.306  11.705 -0.3608 -0.7421  0.5723
 8394SOL    HW236816   0.201   0.212  11.773 -1.4804 -1.9790 -1.0056
 8395SOL     OW36817   1.407   1.945   7.197  0.9198 -0.4202  0.0429
 8395SOL    HW136818   1.476   1.976   7.256  0.2436  1.5507 -0.2120
 8395SOL    HW236819   1.453   1.929   7.114 -0.2924  2.5203 -1.1969
 8396SOL     OW36820   0.865   2.987   7.256  0.1640  0.1719 -0.1295
 8396SOL    HW136821   0.843   2.909   7.308  1.3736 -1.1803 -1.6502
 8396SOL    HW236822   0.872   3.053   7.324  0.2119 -0.6629  0.6829
 8397SOL     OW36823   3.862   3.450   5.197  0.1794 -0.6548 -0.3422
 8397SOL    HW136824   3.910   3.472   5.277 -0.8672  0.6407 -0.0688
 8397SOL    HW236825   3.923   3.479   5.129  0.3712 -0.8497 -0.2536
 8398SOL     OW36826   3.883   0.998   5.944  0.4097  0.3535 -0.8245
 8398SOL    HW136827   3.821   1.064   5.914 -1.6358 -0.1068  2.3219
 8398SOL    HW236828   3.892   1.011   6.039  0.1420 -1.1495 -0.5776
 8399SOL     OW36829   0.613   0.690   2.936 -0.1404  0.3549  0.2695
 8399SOL    HW136830   0.693   0.676   2.986  1.0372  1.6361 -1.2301
 8399SOL    HW236831   0.651   0.729   2.857 -1.0268  0.5239 -0.0844
 8400SOL     OW36832   1.041   4.266  17.655  0.0527  0.1853 -0.2321
 8400SOL    HW136833   1.126   4.292  17.689  0.4106 -2.0644  0.5431
 8400SOL    HW236834   1.017   4.352  17.620  0.7279  1.0956  1.5166
 8401SOL     OW36835   3.497   0.452   0.141  0.9529  0.2887  0.0431
 8401SOL    HW136836   3.442   0.477   0.215  1.3742 -1.0998  0.8147
 8401SOL    HW236837   3.543   0.380   0.182 -1.8417 -1.6708 -0.2648
 8402SOL     OW36838   0.956   3.766   7.694  0.3302  0.5727 -0.6405
 8402SOL    HW136839   0.929   3.676   7.672  2.5539 -0.1026 -0.5758
 8402SOL    HW236840   0.946   3.762   7.789 -0.1739  0.5781 -0.6918
 8403SOL     OW36841   0.105   0.567  17.105  0.1655  0.3682 -0.2605
 8403SOL    HW136842   0.085   0.638  17.165  2.1677 -0.3510  1.2482
 8403SOL    HW236843   0.161   0.511  17.159 -1.3607  0.4361  1.3928
 8404SOL     OW36844   1.767   4.116   5.202 -0.0925  0.9520  0.1379
 8404SOL    HW136845   1.710   4.041   5.219 -0.0335  1.4260  2.3959
 8404SOL    HW236846   1.764   4.105   5.107  0.1140 -2.7272  0.5495
 8405SOL     OW36847   1.222   0.397   2.124  0.4737 -0.1841 -0.0569
 8405SOL    HW136848   1.235   0.438   2.209 -1.1580  0.2036 -0.0033
 8405SOL    HW236849   1.292   0.434   2.070  0.7177  0.1337  0.4875
 8406SOL     OW36850   1.866   4.088   3.664 -0.0326  0.4182  0.0392
 8406SOL    HW136851   1.875   4.134   3.580  0.6306 -1.9751 -1.1824
 8406SOL    HW236852   1.902   4.154   3.724 -0.9842 -0.0894  1.1699
 8407SOL     OW36853   3.190   1.880   4.324  0.3061  0.1885 -0.4210
 8407SOL    HW136854   3.273   1.927   4.330 -0.9840  2.2353  1.2671
 8407SOL    HW236855   3.129   1.945   4.288 -0.3701 -0.4899 -0.5054
 8408SOL     OW36856   2.124   0.867   4.550  0.1970  0.0996  0.2739
 8408SOL    HW136857   2.072   0.939   4.515  1.3988  0.0655 -1.6049
 8408SOL    HW236858   2.174   0.847   4.471  0.5138  0.0734  0.4775
 8409SOL     OW36859   4.665   0.930   2.959 -0.0164 -0.2941  0.2019
 8409SOL    HW136860   4.593   0.911   3.019 -0.5005 -1.8965 -0.8807
 8409SOL    HW236861   4.679   1.023   2.978  1.6267 -0.5610  0.2286
 8410SOL     OW36862   0.558   0.943   3.552  0.1872  0.3952 -0.6119
 8410SOL    HW136863   0.603   0.873   3.505 -0.2379 -0.5627  0.3936
 8410SOL    HW236864   0.631   1.003   3.568  0.4165 -0.5867  1.9560
 8411SOL     OW36865   3.256   3.145   3.171  0.3886  0.2683  0.3856
 8411SOL    HW136866   3.247   3.216   3.107 -1.4849  0.3601  0.7393
 8411SOL    HW236867   3.343   3.114   3.148  0.9619  2.5368 -0.5051
 8412SOL     OW36868   3.159   3.254   2.756  0.0315 -0.1196  0.5499
 8412SOL    HW136869   3.189   3.335   2.716 -0.6413 -0.8551 -1.4663
 8412SOL    HW236870   3.218   3.234   2.828  1.5575  0.2591 -0.5994
 8413SOL     OW36871   4.496   0.806   1.652 -1.2084  0.2891  0.6610
 8413SOL    HW136872   4.568   0.785   1.711 -0.1853  0.7158 -0.4268
 8413SOL    HW236873   4.443   0.731   1.679 -1.5137  0.1094 -0.4388
 8414SOL     OW36874   2.621   4.379   1.592 -0.0482 -0.2203  0.6681
 8414SOL    HW136875   2.536   4.350   1.624  0.7527 -1.0396  2.0511
 8414SOL    HW236876   2.595   4.409   1.505 -0.8735  0.9223  1.3124
 8415SOL     OW36877   0.518   4.251   0.664 -0.3605 -0.4977  0.0046
 8415SOL    HW136878   0.595   4.308   0.670 -0.6813 -0.2208  1.6191
 8415SOL    HW236879   0.500   4.253   0.571  1.1877  1.8030 -0.2403
 8416SOL     OW36880   3.874   3.176  15.914  0.5988 -0.0936  0.0166
 8416SOL    HW136881   3.867   3.264  15.950  0.3670  0.4056 -1.2675
 8416SOL    HW236882   3.883   3.117  15.990 -1.7423  0.6659  0.9047
 8417SOL     OW36883   1.168   0.056   3.865 -0.1836  0.2127  0.4059
 8417SOL    HW136884   1.198   0.074   3.954 -0.5239 -0.8496  0.7368
 8417SOL    HW236885   1.073   0.054   3.868 -0.0580 -0.8801  3.5075
 8418SOL     OW36886   0.648   0.331   5.224  0.4597 -0.0112 -0.0620
 8418SOL    HW136887   0.554   0.313   5.221  0.6977 -1.6051  1.6465
 8418SOL    HW236888   0.659   0.424   5.206 -0.3847  0.2022  0.5042
 8419SOL     OW36889   1.493   0.014   6.772 -0.0557  0.2752 -0.1959
 8419SOL    HW136890   1.499   4.658   6.771  2.1993  0.3770  2.6252
 8419SOL    HW236891   1.440   0.033   6.695  1.3903  0.9405 -1.0339
 8420SOL     OW36892   0.757   3.898  10.236 -0.1886 -0.6947 -0.8361
 8420SOL    HW136893   0.826   3.831  10.230 -0.9784 -1.5707 -0.1850
 8420SOL    HW236894   0.724   3.896  10.326  0.6977 -2.1381 -0.5371
 8421SOL     OW36895   1.855   4.400  13.263 -0.3273  0.0537 -0.0094
 8421SOL    HW136896   1.884   4.310  13.243  0.9418  0.4054  0.2134
 8421SOL    HW236897   1.814   4.388  13.348  0.7370  0.3986  0.5584
 8422SOL     OW36898   1.430   1.623   4.931 -0.0408 -0.0403 -0.3483
 8422SOL    HW136899   1.493   1.673   4.983 -1.5066  2.2834 -0.8168
 8422SOL    HW236900   1.349   1.619   4.983 -0.9573  0.1166 -1.7802
 8423SOL     OW36901   4.271   0.926   6.955 -0.1119  0.0128  0.1206
 8423SOL    HW136902   4.308   0.858   6.898  0.6612  1.4569 -1.1085
 8423SOL    HW236903   4.256   0.872   7.032  1.6062  1.1104  1.2256
 8424SOL     OW36904   3.717   3.185   5.358  0.9279 -0.2227  0.2869
 8424SOL    HW136905   3.631   3.221   5.382  0.5255  0.5854 -2.3236
 8424SOL    HW236906   3.787   3.251   5.361  0.0929  0.7054 -0.5461
 8425SOL     OW36907   1.140   1.723   2.722 -0.3720  0.4684  0.2621
 8425SOL    HW136908   1.076   1.668   2.678  1.7397 -0.3779 -1.7226
 8425SOL    HW236909   1.208   1.734   2.656 -0.8296 -0.1242 -0.3014
 8426SOL     OW36910   3.725   1.231   3.751  0.4069 -0.4175  0.4389
 8426SOL    HW136911   3.741   1.158   3.691 -0.1820 -0.3877  0.2496
 8426SOL    HW236912   3.801   1.220   3.809  0.9220 -2.9816 -0.7167
 8427SOL     OW36913   1.928   1.300   9.063 -0.1853 -0.0571  0.1078
 8427SOL    HW136914   1.936   1.395   9.054 -2.2244  0.3597  2.6613
 8427SOL    HW236915   1.988   1.274   9.132 -0.6981 -1.8721 -0.1243
 8428SOL     OW36916   2.013   4.717   6.756 -0.0891 -0.6378 -0.1312
 8428SOL    HW136917   2.096   0.008   6.791  0.5756 -1.3678 -1.0709
 8428SOL    HW236918   1.946   0.028   6.803 -0.2222 -0.5848 -0.3732
 8429SOL     OW36919   0.926   2.549   1.713 -0.2300 -0.0313 -0.1861
 8429SOL    HW136920   0.881   2.472   1.680 -0.3235 -0.5931  1.2522
 8429SOL    HW236921   0.932   2.602   1.633 -0.8581  0.1027 -0.1437
 8430SOL     OW36922   2.784   2.500   8.598 -0.1652 -0.8983 -0.0498
 8430SOL    HW136923   2.812   2.438   8.666 -0.3316 -2.8237 -1.7094
 8430SOL    HW236924   2.705   2.539   8.632 -0.4274 -0.4160 -1.2020
 8431SOL     OW36925   0.593   2.655  15.148  0.0458  0.1551 -0.0126
 8431SOL    HW136926   0.534   2.580  15.139  0.7983 -0.5075  0.6031
 8431SOL    HW236927   0.680   2.631  15.118  0.1077  0.3190  0.0361
 8432SOL     OW36928   0.284   4.385   8.463 -0.3047  0.0370 -0.0297
 8432SOL    HW136929   0.355   4.329   8.432 -0.2627  0.6854 -1.0913
 8432SOL    HW236930   0.209   4.326   8.474 -0.1485 -0.6279 -2.6477
 8433SOL     OW36931   3.129   1.468   6.567 -0.1570 -0.1712 -0.1557
 8433SOL    HW136932   3.147   1.376   6.549  1.0736  0.3129 -1.4344
 8433SOL    HW236933   3.185   1.512   6.504  0.0930 -0.6083 -0.2388
 8434SOL     OW36934   1.024   4.335   3.637 -0.8174  0.2305  0.0251
 8434SOL    HW136935   1.009   4.248   3.675  3.1577 -0.2947  0.3302
 8434SOL    HW236936   1.066   4.382   3.709  0.7749 -1.9107  0.4948
 8435SOL     OW36937   0.763   3.242  12.922 -0.0552  0.1312 -0.1732
 8435SOL    HW136938   0.704   3.282  12.857 -0.7226 -0.0422  0.3307
 8435SOL    HW236939   0.745   3.149  12.918  0.7063  0.0272 -1.4440
 8436SOL     OW36940   0.803   4.489  10.299 -0.1963  0.4385 -0.2461
 8436SOL    HW136941   0.803   4.399  10.267  1.8778  0.2487  0.2510
 8436SOL    HW236942   0.732   4.478  10.363 -0.3215  2.4856 -0.0197
 8437SOL     OW36943   2.650   4.353  17.123 -0.6694 -0.3507 -0.2080
 8437SOL    HW136944   2.561   4.351  17.088 -0.3076  0.1040 -1.1732
 8437SOL    HW236945   2.638   4.396  17.208  0.3946 -0.0063 -0.2312
 8438SOL     OW36946   4.583   3.244   9.167 -0.6828 -0.3347 -0.3468
 8438SOL    HW136947   4.675   3.271   9.164 -0.3467 -1.3448  1.2593
 8438SOL    HW236948   4.591   3.150   9.178  2.1714  0.0005  0.3026
 8439SOL     OW36949   1.166   2.739   2.214  0.4029  0.2047 -0.5322
 8439SOL    HW136950   1.160   2.829   2.244 -1.4957 -0.3395  0.6850
 8439SOL    HW236951   1.073   2.724   2.194  0.0850 -0.7099  1.6902
 8440SOL     OW36952   0.360   0.558   0.415  0.3572  0.2216  0.1238
 8440SOL    HW136953   0.374   0.469   0.445 -1.6735 -0.6653 -1.5453
 8440SOL    HW236954   0.271   0.571   0.446 -0.1176  1.1781 -1.6557
 8441SOL     OW36955   0.504   1.776   7.495  0.9528 -0.3491  0.0301
 8441SOL    HW136956   0.416   1.807   7.514  0.4298 -1.2723 -0.9012
 8441SOL    HW236957   0.522   1.721   7.572 -1.1416  0.9940  1.4790
 8442SOL     OW36958   1.676   0.880   7.867 -0.1265  0.7106  0.2305
 8442SOL    HW136959   1.762   0.850   7.897  1.0294  2.8681 -0.8629
 8442SOL    HW236960   1.658   0.950   7.930  0.6550  0.5328  0.6553
 8443SOL     OW36961   3.531   2.277   7.469 -0.1311  0.3198  0.9347
 8443SOL    HW136962   3.555   2.236   7.386 -1.6515  3.6315 -1.1580
 8443SOL    HW236963   3.496   2.198   7.510  1.5450 -1.0034 -0.2273
 8444SOL     OW36964   2.463   0.839  14.410  0.2786 -0.4914 -0.2999
 8444SOL    HW136965   2.481   0.912  14.470  0.4804  0.7222 -1.8499
 8444SOL    HW236966   2.467   0.765  14.471 -0.0878 -0.6877 -0.5156
 8445SOL     OW36967   3.574   4.223   2.351  0.2968 -0.3463 -1.2945
 8445SOL    HW136968   3.506   4.229   2.285 -0.3947  1.0688 -0.4529
 8445SOL    HW236969   3.554   4.298   2.407  0.1120 -0.4838 -1.1749
 8446SOL     OW36970   3.833   2.080   3.069  0.7648 -0.1697  0.0453
 8446SOL    HW136971   3.903   2.090   3.005 -0.5921  0.9871 -1.2695
 8446SOL    HW236972   3.890   2.035   3.131 -1.2029  0.9632  2.7014
 8447SOL     OW36973   2.500   2.703  13.006 -0.3922 -0.1222 -0.0615
 8447SOL    HW136974   2.488   2.796  12.983  0.9568 -0.7799 -3.4299
 8447SOL    HW236975   2.592   2.702  13.033  0.0339 -1.3339 -1.5486
 8448SOL     OW36976   1.298   4.416  10.367 -0.0811  0.1168  0.5283
 8448SOL    HW136977   1.207   4.440  10.381 -0.4070 -1.4013  0.9914
 8448SOL    HW236978   1.281   4.359  10.292  0.6923 -1.4242  1.5143
 8449SOL     OW36979   4.345   0.190   3.589 -0.0682  0.2811 -0.2273
 8449SOL    HW136980   4.254   0.162   3.580  0.3900 -2.0422  2.1025
 8449SOL    HW236981   4.368   0.130   3.518 -1.4879 -1.5387  0.8296
 8450SOL     OW36982   3.110   2.430   2.048 -0.6047 -0.0061 -0.1526
 8450SOL    HW136983   3.150   2.429   2.136 -0.8778  0.9052 -0.0160
 8450SOL    HW236984   3.129   2.343   2.013  1.4152  0.5596 -0.4969
 8451SOL     OW36985   2.505   4.030   7.468  0.1231 -0.5062 -0.2635
 8451SOL    HW136986   2.469   3.951   7.510  0.4326 -0.4234  0.1611
 8451SOL    HW236987   2.425   4.081   7.455 -0.2557 -0.9281  0.3636
 8452SOL     OW36988   4.112   2.298  14.010 -0.2972  0.6148  0.1146
 8452SOL    HW136989   4.122   2.392  14.024  1.4916 -0.0015  3.0038
 8452SOL    HW236990   4.091   2.291  13.917 -2.4357  0.7845  0.6045
 8453SOL     OW36991   1.503   3.445   2.172  0.1032 -0.0316  0.4994
 8453SOL    HW136992   1.542   3.532   2.182  0.0110  0.2853 -2.0638
 8453SOL    HW236993   1.465   3.439   2.085  2.7641 -2.6961 -0.4790
 8454SOL     OW36994   0.108   4.094   3.288 -0.1133 -0.0566  0.1347
 8454SOL    HW136995   0.113   4.005   3.252  0.1477 -1.1631  2.8571
 8454SOL    HW236996   0.126   4.141   3.207 -2.0057  1.3288  0.5057
 8455SOL     OW36997   2.114   0.314   6.280  0.0284 -0.5548  0.1223
 8455SOL    HW136998   2.071   0.309   6.195  0.5692  0.6186 -0.2127
 8455SOL    HW236999   2.188   0.254   6.273 -0.4510 -1.3711  1.9193
 8456SOL     OW37000   4.378   3.253   5.098 -0.1426  0.3201 -0.2563
 8456SOL    HW137001   4.351   3.266   5.189 -1.9121 -2.9860 -0.3050
 8456SOL    HW237002   4.452   3.314   5.094 -1.6809  2.2543  0.7095
 8457SOL     OW37003   3.876   3.038   7.027 -0.0595 -0.4859  0.1490
 8457SOL    HW137004   3.912   2.980   7.094  0.3306 -0.4359 -0.0113
 8457SOL    HW237005   3.953   3.088   6.999  0.1181 -1.0408 -0.3689
 8458SOL     OW37006   2.742   1.021   5.137  0.0773 -0.6026  0.5254
 8458SOL    HW137007   2.700   1.042   5.054  0.9227 -1.8418 -0.2225
 8458SOL    HW237008   2.664   1.021   5.193 -1.5179  3.1658 -1.7181
 8459SOL     OW37009   2.137   4.287  10.222  0.3414  0.4198  0.3562
 8459SOL    HW137010   2.120   4.335  10.141 -2.4796 -0.6411  0.3452
 8459SOL    HW237011   2.060   4.231  10.214 -1.0254  2.5964 -2.0655
 8460SOL     OW37012   1.312   3.314  12.259 -0.0435 -0.3155 -0.0388
 8460SOL    HW137013   1.284   3.321  12.350  0.4804  0.9370  0.0387
 8460SOL    HW237014   1.255   3.246  12.224  0.5536 -0.4470 -0.7580
 8461SOL     OW37015   0.195   1.159   1.994  0.2663  0.0763  0.4313
 8461SOL    HW137016   0.143   1.092   2.038 -0.9154  1.0302  0.5005
 8461SOL    HW237017   0.283   1.125   1.982 -0.6844 -1.9376 -1.0373
 8462SOL     OW37018   0.225   1.440  14.465  0.6651  0.2706  0.1084
 8462SOL    HW137019   0.134   1.462  14.484  0.5128 -0.9880  0.8549
 8462SOL    HW237020   0.236   1.505  14.395 -0.1198  2.6193  2.2029
 8463SOL     OW37021   2.135   1.707   8.289 -0.2834  0.0220 -0.0560
 8463SOL    HW137022   2.184   1.749   8.218  0.4972 -0.0462  0.4414
 8463SOL    HW237023   2.047   1.744   8.281  0.1036  1.3945  2.1406
 8464SOL     OW37024   0.865   1.699   4.386  0.3050 -0.3916 -0.6603
 8464SOL    HW137025   0.952   1.731   4.361  0.3394 -0.7445 -1.0050
 8464SOL    HW237026   0.871   1.700   4.481  2.2080  3.2825 -0.8102
 8465SOL     OW37027   1.532   3.737   9.728  0.1941 -0.2220  0.2955
 8465SOL    HW137028   1.493   3.749   9.815  1.6452 -1.1803  1.0854
 8465SOL    HW237029   1.452   3.724   9.677  0.0094 -2.1282  1.0714
 8466SOL     OW37030   1.068   4.598   8.494  0.3478  0.3349 -0.2667
 8466SOL    HW137031   1.041   4.672   8.440 -0.7584 -0.6995 -1.1502
 8466SOL    HW237032   1.043   4.622   8.583 -1.4415 -1.0542 -0.4008
 8467SOL     OW37033   0.559   3.266   5.624 -0.5169  0.0522 -0.0420
 8467SOL    HW137034   0.591   3.352   5.598 -1.4030  0.5350  0.4599
 8467SOL    HW237035   0.498   3.291   5.694 -0.7877 -0.6991 -0.0046
 8468SOL     OW37036   0.761   3.965   6.025 -0.2129  0.0078 -0.2904
 8468SOL    HW137037   0.798   3.911   5.955 -0.4122  1.8692 -1.8058
 8468SOL    HW237038   0.688   4.002   5.976 -0.3347  0.8549  0.5329
 8469SOL     OW37039   4.075   0.537   3.591  0.4629 -0.1535 -0.2416
 8469SOL    HW137040   4.125   0.497   3.663 -1.4697 -2.7409 -0.3345
 8469SOL    HW237041   3.994   0.564   3.634  0.3828 -2.4285  1.0702
 8470SOL     OW37042   1.176   2.204   2.673 -0.4737 -0.3891  0.5603
 8470SOL    HW137043   1.141   2.292   2.658  1.9189  0.6956  1.2678
 8470SOL    HW237044   1.214   2.193   2.587  1.2227 -2.1195  1.5343
 8471SOL     OW37045   2.176   4.618  15.570 -0.0997 -0.0194  0.0996
 8471SOL    HW137046   2.103   4.673  15.599  0.1018  0.3454 -0.0897
 8471SOL    HW237047   2.183   4.561  15.647  0.5219 -1.4798 -1.0528
 8472SOL     OW37048   0.592   2.933   7.035  0.2367 -0.0896  0.2614
 8472SOL    HW137049   0.686   2.944   7.024 -0.0014  0.8582 -0.8706
 8472SOL    HW237050   0.586   2.837   7.042  1.3234 -0.3567 -2.4043
 8473SOL     OW37051   1.961   2.608  17.099 -0.3609  0.0112 -0.1005
 8473SOL    HW137052   1.881   2.581  17.053 -0.1621 -1.5620  0.4787
 8473SOL    HW237053   1.931   2.688  17.141  2.0367 -0.9379  3.3283
 8474SOL     OW37054   2.302   2.367  13.924  0.0292 -0.5751  0.6512
 8474SOL    HW137055   2.286   2.458  13.901  0.0542 -0.1143  2.4677
 8474SOL    HW237056   2.326   2.366  14.016 -0.1158  1.9863  0.7002
 8475SOL     OW37057   2.690   4.135   5.139  0.4350 -0.6697 -0.4345
 8475SOL    HW137058   2.774   4.089   5.135 -0.1909 -1.9392  0.8192
 8475SOL    HW237059   2.696   4.174   5.227  0.3261  0.0886 -0.7658
 8476SOL     OW37060   2.711   1.320   8.132 -0.2475 -0.4994 -0.1195
 8476SOL    HW137061   2.782   1.324   8.068 -0.0597  1.5607  0.1935
 8476SOL    HW237062   2.682   1.411   8.135 -0.4406 -0.5441 -0.6481
 8477SOL     OW37063   1.270   4.376   7.723 -0.2163  0.3626  0.5071
 8477SOL    HW137064   1.298   4.349   7.810 -0.4088 -0.3177  0.3586
 8477SOL    HW237065   1.221   4.452   7.753  0.3500 -0.3585  3.2139
 8478SOL     OW37066   1.694   0.501   9.421  0.2080  0.0364 -0.1927
 8478SOL    HW137067   1.736   0.570   9.473  0.5168 -0.0808 -0.2830
 8478SOL    HW237068   1.673   0.550   9.342  2.1510 -1.1124 -1.4237
 8479SOL     OW37069   2.217   0.760   6.275  0.2032  0.1720  0.5614
 8479SOL    HW137070   2.243   0.686   6.329 -0.4085 -0.0704  0.5282
 8479SOL    HW237071   2.122   0.756   6.286 -0.1716  1.6900 -1.9732
 8480SOL     OW37072   0.955   0.019   6.291 -0.1649 -0.0807  0.2148
 8480SOL    HW137073   1.010   0.091   6.258 -1.0572  0.3222 -0.4200
 8480SOL    HW237074   0.985   4.696   6.225  0.3306  0.6973 -0.2984
 8481SOL     OW37075   2.811   0.093  15.908 -0.0929  0.7809  0.5988
 8481SOL    HW137076   2.821   0.065  15.999 -0.5564  1.1515  0.7652
 8481SOL    HW237077   2.763   0.173  15.926 -0.2151  0.3495  2.1307
 8482SOL     OW37078   0.134   2.745   9.687 -0.1073  0.1774  0.0640
 8482SOL    HW137079   0.216   2.742   9.736  0.3833  0.2627 -0.7696
 8482SOL    HW237080   0.096   2.657   9.689 -2.0317  0.9685 -1.1543
 8483SOL     OW37081   1.461   0.515   2.017 -0.7063  0.2758 -0.2728
 8483SOL    HW137082   1.543   0.534   2.062  1.2040 -0.2373 -3.4958
 8483SOL    HW237083   1.497   0.456   1.951 -1.6122  0.8159 -1.2552
 8484SOL     OW37084   2.517   1.657   0.676  0.7946  0.2977  0.1069
 8484SOL    HW137085   2.509   1.750   0.692 -0.3445  0.3464 -0.7556
 8484SOL    HW237086   2.461   1.619   0.744 -1.5113 -1.1227 -2.5766
 8485SOL     OW37087   1.092   4.017  13.709 -0.9249 -0.3284  0.1485
 8485SOL    HW137088   1.107   4.004  13.615  1.3622  1.1735  0.3042
 8485SOL    HW237089   1.045   4.099  13.705 -0.5895 -0.1054  0.9021
 8486SOL     OW37090   1.910   2.490  10.639  0.1704 -0.0395  0.2739
 8486SOL    HW137091   1.910   2.472  10.545  0.2699 -1.3774  0.5334
 8486SOL    HW237092   1.996   2.532  10.640  0.2293 -0.1768  0.8498
 8487SOL     OW37093   1.283   1.885  12.812  0.3483  0.3317 -0.0592
 8487SOL    HW137094   1.327   1.889  12.897  1.9643  0.0752 -0.8983
 8487SOL    HW237095   1.282   1.791  12.796 -1.9551  0.2889  0.3153
 8488SOL     OW37096   4.124   3.500   9.060 -0.4217  0.5901 -0.1613
 8488SOL    HW137097   4.197   3.439   9.064 -1.9046 -1.0661  1.3750
 8488SOL    HW237098   4.148   3.546   8.979  1.1327 -1.0666 -0.6543
 8489SOL     OW37099   3.698   2.841  12.016  0.1631 -1.0971 -0.2377
 8489SOL    HW137100   3.778   2.815  12.062  0.3304 -1.3708 -0.6830
 8489SOL    HW237101   3.664   2.893  12.089  0.3287 -2.0277  0.5054
 8490SOL     OW37102   1.683   1.591   8.778 -0.5516  0.0212  0.5985
 8490SOL    HW137103   1.714   1.575   8.689  0.5390  1.1327  0.7731
 8490SOL    HW237104   1.667   1.502   8.808  2.1581 -0.1215  1.5962
 8491SOL     OW37105   4.545   1.953   1.507  0.3312 -0.2787  0.0078
 8491SOL    HW137106   4.534   1.874   1.454 -1.0495  0.8165 -1.3164
 8491SOL    HW237107   4.456   1.963   1.540 -0.3770 -1.9321 -1.4407
 8492SOL     OW37108   0.197   3.823   5.823 -0.0968 -0.1549  0.0642
 8492SOL    HW137109   0.108   3.824   5.859  1.2031 -0.6289  3.3046
 8492SOL    HW237110   0.212   3.917   5.823  0.7425 -0.2903  0.6425
 8493SOL     OW37111   3.690   3.121   5.076  0.4745 -0.1773 -0.3246
 8493SOL    HW137112   3.665   3.208   5.044 -2.0969  0.0325  2.2555
 8493SOL    HW237113   3.706   3.128   5.170 -0.4029  0.7560 -0.2426
 8494SOL     OW37114   1.739   2.231   9.853 -0.9977  0.4411 -0.0802
 8494SOL    HW137115   1.749   2.320   9.819 -0.3903  0.3573 -0.1262
 8494SOL    HW237116   1.813   2.194   9.805 -0.5454  0.4640  0.5990
 8495SOL     OW37117   0.539   2.133   2.306  0.0203 -0.5987 -0.3285
 8495SOL    HW137118   0.574   2.044   2.305 -1.4905 -1.1923 -0.6414
 8495SOL    HW237119   0.462   2.138   2.362  0.3579  0.4203  0.0354
 8496SOL     OW37120   0.915   0.447  12.299 -0.1643  0.0013 -0.4011
 8496SOL    HW137121   0.830   0.488  12.292 -0.8475 -1.0153  1.8773
 8496SOL    HW237122   0.914   0.383  12.371  1.5791 -0.7675 -1.0355
 8497SOL     OW37123   1.916   4.046   5.561 -0.2204 -0.1254 -0.1894
 8497SOL    HW137124   1.861   3.969   5.572 -2.0731  0.9226 -2.1526
 8497SOL    HW237125   1.954   4.023   5.476  2.9452  1.6486  0.7286
 8498SOL     OW37126   3.862   0.704   5.961  0.0041  0.2895 -0.2916
 8498SOL    HW137127   3.880   0.793   5.930  2.0381  0.1773  0.5939
 8498SOL    HW237128   3.790   0.726   6.020  1.7235  0.3547  1.7759
 8499SOL     OW37129   0.044   0.039   1.628 -0.2375 -0.2633  0.2071
 8499SOL    HW137130   4.698   4.739   1.611 -1.2655  1.3796  1.5143
 8499SOL    HW237131   0.108   4.728   1.577  0.4615  1.7647 -0.9298
 8500SOL     OW37132   3.936   2.147   1.972  0.0569 -0.6368  0.1497
 8500SOL    HW137133   3.896   2.064   1.946  1.9194 -1.3609 -0.4498
 8500SOL    HW237134   3.902   2.171   2.059  0.8601 -0.2955  0.3745
 8501SOL     OW37135   2.663   0.055  10.011 -0.7850  0.7944 -0.3017
 8501SOL    HW137136   2.724   0.120   9.975 -2.6327  1.1738 -2.7312
 8501SOL    HW237137   2.614   0.024   9.935  1.3764 -1.4882 -0.7586
 8502SOL     OW37138   2.430   3.550   3.164 -0.1691 -0.6091  0.3048
 8502SOL    HW137139   2.423   3.631   3.115  0.2286 -1.1147 -0.5746
 8502SOL    HW237140   2.463   3.497   3.092  0.9852 -0.4552  0.7194
 8503SOL     OW37141   3.199   1.826   0.018  0.8389 -0.2239 -0.3380
 8503SOL    HW137142   3.226   1.856   0.105 -1.2707  1.0228 -0.1055
 8503SOL    HW237143   3.285   1.825  17.731  2.4422  0.9816  2.8717
 8504SOL     OW37144   0.330   4.059   4.805 -0.7919 -0.3465  0.2654
 8504SOL    HW137145   0.335   4.155   4.800 -1.7049 -0.2902  0.3784
 8504SOL    HW237146   0.401   4.030   4.747  0.6191  0.5955  1.5326
 8505SOL     OW37147   3.442   3.835   5.765 -0.4031  0.3869 -0.0140
 8505SOL    HW137148   3.488   3.899   5.712 -0.6277  0.8312  0.3276
 8505SOL    HW237149   3.372   3.882   5.809  0.4565 -0.3331  2.1463
 8506SOL     OW37150   4.445   0.662  17.578  0.0280 -0.2322  0.1635
 8506SOL    HW137151   4.453   0.733  17.642 -0.5052 -1.2054  1.2964
 8506SOL    HW237152   4.409   0.703  17.500 -0.7596 -0.6177  0.3217
 8507SOL     OW37153   2.456   1.871   7.261 -0.1190 -0.1810  0.5336
 8507SOL    HW137154   2.537   1.841   7.219 -1.2222 -0.9898 -0.9867
 8507SOL    HW237155   2.406   1.861   7.180  0.1825 -1.0272  0.4567
 8508SOL     OW37156   3.031   0.259  13.292 -0.1988  0.2148  0.1211
 8508SOL    HW137157   3.013   0.345  13.254 -0.3880  0.2315  0.2466
 8508SOL    HW237158   3.122   0.245  13.267  0.2361  1.2215  1.1943
 8509SOL     OW37159   1.072   0.429   9.521 -0.4493  0.5296 -0.4288
 8509SOL    HW137160   1.094   0.407   9.612  2.2234 -1.4142 -1.5143
 8509SOL    HW237161   1.092   0.348   9.474 -0.4043  1.0141 -1.2427
 8510SOL     OW37162   3.400   2.598  17.512  0.2187  0.1732  0.4602
 8510SOL    HW137163   3.305   2.599  17.500  0.1636  0.0485  0.8963
 8510SOL    HW237164   3.421   2.689  17.534 -0.0457  0.0446  1.2253
 8511SOL     OW37165   2.482   4.257   4.122 -0.3890 -0.3170 -0.2291
 8511SOL    HW137166   2.489   4.327   4.187 -0.9736 -0.2192 -0.2739
 8511SOL    HW237167   2.388   4.256   4.104 -0.6433  0.0135  1.0831
 8512SOL     OW37168   0.385   4.140   9.336  0.1066 -0.5115  0.2446
 8512SOL    HW137169   0.405   4.089   9.257  0.4629 -0.3454  0.2285
 8512SOL    HW237170   0.433   4.216   9.302  0.5757 -1.0421 -0.2965
 8513SOL     OW37171   2.212   2.559   0.473 -0.1028 -0.3259  0.2476
 8513SOL    HW137172   2.145   2.626   0.484  0.4165 -0.1528  2.3226
 8513SOL    HW237173   2.269   2.565   0.549  1.5125 -2.0913 -0.8060
 8514SOL     OW37174   2.311   0.572   3.119 -0.2369 -0.2361  0.1188
 8514SOL    HW137175   2.395   0.595   3.080 -0.0941  1.1520  1.2331
 8514SOL    HW237176   2.337   0.516   3.192 -1.5306 -0.6335  0.2733
 8515SOL     OW37177   3.456   2.832   2.885  0.1073 -0.1579 -0.0783
 8515SOL    HW137178   3.405   2.792   2.955 -0.3554 -0.1264 -0.3999
 8515SOL    HW237179   3.544   2.832   2.921 -0.4349  0.1070  1.2288
 8516SOL     OW37180   4.044   0.887   7.255  1.0385 -0.2193  0.0159
 8516SOL    HW137181   4.139   0.899   7.259  0.9383 -0.0049  2.0652
 8516SOL    HW237182   4.022   0.969   7.300  0.6988  0.5713 -1.5811
 8517SOL     OW37183   0.478   1.213   4.066  0.1813  0.8859  0.4408
 8517SOL    HW137184   0.572   1.206   4.049 -0.3061 -2.7460 -0.8501
 8517SOL    HW237185   0.466   1.307   4.078  0.5319  1.0891 -0.7489
 8518SOL     OW37186   1.634   2.053  12.758 -0.2403 -0.2787  0.4565
 8518SOL    HW137187   1.653   1.978  12.815  1.2767  0.8809  1.4739
 8518SOL    HW237188   1.667   2.008  12.680 -0.0674 -1.0014  0.9483
 8519SOL     OW37189   3.218   1.302   2.110 -0.4768  0.7750  0.4217
 8519SOL    HW137190   3.220   1.362   2.184 -0.6865 -0.6796  1.6093
 8519SOL    HW237191   3.136   1.325   2.067 -0.0657  0.7012 -0.4078
 8520SOL     OW37192   0.219   4.447   9.646 -0.3312  0.0945 -0.1040
 8520SOL    HW137193   0.254   4.441   9.736  0.0812  1.5264 -0.1684
 8520SOL    HW237194   0.301   4.481   9.611 -0.8814  1.4357 -0.0711
 8521SOL     OW37195   2.734   1.726  13.971 -0.1597 -0.3532 -0.5535
 8521SOL    HW137196   2.692   1.721  13.885  0.4671  3.7546 -1.0787
 8521SOL    HW237197   2.824   1.736  13.941  0.1210  1.2090  0.8656
 8522SOL     OW37198   1.120   4.537   2.872  0.2112  0.0318  0.0483
 8522SOL    HW137199   1.197   4.585   2.904  2.4291 -2.5160 -1.4786
 8522SOL    HW237200   1.103   4.494   2.955  0.9778 -1.1180 -0.3945
 8523SOL     OW37201   3.480   1.955  17.739 -0.0294 -0.2688  0.5824
 8523SOL    HW137202   3.510   1.949  17.648  1.8535  1.7236  1.0770
 8523SOL    HW237203   3.513   1.875   0.025 -2.7953 -0.6330  2.0559
 8524SOL     OW37204   1.078   0.912  17.156 -0.6237 -0.3820 -0.6750
 8524SOL    HW137205   1.010   0.967  17.194 -0.6473 -0.0604 -1.1831
 8524SOL    HW237206   1.056   0.836  17.209  0.2419 -0.1951 -0.0596
 8525SOL     OW37207   4.113   2.750  16.915  0.0372 -0.3927 -0.0556
 8525SOL    HW137208   4.019   2.765  16.909 -0.0502  0.1729  2.7696
 8525SOL    HW237209   4.133   2.827  16.969 -0.0077  0.3741 -1.1256
 8526SOL     OW37210   1.927   4.669   0.439 -0.4880 -0.4762 -0.4809
 8526SOL    HW137211   1.860   4.626   0.387  0.4882 -1.4517 -0.9197
 8526SOL    HW237212   1.920   0.020   0.408 -0.3495 -0.1280  0.4788
 8527SOL     OW37213   0.567   3.795   1.559  0.2265  0.0363  0.0897
 8527SOL    HW137214   0.529   3.757   1.479 -0.5479 -2.1446  1.5195
 8527SOL    HW237215   0.515   3.876   1.559 -0.6485 -0.5137 -1.4548
 8528SOL     OW37216   3.628   1.610  14.864  0.0762  0.4619 -0.3173
 8528SOL    HW137217   3.564   1.539  14.874 -0.0307  0.4581 -1.0190
 8528SOL    HW237218   3.596   1.649  14.783 -2.9432 -1.9361 -0.3016
 8529SOL     OW37219   1.319   3.236   6.565  0.3309 -0.5220 -0.1896
 8529SOL    HW137220   1.236   3.281   6.577  1.0101  0.5410  0.4626
 8529SOL    HW237221   1.359   3.269   6.645 -1.0172 -1.4148  0.8672
 8530SOL     OW37222   3.675   1.452  15.106  0.1946 -0.2353  0.1352
 8530SOL    HW137223   3.760   1.437  15.065 -0.3689  0.9938 -1.5073
 8530SOL    HW237224   3.610   1.416  15.045  2.2563 -0.5521 -1.8864
 8531SOL     OW37225   3.959   0.216   0.613  0.0706 -0.3460  0.0457
 8531SOL    HW137226   4.026   0.281   0.592  0.3849 -1.3462 -1.9855
 8531SOL    HW237227   4.005   0.161   0.676 -2.4222  0.5269  2.6202
 8532SOL     OW37228   2.388   3.843   5.513  0.1890  0.1541 -0.1042
 8532SOL    HW137229   2.307   3.832   5.462 -0.4254  2.8492  0.3049
 8532SOL    HW237230   2.416   3.752   5.512  0.3258  0.1767  1.5346
 8533SOL     OW37231   2.476   1.505   6.833  0.2063 -0.4309 -0.2666
 8533SOL    HW137232   2.423   1.556   6.771  0.2980  2.2586  1.8801
 8533SOL    HW237233   2.440   1.421   6.804 -1.4961  0.3368 -0.3866
 8534SOL     OW37234   3.384   3.437   9.637 -0.0832 -0.2733 -0.1180
 8534SOL    HW137235   3.402   3.366   9.698 -0.8017 -1.3798 -1.2019
 8534SOL    HW237236   3.304   3.409   9.592 -0.1289  0.4191 -0.4674
 8535SOL     OW37237   4.587   0.371   6.867 -0.0740 -0.7084 -0.0843
 8535SOL    HW137238   4.650   0.304   6.841  1.7161  0.7244  0.6269
 8535SOL    HW237239   4.626   0.457   6.849  0.2939 -0.5436  1.5581
 8536SOL     OW37240   2.996   2.331   7.081 -0.0624 -0.5592 -0.2047
 8536SOL    HW137241   2.996   2.419   7.042  0.7837  0.1160  1.3051
 8536SOL    HW237242   3.086   2.298   7.077 -0.3037 -1.1648 -0.5856
 8537SOL     OW37243   3.250   3.949   3.172 -0.4621  0.0063 -0.0899
 8537SOL    HW137244   3.254   3.860   3.206 -1.9469 -0.8473 -2.1162
 8537SOL    HW237245   3.337   3.979   3.198 -1.0087 -0.1641  1.8838
 8538SOL     OW37246   3.770   4.200  12.843  0.6502 -0.2154 -0.2476
 8538SOL    HW137247   3.792   4.122  12.894 -0.5424 -0.5227 -0.1972
 8538SOL    HW237248   3.849   4.253  12.837  0.9540 -0.7764 -1.1070
 8539SOL     OW37249   4.345   0.396   9.213 -0.4581 -0.0900  0.4796
 8539SOL    HW137250   4.253   0.393   9.237 -0.0138  1.1965  2.3504
 8539SOL    HW237251   4.390   0.368   9.293  0.5730  1.9885  0.6231
 8540SOL     OW37252   0.204   0.502  13.436  0.1600  0.1681  0.1643
 8540SOL    HW137253   0.221   0.412  13.407 -1.2741  0.6478 -2.1435
 8540SOL    HW237254   0.248   0.552  13.367  2.6670  0.6433  2.0905
 8541SOL     OW37255   2.999   2.886  12.436  0.1703 -0.0881 -0.2327
 8541SOL    HW137256   3.082   2.839  12.432  0.4221  0.3412 -0.0958
 8541SOL    HW237257   3.006   2.942  12.358  1.2114  0.5949  0.3580
 8542SOL     OW37258   4.068   2.089   7.701  0.1231  0.1441  0.4143
 8542SOL    HW137259   4.066   2.075   7.606 -1.2458  0.6445  0.3728
 8542SOL    HW237260   3.999   2.153   7.715  0.0448 -0.0456  0.9157
 8543SOL     OW37261   3.810   1.478  17.517 -0.0385  0.3284 -0.1594
 8543SOL    HW137262   3.795   1.571  17.499  2.9672  1.1193  1.3556
 8543SOL    HW237263   3.741   1.447  17.460  0.2832 -0.4370 -0.1350
 8544SOL     OW37264   2.488   2.208  17.071 -0.2869 -0.1176 -0.3122
 8544SOL    HW137265   2.534   2.133  17.033 -1.5685 -0.7740 -0.5867
 8544SOL    HW237266   2.468   2.257  16.991  2.3496  0.1399 -0.8147
 8545SOL     OW37267   4.197   2.225   6.052 -0.0263  0.1628  0.7272
 8545SOL    HW137268   4.205   2.320   6.067 -0.3861  0.0895  1.3725
 8545SOL    HW237269   4.203   2.197   6.144  0.7298 -0.1618  0.5816
 8546SOL     OW37270   3.273   3.937   2.879 -0.3674  0.7098  0.0260
 8546SOL    HW137271   3.252   3.969   2.966  1.3151  0.1736  0.6342
 8546SOL    HW237272   3.228   3.993   2.816 -2.2497 -0.1367  0.6263
 8547SOL     OW37273   0.069   4.530  10.716 -0.3220 -0.1276  0.1768
 8547SOL    HW137274   0.039   4.528  10.625 -2.2938  2.5621  0.7647
 8547SOL    HW237275   4.727   4.540  10.766  0.0512  1.8279  0.3755
 8548SOL     OW37276   3.058   2.635   1.427  0.5546 -0.6652  0.1474
 8548SOL    HW137277   3.152   2.650   1.422  0.7880 -1.7541  1.1181
 8548SOL    HW237278   3.043   2.574   1.355 -0.1053 -0.4056  0.0609
 8549SOL     OW37279   1.552   3.814  11.906  0.4655 -0.4905 -0.0951
 8549SOL    HW137280   1.563   3.862  11.824 -3.8698  1.8585  0.7349
 8549SOL    HW237281   1.638   3.777  11.929  1.3713  0.7323 -1.5041
 8550SOL     OW37282   1.780   0.012  10.763  0.3342 -0.1748  0.5081
 8550SOL    HW137283   1.735   4.671  10.738  0.8122 -0.2512 -0.1062
 8550SOL    HW237284   1.830   4.706  10.832  1.7601  1.0215  0.2502
 8551SOL     OW37285   2.865   2.055  11.034 -0.0516  0.2647 -0.4829
 8551SOL    HW137286   2.898   2.070  10.945 -0.6323  0.9897 -0.5800
 8551SOL    HW237287   2.868   1.960  11.046  2.3389  0.5900  1.4317
 8552SOL     OW37288   4.514   4.104  10.223  0.7166  0.4922 -0.0187
 8552SOL    HW137289   4.541   4.021  10.261  2.3040 -0.1252 -2.4873
 8552SOL    HW237290   4.538   4.092  10.131 -2.6969 -0.7027 -0.7633
 8553SOL     OW37291   4.373   0.245  11.914  0.0273  0.1188  0.6436
 8553SOL    HW137292   4.378   0.264  12.008 -0.3479 -2.1809  1.1280
 8553SOL    HW237293   4.441   0.294  11.869 -1.7262  1.6382 -0.3135
 8554SOL     OW37294   2.762   4.129  17.008 -0.3838  0.0421  0.0344
 8554SOL    HW137295   2.729   4.198  17.065  0.9494 -0.5460  1.5270
 8554SOL    HW237296   2.722   4.048  17.040  0.9149 -1.2487 -1.5555
 8555SOL     OW37297   2.472   1.248   4.590  0.4452  0.3098 -0.2312
 8555SOL    HW137298   2.461   1.243   4.495  0.7603 -2.1598 -0.1261
 8555SOL    HW237299   2.512   1.163   4.607  1.7197  1.1467  1.0334
 8556SOL     OW37300   2.443   3.717   6.257  0.1919 -0.4896 -0.0484
 8556SOL    HW137301   2.464   3.774   6.183 -0.4433  1.6994  1.4200
 8556SOL    HW237302   2.347   3.720   6.262  0.2218 -1.9019  1.3390
 8557SOL     OW37303   1.655   0.709  12.806  0.3283 -0.1054  0.1960
 8557SOL    HW137304   1.678   0.642  12.742 -0.3682 -1.1539  1.0170
 8557SOL    HW237305   1.681   0.669  12.890 -1.6419  2.4289  2.0099
 8558SOL     OW37306   3.341   3.026  11.959  0.6830  0.0259 -0.5470
 8558SOL    HW137307   3.349   2.968  12.035  0.5021 -1.3721 -1.6120
 8558SOL    HW237308   3.288   3.096  11.999  1.7002  2.1567 -2.9407
 8559SOL     OW37309   4.038   3.989   7.916  0.2023 -0.0085 -0.5655
 8559SOL    HW137310   4.026   4.001   7.821  1.1413 -1.5876 -0.8879
 8559SOL    HW237311   3.956   4.030   7.945  0.9131  0.5789  0.6101
 8560SOL     OW37312   4.384   2.923  16.871 -0.2982  0.1955 -0.2858
 8560SOL    HW137313   4.327   2.963  16.937 -1.6431 -1.5587 -0.3567
 8560SOL    HW237314   4.435   2.859  16.922  1.4912  1.2487 -0.7757
 8561SOL     OW37315   2.498   0.238   6.818  0.0983 -0.4427 -0.0062
 8561SOL    HW137316   2.564   0.172   6.837  1.5849  1.1167  0.2385
 8561SOL    HW237317   2.541   0.311   6.862  1.6363 -1.1563 -0.3532
 8562SOL     OW37318   4.044   1.718   9.151 -0.0684  0.1906  0.4547
 8562SOL    HW137319   4.073   1.795   9.200 -0.6086  0.4697  0.3276
 8562SOL    HW237320   4.011   1.758   9.071  0.7511  0.2797  0.1584
 8563SOL     OW37321   0.837   3.781   9.078 -0.5888 -0.0194  0.0066
 8563SOL    HW137322   0.773   3.709   9.076 -0.9817  0.3331 -0.1624
 8563SOL    HW237323   0.905   3.763   9.143 -0.2516  3.3531  0.6056
 8564SOL     OW37324   3.060   2.010   7.113 -0.1872 -0.2983  0.3073
 8564SOL    HW137325   2.967   1.993   7.097 -0.0504 -1.7012  1.0235
 8564SOL    HW237326   3.058   2.083   7.174 -1.1992  1.6022 -1.9917
 8565SOL     OW37327   1.224   2.747   8.734 -0.2425 -0.1648 -0.1243
 8565SOL    HW137328   1.282   2.742   8.658 -0.3363 -0.4519 -0.1760
 8565SOL    HW237329   1.188   2.658   8.734  0.7029 -0.5493 -1.8632
 8566SOL     OW37330   1.843   3.912  11.521  0.2403 -0.5514 -0.6110
 8566SOL    HW137331   1.752   3.928  11.545  0.1993  0.0458 -1.1413
 8566SOL    HW237332   1.846   3.938  11.429 -1.3613 -0.5428 -0.6550
 8567SOL     OW37333   2.388   0.550   4.053 -0.7319  0.4934 -0.0302
 8567SOL    HW137334   2.473   0.525   4.018 -0.0774  0.5295  1.5385
 8567SOL    HW237335   2.373   0.486   4.124  1.8339 -1.5191 -1.3107
 8568SOL     OW37336   0.270   3.696  15.617 -0.7700 -0.2309  0.2849
 8568SOL    HW137337   0.273   3.779  15.570 -2.2624  1.2688  2.8078
 8568SOL    HW237338   0.296   3.732  15.702 -0.2960  2.7160 -1.0911
 8569SOL     OW37339   3.395   0.942   1.393 -0.5375 -0.2312  0.2556
 8569SOL    HW137340   3.436   1.007   1.450 -0.0665 -0.8759  0.6561
 8569SOL    HW237341   3.344   0.997   1.333  0.3757  0.3830  0.0564
 8570SOL     OW37342   0.777   0.567  14.910  0.2518  0.7445  0.7649
 8570SOL    HW137343   0.870   0.547  14.900 -0.2766 -0.6165 -1.5809
 8570SOL    HW237344   0.757   0.558  14.816  3.2324  0.7134  0.1164
 8571SOL     OW37345   4.178   0.132   3.151 -0.3077  0.0413 -0.0416
 8571SOL    HW137346   4.198   0.101   3.062 -1.6532 -2.2983  0.4712
 8571SOL    HW237347   4.137   0.053   3.185 -0.6131  0.0874 -0.3059
 8572SOL     OW37348   1.484   1.426   1.143 -0.5243 -0.2502  0.0160
 8572SOL    HW137349   1.437   1.343   1.157 -1.0247  0.3427  1.8944
 8572SOL    HW237350   1.415   1.466   1.091 -0.3812  0.0561  0.0635
 8573SOL     OW37351   3.523   0.886   5.022  0.1109 -0.0059  0.1129
 8573SOL    HW137352   3.438   0.930   5.032 -0.0071 -0.2980  0.4418
 8573SOL    HW237353   3.554   0.933   4.945 -0.6099 -2.0983 -1.4682
 8574SOL     OW37354   4.354   4.401   9.067 -0.2081 -0.6248  0.5861
 8574SOL    HW137355   4.325   4.344   8.996 -3.3484  2.3340 -0.4606
 8574SOL    HW237356   4.440   4.432   9.039 -1.0587  2.0245  0.9611
 8575SOL     OW37357   0.472   4.114   2.216 -0.5626  0.2460  0.2887
 8575SOL    HW137358   0.539   4.078   2.158 -2.8709 -0.0268 -2.2437
 8575SOL    HW237359   0.438   4.190   2.169  0.1600  0.6387  0.4148
 8576SOL     OW37360   4.103   1.067   7.838 -0.6974  0.3706  0.4084
 8576SOL    HW137361   4.167   1.130   7.805  0.3337 -0.1338  1.4540
 8576SOL    HW237362   4.030   1.085   7.779 -0.3334 -1.6879 -0.6697
 8577SOL     OW37363   0.798   0.766   3.156  0.1516 -0.5059  0.5679
 8577SOL    HW137364   0.891   0.768   3.180 -0.3829  0.6272  2.5360
 8577SOL    HW237365   0.755   0.717   3.226  0.4439 -0.7927  0.5491
 8578SOL     OW37366   2.054   1.020  10.223  0.1015 -0.1539 -0.1350
 8578SOL    HW137367   2.147   1.044  10.226  0.1706 -0.6409  1.7355
 8578SOL    HW237368   2.012   1.105  10.207 -0.6042 -0.1504  1.7142
 8579SOL     OW37369   4.688   2.863   4.455 -0.6284  0.1239  0.9081
 8579SOL    HW137370   4.668   2.860   4.361  0.9628 -2.4926  0.6586
 8579SOL    HW237371   4.713   2.772   4.466 -2.4521 -0.3553  1.0716
 8580SOL     OW37372   1.619   3.905   4.875  0.2021 -0.4089  0.1470
 8580SOL    HW137373   1.524   3.901   4.864  0.5375 -1.5528 -2.3130
 8580SOL    HW237374   1.647   3.884   4.786 -2.1418 -0.8162 -0.5142
 8581SOL     OW37375   2.661   4.032   7.223 -1.1054  0.1031  0.0925
 8581SOL    HW137376   2.586   4.046   7.281 -0.3546 -0.3925  1.1856
 8581SOL    HW237377   2.666   4.123   7.194  0.4675 -0.3228 -0.9602
 8582SOL     OW37378   1.942   2.086   7.312  0.2341  0.0045  0.8813
 8582SOL    HW137379   1.946   2.109   7.219 -1.7825 -2.9822  0.0419
 8582SOL    HW237380   2.030   2.049   7.320  0.3882  0.1389 -0.2244
 8583SOL     OW37381   3.142   0.590   2.200  0.4978  0.1941 -0.0546
 8583SOL    HW137382   3.181   0.557   2.119 -0.5790 -1.2536  0.0362
 8583SOL    HW237383   3.157   0.681   2.174 -1.6024 -0.3665 -3.2006
 8584SOL     OW37384   2.500   1.864   4.160  0.1069  0.3697  0.4306
 8584SOL    HW137385   2.418   1.896   4.198  0.0974  0.3024  0.4679
 8584SOL    HW237386   2.544   1.945   4.135  0.4394  0.2729  0.6934
 8585SOL     OW37387   1.122   4.271   4.542  0.4266  0.2110  0.0734
 8585SOL    HW137388   1.083   4.235   4.622 -0.7629 -1.1697 -1.1405
 8585SOL    HW237389   1.197   4.212   4.543  0.0409 -0.2999 -1.0995
 8586SOL     OW37390   1.037   0.482   6.004 -0.1672 -0.2682 -0.1598
 8586SOL    HW137391   0.966   0.479   5.940 -0.2399 -0.2974 -0.0783
 8586SOL    HW237392   1.105   0.493   5.938 -0.6495 -0.4790 -0.6960
 8587SOL     OW37393   0.501   0.335  10.073  0.3813 -0.1315 -0.8634
 8587SOL    HW137394   0.583   0.351  10.026 -0.4200  1.8507 -1.5841
 8587SOL    HW237395   0.532   0.348  10.163  1.3200  1.3936 -1.4107
 8588SOL     OW37396   1.075   2.144  16.343  0.5560 -0.2795 -0.3033
 8588SOL    HW137397   1.157   2.192  16.358  1.0408 -1.1176 -0.2725
 8588SOL    HW237398   1.017   2.220  16.354 -1.6965 -1.6494 -2.9073
 8589SOL     OW37399   4.056   1.678   5.028  0.2732  0.1382  0.3368
 8589SOL    HW137400   4.051   1.731   5.107  1.5798 -1.4573  1.4953
 8589SOL    HW237401   3.966   1.687   4.995 -0.2214  1.5081  2.1110
 8590SOL     OW37402   0.972   1.413   4.395 -0.0526 -0.1604  0.4910
 8590SOL    HW137403   0.900   1.439   4.337  0.6003  0.6769  0.0552
 8590SOL    HW237404   0.958   1.482   4.461  0.3278  0.0509  0.3517
 8591SOL     OW37405   3.390   3.272   1.490  0.6766  0.2858  0.2331
 8591SOL    HW137406   3.347   3.281   1.575 -0.0290  0.6034 -0.1650
 8591SOL    HW237407   3.466   3.331   1.487  0.3441  0.5674 -2.0681
 8592SOL     OW37408   1.978   3.097   8.182 -0.0418 -0.3316  0.8571
 8592SOL    HW137409   1.938   3.028   8.235 -0.2477 -0.4637  0.5295
 8592SOL    HW237410   2.068   3.107   8.212  0.5515  0.5650 -1.1891
 8593SOL     OW37411   2.227   1.445   7.660 -0.2872  0.3446  0.3817
 8593SOL    HW137412   2.148   1.395   7.676  0.5090 -1.2339 -0.6723
 8593SOL    HW237413   2.211   1.470   7.569 -1.5874  0.0488  0.5280
 8594SOL     OW37414   4.189   1.469   6.035 -0.5703  0.1496  0.0606
 8594SOL    HW137415   4.231   1.553   6.054  0.0134  0.5883 -3.1832
 8594SOL    HW237416   4.097   1.495   6.033 -1.1431 -1.7794  1.0536
 8595SOL     OW37417   2.668   1.837   9.649  0.6095 -0.0373  0.2212
 8595SOL    HW137418   2.620   1.775   9.594 -1.7099  1.1187  0.9459
 8595SOL    HW237419   2.686   1.915   9.596 -1.1537  0.8093  0.8740
 8596SOL     OW37420   0.295   3.629  16.534 -0.2943  0.3553  0.2935
 8596SOL    HW137421   0.227   3.564  16.552 -1.1709  1.2476  0.1862
 8596SOL    HW237422   0.322   3.617  16.443 -0.6918 -0.8444  0.3311
 8597SOL     OW37423   4.547   3.813  13.242  0.4343  0.2428 -0.5080
 8597SOL    HW137424   4.574   3.785  13.154  0.3478  0.3630 -0.5717
 8597SOL    HW237425   4.536   3.906  13.226 -0.4762  0.3089  0.5284
 8598SOL     OW37426   0.800   1.603  15.096 -0.3389  0.6537  0.0275
 8598SOL    HW137427   0.826   1.533  15.035  1.4948  2.4462 -1.2738
 8598SOL    HW237428   0.714   1.629  15.063 -0.2388 -0.3971 -1.0888
 8599SOL     OW37429   2.389   2.752   7.338 -0.0626  0.3044 -0.6883
 8599SOL    HW137430   2.447   2.822   7.370  0.2280 -0.2804  0.0524
 8599SOL    HW237431   2.328   2.749   7.412  0.9343  0.7447  0.1602
 8600SOL     OW37432   1.260   3.679   2.192  0.0767  0.2132  0.6683
 8600SOL    HW137433   1.332   3.696   2.132 -0.9288 -2.2824 -1.2437
 8600SOL    HW237434   1.273   3.585   2.198 -1.4854 -0.0928 -0.5811
 8601SOL     OW37435   4.412   4.249   9.946 -0.1718  0.2265 -0.0944
 8601SOL    HW137436   4.473   4.180   9.974 -0.4555  0.5174  1.2332
 8601SOL    HW237437   4.405   4.233   9.851  1.4621 -1.3856  0.0552
 8602SOL     OW37438   1.279   1.002   7.097  0.3885 -0.4678 -1.1265
 8602SOL    HW137439   1.253   1.079   7.045  1.5824  1.2455  0.8259
 8602SOL    HW237440   1.209   0.946   7.065 -0.2350 -0.6991  0.6756
 8603SOL     OW37441   1.161   2.185  14.181 -0.5280 -0.5318  0.3054
 8603SOL    HW137442   1.157   2.265  14.233 -1.2625  1.4194 -2.7252
 8603SOL    HW237443   1.079   2.188  14.131 -0.8087  1.1279  0.8769
 8604SOL     OW37444   3.211   0.598   5.824  0.5296  0.2112 -0.1146
 8604SOL    HW137445   3.296   0.587   5.867 -0.1557  1.2015  1.4926
 8604SOL    HW237446   3.230   0.585   5.731  0.9598 -0.5318  0.0741
 8605SOL     OW37447   3.523   3.086   6.288 -0.2448 -0.6233  0.0735
 8605SOL    HW137448   3.475   3.072   6.207  0.0765  2.0574 -0.5758
 8605SOL    HW237449   3.542   2.994   6.303  2.2561 -0.6025 -3.1350
 8606SOL     OW37450   0.712   0.535   7.284  1.0044 -0.1863  0.7064
 8606SOL    HW137451   0.652   0.465   7.261  1.3581 -0.7751  1.5776
 8606SOL    HW237452   0.726   0.511   7.375  0.0244  0.0970  0.9250
 8607SOL     OW37453   0.203   3.979  17.556  0.3346  0.2196  0.1208
 8607SOL    HW137454   0.150   3.909  17.518 -1.0817  1.6221 -0.4556
 8607SOL    HW237455   0.286   3.934  17.571 -0.1072 -0.6730 -0.1361
 8608SOL     OW37456   3.932   0.285  11.207  0.5373  0.5190  0.5372
 8608SOL    HW137457   4.020   0.271  11.173  0.6619  0.3088  0.9491
 8608SOL    HW237458   3.890   0.330  11.133  0.1694  2.0060  1.6429
 8609SOL     OW37459   4.363   3.479   4.443  0.0121  0.5518  0.0333
 8609SOL    HW137460   4.279   3.442   4.472 -0.1681  1.5738  0.8111
 8609SOL    HW237461   4.345   3.472   4.349  1.1020 -0.8355 -0.0757
 8610SOL     OW37462   2.215   0.675   1.606  0.8621 -0.0567 -0.4037
 8610SOL    HW137463   2.230   0.641   1.517  1.9525  1.6909 -0.8895
 8610SOL    HW237464   2.290   0.734   1.614  1.5337 -1.0129  0.4689
 8611SOL     OW37465   2.928   0.559  10.000 -0.3922 -0.1760  0.5888
 8611SOL    HW137466   3.005   0.616   9.998  0.2826 -1.1146 -0.3878
 8611SOL    HW237467   2.936   0.521   9.912  1.2577  1.1343  0.1635
 8612SOL     OW37468   0.957   3.515   6.509  0.1887 -0.4226  0.3215
 8612SOL    HW137469   0.984   3.605   6.527 -1.2885 -0.1452  1.1351
 8612SOL    HW237470   0.969   3.464   6.589 -0.6592 -2.3959 -0.8133
 8613SOL     OW37471   1.719   1.646   7.628  0.1947  0.5975  0.1358
 8613SOL    HW137472   1.666   1.709   7.677 -2.6616 -2.2078  0.6745
 8613SOL    HW237473   1.786   1.632   7.694  1.3059  0.7561 -0.9688
 8614SOL     OW37474   3.990   4.660  15.429  0.5836  0.9321  0.2662
 8614SOL    HW137475   3.902   4.694  15.410  0.9837  0.2973 -2.7742
 8614SOL    HW237476   4.049   4.733  15.411  3.8103 -1.2308  2.0038
 8615SOL     OW37477   4.101   1.950   9.284  0.2219 -0.0554  0.2987
 8615SOL    HW137478   4.096   1.942   9.379  1.9673  1.7907  0.5284
 8615SOL    HW237479   4.186   1.992   9.274  0.0416  0.0062 -1.0316
 8616SOL     OW37480   0.118   1.834  13.146  0.0707  0.5424  0.3402
 8616SOL    HW137481   0.188   1.768  13.141 -0.3158  0.2706 -1.7009
 8616SOL    HW237482   0.113   1.861  13.237 -1.6466  2.5879 -0.3715
 8617SOL     OW37483   2.684   4.346   6.772  0.7177  0.2943  0.0075
 8617SOL    HW137484   2.663   4.336   6.679 -1.1056  0.7721  0.3680
 8617SOL    HW237485   2.641   4.431   6.780 -0.0808 -0.1611  0.5232
 8618SOL     OW37486   0.535   3.386   8.719 -0.2139  0.1915 -0.1858
 8618SOL    HW137487   0.581   3.442   8.781 -1.2057  0.5032  0.2602
 8618SOL    HW237488   0.581   3.304   8.735 -0.4990 -0.1807 -1.2428
 8619SOL     OW37489   1.719   1.806  14.013  0.5681  1.0397  0.2598
 8619SOL    HW137490   1.775   1.812  13.936 -1.5391 -0.3763 -1.3942
 8619SOL    HW237491   1.750   1.876  14.070  1.2368  0.8931  0.0708
 8620SOL     OW37492   2.513   0.806   9.088  0.4983 -0.0945 -0.5796
 8620SOL    HW137493   2.597   0.838   9.121  1.0027 -2.0816  0.0434
 8620SOL    HW237494   2.461   0.882   9.114 -0.2849 -0.5077 -0.9344
 8621SOL     OW37495   3.307   4.706   5.707  0.0917 -0.1731 -0.2949
 8621SOL    HW137496   3.265   0.043   5.747  1.7638 -0.6980  2.4887
 8621SOL    HW237497   3.398   4.736   5.708  0.0164  0.1112 -1.2743
 8622SOL     OW37498   2.768   3.855   4.433 -0.5175 -0.0996  0.3797
 8622SOL    HW137499   2.747   3.852   4.526  1.6673 -0.4169  0.8603
 8622SOL    HW237500   2.683   3.861   4.389 -0.4564  1.4171  0.4791
 8623SOL     OW37501   2.031   2.978   4.346  0.2574 -0.0594  0.4106
 8623SOL    HW137502   2.090   2.919   4.299 -0.2980 -0.1879 -0.1269
 8623SOL    HW237503   2.087   3.038   4.395  1.4833  1.4651 -2.8676
 8624SOL     OW37504   2.542   3.296   8.957 -0.1781  0.3429  0.3004
 8624SOL    HW137505   2.564   3.389   8.944 -1.0578  0.5243  0.0749
 8624SOL    HW237506   2.627   3.270   8.992  1.0603 -0.0386 -3.0326
 8625SOL     OW37507   2.716   3.917  16.682  0.2494  0.7581 -0.0163
 8625SOL    HW137508   2.674   3.832  16.677 -0.0056  0.9207 -0.5682
 8625SOL    HW237509   2.694   3.963  16.601 -1.3671  0.2278  0.1302
 8626SOL     OW37510   3.465   3.883  17.002  0.2912  0.3023 -0.3186
 8626SOL    HW137511   3.429   3.888  16.914  0.4242 -2.1207 -0.4933
 8626SOL    HW237512   3.384   3.893  17.051 -0.9806 -0.5035 -2.2517
 8627SOL     OW37513   0.519   3.949   4.579 -0.4089 -0.2685 -0.2472
 8627SOL    HW137514   0.579   3.923   4.509 -1.3806 -1.1890 -0.7344
 8627SOL    HW237515   0.572   3.933   4.656 -0.6731  1.7389  0.3593
 8628SOL     OW37516   1.125   1.467  16.358 -0.6971 -0.3670  0.2633
 8628SOL    HW137517   1.136   1.493  16.267 -1.5045  0.0760  0.2995
 8628SOL    HW237518   1.138   1.373  16.344  1.8096  0.2947 -1.9718
 8629SOL     OW37519   1.907   0.619  12.474 -0.0227  0.0560 -0.4134
 8629SOL    HW137520   1.932   0.533  12.442 -0.3412  0.4071 -1.5855
 8629SOL    HW237521   1.833   0.640  12.417 -1.0387  1.6339  1.4772
 8630SOL     OW37522   3.804   2.155   4.071  0.2044  0.4433 -0.0351
 8630SOL    HW137523   3.831   2.128   3.983  0.5909  2.6400 -0.6037
 8630SOL    HW237524   3.729   2.097   4.078  0.6554 -0.6851 -4.2357
 8631SOL     OW37525   1.823   4.462  16.498  0.0641 -0.9961  0.1816
 8631SOL    HW137526   1.757   4.400  16.466 -1.0954  1.4632 -2.2614
 8631SOL    HW237527   1.842   4.412  16.578 -0.6214  0.3429  1.1823
 8632SOL     OW37528   2.378   4.446   2.922 -0.4776 -0.5387  0.0642
 8632SOL    HW137529   2.301   4.427   2.976 -1.2532 -1.0326 -1.2259
 8632SOL    HW237530   2.411   4.527   2.962 -2.2492 -0.2228  0.8917
 8633SOL     OW37531   2.091   3.842   6.779  0.2871  0.0987  0.8568
 8633SOL    HW137532   2.038   3.882   6.849 -2.2591  0.6982 -1.3783
 8633SOL    HW237533   2.130   3.914   6.729  1.5535 -0.0129  1.7118
 8634SOL     OW37534   3.969   4.461   6.101 -0.6756 -0.3700  0.1031
 8634SOL    HW137535   3.894   4.484   6.156  2.0276  0.6972  3.3055
 8634SOL    HW237536   3.989   4.552   6.078  0.6970 -0.3332  1.4645
 8635SOL     OW37537   3.587   0.588  16.076  0.0588 -0.3246 -0.3402
 8635SOL    HW137538   3.497   0.559  16.058 -0.1014 -0.5201  0.7547
 8635SOL    HW237539   3.568   0.664  16.130  5.4449  1.5734 -1.1432
 8636SOL     OW37540   4.618   1.237   4.406  0.9959  0.1752 -0.8759
 8636SOL    HW137541   4.595   1.270   4.493  4.2689  1.1094 -0.3547
 8636SOL    HW237542   4.528   1.213   4.386  0.6991  1.1595 -0.7148
 8637SOL     OW37543   4.631   0.615   4.313 -0.0253 -0.2576 -0.2424
 8637SOL    HW137544   4.581   0.613   4.394 -1.0269 -0.7061 -0.8726
 8637SOL    HW237545   4.560   0.651   4.260  0.8910  1.8264 -0.0635
 8638SOL     OW37546   0.932   3.130   9.677  0.4424 -0.1103  0.0376
 8638SOL    HW137547   1.022   3.137   9.710  0.6051 -1.6229 -0.0976
 8638SOL    HW237548   0.951   3.130   9.583  3.3842 -0.1761  0.6216
 8639SOL     OW37549   1.228   2.359   0.229  0.1538 -0.1124  0.1724
 8639SOL    HW137550   1.231   2.397   0.317 -2.4591 -0.9807  0.6523
 8639SOL    HW237551   1.177   2.279   0.238 -1.0269  0.5441 -0.5636
 8640SOL     OW37552   3.841   3.966   4.478 -0.5966 -0.1300  0.2764
 8640SOL    HW137553   3.832   3.983   4.572 -1.0116  1.2742 -0.0063
 8640SOL    HW237554   3.805   3.879   4.459 -0.6540 -0.1847  0.6391
 8641SOL     OW37555   1.121   1.189  10.817  0.5455 -0.2718 -0.6432
 8641SOL    HW137556   1.118   1.099  10.787  0.2760  0.1357 -1.8505
 8641SOL    HW237557   1.035   1.188  10.861  0.1151 -0.7716 -1.5014
 8642SOL     OW37558   1.562   2.647   4.244  0.4099  0.4089 -0.0141
 8642SOL    HW137559   1.566   2.558   4.279  0.2174  1.0747  1.6838
 8642SOL    HW237560   1.544   2.621   4.153  1.5668 -2.0109  0.4586
 8643SOL     OW37561   4.652   2.033  16.131 -0.2355 -0.1417 -0.2509
 8643SOL    HW137562   4.623   2.073  16.049 -1.0027 -2.2201 -1.0117
 8643SOL    HW237563   4.667   1.943  16.100  1.5758  0.1363 -0.1784
 8644SOL     OW37564   3.072   0.128   1.781 -0.1723  0.2861  0.6828
 8644SOL    HW137565   3.092   0.104   1.871  1.1765 -1.2849 -0.0379
 8644SOL    HW237566   2.981   0.098   1.775 -1.0085  2.7694  0.7098
 8645SOL     OW37567   1.062   3.493   2.069  0.1082  0.1047 -0.1365
 8645SOL    HW137568   0.995   3.440   2.025  0.1604 -0.9664  1.0899
 8645SOL    HW237569   1.130   3.490   2.002 -0.0522  1.8610 -0.3843
 8646SOL     OW37570   1.999   4.524   9.422  0.1317  0.3513  0.2056
 8646SOL    HW137571   1.931   4.534   9.355  0.6532  3.8762  0.2048
 8646SOL    HW237572   1.946   4.577   9.481  0.8535  2.6961 -1.2531
 8647SOL     OW37573   1.923   2.177   8.883 -0.1663 -0.0333 -0.2442
 8647SOL    HW137574   1.971   2.134   8.812 -0.4168 -2.2600  0.9061
 8647SOL    HW237575   1.988   2.212   8.943  0.8175 -0.4327 -1.0703
 8648SOL     OW37576   2.210   4.281   4.094 -0.0431  0.0066 -0.0652
 8648SOL    HW137577   2.183   4.367   4.127 -0.1536  0.7529 -2.1401
 8648SOL    HW237578   2.202   4.220   4.168  0.8140 -0.8375 -0.6724
 8649SOL     OW37579   3.908   3.587   9.446 -0.0633 -0.2619  0.4771
 8649SOL    HW137580   3.860   3.615   9.524 -1.2719  1.8728 -1.0130
 8649SOL    HW237581   3.895   3.664   9.390  1.2019 -0.1716  0.3168
 8650SOL     OW37582   2.311   2.636   5.904 -0.0813 -0.1756 -0.0484
 8650SOL    HW137583   2.404   2.620   5.916 -0.0666 -0.3146 -0.3426
 8650SOL    HW237584   2.290   2.640   5.997 -2.2522 -1.0553 -0.4887
 8651SOL     OW37585   0.106   0.674  11.498  0.0223  0.7484  0.0635
 8651SOL    HW137586   0.061   0.653  11.580  1.2419  1.7476  0.9827
 8651SOL    HW237587   0.083   0.601  11.440  1.2336  1.8858 -1.8284
 8652SOL     OW37588   1.565   2.549   9.926 -0.1746  0.0295 -0.0820
 8652SOL    HW137589   1.553   2.640   9.953  0.8342  0.5426 -1.3861
 8652SOL    HW237590   1.641   2.530   9.981  0.1351 -0.1879 -0.5911
 8653SOL     OW37591   4.305   0.158   6.387  0.2037 -0.3149  0.5280
 8653SOL    HW137592   4.270   0.248   6.385 -0.5268 -0.5259  3.2175
 8653SOL    HW237593   4.246   0.116   6.325  0.0466  0.3930  0.1927
 8654SOL     OW37594   2.726   3.174   8.330 -0.3029 -0.0280  0.3916
 8654SOL    HW137595   2.757   3.085   8.348 -1.0849 -0.7658 -1.8056
 8654SOL    HW237596   2.750   3.178   8.237 -0.5620  1.7281  0.4047
 8655SOL     OW37597   0.867   4.194   3.240  0.0203  0.0844  0.1412
 8655SOL    HW137598   0.846   4.192   3.333 -0.8775 -0.7683 -0.0866
 8655SOL    HW237599   0.774   4.199   3.219 -0.2705 -0.3224  1.3370
 8656SOL     OW37600   1.318   4.669  15.271 -0.0114 -0.5661 -0.6898
 8656SOL    HW137601   1.255   4.721  15.321  0.5060 -0.7382  0.1395
 8656SOL    HW237602   1.311   4.695  15.179 -0.9508  1.5256 -0.0111
 8657SOL     OW37603   1.197   2.765   4.517  0.3749  0.0966 -0.0329
 8657SOL    HW137604   1.263   2.791   4.581  1.1685 -0.2835 -0.6970
 8657SOL    HW237605   1.160   2.687   4.559 -0.2041  0.0156 -0.6929
 8658SOL     OW37606   1.431   0.887  17.498  0.1993 -0.0349  0.1350
 8658SOL    HW137607   1.368   0.940  17.450 -1.3955 -0.7350  1.4399
 8658SOL    HW237608   1.448   0.811  17.442  2.4674 -0.4144  1.3071
 8659SOL     OW37609   2.760   0.721   7.574 -0.5158  0.1704  0.0878
 8659SOL    HW137610   2.785   0.813   7.564 -1.3311  0.3575 -0.1942
 8659SOL    HW237611   2.843   0.688   7.610 -0.7833 -3.0664 -2.2220
 8660SOL     OW37612   0.795   4.009  13.483 -0.1374 -0.2114 -0.2910
 8660SOL    HW137613   0.771   3.968  13.566 -3.4673 -0.8628 -1.5651
 8660SOL    HW237614   0.861   3.950  13.447  1.8960  1.4693  0.6973
 8661SOL     OW37615   1.517   1.982   8.119 -0.5059 -0.4631  0.6064
 8661SOL    HW137616   1.608   2.012   8.116 -0.9189  0.8579  1.6241
 8661SOL    HW237617   1.476   2.048   8.175 -1.6076 -0.8935  0.2952
 8662SOL     OW37618   3.138   1.916   1.930 -0.1793  0.4180 -0.0125
 8662SOL    HW137619   3.171   1.857   1.863 -1.3131 -0.7126  0.4137
 8662SOL    HW237620   3.165   1.870   2.010  2.4057  0.3268 -0.9765
 8663SOL     OW37621   4.632   3.549   1.092  0.0862  0.0383  0.1635
 8663SOL    HW137622   4.591   3.557   1.006  2.9211  0.3981 -1.1461
 8663SOL    HW237623   4.717   3.516   1.065  0.0043  0.0405 -0.1035
 8664SOL     OW37624   4.164   2.503   0.746  0.0357  0.7576 -0.0462
 8664SOL    HW137625   4.127   2.567   0.686  1.4904  2.8898  1.2985
 8664SOL    HW237626   4.236   2.551   0.789 -0.2294  0.2835  0.9387
 8665SOL     OW37627   1.135   1.832   6.634 -0.1961 -0.2617  0.3428
 8665SOL    HW137628   1.048   1.842   6.595  0.7461  0.1005 -1.6743
 8665SOL    HW237629   1.125   1.854   6.727  0.9383  0.7226  0.2326
 8666SOL     OW37630   0.739   2.933   7.726 -0.3330  0.2928 -0.1211
 8666SOL    HW137631   0.688   2.953   7.647  0.2014 -0.0367 -0.5541
 8666SOL    HW237632   0.710   3.007   7.780  0.7194 -0.0838  0.9607
 8667SOL     OW37633   2.914   3.840   4.853 -0.2276  0.1365  0.0412
 8667SOL    HW137634   2.985   3.894   4.819  1.6430 -1.8319  0.8537
 8667SOL    HW237635   2.945   3.753   4.830 -0.7069  0.5525 -2.2322
 8668SOL     OW37636   4.389   1.603  16.239  0.4461  0.5121 -0.4676
 8668SOL    HW137637   4.466   1.549  16.259 -0.2537 -1.2800 -2.5298
 8668SOL    HW237638   4.426   1.691  16.245 -0.2336  0.8294 -0.9287
 8669SOL     OW37639   1.317   2.846  13.495  0.0394 -0.3764  0.6500
 8669SOL    HW137640   1.405   2.818  13.519 -0.6386 -2.1606  1.0115
 8669SOL    HW237641   1.262   2.768  13.488 -1.8510  1.0034  0.0131
 8670SOL     OW37642   0.709   4.665  16.647 -0.0049  0.5725  0.3931
 8670SOL    HW137643   0.704   4.689  16.555 -3.2355  1.2892  0.7623
 8670SOL    HW237644   0.775   4.723  16.686  1.1220  0.8261 -1.9422
 8671SOL     OW37645   3.218   0.844   2.950 -0.2399  0.1358  0.7193
 8671SOL    HW137646   3.142   0.869   2.897  0.0280  0.2793  0.3992
 8671SOL    HW237647   3.194   0.880   3.036 -1.2764 -0.7145  0.7881
 8672SOL     OW37648   1.451   2.492  16.915  0.6601  0.2198  0.4718
 8672SOL    HW137649   1.400   2.539  16.981 -0.6644 -0.5389 -0.0128
 8672SOL    HW237650   1.404   2.495  16.832 -1.2898 -2.5892  1.4605
 8673SOL     OW37651   0.488   4.508   7.582 -0.6774  0.0135  0.4660
 8673SOL    HW137652   0.563   4.469   7.536 -0.4724 -0.1486  0.9333
 8673SOL    HW237653   0.467   4.568   7.511 -1.5627  0.7511  1.3537
 8674SOL     OW37654   3.207   4.134   3.919  0.4996 -0.2242 -0.0437
 8674SOL    HW137655   3.153   4.055   3.919 -1.0839  0.8517 -1.4473
 8674SOL    HW237656   3.137   4.197   3.937 -0.5186 -1.4261  0.1599
 8675SOL     OW37657   3.931   3.482  13.157 -0.4295 -0.4953  0.5061
 8675SOL    HW137658   3.845   3.461  13.192 -1.7462  1.0533 -1.7620
 8675SOL    HW237659   3.972   3.524  13.233 -0.5126  1.7265 -0.6613
 8676SOL     OW37660   3.699   3.552  16.889  0.8048  0.0843 -0.0781
 8676SOL    HW137661   3.675   3.600  16.968  1.1405 -2.9276  1.8802
 8676SOL    HW237662   3.619   3.555  16.836  0.8390  1.5268 -0.0547
 8677SOL     OW37663   3.018   0.924   2.740 -0.3888  0.0776  0.4162
 8677SOL    HW137664   2.970   0.900   2.661  1.6439  1.5199 -1.2436
 8677SOL    HW237665   2.960   0.992   2.776 -0.4540  0.6839 -0.8239
 8678SOL     OW37666   3.911   0.365   7.383 -0.3187  0.0858 -0.3352
 8678SOL    HW137667   3.978   0.434   7.383 -0.3784  0.1441 -0.6714
 8678SOL    HW237668   3.837   0.415   7.348 -0.4432  1.4941  1.9542
 8679SOL     OW37669   0.219   3.906   2.889 -0.0171  0.3429  0.6051
 8679SOL    HW137670   0.132   3.887   2.923  1.2836 -1.1945  3.0217
 8679SOL    HW237671   0.189   3.964   2.819 -1.1674 -1.6280 -0.5180
 8680SOL     OW37672   3.278   2.591   8.265 -0.3575 -0.3746 -0.3012
 8680SOL    HW137673   3.204   2.533   8.249  0.5923 -1.2537 -1.5042
 8680SOL    HW237674   3.281   2.594   8.360  1.6905 -0.4563 -0.3616
 8681SOL     OW37675   0.278   3.565   3.880 -0.6663  0.4849 -0.0608
 8681SOL    HW137676   0.242   3.607   3.803 -1.3628 -3.1821 -1.7175
 8681SOL    HW237677   0.283   3.475   3.847 -1.4381  0.9233 -1.3523
 8682SOL     OW37678   1.059   4.553  10.765 -0.3049 -0.0419 -0.8156
 8682SOL    HW137679   1.014   4.471  10.745 -0.7703  0.5406 -2.1415
 8682SOL    HW237680   1.000   4.580  10.835  0.0530 -0.5113 -0.3316
 8683SOL     OW37681   4.693   3.937   4.096 -0.3058  0.3236 -0.5590
 8683SOL    HW137682   4.732   3.961   4.181 -0.4091  0.2012 -0.4777
 8683SOL    HW237683   0.022   3.950   4.030  0.9911 -0.3855  0.6405
 8684SOL     OW37684   3.496   1.727   9.037  0.0155 -0.1672  0.4394
 8684SOL    HW137685   3.591   1.721   9.047 -0.2579 -1.1623  2.3224
 8684SOL    HW237686   3.497   1.721   8.941 -0.5686 -1.4530  0.5252
 8685SOL     OW37687   4.125   2.797   3.738 -0.0869  0.7675 -0.4314
 8685SOL    HW137688   4.131   2.772   3.830 -2.0670  2.0767  0.0521
 8685SOL    HW237689   4.098   2.889   3.738 -3.6685 -0.3002 -0.2089
 8686SOL     OW37690   0.802   0.240   9.491  0.0880  0.0361 -0.1777
 8686SOL    HW137691   0.874   0.263   9.549 -0.8051  2.8127 -0.1632
 8686SOL    HW237692   0.744   0.316   9.491  1.9386  1.4515  1.5521
 8687SOL     OW37693   1.259   4.376   7.327 -0.2554 -0.1371  0.1601
 8687SOL    HW137694   1.247   4.470   7.336  0.3639 -0.1393  1.0146
 8687SOL    HW237695   1.248   4.360   7.233  1.5054  1.2818 -0.2929
 8688SOL     OW37696   1.803   0.349   8.753 -0.1751  0.6144  0.2373
 8688SOL    HW137697   1.887   0.369   8.710 -0.0336  1.3934  0.8868
 8688SOL    HW237698   1.749   0.359   8.675 -1.1308  0.7658  0.9253
 8689SOL     OW37699   2.149   4.393   3.079 -0.1826  0.1921  0.6242
 8689SOL    HW137700   2.120   4.399   3.170 -0.6844  0.5387  0.4409
 8689SOL    HW237701   2.149   4.298   3.067 -1.2425  0.3672 -0.8226
 8690SOL     OW37702   3.011   2.677  16.956  0.3565  0.0655  0.0781
 8690SOL    HW137703   3.014   2.615  16.883 -0.2098 -3.1082  2.8173
 8690SOL    HW237704   3.099   2.656  16.988  1.3161  2.0882 -1.1631
 8691SOL     OW37705   1.538   1.399   4.502  0.1280 -0.7187  0.5551
 8691SOL    HW137706   1.547   1.415   4.596 -2.5752  1.1778  0.4920
 8691SOL    HW237707   1.456   1.441   4.478  0.1830 -1.4462 -0.8963
 8692SOL     OW37708   0.430   1.317   2.172  0.4240 -0.1242  0.3417
 8692SOL    HW137709   0.342   1.341   2.202 -0.3125 -2.4199  0.0055
 8692SOL    HW237710   0.424   1.224   2.193 -1.3153 -0.4464 -1.5481
 8693SOL     OW37711   4.243   0.539   8.942  0.1703  0.5496  0.2735
 8693SOL    HW137712   4.306   0.608   8.924  1.0433  0.1815  1.9322
 8693SOL    HW237713   4.243   0.553   9.037 -1.2525  2.5260 -0.0286
 8694SOL     OW37714   1.282   1.226   5.360  0.3918 -0.2457 -0.4306
 8694SOL    HW137715   1.274   1.145   5.410  0.5823  0.6061  0.9654
 8694SOL    HW237716   1.249   1.289   5.423 -0.5223 -0.8212 -0.3339
 8695SOL     OW37717   3.828   1.885  15.026  0.8052 -0.1483 -0.3893
 8695SOL    HW137718   3.735   1.896  15.048  1.0756  1.0852  0.1659
 8695SOL    HW237719   3.862   1.880  15.115  1.0869 -1.3293 -0.5707
 8696SOL     OW37720   0.709   1.340  15.338 -0.0488 -0.1056  0.3760
 8696SOL    HW137721   0.649   1.356  15.266  1.2917 -0.7232 -0.8715
 8696SOL    HW237722   0.685   1.249  15.354  0.6489  0.0304  2.2252
 8697SOL     OW37723   4.692   3.205  14.690 -0.1940 -0.3186 -0.2095
 8697SOL    HW137724   4.672   3.142  14.760 -1.9794 -0.1964 -0.6120
 8697SOL    HW237725   0.001   3.277  14.730  2.7302 -1.4682 -1.6765
 8698SOL     OW37726   2.915   1.624   9.917  0.8434  0.0442  0.7752
 8698SOL    HW137727   3.002   1.613   9.955  1.3296  0.4109 -0.2401
 8698SOL    HW237728   2.945   1.659   9.833  1.2210 -2.5118 -0.1642
 8699SOL     OW37729   4.239   1.822   7.560  0.1560 -0.6830  0.4103
 8699SOL    HW137730   4.161   1.876   7.546  0.5801  0.3024  1.8039
 8699SOL    HW237731   4.234   1.816   7.655  0.8253 -1.0222  0.4293
 8700SOL     OW37732   0.190   0.268   1.530 -0.1645 -0.3464 -0.2396
 8700SOL    HW137733   0.119   0.226   1.578  0.9307 -0.1269  1.5720
 8700SOL    HW237734   0.147   0.269   1.445 -1.6003 -1.4466  0.4823
 8701SOL     OW37735   0.356   1.626  12.375  0.1879 -0.6455 -0.4085
 8701SOL    HW137736   0.278   1.574  12.392 -0.3767 -0.1680 -1.5410
 8701SOL    HW237737   0.411   1.622  12.454  0.1145  1.2064 -0.2553
 8702SOL     OW37738   4.238   2.102   4.318  0.2479  0.4466 -0.4006
 8702SOL    HW137739   4.218   2.085   4.410 -2.6035  0.9123 -0.9475
 8702SOL    HW237740   4.153   2.132   4.285  0.3135  1.6660  0.5181
 8703SOL     OW37741   1.704   3.253   1.852  0.3286 -0.2765  0.2700
 8703SOL    HW137742   1.724   3.198   1.927  1.1184 -1.5418 -0.8668
 8703SOL    HW237743   1.759   3.329   1.872  0.5288 -0.2652 -0.3121
 8704SOL     OW37744   0.655   2.629   5.949 -0.8585 -0.6586 -0.1104
 8704SOL    HW137745   0.706   2.629   5.868 -1.4313 -0.9090 -0.4723
 8704SOL    HW237746   0.665   2.536   5.969 -0.5972 -0.6757 -0.3307
 8705SOL     OW37747   1.855   3.445   2.227  0.3137 -0.2067  0.6736
 8705SOL    HW137748   1.854   3.541   2.232  0.7878 -0.2283  1.1482
 8705SOL    HW237749   1.776   3.418   2.274  0.1179  0.1954  0.5792
 8706SOL     OW37750   2.473   3.128   3.734  0.1781  0.7718 -0.1225
 8706SOL    HW137751   2.565   3.102   3.727 -0.1621 -0.4204 -0.2415
 8706SOL    HW237752   2.479   3.191   3.806 -1.6360 -0.9567  1.5579
 8707SOL     OW37753   0.048   0.284   0.639 -0.5202  0.8862 -0.1215
 8707SOL    HW137754   0.049   0.236   0.556 -0.2114 -1.1140  1.0298
 8707SOL    HW237755   0.119   0.241   0.687 -1.0575  2.2554  1.8946
 8708SOL     OW37756   2.851   0.444   1.240 -0.1998 -0.2466 -0.1241
 8708SOL    HW137757   2.789   0.514   1.219 -1.3424 -1.0221  0.6569
 8708SOL    HW237758   2.905   0.457   1.162  1.4489  0.2861  1.1019
 8709SOL     OW37759   4.514   1.858   7.896  0.0605 -0.0145 -0.2436
 8709SOL    HW137760   4.548   1.770   7.912  1.3683  0.7086  0.9604
 8709SOL    HW237761   4.512   1.887   7.988 -1.5759  0.4901 -0.4405
 8710SOL     OW37762   1.576   1.998   4.032 -0.1990  0.0509 -0.1376
 8710SOL    HW137763   1.532   1.925   4.076 -0.0484  0.7213  1.1024
 8710SOL    HW237764   1.601   1.960   3.947 -0.2073 -1.6343  0.6236
 8711SOL     OW37765   1.333   4.173  13.736  0.4295  0.1394  0.3397
 8711SOL    HW137766   1.290   4.097  13.775  1.5773 -0.1987  0.9365
 8711SOL    HW237767   1.286   4.246  13.775 -1.0984 -1.7359  2.0016
 8712SOL     OW37768   0.765   3.950   8.513  0.1406  0.0445 -0.2833
 8712SOL    HW137769   0.714   4.028   8.537  1.9511  0.5330  1.9635
 8712SOL    HW237770   0.797   3.955   8.423  1.7471 -0.0301  0.2805
 8713SOL     OW37771   2.920   2.014   5.377  0.1326 -0.1113 -0.0641
 8713SOL    HW137772   2.847   1.999   5.317  0.1804  0.1544 -0.1856
 8713SOL    HW237773   2.884   2.081   5.435  1.1231 -0.6044  1.1333
 8714SOL     OW37774   4.579   4.690   9.118 -1.0556 -0.5623 -0.1673
 8714SOL    HW137775   4.567   4.608   9.070 -2.3229 -0.2780 -0.3151
 8714SOL    HW237776   4.649   4.658   9.175 -0.8737  0.2222  0.0495
 8715SOL     OW37777   0.067   3.031  15.567  0.5009 -0.1405  0.1186
 8715SOL    HW137778   0.060   3.117  15.528 -3.9975 -0.4831  0.0998
 8715SOL    HW237779   0.154   3.006  15.537 -0.2018 -1.9197 -0.4346
 8716SOL     OW37780   2.499   2.717   8.142  0.1794  0.0179 -0.6756
 8716SOL    HW137781   2.531   2.760   8.221 -3.3181  1.0583  0.1682
 8716SOL    HW237782   2.578   2.681   8.100 -0.8627 -2.9171 -0.1173
 8717SOL     OW37783   2.484   0.421  11.812  0.8481  0.0241  0.2294
 8717SOL    HW137784   2.540   0.480  11.761  0.2682 -1.4848 -2.1226
 8717SOL    HW237785   2.522   0.429  11.899 -0.4402 -3.5398  1.1051
 8718SOL     OW37786   3.945   0.137  17.327  0.0036 -0.6149 -0.5207
 8718SOL    HW137787   3.886   0.186  17.384 -0.6637  0.1400 -1.8439
 8718SOL    HW237788   3.893   0.079  17.272  2.8170 -3.0215 -0.6084
 8719SOL     OW37789   1.503   3.450   8.323  0.0353  0.4692 -0.3683
 8719SOL    HW137790   1.439   3.479   8.258 -0.7106  0.1906  0.2427
 8719SOL    HW237791   1.482   3.357   8.332 -0.6551  0.7399  0.8442
 8720SOL     OW37792   4.706   1.559   6.906  0.2008 -0.7223 -0.0415
 8720SOL    HW137793   0.059   1.535   6.908  0.6440  0.9009 -1.1353
 8720SOL    HW237794   4.719   1.649   6.937 -1.6321 -1.0249  1.6427
 8721SOL     OW37795   2.803   0.805   1.271  0.0644 -0.4269 -0.1730
 8721SOL    HW137796   2.727   0.854   1.301  1.3522  2.0357 -0.8499
 8721SOL    HW237797   2.761   0.748   1.207 -0.8251  0.1186 -0.0662
 8722SOL     OW37798   4.003   3.863   3.464  0.3964  0.4611 -0.3168
 8722SOL    HW137799   4.096   3.882   3.449  0.7741 -1.3204 -0.2088
 8722SOL    HW237800   3.968   3.869   3.375  0.7167  1.9938 -0.3421
 8723SOL     OW37801   2.363   1.080   2.889  0.1996  0.7061  0.0785
 8723SOL    HW137802   2.395   1.025   2.817  0.0537  0.4818  0.1858
 8723SOL    HW237803   2.308   1.144   2.845  2.3153  2.8910  0.5960
 8724SOL     OW37804   1.849   0.074  13.145 -0.6299  0.2388  0.3464
 8724SOL    HW137805   1.827   0.142  13.082  0.5459 -0.4691 -0.8222
 8724SOL    HW237806   1.920   0.110  13.198 -0.5181 -0.1131  0.4370
 8725SOL     OW37807   2.392   3.611   5.674  0.9127  0.4605 -0.5001
 8725SOL    HW137808   2.386   3.619   5.769 -1.3507 -0.2407 -0.5822
 8725SOL    HW237809   2.487   3.606   5.664  1.0775 -0.4434  1.5293
 8726SOL     OW37810   0.298   2.913   6.127  0.1973 -0.3807 -0.0435
 8726SOL    HW137811   0.327   2.988   6.178  2.5273 -1.2957 -0.0087
 8726SOL    HW237812   0.352   2.915   6.048  0.9226 -0.1929  0.4535
 8727SOL     OW37813   1.559   1.007   6.982  0.1848 -0.2458 -0.6596
 8727SOL    HW137814   1.547   0.956   6.902  3.2191 -0.1364 -1.1831
 8727SOL    HW237815   1.471   1.044   6.992 -0.0457 -1.0210  0.2043
 8728SOL     OW37816   4.158   4.273  16.642  0.2306  0.0815 -0.4431
 8728SOL    HW137817   4.165   4.312  16.555 -1.0419  0.3602 -0.4195
 8728SOL    HW237818   4.208   4.194  16.620 -0.1104 -0.5395  1.0240
 8729SOL     OW37819   3.319   2.223   6.306  0.3787 -0.0899 -0.6216
 8729SOL    HW137820   3.260   2.284   6.351  0.3094 -0.6871  0.1002
 8729SOL    HW237821   3.402   2.267   6.326 -0.2792  0.8533  0.0636
 8730SOL     OW37822   0.386   0.525   1.727  0.2436  0.0971  0.4243
 8730SOL    HW137823   0.417   0.608   1.763  0.3485  0.1545  0.2034
 8730SOL    HW237824   0.472   0.483   1.726  0.8044  1.2001  2.1592
 8731SOL     OW37825   2.169   2.201   2.887  0.4431 -0.1309  0.5247
 8731SOL    HW137826   2.128   2.249   2.958  0.2718  1.1697 -0.4501
 8731SOL    HW237827   2.244   2.254   2.861  0.7145  0.3944  2.3910
 8732SOL     OW37828   0.834   2.615   9.009  0.0730  0.4176 -0.4225
 8732SOL    HW137829   0.899   2.549   9.033  1.0965  1.1540 -1.1816
 8732SOL    HW237830   0.866   2.657   8.929 -0.0843  0.2005 -0.6027
 8733SOL     OW37831   2.668   0.378   7.851  0.5400  0.7052  0.4950
 8733SOL    HW137832   2.582   0.379   7.808  0.1627  0.0893  1.2369
 8733SOL    HW237833   2.668   0.439   7.925 -0.2745  0.4926  0.6754
 8734SOL     OW37834   1.653   3.932   1.868  0.5065  0.3330  0.2945
 8734SOL    HW137835   1.590   3.906   1.936  0.7674  1.5695  1.0001
 8734SOL    HW237836   1.601   3.887   1.802  0.8971  0.0558  0.1772
 8735SOL     OW37837   3.026   3.587   4.856  0.1001 -0.0070 -0.1014
 8735SOL    HW137838   3.106   3.616   4.900 -0.6565  2.5507 -0.3626
 8735SOL    HW237839   3.039   3.493   4.868 -2.0440 -0.1659  0.8621
 8736SOL     OW37840   3.222   1.750   2.890  0.0366 -0.1938  0.4824
 8736SOL    HW137841   3.128   1.767   2.879  0.5730  1.9310 -0.9061
 8736SOL    HW237842   3.262   1.816   2.834  1.1910 -1.4608 -0.1702
 8737SOL     OW37843   1.635   0.358   7.268  0.3207  0.3019 -0.2111
 8737SOL    HW137844   1.713   0.363   7.324  0.1697 -2.0194  0.2186
 8737SOL    HW237845   1.658   0.282   7.214 -0.0066  1.3604 -1.8552
 8738SOL     OW37846   3.992   4.333  12.765  0.0933 -0.7514  0.1285
 8738SOL    HW137847   4.066   4.275  12.780  1.5547  0.9543 -0.5786
 8738SOL    HW237848   4.007   4.409  12.822 -1.7165 -0.7349  0.6139
 8739SOL     OW37849   1.718   3.124  16.205 -0.1379  0.6359  0.3534
 8739SOL    HW137850   1.795   3.077  16.173 -0.4247 -0.1161  0.7697
 8739SOL    HW237851   1.671   3.137  16.122 -0.1345  1.2863  0.4550
 8740SOL     OW37852   1.169   0.840   2.840  0.1167  0.4996  0.2247
 8740SOL    HW137853   1.254   0.882   2.856  0.3890 -0.2903  0.8756
 8740SOL    HW237854   1.175   0.767   2.902 -0.5935  0.5457  0.3490
 8741SOL     OW37855   1.997   3.707  12.435  0.3140 -0.5522  0.2440
 8741SOL    HW137856   2.046   3.744  12.360  1.1705  0.8790  1.5052
 8741SOL    HW237857   2.049   3.632  12.464 -0.1395 -0.6529  0.7708
 8742SOL     OW37858   1.630   3.239  10.580 -0.0815 -0.6923 -0.1438
 8742SOL    HW137859   1.645   3.301  10.653 -1.0021  0.9134 -1.3191
 8742SOL    HW237860   1.565   3.184  10.623  1.4129 -1.2055  1.4808
 8743SOL     OW37861   1.225   4.679   5.785  0.3505  0.2434  0.1722
 8743SOL    HW137862   1.233   4.586   5.805  1.6309  0.7553  2.0270
 8743SOL    HW237863   1.235   4.668   5.690 -0.8784 -2.1216  0.3067
 8744SOL     OW37864   1.631   4.132   8.016 -0.2313  0.8593  0.2276
 8744SOL    HW137865   1.589   4.046   8.016  0.2772  0.6092 -1.6133
 8744SOL    HW237866   1.608   4.164   8.103  2.4400  0.4931  1.0741
 8745SOL     OW37867   2.533   1.836   1.255 -0.4596 -0.5162  0.1842
 8745SOL    HW137868   2.583   1.917   1.255 -1.7712  0.2916 -0.0414
 8745SOL    HW237869   2.550   1.808   1.165 -0.6154 -0.6919  0.2092
 8746SOL     OW37870   1.213   2.590  14.898  0.3525 -0.1891 -0.4103
 8746SOL    HW137871   1.248   2.594  14.809 -0.2252 -1.2768 -0.6785
 8746SOL    HW237872   1.161   2.510  14.897 -0.0970  0.0835  1.1136
 8747SOL     OW37873   3.599   1.345  17.431 -0.2836 -0.7428  0.2541
 8747SOL    HW137874   3.545   1.423  17.444  1.3593  0.6819 -1.4744
 8747SOL    HW237875   3.528   1.294  17.391 -1.2276 -0.1194  1.1589
 8748SOL     OW37876   1.017   1.736   8.419  0.3642  0.6346  0.1966
 8748SOL    HW137877   1.034   1.644   8.398 -1.1929 -0.1957  2.4259
 8748SOL    HW237878   0.991   1.767   8.333 -0.6856 -0.8442 -0.0223
 8749SOL     OW37879   0.202   3.219   2.643  0.1020  0.3459 -0.3388
 8749SOL    HW137880   0.166   3.131   2.652 -3.4852  2.0276  1.6250
 8749SOL    HW237881   0.140   3.249   2.577 -2.8101 -2.2610  1.2205
 8750SOL     OW37882   1.103   3.358   2.820  0.2961 -0.0093 -0.1247
 8750SOL    HW137883   1.042   3.423   2.784  0.3445  0.8215  1.2753
 8750SOL    HW237884   1.039   3.328   2.885  0.7183  2.0387  1.2398
 8751SOL     OW37885   2.862   1.870   1.832  0.2012  0.5086 -0.1375
 8751SOL    HW137886   2.779   1.826   1.849  0.8496 -0.2974  0.9804
 8751SOL    HW237887   2.926   1.799   1.825  0.1421  0.8337 -3.7089
 8752SOL     OW37888   2.281   3.634  11.769  0.0526  0.5001 -0.0911
 8752SOL    HW137889   2.374   3.656  11.760 -0.4651  2.3196 -0.9735
 8752SOL    HW237890   2.241   3.670  11.690  2.6046 -0.0570 -1.6466
 8753SOL     OW37891   4.525   0.394   5.945 -0.1426 -0.4610 -0.2176
 8753SOL    HW137892   4.588   0.462   5.970 -1.3911  0.7611 -0.3306
 8753SOL    HW237893   4.498   0.353   6.027 -1.2235 -0.4751 -0.5729
 8754SOL     OW37894   2.569   4.597  12.761  0.4985  0.1219 -0.3021
 8754SOL    HW137895   2.604   4.508  12.769 -0.2260 -0.0483  0.8974
 8754SOL    HW237896   2.647   4.652  12.761  1.1436 -0.8162  2.4000
 8755SOL     OW37897   0.362   4.162   5.193 -0.0371 -0.4511  0.1450
 8755SOL    HW137898   0.346   4.087   5.250  0.8550 -0.6069  0.1867
 8755SOL    HW237899   0.417   4.116   5.129 -0.1092  1.3254 -1.1775
 8756SOL     OW37900   4.176   3.757  16.499 -0.3436 -0.2335  0.1296
 8756SOL    HW137901   4.139   3.681  16.454  0.0795 -1.1537  1.3465
 8756SOL    HW237902   4.251   3.721  16.546 -1.6805 -1.6172  1.1705
 8757SOL     OW37903   0.131   3.883   4.813 -0.6931 -0.0942  0.2721
 8757SOL    HW137904   0.220   3.918   4.820  0.2367 -2.3549 -0.3999
 8757SOL    HW237905   0.088   3.872   4.898 -1.7203  1.3797 -0.0504
 8758SOL     OW37906   4.249   2.363   2.326  0.3287  0.1891  0.4994
 8758SOL    HW137907   4.155   2.380   2.328 -0.2148 -2.6145 -1.8267
 8758SOL    HW237908   4.264   2.294   2.262  0.2594 -1.1443  1.9065
 8759SOL     OW37909   3.046   2.298   1.492  0.3573  0.3880  0.4676
 8759SOL    HW137910   2.984   2.317   1.563  0.6096  1.2310  0.4587
 8759SOL    HW237911   3.040   2.203   1.484  1.0601  0.4663 -1.0323
 8760SOL     OW37912   3.402   2.330   3.294 -0.4287  0.0491  0.0231
 8760SOL    HW137913   3.357   2.280   3.225  1.1971  0.3288 -1.2579
 8760SOL    HW237914   3.408   2.272   3.370  2.6807  2.1450  1.3810
 8761SOL     OW37915   0.227   2.806   8.642 -0.9224 -0.2640 -0.2882
 8761SOL    HW137916   0.167   2.797   8.567  0.1290  0.2304 -1.1862
 8761SOL    HW237917   0.174   2.864   8.696  0.7832  0.9660  0.0607
 8762SOL     OW37918   1.476   1.716  10.103  0.3391  0.2145 -0.0499
 8762SOL    HW137919   1.458   1.784  10.038 -1.4288  0.0655  0.3010
 8762SOL    HW237920   1.453   1.635  10.057  2.0287 -0.9870  1.1935
 8763SOL     OW37921   3.402   4.318   3.942 -0.0467 -0.3611 -0.0207
 8763SOL    HW137922   3.333   4.253   3.927  0.7802 -1.5235  1.2455
 8763SOL    HW237923   3.396   4.364   3.858 -2.1720 -2.0007 -0.7601
 8764SOL     OW37924   0.044   3.350   6.451 -1.0321 -0.1762  0.2291
 8764SOL    HW137925   0.138   3.350   6.471 -1.0081 -1.2269  0.0652
 8764SOL    HW237926   0.015   3.284   6.514 -1.4648  0.1655  0.3864
 8765SOL     OW37927   3.767   1.800   6.112  0.0864 -0.5369  0.2614
 8765SOL    HW137928   3.788   1.847   6.031 -0.1540 -1.9946 -0.6525
 8765SOL    HW237929   3.672   1.789   6.108 -0.2563  1.9225  1.5886
 8766SOL     OW37930   1.718   3.588   7.636  0.3926  0.4505 -0.0318
 8766SOL    HW137931   1.687   3.648   7.703 -0.2486 -0.3100  0.3466
 8766SOL    HW237932   1.799   3.627   7.602  0.5435 -0.1045 -0.3097
 8767SOL     OW37933   1.083   1.280   8.393 -0.4407 -0.0941 -0.1040
 8767SOL    HW137934   1.174   1.293   8.369 -0.7171  2.6052  0.3010
 8767SOL    HW237935   1.093   1.242   8.480 -2.4714  0.4013  0.3450
 8768SOL     OW37936   2.977   3.530  13.103  0.0077  0.1995  0.4936
 8768SOL    HW137937   3.061   3.566  13.075  0.4600  1.0865  3.0096
 8768SOL    HW237938   3.004   3.482  13.182  1.6725 -1.3394 -1.0122
 8769SOL     OW37939   4.051   4.636   3.690 -0.5623  0.1615 -0.2006
 8769SOL    HW137940   4.013   4.562   3.642 -2.1167  0.3150  0.7934
 8769SOL    HW237941   4.137   4.606   3.718 -0.6208 -0.8054 -1.0191
 8770SOL     OW37942   3.978   3.671   5.654 -0.3185  0.4758  0.2880
 8770SOL    HW137943   3.986   3.688   5.748 -0.5592  1.1436  0.1940
 8770SOL    HW237944   3.900   3.616   5.653  0.2838 -0.3896  1.2663
 8771SOL     OW37945   4.001   2.918   9.348  0.1502  0.5433  0.3690
 8771SOL    HW137946   3.944   2.910   9.425 -1.8994  1.8309 -0.9955
 8771SOL    HW237947   4.042   2.832   9.350  0.3339  0.6002 -0.7412
 8772SOL     OW37948   0.179   1.463  12.229  0.8386  0.1961  0.6186
 8772SOL    HW137949   0.270   1.473  12.255  0.6815 -0.2622  1.3526
 8772SOL    HW237950   0.168   1.412  12.148 -0.2278 -1.6155  1.8955
 8773SOL     OW37951   3.270   2.771   6.235  0.2632  0.6265  0.3957
 8773SOL    HW137952   3.352   2.734   6.202  0.9195  1.0747  1.5444
 8773SOL    HW237953   3.218   2.691   6.231  0.0897  0.6791  1.7405
 8774SOL     OW37954   4.239   3.489  16.026 -0.5021 -0.3206 -0.4091
 8774SOL    HW137955   4.257   3.490  16.120  0.8150  0.0040 -0.6646
 8774SOL    HW237956   4.249   3.395  16.013 -1.3621 -0.1641 -2.2142
 8775SOL     OW37957   3.596   1.008   3.909  0.1012 -0.1393  0.3873
 8775SOL    HW137958   3.628   1.009   3.819  2.5028  2.9311  1.2935
 8775SOL    HW237959   3.563   1.097   3.921 -0.2833 -0.5012  1.9858
 8776SOL     OW37960   0.163   0.484   9.021  0.2775  0.7465 -0.0961
 8776SOL    HW137961   0.085   0.498   8.967 -0.7166 -0.3611  1.0467
 8776SOL    HW237962   0.126   0.457   9.105  0.8494  3.1898  0.9229
 8777SOL     OW37963   1.390   2.070   0.799 -0.2755  0.6651  0.1503
 8777SOL    HW137964   1.471   2.066   0.748 -0.4797 -0.1167 -0.1085
 8777SOL    HW237965   1.329   2.093   0.729 -0.3417 -0.7845 -0.2733
 8778SOL     OW37966   2.248   2.136   9.834 -0.0750  0.0649 -0.3136
 8778SOL    HW137967   2.218   2.191   9.907 -0.1395 -0.0237 -0.2741
 8778SOL    HW237968   2.288   2.061   9.878  0.7531 -0.1402 -1.4080
 8779SOL     OW37969   4.404   1.435   2.226  0.2157 -0.3697 -0.2967
 8779SOL    HW137970   4.473   1.376   2.197 -0.9831 -1.2626 -1.3406
 8779SOL    HW237971   4.463   1.483   2.284 -0.3231 -2.0806  1.6915
 8780SOL     OW37972   0.072   1.735  15.344 -0.2574  0.3120 -0.2730
 8780SOL    HW137973   0.069   1.699  15.432  2.4968  1.2746  0.2077
 8780SOL    HW237974   0.040   1.823  15.365 -0.7417  0.4054 -1.3822
 8781SOL     OW37975   4.462   3.948   6.016 -0.0610  0.2701 -0.0114
 8781SOL    HW137976   4.406   3.972   5.942  0.5667 -0.2507 -0.6621
 8781SOL    HW237977   4.446   4.025   6.071 -3.9362 -0.5128 -0.0350
 8782SOL     OW37978   2.001   1.424   3.454  0.1174  0.3487 -0.3366
 8782SOL    HW137979   2.081   1.415   3.403  0.9338 -2.2877  1.4151
 8782SOL    HW237980   1.938   1.373   3.403 -2.2811  2.2739  0.6645
 8783SOL     OW37981   2.914   1.490   8.570  0.7620 -0.4171  0.5556
 8783SOL    HW137982   2.936   1.526   8.484  0.4379  0.3706  0.8041
 8783SOL    HW237983   2.821   1.511   8.569  0.7726 -0.4513 -1.4198
 8784SOL     OW37984   2.433   1.305   3.221  0.7749  0.8782  0.0413
 8784SOL    HW137985   2.520   1.336   3.248  1.1858 -1.2222  1.2092
 8784SOL    HW237986   2.453   1.247   3.148 -1.5763  0.2237 -0.0706
 8785SOL     OW37987   2.694   2.998   7.412  0.6338  0.4476  0.0655
 8785SOL    HW137988   2.684   3.000   7.507 -1.8711 -3.3263 -0.1149
 8785SOL    HW237989   2.708   2.904   7.400  1.8270  0.4842  1.0966
 8786SOL     OW37990   3.396   0.951   6.165 -0.5920 -0.0824 -0.8011
 8786SOL    HW137991   3.395   1.019   6.098  2.1911  2.9953  2.3051
 8786SOL    HW237992   3.304   0.947   6.189 -0.0940  2.0510  1.4834
 8787SOL     OW37993   1.959   3.746  10.481 -0.1273  0.0692  0.4690
 8787SOL    HW137994   2.021   3.690  10.529 -0.5454  0.1264  1.0735
 8787SOL    HW237995   1.990   3.727  10.392  0.8130 -0.8712  0.9989
 8788SOL     OW37996   2.929   1.158   2.813  0.7522 -0.3868  0.7574
 8788SOL    HW137997   3.010   1.198   2.845  0.5848  1.8915 -1.7244
 8788SOL    HW237998   2.890   1.136   2.898  1.0066 -2.0212  0.4518
 8789SOL     OW37999   3.393   1.568   3.555 -0.2473  0.2827 -0.2279
 8789SOL    HW138000   3.454   1.519   3.610 -0.2525 -1.7692 -2.0404
 8789SOL    HW238001   3.360   1.626   3.623  4.1455 -0.3361  2.3884
 8790SOL     OW38002   3.009   2.602   1.748 -0.6018  0.3768  0.0612
 8790SOL    HW138003   2.946   2.540   1.711 -0.8592 -0.1835  1.4073
 8790SOL    HW238004   2.972   2.597   1.837 -0.6125  0.4348  0.0598
 8791SOL     OW38005   3.145   2.465  10.392 -0.1816  0.6238  0.1843
 8791SOL    HW138006   3.062   2.504  10.364  1.0059  1.5364 -2.1077
 8791SOL    HW238007   3.184   2.533  10.446 -0.0363  1.8265 -1.4247
 8792SOL     OW38008   4.193   3.460   5.609  0.8551 -0.2772  0.1279
 8792SOL    HW138009   4.144   3.532   5.651 -0.7677 -1.3292  0.0365
 8792SOL    HW238010   4.259   3.502   5.554 -1.9836 -0.4028 -3.4240
 8793SOL     OW38011   1.827   4.377   8.530 -0.6949 -0.1485 -0.5015
 8793SOL    HW138012   1.733   4.396   8.524 -1.1079 -2.6898 -1.8442
 8793SOL    HW238013   1.824   4.319   8.454  1.0919 -0.8813 -0.0046
 8794SOL     OW38014   1.787   1.188   2.121  0.4230  0.1247 -0.1811
 8794SOL    HW138015   1.734   1.229   2.189 -1.4723 -0.2545 -1.4490
 8794SOL    HW238016   1.866   1.243   2.117 -0.0534  0.9575  1.9894
 8795SOL     OW38017   0.819   2.896   8.862 -0.4472  0.8022  0.0335
 8795SOL    HW138018   0.812   2.929   8.773  1.3627 -0.2795 -0.5058
 8795SOL    HW238019   0.909   2.909   8.892 -0.5593  1.6989 -0.0291
 8796SOL     OW38020   4.242   1.575  15.984  0.4841 -0.5835 -0.0385
 8796SOL    HW138021   4.257   1.567  16.079  0.0223 -0.6884  0.0238
 8796SOL    HW238022   4.149   1.558  15.977  0.3373  0.2349 -0.0434
 8797SOL     OW38023   1.662   4.245   6.766 -0.1113  0.5742  0.1825
 8797SOL    HW138024   1.665   4.202   6.680  0.1678  3.1963 -1.1223
 8797SOL    HW238025   1.666   4.174   6.830  0.7888  0.3712 -0.0927
 8798SOL     OW38026   1.813   4.351   6.143 -0.0218  0.2094 -0.2951
 8798SOL    HW138027   1.784   4.315   6.227  1.0128 -0.8662 -0.4054
 8798SOL    HW238028   1.872   4.423   6.164  1.2734 -1.1889  0.8499
 8799SOL     OW38029   2.408   2.333   8.419  0.1673  0.1668  0.3077
 8799SOL    HW138030   2.368   2.416   8.393 -2.8718 -1.3896  0.0199
 8799SOL    HW238031   2.479   2.321   8.356 -0.2702  1.6520 -0.4670
 8800SOL     OW38032   1.946   1.399   6.665  0.1850  0.1312  0.0802
 8800SOL    HW138033   1.888   1.330   6.698  0.2991  0.1249  0.2697
 8800SOL    HW238034   1.902   1.468   6.715  1.4549  0.0611  1.2982
 8801SOL     OW38035   2.721   0.611  11.311 -0.3101 -0.4740 -0.1008
 8801SOL    HW138036   2.718   0.683  11.247 -3.2284 -0.7974 -0.3389
 8801SOL    HW238037   2.716   0.531  11.258  1.1520 -0.0774 -0.8657
 8802SOL     OW38038   1.021   1.355   7.563 -0.3986  0.2979  0.0083
 8802SOL    HW138039   1.115   1.345   7.576 -0.2571  0.7770 -0.6448
 8802SOL    HW238040   0.990   1.280   7.512 -0.9647  1.3923 -1.2632
 8803SOL     OW38041   0.425   3.599  12.451  0.1095 -0.0507  0.0981
 8803SOL    HW138042   0.366   3.528  12.478  1.3426 -0.3293  2.0745
 8803SOL    HW238043   0.382   3.630  12.371 -2.2856  1.4883  1.9562
 8804SOL     OW38044   1.451   1.841  13.047 -0.4681  0.1867 -0.1374
 8804SOL    HW138045   1.452   1.808  13.138 -0.1263  0.4691 -0.0389
 8804SOL    HW238046   1.433   1.764  12.993  0.4428 -0.3235  0.2643
 8805SOL     OW38047   0.987   3.228   5.028 -0.5542 -0.2574  0.7626
 8805SOL    HW138048   0.916   3.254   4.969  0.1629  0.5013  0.2327
 8805SOL    HW238049   1.069   3.255   4.987 -0.3036 -1.2693  0.5938
 8806SOL     OW38050   1.912   3.397   9.773 -0.2249 -0.1796  0.1754
 8806SOL    HW138051   1.847   3.428   9.710  0.0252  0.5373  0.2747
 8806SOL    HW238052   1.982   3.461   9.762  0.4802 -1.2643 -1.7196
 8807SOL     OW38053   1.315   1.172   6.498  0.0598 -0.2886 -0.1916
 8807SOL    HW138054   1.315   1.115   6.574  0.5686  0.2196  0.1899
 8807SOL    HW238055   1.281   1.116   6.428  1.3298 -2.2108  0.7402
 8808SOL     OW38056   3.976   4.419  15.848 -0.1388 -0.4965 -0.2716
 8808SOL    HW138057   3.919   4.487  15.812  0.0646  1.5722  3.3296
 8808SOL    HW238058   4.049   4.427  15.788  1.6200 -1.7171  1.6945
 8809SOL     OW38059   4.529   2.380  12.782  0.0623 -0.2229 -0.0126
 8809SOL    HW138060   4.538   2.284  12.785 -0.0347 -0.2320 -0.0169
 8809SOL    HW238061   4.585   2.404  12.708  0.8161 -1.5212  0.1212
 8810SOL     OW38062   0.690   4.304   6.808 -0.4923 -0.2726 -0.7961
 8810SOL    HW138063   0.698   4.380   6.751 -1.6056 -0.2446 -0.9217
 8810SOL    HW238064   0.663   4.353   6.885  0.9347  1.2142 -1.2630
 8811SOL     OW38065   4.709   0.354   2.935  0.3987  0.1949  0.4568
 8811SOL    HW138066   4.630   0.359   2.989 -0.3508  0.9523 -0.7245
 8811SOL    HW238067   4.682   0.272   2.893 -0.5916  0.0406  1.3908
 8812SOL     OW38068   3.030   0.356   0.948 -0.1183 -0.3144  0.4479
 8812SOL    HW138069   3.065   0.427   0.895  1.3876 -1.8866 -0.7025
 8812SOL    HW238070   3.105   0.296   0.958 -0.1886 -0.6844 -1.2015
 8813SOL     OW38071   2.813   1.104   8.370  0.0584  0.0647  0.1607
 8813SOL    HW138072   2.768   1.038   8.317  1.5605  0.2214 -1.3103
 8813SOL    HW238073   2.886   1.117   8.310  0.3040  1.0900  0.6795
 8814SOL     OW38074   0.684   0.384   3.529  0.2873 -0.1069 -0.6469
 8814SOL    HW138075   0.631   0.313   3.564 -1.2406  1.0234 -0.6548
 8814SOL    HW238076   0.750   0.383   3.598 -1.4042  0.1893  0.9754
 8815SOL     OW38077   3.916   3.009   5.707  0.3405 -0.0027  0.2598
 8815SOL    HW138078   3.990   2.949   5.697 -1.0957 -1.9804  1.7686
 8815SOL    HW238079   3.853   2.948   5.669 -1.0744  1.5686  0.0728
 8816SOL     OW38080   0.919   3.000   6.101  0.4255  0.7867  0.3473
 8816SOL    HW138081   0.998   3.054   6.095  0.2666  0.9334 -0.4347
 8816SOL    HW238082   0.955   2.925   6.147  1.0834 -0.0023 -1.4555
 8817SOL     OW38083   1.849   0.833   7.362 -0.5602 -0.4091 -0.6989
 8817SOL    HW138084   1.756   0.836   7.340 -0.4964 -1.7971 -1.1533
 8817SOL    HW238085   1.847   0.920   7.402  0.1578 -0.1542 -1.2194
 8818SOL     OW38086   0.216   0.571  11.873  0.2374  0.0729 -0.2370
 8818SOL    HW138087   0.267   0.517  11.813 -0.2895  0.0796 -0.6952
 8818SOL    HW238088   0.167   0.506  11.923  0.4769  1.2694  1.5870
 8819SOL     OW38089   3.011   0.519   7.094  0.6752 -0.2398  0.2298
 8819SOL    HW138090   3.088   0.473   7.130 -0.9521 -1.4267  2.1707
 8819SOL    HW238091   3.045   0.579   7.028 -0.8300 -0.4617 -0.7428
 8820SOL     OW38092   0.553   4.358   5.231  0.3866  0.1942  0.6277
 8820SOL    HW138093   0.466   4.318   5.237  0.2424  0.3699 -0.3151
 8820SOL    HW238094   0.554   4.404   5.315  0.1676  0.7561  0.3157
 8821SOL     OW38095   4.399   4.460   2.949 -0.5455 -0.0656  0.5321
 8821SOL    HW138096   4.422   4.367   2.945 -1.7914 -0.1886 -3.3031
 8821SOL    HW238097   4.446   4.493   2.872  1.4887  1.9276  2.6112
 8822SOL     OW38098   0.218   1.442   4.175  0.2997 -0.0112 -0.3245
 8822SOL    HW138099   0.256   1.391   4.247  0.9901  0.8058 -0.1162
 8822SOL    HW238100   0.132   1.398   4.176 -0.2958  1.1723  1.2021
 8823SOL     OW38101   1.756   2.132   7.982 -0.3704 -0.5857  0.3340
 8823SOL    HW138102   1.831   2.101   7.930  1.0248  0.7680  1.5452
 8823SOL    HW238103   1.801   2.135   8.067  0.3661 -1.8043 -0.0007
 8824SOL     OW38104   0.024   4.546   1.438  0.4358 -0.1950 -0.0940
 8824SOL    HW138105   0.031   4.485   1.512  1.5827 -0.9584 -0.8333
 8824SOL    HW238106   0.102   4.520   1.390 -0.4280 -0.4720 -1.3417
 8825SOL     OW38107   0.963   1.621  11.640  0.1759 -0.0382  0.0685
 8825SOL    HW138108   1.011   1.563  11.700 -0.4061  0.6576  1.2120
 8825SOL    HW238109   1.019   1.698  11.648  1.6850 -1.0883 -0.4571
 8826SOL     OW38110   1.081   0.352   4.657  0.3992 -0.3847  0.0634
 8826SOL    HW138111   1.168   0.358   4.617  0.6491 -0.7459  0.5560
 8826SOL    HW238112   1.099   0.382   4.746  2.1751 -2.2244  0.3158
 8827SOL     OW38113   3.776   2.334   6.456 -0.1808  0.1967 -0.5776
 8827SOL    HW138114   3.817   2.271   6.396  2.7968  1.0602  0.5604
 8827SOL    HW238115   3.840   2.404   6.467  0.4301 -0.0764 -2.3745
 8828SOL     OW38116   3.807   2.394   3.010 -0.0144 -0.3530 -0.2652
 8828SOL    HW138117   3.751   2.419   3.083 -3.0102 -0.4113 -2.5691
 8828SOL    HW238118   3.777   2.307   2.984 -0.9529 -0.6592  1.8552
 8829SOL     OW38119   1.291   2.667   2.467  0.1878 -0.9335  0.0284
 8829SOL    HW138120   1.208   2.697   2.430  1.5723 -0.9439 -3.0969
 8829SOL    HW238121   1.316   2.744   2.518 -0.9228  0.7900 -2.0240
 8830SOL     OW38122   1.631   2.489  14.817 -0.1989 -0.9773  0.3048
 8830SOL    HW138123   1.675   2.439  14.885 -0.9515  1.5635  2.6490
 8830SOL    HW238124   1.601   2.572  14.853 -0.9512 -1.4555  0.7905
 8831SOL     OW38125   1.527   3.117   8.266 -0.0374  0.2255 -0.3688
 8831SOL    HW138126   1.563   3.063   8.196 -0.0800 -0.0409 -0.1830
 8831SOL    HW238127   1.509   3.055   8.336 -1.0239 -0.2651 -1.0539
 8832SOL     OW38128   0.224   0.765   4.519 -0.0964 -0.0490 -0.2994
 8832SOL    HW138129   0.169   0.809   4.455 -1.1895  2.2895  2.2574
 8832SOL    HW238130   0.183   0.791   4.601  0.8420 -1.2979  0.5722
 8833SOL     OW38131   1.010   2.626   5.464 -0.0387 -0.1715  0.0545
 8833SOL    HW138132   0.965   2.683   5.402 -0.3684 -0.2016  0.2670
 8833SOL    HW238133   1.002   2.679   5.543  1.7949  1.4397 -0.8258
 8834SOL     OW38134   2.862   3.709  13.404 -0.5800  0.2037 -0.3018
 8834SOL    HW138135   2.797   3.643  13.380 -0.6408  0.7192 -1.5688
 8834SOL    HW238136   2.863   3.759  13.322  1.3347  0.0013 -0.4038
 8835SOL     OW38137   2.583   0.768  15.728  0.2027  0.3730  0.3405
 8835SOL    HW138138   2.496   0.760  15.689  0.8571 -2.4404 -0.5042
 8835SOL    HW238139   2.603   0.853  15.689 -1.6562 -0.0114 -1.4103
 8836SOL     OW38140   4.508   1.184   4.841  0.5066 -0.5278 -0.6415
 8836SOL    HW138141   4.498   1.175   4.935 -0.6202 -1.8288 -0.8829
 8836SOL    HW238142   4.527   1.093   4.815 -1.3581 -0.3936 -2.5224
 8837SOL     OW38143   1.966   1.767   9.574  0.1729  0.2840  0.1513
 8837SOL    HW138144   1.897   1.771   9.508 -0.3659  1.3270  0.7742
 8837SOL    HW238145   1.922   1.729   9.650 -0.4259 -0.0452 -0.3607
 8838SOL     OW38146   1.489   1.228  14.467 -0.1064  0.1262  0.1040
 8838SOL    HW138147   1.486   1.315  14.508 -0.4442 -1.0496  2.5852
 8838SOL    HW238148   1.532   1.248  14.384 -0.6884  0.2035 -0.1816
 8839SOL     OW38149   0.803   2.841  12.206  0.8760 -0.0785  0.7661
 8839SOL    HW138150   0.727   2.837  12.264  0.1312  1.4758 -0.1119
 8839SOL    HW238151   0.854   2.907  12.254  2.6537  0.3943 -1.7647
 8840SOL     OW38152   0.588   2.046   8.525  0.1105  0.1632 -0.2732
 8840SOL    HW138153   0.637   2.121   8.559 -0.8732  0.8873 -0.4494
 8840SOL    HW238154   0.653   1.976   8.528  1.1463  1.1608  0.4574
 8841SOL     OW38155   3.334   4.482   3.727  0.4084  0.7349  0.0824
 8841SOL    HW138156   3.268   4.414   3.713  0.2157  1.0920 -0.7292
 8841SOL    HW238157   3.285   4.562   3.746 -2.0023 -1.0381  1.2960
 8842SOL     OW38158   4.376   0.545   5.484 -0.2091  0.1954  0.0161
 8842SOL    HW138159   4.373   0.610   5.414  3.7236 -0.9962 -1.2724
 8842SOL    HW238160   4.360   0.461   5.441  1.2626 -0.2677  0.3815
 8843SOL     OW38161   2.804   3.817   1.983  0.1893  0.1901 -0.3668
 8843SOL    HW138162   2.795   3.904   1.944 -1.8330 -0.3626 -1.1702
 8843SOL    HW238163   2.756   3.753   1.930 -0.8106  1.0571 -0.5221
 8844SOL     OW38164   0.757   3.316   7.270  0.0983  0.7012 -0.3640
 8844SOL    HW138165   0.782   3.266   7.348 -0.0529  1.7338  0.3448
 8844SOL    HW238166   0.663   3.301   7.257  0.1550  0.2057 -0.2174
 8845SOL     OW38167   4.174   3.509   5.216  0.2188  0.3552 -0.2107
 8845SOL    HW138168   4.243   3.530   5.153  0.6824 -4.3780 -1.2771
 8845SOL    HW238169   4.193   3.419   5.243 -0.0605  0.2704 -0.2966
 8846SOL     OW38170   1.729   3.592   7.217  0.2123 -0.5708 -0.1120
 8846SOL    HW138171   1.691   3.538   7.148  1.2985 -2.8150  1.0385
 8846SOL    HW238172   1.649   3.592   7.269 -1.1586  1.5970 -2.2622
 8847SOL     OW38173   3.835   4.623  15.708 -1.0867  0.1180  0.3213
 8847SOL    HW138174   3.841   4.674  15.788  0.0083  0.6473 -0.0937
 8847SOL    HW238175   3.745   4.641  15.683 -1.0908  0.7562  0.8067
 8848SOL     OW38176   3.582   0.730   5.397 -0.5911  0.3594  0.1716
 8848SOL    HW138177   3.488   0.727   5.381 -0.8045  0.7443  1.3270
 8848SOL    HW238178   3.607   0.821   5.379  2.3907 -0.4988 -0.0156
 8849SOL     OW38179   4.189   3.747   3.966  0.0154  0.0839 -0.0683
 8849SOL    HW138180   4.141   3.669   3.938  2.9830 -1.6915 -0.2375
 8849SOL    HW238181   4.280   3.718   3.965 -0.1466 -0.3988 -0.9132
 8850SOL     OW38182   3.423   2.946   7.172  0.0695 -0.2134  0.1618
 8850SOL    HW138183   3.397   2.863   7.212  1.2420 -0.4145  0.5229
 8850SOL    HW238184   3.514   2.946   7.202 -0.1478 -0.4733  0.8316
 8851SOL     OW38185   3.243   1.659   6.165 -0.4117 -0.5810 -0.0462
 8851SOL    HW138186   3.189   1.672   6.086 -1.3748 -0.1351  0.6826
 8851SOL    HW238187   3.238   1.564   6.180  0.8523 -0.3614  1.6383
 8852SOL     OW38188   3.519   3.626   5.935  0.8153 -0.5370 -0.2262
 8852SOL    HW138189   3.490   3.701   5.884  0.9293 -0.2981  0.0588
 8852SOL    HW238190   3.438   3.589   5.968  1.6512 -1.6593  0.5646
 8853SOL     OW38191   3.878   3.403   9.092 -0.2924 -0.5645 -0.2499
 8853SOL    HW138192   3.968   3.428   9.074 -0.1613 -0.6210  0.3205
 8853SOL    HW238193   3.872   3.321   9.042  0.4945 -0.6916 -0.1354
 8854SOL     OW38194   2.184   3.565   1.263  0.2237  0.3182  0.1047
 8854SOL    HW138195   2.183   3.472   1.283  0.8941  0.0018 -1.3775
 8854SOL    HW238196   2.236   3.578   1.184  0.7034 -0.4487  0.2999
 8855SOL     OW38197   3.030   4.500   9.915 -0.2319 -0.2652  0.2336
 8855SOL    HW138198   3.013   4.545   9.998  0.8057  2.3317 -0.9697
 8855SOL    HW238199   2.949   4.452   9.898 -2.2769  2.5348  1.9353
 8856SOL     OW38200   1.378   2.288   7.161  0.5156 -0.8934  0.5351
 8856SOL    HW138201   1.444   2.346   7.124  1.4943 -0.6101  2.7330
 8856SOL    HW238202   1.301   2.326   7.118  0.4280 -1.1417  0.4729
 8857SOL     OW38203   3.005   4.257   6.138 -0.4345 -0.1553  0.3164
 8857SOL    HW138204   2.916   4.240   6.106 -0.2523  0.5588 -0.5366
 8857SOL    HW238205   3.041   4.168   6.130  0.0063 -0.1048  1.7712
 8858SOL     OW38206   1.141   4.659  14.272 -1.0243 -0.6611 -0.4682
 8858SOL    HW138207   1.136   4.707  14.190 -1.2915 -1.8301 -1.1348
 8858SOL    HW238208   1.086   4.583  14.254  0.6621 -2.2362  0.9364
 8859SOL     OW38209   2.338   0.405   4.281 -0.4269 -0.7585 -0.0724
 8859SOL    HW138210   2.422   0.404   4.327  0.4355 -0.2175 -1.6474
 8859SOL    HW238211   2.298   0.336   4.334 -1.7282  0.1544  0.1391
 8860SOL     OW38212   3.659   3.712   2.112 -0.1091 -0.1476 -0.0186
 8860SOL    HW138213   3.631   3.622   2.128 -1.3214  0.0141 -1.2689
 8860SOL    HW238214   3.750   3.693   2.088  0.4597  0.5247  1.6151
 8861SOL     OW38215   3.858   1.649   1.333  0.1071  0.3394 -0.4970
 8861SOL    HW138216   3.906   1.570   1.356 -1.9122 -0.0699  2.3143
 8861SOL    HW238217   3.920   1.721   1.323  0.6820  0.0138  0.8382
 8862SOL     OW38218   3.280   3.930   9.572  0.4076 -0.3025 -0.0847
 8862SOL    HW138219   3.292   3.960   9.662 -1.2612  1.3332 -0.4118
 8862SOL    HW238220   3.212   3.868   9.598  0.8329 -0.7472 -0.0377
 8863SOL     OW38221   1.815   2.336   2.591  0.3812 -0.2029 -0.0941
 8863SOL    HW138222   1.795   2.356   2.500  0.5291  1.1382  0.1599
 8863SOL    HW238223   1.786   2.418   2.631 -0.7988 -1.3444  1.4350
 8864SOL     OW38224   4.099   3.154  10.803  0.4832  0.0322  0.0775
 8864SOL    HW138225   4.103   3.059  10.789  1.3893  0.2076 -0.9266
 8864SOL    HW238226   4.067   3.153  10.893 -0.3105  1.1157 -0.2053
 8865SOL     OW38227   3.706   0.052   4.646 -0.2667  0.2499 -0.2771
 8865SOL    HW138228   3.621   0.072   4.685  0.1388 -0.6713  1.0746
 8865SOL    HW238229   3.745   4.737   4.715 -2.4639 -1.9074 -0.7658
 8866SOL     OW38230   4.092   1.912   2.222 -0.1641 -0.1315  0.1595
 8866SOL    HW138231   4.111   1.854   2.296  0.2674  0.3214  0.3989
 8866SOL    HW238232   3.997   1.916   2.220 -0.0168  2.1240 -1.6733
 8867SOL     OW38233   0.591   4.559   5.926 -0.2407 -0.0561  0.0685
 8867SOL    HW138234   0.640   4.634   5.892  0.3903 -0.8320 -0.7444
 8867SOL    HW238235   0.659   4.494   5.906  1.1705  1.7581 -1.0452
 8868SOL     OW38236   1.801   0.837  16.448  0.0442  0.8991  0.2655
 8868SOL    HW138237   1.864   0.773  16.414  1.2699  1.3024  1.7314
 8868SOL    HW238238   1.836   0.874  16.529 -0.0421  1.9346 -0.1674
 8869SOL     OW38239   3.007   2.066   8.793 -0.3747  0.1009  0.5111
 8869SOL    HW138240   3.035   2.065   8.885  0.1124  0.9548  0.3692
 8869SOL    HW238241   2.947   1.992   8.785 -2.0934  1.3824  1.3856
 8870SOL     OW38242   2.337   3.414  14.125 -0.2121 -0.0405  0.1723
 8870SOL    HW138243   2.387   3.379  14.198 -2.5379 -1.1782  1.2167
 8870SOL    HW238244   2.246   3.391  14.146 -0.1192 -0.6479 -0.0747
 8871SOL     OW38245   3.137   3.408  13.302  0.6997 -0.3842 -0.0798
 8871SOL    HW138246   3.182   3.438  13.381  0.4022  2.0396 -0.8353
 8871SOL    HW238247   3.212   3.415  13.242  0.1512  1.0614 -0.5958
 8872SOL     OW38248   3.615   1.733   1.859 -0.0793 -0.1724  0.0928
 8872SOL    HW138249   3.571   1.791   1.798 -0.4483 -0.2225  0.3086
 8872SOL    HW238250   3.590   1.771   1.944  0.3701  1.3887 -0.4753
 8873SOL     OW38251   0.117   1.692   4.287  0.4055  0.6288 -0.1258
 8873SOL    HW138252   0.206   1.691   4.323 -1.0527 -1.5196  3.4310
 8873SOL    HW238253   0.131   1.624   4.222 -0.3454  1.4969 -1.1850
 8874SOL     OW38254   4.635   1.529   7.732  0.1450  0.1260 -0.4061
 8874SOL    HW138255   4.667   1.455   7.785 -0.0104 -1.8721 -3.0659
 8874SOL    HW238256   4.598   1.580   7.804 -0.4370 -2.5818  1.2531
 8875SOL     OW38257   2.720   2.631   7.962  0.5518  0.5467  0.5175
 8875SOL    HW138258   2.797   2.587   7.927 -0.3464 -0.5845 -0.0244
 8875SOL    HW238259   2.744   2.720   7.935  1.3730  0.7824  2.0025
 8876SOL     OW38260   0.351   3.157   6.268  0.1840  0.2207  0.0061
 8876SOL    HW138261   0.443   3.178   6.286 -0.3044  1.7067  0.8326
 8876SOL    HW238262   0.303   3.239   6.256  0.2010  0.1980 -0.2024
 8877SOL     OW38263   0.564   2.469  15.743 -0.5962  0.2466  0.2584
 8877SOL    HW138264   0.601   2.446  15.658 -0.5608 -2.2617  0.9773
 8877SOL    HW238265   0.599   2.558  15.738 -2.9419  1.1004 -1.4444
 8878SOL     OW38266   4.365   1.380   8.549  0.6577  0.7422  0.5368
 8878SOL    HW138267   4.440   1.376   8.489 -0.3415 -1.5457 -0.5724
 8878SOL    HW238268   4.330   1.465   8.524  1.2647  0.1841 -2.1670
 8879SOL     OW38269   0.918   1.844  16.296  0.0274  0.2697  0.4801
 8879SOL    HW138270   0.950   1.832  16.385 -0.1261 -0.0012  0.4970
 8879SOL    HW238271   1.002   1.860  16.252 -1.1408 -1.0317 -2.2158
 8880SOL     OW38272   2.339   0.350   9.099  0.4489  0.4907  0.0528
 8880SOL    HW138273   2.337   0.438   9.062  3.4943  1.5039  2.2867
 8880SOL    HW238274   2.398   0.312   9.035 -0.9203 -1.1227 -0.2728
 8881SOL     OW38275   2.179   3.136   5.559  0.1248 -0.2130  0.1004
 8881SOL    HW138276   2.166   3.078   5.484 -1.1680 -0.8324  0.7972
 8881SOL    HW238277   2.102   3.114   5.610 -0.4418  0.0115 -0.6571
 8882SOL     OW38278   1.249   2.878   6.730 -0.4489  0.0877  0.3282
 8882SOL    HW138279   1.328   2.895   6.677  0.3398 -0.2170  1.4202
 8882SOL    HW238280   1.269   2.952   6.787 -2.7956 -1.4041  3.0716
 8883SOL     OW38281   1.511   3.995   4.396 -0.6850 -0.3125 -0.3154
 8883SOL    HW138282   1.571   3.955   4.459  0.5720  0.1208 -1.2573
 8883SOL    HW238283   1.543   3.963   4.312 -1.2755  1.6587 -1.2964
 8884SOL     OW38284   2.493   4.580   3.139  0.4633  0.3792 -0.0618
 8884SOL    HW138285   2.517   4.509   3.198 -1.3470 -1.1131 -1.1398
 8884SOL    HW238286   2.469   4.650   3.200  0.3787 -1.4671  1.9858
 8885SOL     OW38287   0.564   4.116   8.633 -0.2495 -0.2281  0.2448
 8885SOL    HW138288   0.476   4.096   8.664 -0.6527 -0.6674 -1.2072
 8885SOL    HW238289   0.611   4.128   8.716  1.7058 -0.3521 -0.8460
 8886SOL     OW38290   2.238   3.424   6.729 -0.5851 -0.0623  0.0616
 8886SOL    HW138291   2.162   3.433   6.672 -0.1914  1.9099 -0.1488
 8886SOL    HW238292   2.290   3.378   6.662  0.7482  0.1293  0.9613
 8887SOL     OW38293   2.296   3.074  10.298 -0.2105 -0.6321 -0.0370
 8887SOL    HW138294   2.308   3.003  10.236  2.4037 -0.3828  0.1928
 8887SOL    HW238295   2.217   3.126  10.282 -0.1762 -0.7886 -0.7347
 8888SOL     OW38296   2.279   0.880   8.835  1.1149  0.0180 -0.2318
 8888SOL    HW138297   2.277   0.931   8.916 -2.7731 -0.4957 -0.0211
 8888SOL    HW238298   2.255   0.938   8.763  0.6390 -2.8024 -2.3469
 8889SOL     OW38299   3.231   0.508   9.402  0.1095  0.9035  0.1554
 8889SOL    HW138300   3.242   0.413   9.397  3.6945  1.3005  0.6243
 8889SOL    HW238301   3.252   0.532   9.312  0.2133 -0.7146 -0.2549
 8890SOL     OW38302   2.192   4.576   9.209 -0.4045 -0.5960 -0.1007
 8890SOL    HW138303   2.129   4.590   9.280 -0.6262  0.9696 -0.6047
 8890SOL    HW238304   2.223   4.490   9.239  1.4828  0.7385  1.7673
 8891SOL     OW38305   3.378   0.290   3.812 -0.1129  0.1696  0.1897
 8891SOL    HW138306   3.439   0.279   3.884  1.4912  1.5764 -0.9481
 8891SOL    HW238307   3.446   0.308   3.747  0.7118 -0.7934  0.7999
 8892SOL     OW38308   4.523   0.789   7.036 -0.5571  0.5434 -0.0947
 8892SOL    HW138309   4.467   0.756   6.965  0.0115  1.2032 -0.8482
 8892SOL    HW238310   4.468   0.787   7.114  1.0855  1.0119  1.0876
 8893SOL     OW38311   0.218   4.234   2.775  0.2278  0.2268  0.1426
 8893SOL    HW138312   0.277   4.200   2.709  1.3136  1.8107  0.3092
 8893SOL    HW238313   0.145   4.174   2.755  0.9374 -0.3498 -0.7270
 8894SOL     OW38314   4.144   4.701   8.412  0.0959  0.2433  0.4043
 8894SOL    HW138315   4.087   4.639   8.457  0.2784 -0.8890 -0.9306
 8894SOL    HW238316   4.165   4.657   8.330 -1.4045 -0.4692  0.4152
 8895SOL     OW38317   2.340   3.348   6.473  0.0883 -0.2447  0.2730
 8895SOL    HW138318   2.276   3.371   6.406  0.7443  1.7696  0.3217
 8895SOL    HW238319   2.387   3.278   6.428 -1.3529 -1.5957  0.8797
 8896SOL     OW38320   3.228   0.958  11.709  0.0142 -0.3123 -0.2654
 8896SOL    HW138321   3.222   0.878  11.656 -1.9873  0.7494 -1.6664
 8896SOL    HW238322   3.172   1.017  11.658 -2.3324 -2.1896  0.1378
 8897SOL     OW38323   2.791   2.992   5.197  0.2437  0.0967 -0.0051
 8897SOL    HW138324   2.885   2.971   5.192  0.3412 -0.1438  2.6602
 8897SOL    HW238325   2.761   2.901   5.201 -2.9774  1.2252  1.5241
 8898SOL     OW38326   3.468   3.938   8.520 -0.2859 -0.1215  0.3729
 8898SOL    HW138327   3.487   3.864   8.579 -0.9857 -0.0524  0.6897
 8898SOL    HW238328   3.518   4.014   8.548 -0.0473  0.4352 -1.6225
 8899SOL     OW38329   0.758   2.908   2.897 -0.3678  0.4228  0.1473
 8899SOL    HW138330   0.705   2.828   2.898  0.1111  0.0824 -1.8308
 8899SOL    HW238331   0.835   2.877   2.850 -0.5870 -0.7125  0.5243
 8900SOL     OW38332   3.909   1.255   8.074  0.3503  0.4459  0.6580
 8900SOL    HW138333   3.844   1.243   8.005  1.4913 -0.6610 -0.2216
 8900SOL    HW238334   3.871   1.304   8.147 -1.0095  0.1061  0.1746
 8901SOL     OW38335   0.375   2.412   8.275  0.2563  0.6603 -0.1060
 8901SOL    HW138336   0.280   2.426   8.277  0.2223  0.0029  2.6510
 8901SOL    HW238337   0.390   2.416   8.370  1.0211 -1.3384 -0.1413
 8902SOL     OW38338   3.189   3.997   5.490  0.0556  0.2517 -0.2836
 8902SOL    HW138339   3.238   4.058   5.544  0.7058 -3.0273  2.8023
 8902SOL    HW238340   3.189   4.031   5.400 -3.3354 -2.3463 -1.2921
 8903SOL     OW38341   3.937   4.232   4.909 -0.1474  0.6180  0.2453
 8903SOL    HW138342   3.883   4.194   4.978 -0.9036  1.6868  0.2537
 8903SOL    HW238343   4.002   4.276   4.963  0.5816  0.7136 -0.7032
 8904SOL     OW38344   0.512   3.529   2.461 -0.0629  0.6943 -0.3928
 8904SOL    HW138345   0.486   3.446   2.502  0.3398  0.7847  0.0386
 8904SOL    HW238346   0.513   3.600   2.525 -2.5655 -2.9353  3.7423
 8905SOL     OW38347   3.517   4.073   8.840 -0.3137  0.2501  0.2430
 8905SOL    HW138348   3.566   4.024   8.906 -0.2970 -0.2556 -0.1485
 8905SOL    HW238349   3.483   4.142   8.897  1.0732 -0.5579  2.0529
 8906SOL     OW38350   0.825   0.978   3.669 -0.1487 -0.2564  0.0113
 8906SOL    HW138351   0.917   0.954   3.665 -0.0465  0.3745 -1.4332
 8906SOL    HW238352   0.798   0.945   3.755  1.9031  1.6641  1.3712
 8907SOL     OW38353   2.088   0.287   5.490  0.2566 -0.1062 -0.4352
 8907SOL    HW138354   2.009   0.339   5.494 -0.3242 -0.8991 -1.8119
 8907SOL    HW238355   2.114   0.332   5.410 -1.2653 -0.8255 -1.3062
 8908SOL     OW38356   4.499   1.429  16.736 -0.6116 -0.1381  0.1526
 8908SOL    HW138357   4.524   1.448  16.827  0.3063 -1.1554  0.1064
 8908SOL    HW238358   4.434   1.360  16.748 -1.3293  0.6757  1.0325
 8909SOL     OW38359   2.059   1.822   3.236 -0.3449 -0.5467  0.7569
 8909SOL    HW138360   2.026   1.733   3.224  0.1844 -0.9172  1.9977
 8909SOL    HW238361   2.052   1.841   3.330 -1.2036 -0.3448  0.6484
 8910SOL     OW38362   0.584   2.847   4.611  0.1220 -0.2356 -0.5457
 8910SOL    HW138363   0.576   2.882   4.700  2.6849  1.7249 -1.0834
 8910SOL    HW238364   0.531   2.905   4.555 -1.1223 -0.9685 -0.1242
 8911SOL     OW38365   3.266   1.862   9.528  0.0737  0.0012 -0.0680
 8911SOL    HW138366   3.258   1.852   9.623 -1.0633 -0.0580 -0.1796
 8911SOL    HW238367   3.361   1.850   9.516  0.3007 -1.1828  3.0331
 8912SOL     OW38368   1.038   3.746  14.722  0.1335 -0.3522 -0.4550
 8912SOL    HW138369   1.058   3.653  14.712 -1.3519 -0.7750  0.4588
 8912SOL    HW238370   1.071   3.774  14.637 -0.3040  1.8731  0.1150
 8913SOL     OW38371   1.218   4.357   5.404 -0.3014  0.4503  0.2022
 8913SOL    HW138372   1.266   4.284   5.363 -0.4958  0.8462 -0.7195
 8913SOL    HW238373   1.284   4.426   5.411 -0.7121  0.7753  0.8603
 8914SOL     OW38374   0.967   2.657  16.508  0.0736 -0.1969 -0.3863
 8914SOL    HW138375   1.038   2.686  16.565  0.2827  1.1718 -1.3300
 8914SOL    HW238376   0.945   2.733  16.454  2.2031  0.1585 -0.7382
 8915SOL     OW38377   2.181   1.392   4.570 -0.1852  0.0373 -0.0193
 8915SOL    HW138378   2.232   1.377   4.490 -0.6908 -1.3519 -0.0709
 8915SOL    HW238379   2.096   1.423   4.539 -0.1673 -3.7400 -3.7716
 8916SOL     OW38380   3.105   1.047   1.701 -0.2747  0.2633 -0.2363
 8916SOL    HW138381   3.031   1.015   1.650 -2.4156  0.2632  2.8692
 8916SOL    HW238382   3.144   0.963   1.726 -2.3790 -0.5677  0.2814
 8917SOL     OW38383   4.315   1.406   2.545 -0.5135  0.0922  0.1790
 8917SOL    HW138384   4.297   1.496   2.520  0.7180  0.2047 -0.3141
 8917SOL    HW238385   4.267   1.401   2.627  2.0498 -0.8950  1.6358
 8918SOL     OW38386   0.331   3.153   4.835  0.3143 -0.3675 -0.0566
 8918SOL    HW138387   0.237   3.168   4.844  0.3875 -0.5331  1.0505
 8918SOL    HW238388   0.339   3.058   4.834 -2.1851 -0.5779 -0.1982
 8919SOL     OW38389   4.638   3.784   8.620  0.2322  0.2920 -0.7232
 8919SOL    HW138390   4.674   3.750   8.702  0.2051  0.3959 -0.6684
 8919SOL    HW238391   4.723   3.774   8.576  0.0466  2.0102 -1.4674
 8920SOL     OW38392   2.121   0.786   6.678  0.6895  0.1477 -0.0521
 8920SOL    HW138393   2.139   0.843   6.603 -0.7855 -1.1064 -1.3414
 8920SOL    HW238394   2.064   0.722   6.637 -0.0511 -0.1540  1.4483
 8921SOL     OW38395   1.667   2.834   3.998  0.7823  0.0583  0.1678
 8921SOL    HW138396   1.710   2.828   4.083  3.3449 -0.9598 -1.2023
 8921SOL    HW238397   1.621   2.751   4.013  0.8092 -0.1525 -0.9096
 8922SOL     OW38398   2.056   1.815   5.696 -0.2538 -0.3371 -0.3082
 8922SOL    HW138399   1.970   1.774   5.681 -0.9047  0.9508 -0.1021
 8922SOL    HW238400   2.088   1.778   5.778 -1.4350  0.8484  0.6927
 8923SOL     OW38401   4.735   3.446   3.018 -0.2088  0.4748 -0.3894
 8923SOL    HW138402   0.014   3.459   2.925 -1.8190  0.9678 -0.6332
 8923SOL    HW238403   0.076   3.481   3.057 -0.2325  0.7712 -0.6014
 8924SOL     OW38404   3.943   0.149  15.682 -0.0820 -0.3388 -0.5979
 8924SOL    HW138405   3.857   0.140  15.641  0.6178  0.2839 -2.2101
 8924SOL    HW238406   3.962   0.196  15.600 -0.4275 -0.2961 -0.6532
 8925SOL     OW38407   2.019   0.971   8.279 -0.8520  0.1463  0.6788
 8925SOL    HW138408   2.028   0.877   8.261 -1.4195 -0.0225  1.2746
 8925SOL    HW238409   2.089   0.980   8.343 -0.3584  0.2515  0.1286
 8926SOL     OW38410   0.281   4.259  14.765 -0.2611 -0.0963 -0.5997
 8926SOL    HW138411   0.340   4.326  14.732  0.8867 -0.4625  0.7306
 8926SOL    HW238412   0.236   4.306  14.836 -2.5549  0.0539 -2.1412
 8927SOL     OW38413   4.075   0.433   6.016  0.0062  0.8335 -0.4580
 8927SOL    HW138414   3.983   0.406   6.014 -1.1421  4.7521 -2.3116
 8927SOL    HW238415   4.114   0.403   5.934 -0.3852  0.9800 -0.7015
 8928SOL     OW38416   4.322   2.439   3.732  0.5475  0.3880 -0.3291
 8928SOL    HW138417   4.272   2.376   3.681  0.1280  1.4486 -1.2279
 8928SOL    HW238418   4.271   2.468   3.807  1.3774  0.5977  0.1554
 8929SOL     OW38419   4.382   3.731  16.202 -0.5255  0.2048  0.0960
 8929SOL    HW138420   4.451   3.769  16.256 -0.8744  0.1661  0.5667
 8929SOL    HW238421   4.397   3.637  16.213 -0.7232  0.1706  0.0810
 8930SOL     OW38422   3.657   0.414  17.596  0.4948 -0.1997 -0.2171
 8930SOL    HW138423   3.722   0.382  17.660  1.6335  0.2680 -1.1338
 8930SOL    HW238424   3.650   0.506  17.619 -1.3737 -0.5436  0.5216
 8931SOL     OW38425   3.163   2.467  12.236 -0.3272 -0.5849  0.5864
 8931SOL    HW138426   3.154   2.553  12.195 -2.3683 -0.9715  0.2098
 8931SOL    HW238427   3.231   2.426  12.184  0.7520  1.8698  0.1056
 8932SOL     OW38428   1.736   2.941   8.077 -0.1720 -0.3194 -0.0748
 8932SOL    HW138429   1.722   2.854   8.114 -1.8398  0.4152  1.0168
 8932SOL    HW238430   1.756   2.913   7.987  0.7219  1.6462 -0.4993
 8933SOL     OW38431   4.510   1.549   8.769 -0.3575  0.8258  0.1158
 8933SOL    HW138432   4.464   1.615   8.717  0.5341  0.8029 -0.6932
 8933SOL    HW238433   4.454   1.472   8.756  0.4755 -0.2968  3.1497
 8934SOL     OW38434   1.181   3.556  15.303  0.2472  0.1399 -0.0357
 8934SOL    HW138435   1.231   3.478  15.277 -2.2872 -1.2132 -0.8498
 8934SOL    HW238436   1.171   3.590  15.214 -1.6434 -1.6502 -0.5099
 8935SOL     OW38437   4.232   3.273   8.044  0.1818  0.5379 -0.2082
 8935SOL    HW138438   4.305   3.288   7.985  0.4133 -1.6566 -0.4477
 8935SOL    HW238439   4.178   3.347   8.016  0.2467  0.8864  0.5620
 8936SOL     OW38440   0.250   1.318   7.615 -0.4261 -0.3355 -0.4010
 8936SOL    HW138441   0.308   1.387   7.583 -0.7984 -0.6379 -1.6985
 8936SOL    HW238442   0.284   1.253   7.554  1.5395 -0.2130  0.5638
 8937SOL     OW38443   3.318   0.567   3.086  0.4662 -0.3719  0.3443
 8937SOL    HW138444   3.271   0.650   3.091  1.6202  0.2171  1.2576
 8937SOL    HW238445   3.385   0.595   3.149 -2.0081  2.0279  1.9016
 8938SOL     OW38446   0.958   2.877  13.023 -0.1595 -0.6020 -0.7381
 8938SOL    HW138447   1.009   2.888  13.103 -1.8684  0.7466  0.1766
 8938SOL    HW238448   0.897   2.807  13.045 -1.4130  0.8346  0.3673
 8939SOL     OW38449   4.663   0.613   5.639 -0.0205  0.3265 -0.2269
 8939SOL    HW138450   4.572   0.640   5.623 -0.4871 -1.0161  0.1580
 8939SOL    HW238451   4.685   0.540   5.582 -0.5108 -0.1695  0.2107
 8940SOL     OW38452   0.332   4.376  15.868 -0.3848  0.5472  0.2206
 8940SOL    HW138453   0.367   4.292  15.899 -1.8500  0.4858  1.7415
 8940SOL    HW238454   0.318   4.411  15.956 -0.2664 -0.1323  0.5164
 8941SOL     OW38455   0.815   3.745  16.628  0.2345  0.0814 -0.1921
 8941SOL    HW138456   0.837   3.714  16.716 -1.1583  0.4630  0.2916
 8941SOL    HW238457   0.750   3.682  16.595  0.9942 -0.3627 -0.8407
 8942SOL     OW38458   1.703   0.195   2.418 -0.4015 -0.1572  0.1504
 8942SOL    HW138459   1.784   0.214   2.466  0.1625 -3.7267  0.6612
 8942SOL    HW238460   1.650   0.188   2.497 -0.7309 -3.2061 -0.3155
 8943SOL     OW38461   4.245   0.242   6.796  0.8537 -0.1379 -0.0439
 8943SOL    HW138462   4.278   0.162   6.836  0.0956 -1.7233 -2.5609
 8943SOL    HW238463   4.150   0.227   6.796  0.9710 -0.8832 -1.1875
 8944SOL     OW38464   2.764   4.092   8.627  0.5722  0.0243  0.2202
 8944SOL    HW138465   2.828   4.031   8.662  2.0409  0.6037 -1.4513
 8944SOL    HW238466   2.828   4.152   8.589 -0.0480 -0.5184 -1.6884
 8945SOL     OW38467   1.661   0.894   8.501  0.1330  0.3980  0.1554
 8945SOL    HW138468   1.591   0.829   8.504  1.9111 -1.5266  0.3876
 8945SOL    HW238469   1.739   0.840   8.486 -0.1591  1.0556 -3.7192
 8946SOL     OW38470   4.358   0.016   8.869  0.0399 -0.1271  0.0507
 8946SOL    HW138471   4.393   4.733   8.955 -1.0763  0.5026  0.6759
 8946SOL    HW238472   4.369   0.109   8.892 -0.7464  0.2312 -1.0413
 8947SOL     OW38473   0.492   2.883   7.290 -0.1904  0.0263  0.4360
 8947SOL    HW138474   0.470   2.791   7.301 -0.7645  0.1136  0.0228
 8947SOL    HW238475   0.521   2.882   7.199 -0.6976 -0.0762  0.2746
 8948SOL     OW38476   2.539   2.326   5.781  0.2482  0.1777 -0.0285
 8948SOL    HW138477   2.578   2.239   5.788 -1.1096 -0.2317  2.3002
 8948SOL    HW238478   2.462   2.313   5.836 -0.3602 -0.7133 -1.0851
 8949SOL     OW38479   3.428   4.719   3.887 -0.7466 -0.4264  0.0241
 8949SOL    HW138480   3.509   4.702   3.839  0.6510  0.1382  2.1919
 8949SOL    HW238481   3.448   4.713   3.980 -3.7469 -2.6858  0.5064
 8950SOL     OW38482   0.879   3.350   3.269 -0.4493 -0.1616 -0.2795
 8950SOL    HW138483   0.834   3.332   3.187  0.2844  3.1657 -1.4173
 8950SOL    HW238484   0.929   3.426   3.239 -0.1819  0.7800  2.5477
 8951SOL     OW38485   0.156   1.005   5.215  0.2838 -0.3260 -0.2896
 8951SOL    HW138486   0.089   1.047   5.268 -0.6352 -2.9308  0.5954
 8951SOL    HW238487   0.235   1.018   5.268 -0.0263  1.2009 -0.1845
 8952SOL     OW38488   3.735   3.538   8.883  0.0301  0.6359  0.1366
 8952SOL    HW138489   3.799   3.489   8.934 -1.1320 -0.9198  0.0757
 8952SOL    HW238490   3.680   3.473   8.840  1.6570  0.0084 -0.9773
 8953SOL     OW38491   0.733   3.607   0.752 -0.5643 -0.0113 -0.1358
 8953SOL    HW138492   0.659   3.668   0.748 -0.0170  0.6860  0.5189
 8953SOL    HW238493   0.703   3.530   0.702  2.9399 -0.9514 -0.7741
 8954SOL     OW38494   0.493   0.931   4.591  0.3526 -0.6517 -0.4990
 8954SOL    HW138495   0.443   0.861   4.631 -0.6273 -0.0371 -0.6585
 8954SOL    HW238496   0.426   0.964   4.531  0.0739 -1.1465 -0.4630
 8955SOL     OW38497   3.082   2.350   2.630  0.0382 -0.2743 -0.2870
 8955SOL    HW138498   3.057   2.285   2.565  1.1183  3.6973 -4.6474
 8955SOL    HW238499   3.011   2.413   2.621  0.8206  0.1407 -3.3993
 8956SOL     OW38500   3.061   3.756   6.176 -0.4170 -0.1377 -0.1755
 8956SOL    HW138501   3.104   3.691   6.120 -1.9695  1.2046 -2.9004
 8956SOL    HW238502   3.029   3.805   6.100 -1.2205  0.2458  0.4118
 8957SOL     OW38503   2.545   4.464   4.279  0.1575 -0.9005 -0.9007
 8957SOL    HW138504   2.601   4.467   4.201 -0.2407  0.9918 -1.1136
 8957SOL    HW238505   2.537   4.552   4.313  0.5930 -0.1510 -2.7344
 8958SOL     OW38506   0.892   0.993   7.146  1.1219  0.1610  0.5700
 8958SOL    HW138507   0.868   0.934   7.218  2.8484 -0.8629  0.3139
 8958SOL    HW238508   0.966   0.943   7.111  1.1051  1.6661 -1.5940
 8959SOL     OW38509   2.648   2.359   4.717 -0.1065 -0.2990 -0.0640
 8959SOL    HW138510   2.582   2.376   4.650 -0.1308  2.5303  0.6867
 8959SOL    HW238511   2.595   2.370   4.796  2.0303 -1.1367  1.4879
 8960SOL     OW38512   4.078   0.377   3.123 -0.2879 -0.1853  0.2302
 8960SOL    HW138513   4.080   0.370   3.218 -0.6807  0.7599  0.3067
 8960SOL    HW238514   4.118   0.292   3.103  2.1289  0.3828  2.5199
 8961SOL     OW38515   0.993   4.150   2.059 -0.1176  0.2845 -0.1759
 8961SOL    HW138516   0.988   4.076   1.999  1.1697 -0.3142  0.4448
 8961SOL    HW238517   0.947   4.211   2.000 -0.6336  1.0913  1.0577
 8962SOL     OW38518   2.575   2.787   6.808 -0.4733  0.0473 -0.3796
 8962SOL    HW138519   2.636   2.856   6.834 -0.3011  0.2116 -1.2200
 8962SOL    HW238520   2.632   2.710   6.812 -0.9971 -0.4729 -2.8827
 8963SOL     OW38521   0.484   1.943   3.145 -0.2031  0.5129  0.4286
 8963SOL    HW138522   0.491   2.003   3.219 -0.9556 -0.4882  1.3252
 8963SOL    HW238523   0.455   2.008   3.082 -2.2112  0.5054  1.3329
 8964SOL     OW38524   3.012   3.784   2.588 -0.2171  0.4729  0.2245
 8964SOL    HW138525   2.977   3.869   2.616 -0.3830  0.0833  1.1987
 8964SOL    HW238526   3.087   3.811   2.534 -1.3935 -1.0851 -2.1361
 8965SOL     OW38527   0.079   3.917   9.425 -0.4350 -0.2437  0.4667
 8965SOL    HW138528   0.112   4.007   9.424 -1.0476 -0.0181  0.3279
 8965SOL    HW238529   0.014   3.914   9.354  1.4520  2.4833 -1.3746
 8966SOL     OW38530   2.770   3.095   1.917  0.1326 -0.4659  0.2388
 8966SOL    HW138531   2.702   3.030   1.908 -1.1629  0.8443  0.5778
 8966SOL    HW238532   2.837   3.058   1.975 -1.6213  0.3262  2.7852
 8967SOL     OW38533   3.130   1.692   4.557 -0.0021 -0.1447 -0.0488
 8967SOL    HW138534   3.067   1.763   4.542  0.3161  0.5025  1.7427
 8967SOL    HW238535   3.175   1.688   4.473 -0.3733  4.3517 -0.4629
 8968SOL     OW38536   4.399   0.473   1.449 -0.4624  0.0994 -0.3024
 8968SOL    HW138537   4.433   0.536   1.386  1.3104  0.3526  0.9186
 8968SOL    HW238538   4.333   0.432   1.392 -1.3996  1.4728 -0.2041
 8969SOL     OW38539   0.709   0.904   7.805  0.2062 -0.3638 -0.2298
 8969SOL    HW138540   0.798   0.932   7.826 -0.7547  2.2007  0.4737
 8969SOL    HW238541   0.672   0.897   7.893  1.1004  0.8663  0.2439
 8970SOL     OW38542   1.344   3.782  10.843  0.7935  0.2984  0.6027
 8970SOL    HW138543   1.388   3.802  10.926 -0.4097  0.7841  1.1267
 8970SOL    HW238544   1.407   3.748  10.779  0.0684 -1.4235  0.8020
 8971SOL     OW38545   0.217   1.713   7.620  0.2744  0.4425 -0.1695
 8971SOL    HW138546   0.169   1.791   7.594  0.9375  0.8452 -0.1675
 8971SOL    HW238547   0.183   1.642   7.566 -2.3905  0.2900  1.7239
 8972SOL     OW38548   4.719   1.527  14.554 -0.4260  0.1182  0.1860
 8972SOL    HW138549   0.015   1.610  14.585  1.3485 -0.2993 -0.7347
 8972SOL    HW238550   4.691   1.484  14.635  2.7101 -1.2807  0.5159
 8973SOL     OW38551   1.570   1.970   6.818 -0.0089 -0.1145 -0.8621
 8973SOL    HW138552   1.519   2.051   6.820  0.3656  0.1190 -0.8825
 8973SOL    HW238553   1.494   1.919   6.847 -1.1868  1.9578 -0.2876
 8974SOL     OW38554   0.707   0.242   6.727  0.2719  0.3494  0.3053
 8974SOL    HW138555   0.661   0.313   6.771  0.3156 -0.5256  1.7727
 8974SOL    HW238556   0.795   0.255   6.764 -0.2598  1.5500  1.1591
 8975SOL     OW38557   2.482   0.475  17.522 -0.2132  0.1748 -0.2284
 8975SOL    HW138558   2.419   0.531  17.566 -0.2018 -0.6036  0.7599
 8975SOL    HW238559   2.516   0.427  17.598 -0.4069  1.1276  0.4567
 8976SOL     OW38560   2.342   4.469   1.437  0.0683 -0.5433 -0.3364
 8976SOL    HW138561   2.312   4.559   1.450 -1.3529 -0.8769 -1.3663
 8976SOL    HW238562   2.437   4.478   1.445  0.2108 -0.8641 -1.7203
 8977SOL     OW38563   4.527   2.593   2.984  0.0759  0.4471 -0.1715
 8977SOL    HW138564   4.557   2.551   2.903 -1.6463  1.6369 -1.4254
 8977SOL    HW238565   4.590   2.551   3.042  0.7664  0.1864 -1.0968
 8978SOL     OW38566   3.169   0.635   6.871 -0.4796  0.5140  0.5818
 8978SOL    HW138567   3.264   0.643   6.878 -0.4642  1.6985 -1.0144
 8978SOL    HW238568   3.155   0.650   6.777 -0.9230 -0.6090  0.4649
 8979SOL     OW38569   1.695   3.678   4.106  0.7228 -0.3739  0.1434
 8979SOL    HW138570   1.646   3.598   4.087  0.5759 -0.0758 -0.7518
 8979SOL    HW238571   1.679   3.725   4.024  1.9766  0.1118  0.1847
 8980SOL     OW38572   3.872   3.610   2.751  0.3568 -0.5726  0.2145
 8980SOL    HW138573   3.918   3.573   2.676  1.2714 -0.7486  0.8705
 8980SOL    HW238574   3.820   3.533   2.774 -1.6669  0.9615  0.7539
 8981SOL     OW38575   0.518   3.993   5.761  0.1101  0.8941 -0.7164
 8981SOL    HW138576   0.427   4.018   5.749  0.1983  0.2704 -2.6519
 8981SOL    HW238577   0.553   4.073   5.799  2.2642  0.1792 -1.2099
 8982SOL     OW38578   2.481   4.621   8.207 -0.4397 -0.1974 -0.7939
 8982SOL    HW138579   2.553   4.566   8.177 -1.1418 -0.6328 -1.6653
 8982SOL    HW238580   2.484   4.608   8.302  0.3053  0.0493 -0.7849
 8983SOL     OW38581   1.512   1.681   9.567 -0.3135  0.2566  0.5356
 8983SOL    HW138582   1.573   1.676   9.640 -0.1076  0.0603  0.3472
 8983SOL    HW238583   1.484   1.598   9.531  0.8683 -0.5788  1.5486
 8984SOL     OW38584   3.690   0.571  11.355  0.2765  0.1494 -0.4369
 8984SOL    HW138585   3.662   0.565  11.264  0.1807 -2.0326 -0.2463
 8984SOL    HW238586   3.707   0.665  11.363  2.9133 -0.4664  1.4698
 8985SOL     OW38587   4.082   2.124   4.557 -0.9768 -0.5264 -0.4814
 8985SOL    HW138588   3.998   2.079   4.550 -0.4633 -1.6321  0.4442
 8985SOL    HW238589   4.057   2.212   4.527  1.9117  0.2459 -0.6055
 8986SOL     OW38590   2.147   1.256  10.397  0.3772  0.2422  0.7585
 8986SOL    HW138591   2.149   1.235  10.304 -1.2760  0.5021  0.6706
 8986SOL    HW238592   2.222   1.314  10.403  0.4236  0.5059 -2.4290
 8987SOL     OW38593   3.949   0.051   6.644  0.5226  0.2225 -0.0392
 8987SOL    HW138594   3.924   4.717   6.699 -0.3032 -1.6505 -2.9193
 8987SOL    HW238595   3.892   0.046   6.567  1.5953 -0.1243 -0.8146
 8988SOL     OW38596   3.579   0.027  12.485  0.0294 -0.4412 -0.1214
 8988SOL    HW138597   3.512   4.702  12.507  0.6983 -0.7139  1.0840
 8988SOL    HW238598   3.528   0.103  12.458  1.3179  0.3594 -0.3113
 8989SOL     OW38599   1.662   1.778   3.847 -0.1349 -0.1114 -0.4100
 8989SOL    HW138600   1.632   1.763   3.757 -0.2333 -1.0135 -0.2187
 8989SOL    HW238601   1.755   1.767   3.832 -0.2023 -1.4872  0.2513
 8990SOL     OW38602   1.520   1.089   4.102 -0.1487 -0.5140  0.1060
 8990SOL    HW138603   1.587   1.147   4.066 -1.4008 -0.5544 -2.3027
 8990SOL    HW238604   1.491   1.046   4.021  1.3328  0.9801 -1.1931
 8991SOL     OW38605   1.586   1.602   8.492  0.0629  0.0725 -0.0404
 8991SOL    HW138606   1.563   1.693   8.474 -0.3039 -0.1600 -0.7648
 8991SOL    HW238607   1.543   1.564   8.415  1.1655 -1.7337  0.2379
 8992SOL     OW38608   3.202   2.610   9.237 -0.1099 -0.2307 -0.1898
 8992SOL    HW138609   3.275   2.578   9.291  1.1992 -0.7242 -2.2672
 8992SOL    HW238610   3.243   2.636   9.155  1.2130 -1.3331  0.1308
 8993SOL     OW38611   2.293   2.002   3.259  0.0125  0.2219  0.1144
 8993SOL    HW138612   2.229   1.963   3.200  2.6622 -1.4025 -1.7033
 8993SOL    HW238613   2.293   2.097   3.250 -2.3071  0.2899  0.7694
 8994SOL     OW38614   1.613   0.593   5.320 -0.4021  0.2012  0.1863
 8994SOL    HW138615   1.540   0.645   5.353 -0.7420 -1.0764  1.4661
 8994SOL    HW238616   1.605   0.526   5.388 -0.3419 -0.0533 -0.0595
 8995SOL     OW38617   2.247   2.122   4.780 -0.1743 -0.3731  0.1332
 8995SOL    HW138618   2.248   2.141   4.874  0.4579  0.1737  0.0166
 8995SOL    HW238619   2.153   2.120   4.767 -0.0482 -1.6927 -0.6073
 8996SOL     OW38620   3.769   3.330  17.061 -0.0738  0.0056 -0.3839
 8996SOL    HW138621   3.681   3.329  17.099  0.6214 -0.6308  1.1803
 8996SOL    HW238622   3.759   3.408  17.005  1.6806  2.3692  2.6058
 8997SOL     OW38623   2.308   3.364   5.866 -0.2619  0.3880  0.3848
 8997SOL    HW138624   2.246   3.294   5.850 -0.5894  0.4642  1.3115
 8997SOL    HW238625   2.380   3.332   5.813  0.7076  0.3421  1.7213
 8998SOL     OW38626   0.432   2.452   7.114 -0.9612  0.0223 -0.4666
 8998SOL    HW138627   0.480   2.382   7.159  1.0604  1.8264  0.1962
 8998SOL    HW238628   0.346   2.417   7.132  0.2054 -2.7639 -0.3379
 8999SOL     OW38629   1.793   3.924   6.693  0.0417  0.1549 -0.2529
 8999SOL    HW138630   1.707   3.938   6.653  0.8401 -0.8574 -2.2962
 8999SOL    HW238631   1.768   3.920   6.785  2.0282  3.8518  0.4531
 9000SOL     OW38632   0.372   0.267   0.507 -0.2378  0.1168 -0.7767
 9000SOL    HW138633   0.415   0.189   0.543 -0.3713  0.4975  0.1927
 9000SOL    HW238634   0.403   0.326   0.575 -2.1683 -2.0107  1.9413
 9001SOL     OW38635   2.288   0.941   4.752 -0.4769  0.2384  0.0625
 9001SOL    HW138636   2.270   1.032   4.779  0.8301  1.0949 -1.9268
 9001SOL    HW238637   2.207   0.914   4.709 -0.4979 -0.3501  0.4697
 9002SOL     OW38638   3.183   1.927   5.088 -0.7774 -0.6279 -0.2339
 9002SOL    HW138639   3.122   1.998   5.072  0.7938  0.7076 -0.2972
 9002SOL    HW238640   3.140   1.863   5.031 -2.2611  1.9565 -2.0341
 9003SOL     OW38641   1.830   0.292   9.548  0.5070  0.1473  0.2782
 9003SOL    HW138642   1.777   0.223   9.508  0.3346  0.6929 -0.4228
 9003SOL    HW238643   1.779   0.366   9.517  1.8778  0.5335 -1.0456
 9004SOL     OW38644   3.058   4.310   7.151 -0.6125 -0.2298  0.7380
 9004SOL    HW138645   2.986   4.318   7.088 -0.2659  0.0992  0.3873
 9004SOL    HW238646   3.106   4.233   7.119  0.0912  0.6155 -0.2461
 9005SOL     OW38647   3.984   2.670   4.453  0.2455  0.5247 -0.5610
 9005SOL    HW138648   3.993   2.674   4.548  1.5552 -1.5515 -0.6011
 9005SOL    HW238649   3.984   2.764   4.435 -1.6025  0.6372  0.0059
 9006SOL     OW38650   0.161   0.794   0.358 -0.9909  0.6348  0.2181
 9006SOL    HW138651   0.196   0.817   0.272  0.1141 -1.1047  0.1967
 9006SOL    HW238652   0.239   0.754   0.397 -0.8145  1.9714  1.2523
 9007SOL     OW38653   0.098   0.542   3.790  0.2196 -0.2166  0.2124
 9007SOL    HW138654   0.061   0.477   3.849 -0.4371  1.9343  2.1717
 9007SOL    HW238655   0.107   0.609   3.857 -2.4471 -0.8780  1.2220
 9008SOL     OW38656   1.479   3.412   4.896  0.2379 -0.0633 -0.2793
 9008SOL    HW138657   1.539   3.465   4.948  0.5145 -0.8818  0.2354
 9008SOL    HW238658   1.509   3.323   4.918 -0.9147 -0.4393 -0.2198
 9009SOL     OW38659   1.987   2.685   8.620  0.2541 -0.7243  0.2249
 9009SOL    HW138660   1.962   2.605   8.666 -0.3868 -0.4353  0.3775
 9009SOL    HW238661   1.975   2.664   8.527  1.2500  1.3427 -0.3756
 9010SOL     OW38662   3.022   1.925   3.585 -0.0520  0.8626  0.1110
 9010SOL    HW138663   2.996   1.940   3.494 -0.3846 -1.2161 -0.1221
 9010SOL    HW238664   3.033   1.831   3.593 -0.0887  0.8521  0.0346
 9011SOL     OW38665   2.213   3.285   9.547 -0.3294  0.1916  0.2039
 9011SOL    HW138666   2.254   3.200   9.530  0.7111  0.8681 -0.6814
 9011SOL    HW238667   2.194   3.332   9.465 -0.6856  1.1022  0.8010
 9012SOL     OW38668   2.669   1.060   8.111 -0.5616 -0.0285 -0.5196
 9012SOL    HW138669   2.583   1.063   8.153  0.8749  0.3197  2.4328
 9012SOL    HW238670   2.685   1.153   8.125  0.6448 -0.0366 -1.8186
 9013SOL     OW38671   1.597   3.436   4.024  0.2636  0.3646 -0.4634
 9013SOL    HW138672   1.563   3.347   4.014 -0.0491  0.7116 -2.5718
 9013SOL    HW238673   1.537   3.485   3.967  2.4258  0.8215 -2.3502
 9014SOL     OW38674   2.659   2.430   5.312  0.4868  0.6297 -0.0024
 9014SOL    HW138675   2.716   2.361   5.345  0.0699  0.2338 -0.1202
 9014SOL    HW238676   2.606   2.449   5.389  1.7233  0.4872  0.8827
 9015SOL     OW38677   1.426   3.912  15.409  0.0016  0.5688 -0.3629
 9015SOL    HW138678   1.508   3.862  15.409  0.7901  1.8738 -1.2707
 9015SOL    HW238679   1.457   4.000  15.429  1.2406 -0.3050  1.5180
 9016SOL     OW38680   1.377   4.118   5.328 -0.0809  0.6867  0.0629
 9016SOL    HW138681   1.389   4.085   5.417 -0.0142  0.3381 -0.0711
 9016SOL    HW238682   1.446   4.070   5.281  1.8248  1.6283  1.9334
 9017SOL     OW38683   0.592   3.371  17.745 -0.0375  0.7001  0.0234
 9017SOL    HW138684   0.672   3.354  17.695  0.5433  0.8819  0.9073
 9017SOL    HW238685   0.531   3.297  17.740  0.5723  0.3620 -2.6413
 9018SOL     OW38686   3.404   3.897   3.952  0.0177  0.5464 -0.0620
 9018SOL    HW138687   3.348   3.971   3.932  0.2682  0.6757 -0.2921
 9018SOL    HW238688   3.435   3.910   4.041  0.3590  2.8964 -0.5377
 9019SOL     OW38689   1.623   1.085   8.020 -0.1276  0.0765 -0.5339
 9019SOL    HW138690   1.529   1.100   8.016  0.1320  1.1593 -2.7203
 9019SOL    HW238691   1.643   1.118   8.107  0.1714  1.3989 -1.1002
 9020SOL     OW38692   4.358   3.074  10.060  0.1902  0.1355  0.4443
 9020SOL    HW138693   4.305   3.130  10.117 -1.5718  0.1334 -1.1710
 9020SOL    HW238694   4.291   3.039  10.000  0.3669  0.0575  0.2936
 9021SOL     OW38695   1.597   3.936   5.277 -0.3455 -1.0476  0.0383
 9021SOL    HW138696   1.583   3.909   5.368 -0.0804 -0.9331  0.1137
 9021SOL    HW238697   1.539   3.877   5.228 -0.8747 -0.7041  0.2452
 9022SOL     OW38698   3.320   0.277   3.172  0.7807  0.1209  0.1577
 9022SOL    HW138699   3.285   0.360   3.142  3.6420  1.9647  1.8758
 9022SOL    HW238700   3.371   0.301   3.249 -0.3660 -0.2264  1.0210
 9023SOL     OW38701   3.406   1.542   2.210 -0.2965  0.0205  0.1345
 9023SOL    HW138702   3.415   1.482   2.284  0.9045  2.6376  2.1394
 9023SOL    HW238703   3.487   1.532   2.161 -0.3333  2.2513 -0.3847
 9024SOL     OW38704   4.365   1.036  11.246  0.0734  0.4612  0.3609
 9024SOL    HW138705   4.298   1.024  11.178 -0.3730  1.5203  0.6118
 9024SOL    HW238706   4.411   0.953  11.231 -1.3473 -0.2298 -0.1165
 9025SOL     OW38707   3.371   1.547   5.585  0.4358  0.3984  0.3348
 9025SOL    HW138708   3.375   1.549   5.489  2.1057 -0.4938  0.3836
 9025SOL    HW238709   3.277   1.563   5.594 -0.3765 -2.8118 -2.4971
 9026SOL     OW38710   2.339   0.738  11.726  0.2901  0.8068 -0.7205
 9026SOL    HW138711   2.324   0.797  11.799  1.4083  1.6207 -1.1482
 9026SOL    HW238712   2.408   0.680  11.760 -2.4663 -1.1916  1.4280
 9027SOL     OW38713   1.454   4.165  17.710  0.1141 -0.3429  0.1589
 9027SOL    HW138714   1.456   4.218  17.630  0.8768 -1.3010 -0.4602
 9027SOL    HW238715   1.377   4.206  17.750  0.5589 -0.8196  1.5036
 9028SOL     OW38716   0.117   3.032  12.674 -0.1767  0.0226  0.1003
 9028SOL    HW138717   0.211   3.046  12.675 -0.2412  0.3909  0.5579
 9028SOL    HW238718   0.089   3.123  12.678 -0.6944 -0.2370  2.4112
 9029SOL     OW38719   4.197   4.096   2.320  0.3586 -0.0712  0.0973
 9029SOL    HW138720   4.106   4.068   2.332  0.3399  0.3708  1.0171
 9029SOL    HW238721   4.189   4.178   2.368 -0.5403  1.4149 -2.6275
 9030SOL     OW38722   0.464   3.466   7.936  0.3953 -0.2828 -0.0444
 9030SOL    HW138723   0.381   3.496   7.972 -0.3147 -1.8199 -0.3926
 9030SOL    HW238724   0.491   3.409   8.008  1.1290 -0.5709 -0.5464
 9031SOL     OW38725   3.885   3.376   4.739 -0.0156  0.3031  0.2292
 9031SOL    HW138726   3.970   3.342   4.766 -1.9881 -3.7080  1.3956
 9031SOL    HW238727   3.917   3.440   4.675 -1.8504  0.5247 -0.4715
 9032SOL     OW38728   0.964   0.743   5.743 -0.6146  0.4126  0.2324
 9032SOL    HW138729   0.961   0.743   5.647 -0.7021 -1.3426  0.2360
 9032SOL    HW238730   1.059   0.752   5.750 -0.9949  2.8954  2.1315
 9033SOL     OW38731   2.381   3.965   6.084 -0.2607  0.4507  0.0591
 9033SOL    HW138732   2.303   3.909   6.084  0.1095 -0.0742  0.8656
 9033SOL    HW238733   2.397   3.980   5.991 -0.7842 -3.5709 -0.6818
 9034SOL     OW38734   2.318   1.110   2.567 -0.1549 -0.3109 -0.1719
 9034SOL    HW138735   2.403   1.144   2.539 -0.5468 -0.5944 -1.7111
 9034SOL    HW238736   2.301   1.066   2.483 -0.9209  0.2676 -0.3217
 9035SOL     OW38737   0.765   0.583   6.725  0.0219 -0.4426 -0.4772
 9035SOL    HW138738   0.697   0.536   6.773  0.2149  0.4250  0.6511
 9035SOL    HW238739   0.821   0.508   6.705  1.5264  0.6260 -0.2315
 9036SOL     OW38740   1.456   3.329   9.817 -0.0074  0.4209  0.0120
 9036SOL    HW138741   1.381   3.273   9.836  1.7519 -1.3339  1.7737
 9036SOL    HW238742   1.411   3.412   9.806 -0.1687  0.5209  1.5017
 9037SOL     OW38743   3.688   0.390   7.682  0.1890 -0.0520 -0.3741
 9037SOL    HW138744   3.628   0.316   7.697 -0.8981  0.7018 -0.9978
 9037SOL    HW238745   3.720   0.364   7.596 -0.3605  2.8108 -1.4536
 9038SOL     OW38746   3.051   3.268   1.618 -0.1444  0.8587 -0.0390
 9038SOL    HW138747   2.982   3.265   1.684 -0.4105  0.1714 -0.3490
 9038SOL    HW238748   3.026   3.199   1.556  0.6032  0.9913 -0.4840
 9039SOL     OW38749   4.310   0.847   4.480  0.0473 -0.2367  0.8271
 9039SOL    HW138750   4.334   0.926   4.432 -2.8259 -0.0584 -0.2866
 9039SOL    HW238751   4.254   0.887   4.547  1.3421  0.3839  1.5432
 9040SOL     OW38752   0.253   2.399   6.469 -0.4594  0.1580  0.6769
 9040SOL    HW138753   0.320   2.384   6.535  2.2441 -1.8942 -2.5264
 9040SOL    HW238754   0.218   2.312   6.452  0.7346 -0.2825  0.4660
 9041SOL     OW38755   3.839   2.068   9.316 -0.1081  0.3877  0.4822
 9041SOL    HW138756   3.933   2.049   9.315 -0.6076 -2.0456 -1.0190
 9041SOL    HW238757   3.833   2.099   9.406  0.6146 -0.2956  0.7683
 9042SOL     OW38758   4.269   3.474   7.317 -0.0469 -0.0376  0.2223
 9042SOL    HW138759   4.192   3.502   7.366 -0.7791 -0.5422 -0.6407
 9042SOL    HW238760   4.264   3.544   7.251  0.3048 -0.4933 -0.2870
 9043SOL     OW38761   2.455   1.180  10.981  0.1600 -0.6101  0.3540
 9043SOL    HW138762   2.439   1.214  11.069 -0.8829  1.3371 -0.5912
 9043SOL    HW238763   2.371   1.202  10.941  0.6971 -0.2549 -0.6064
 9044SOL     OW38764   0.405   1.074   8.332  0.7789 -0.2293 -0.6045
 9044SOL    HW138765   0.358   1.016   8.273  2.0019  0.8194 -2.6181
 9044SOL    HW238766   0.493   1.058   8.297  1.0442  0.4992 -0.2842
 9045SOL     OW38767   2.193   3.142  17.089 -0.3539  0.1172 -0.2074
 9045SOL    HW138768   2.205   3.214  17.028 -4.6619  2.2047  1.3952
 9045SOL    HW238769   2.136   3.174  17.159  0.1808  0.3651  0.1089
 9046SOL     OW38770   4.079   0.351   5.732 -0.2843  0.0515 -0.2659
 9046SOL    HW138771   4.159   0.358   5.679 -0.9168 -0.2192 -1.2558
 9046SOL    HW238772   4.060   0.257   5.734 -2.9322  0.6214  0.5604
 9047SOL     OW38773   2.513   4.546  13.049 -0.2857 -0.7074  0.0491
 9047SOL    HW138774   2.443   4.520  12.989  1.0646 -0.6126 -1.5564
 9047SOL    HW238775   2.589   4.504  13.010 -0.6449 -2.1469  0.9377
 9048SOL     OW38776   3.996   2.097   7.145 -0.4324  0.8884 -0.3883
 9048SOL    HW138777   3.904   2.092   7.120  0.0160  0.9208 -2.0080
 9048SOL    HW238778   4.026   2.042   7.073 -0.3883 -0.3991  0.6217
 9049SOL     OW38779   2.843   3.713  12.500  0.0588  0.1135  0.4821
 9049SOL    HW138780   2.765   3.684  12.453  1.2150 -1.0360 -0.7168
 9049SOL    HW238781   2.889   3.775  12.443 -2.3865  1.3996 -0.1014
 9050SOL     OW38782   0.856   0.188  16.235  0.0191  0.7725 -0.2570
 9050SOL    HW138783   0.778   0.231  16.200 -0.4233 -0.7788 -1.1915
 9050SOL    HW238784   0.921   0.232  16.179  1.8887  0.9510  2.0843
 9051SOL     OW38785   4.277   4.640   5.745  0.4329  0.4543 -0.1565
 9051SOL    HW138786   4.274   4.607   5.835  2.3090 -1.1567 -0.6888
 9051SOL    HW238787   4.257   4.551   5.716  0.0905  0.3197  0.4850
 9052SOL     OW38788   0.463   2.874  12.874  0.1405  0.1604 -0.5728
 9052SOL    HW138789   0.489   2.790  12.913  1.0242  1.4847  1.6493
 9052SOL    HW238790   0.372   2.887  12.900  1.4483  3.0580  2.5150
 9053SOL     OW38791   2.272   0.003   4.801  0.0096 -0.0600  0.1729
 9053SOL    HW138792   2.287   4.648   4.807  0.5093  0.0139  0.0735
 9053SOL    HW238793   2.347   0.031   4.750 -0.0041 -1.3538 -0.5716
 9054SOL     OW38794   4.656   0.263  11.683  0.2812 -0.0411  0.1316
 9054SOL    HW138795   0.011   0.269  11.676  0.2934 -2.4054 -2.0104
 9054SOL    HW238796   4.628   0.353  11.697  1.2681  0.1227  1.0375
 9055SOL     OW38797   0.033   1.924   6.842  0.5768 -0.0765 -0.3841
 9055SOL    HW138798   0.119   1.885   6.828 -0.1185 -1.3719 -1.0488
 9055SOL    HW238799   0.057   2.017   6.850 -1.6712  0.6771 -2.1234
 9056SOL     OW38800   1.725   2.609  16.939 -0.3608  0.1173  0.1189
 9056SOL    HW138801   1.653   2.552  16.966 -1.4509  1.4595  0.0159
 9056SOL    HW238802   1.680   2.692  16.930  1.7988  1.2658 -0.1681
 9057SOL     OW38803   0.779   1.529  14.576  0.4984  0.1393 -0.4679
 9057SOL    HW138804   0.685   1.545  14.566  0.2197 -1.7856 -0.9309
 9057SOL    HW238805   0.791   1.460  14.511 -2.3227  0.4452 -1.2957
 9058SOL     OW38806   3.504   1.650   8.761  0.7871  0.2995  0.0159
 9058SOL    HW138807   3.562   1.574   8.765  1.0210  0.3369 -2.7737
 9058SOL    HW238808   3.437   1.615   8.703 -0.2905 -1.9276  2.6142
 9059SOL     OW38809   2.758   4.033   6.472  0.4083  0.0019  0.5582
 9059SOL    HW138810   2.723   4.077   6.394  1.7157  2.3786  1.3396
 9059SOL    HW238811   2.691   3.964   6.480  0.3339 -0.1917 -1.5704
 9060SOL     OW38812   1.490   0.098   5.197  0.1534 -0.5008 -0.8921
 9060SOL    HW138813   1.502   0.106   5.103 -0.7815  1.2341 -0.8541
 9060SOL    HW238814   1.578   0.077   5.231 -0.2050 -0.5544  0.0105
 9061SOL     OW38815   0.707   2.514   3.096  0.5005  0.1790  0.4510
 9061SOL    HW138816   0.653   2.524   3.018 -0.6253 -1.4031  1.0255
 9061SOL    HW238817   0.674   2.583   3.154 -0.8653 -0.1665  0.0884
 9062SOL     OW38818   4.091   0.128   4.254  0.0057  0.5790  0.4952
 9062SOL    HW138819   4.093   0.224   4.251  0.8838  0.5898  1.2751
 9062SOL    HW238820   4.068   0.099   4.166  2.2251 -1.6119  0.6414
 9063SOL     OW38821   4.711   3.311   3.652 -0.4740  0.0470 -0.2354
 9063SOL    HW138822   4.699   3.332   3.744 -1.5421  0.8298 -0.5556
 9063SOL    HW238823   0.067   3.318   3.652 -0.4986  0.4143 -2.4042
 9064SOL     OW38824   0.762   2.385   9.239  0.4112 -0.3567 -0.1314
 9064SOL    HW138825   0.819   2.378   9.315  0.6260  0.2446 -0.2367
 9064SOL    HW238826   0.825   2.367   9.169  0.3035 -2.7210  0.3860
 9065SOL     OW38827   4.488   2.268   2.959  0.3948  0.0308 -0.1637
 9065SOL    HW138828   4.418   2.203   2.968 -1.1414  1.6792 -0.3028
 9065SOL    HW238829   4.468   2.284   2.867 -0.2583  2.8772  0.4892
 9066SOL     OW38830   4.456   1.564   0.503  0.5451 -0.3045 -0.1886
 9066SOL    HW138831   4.374   1.515   0.501  0.7740 -0.6804 -0.4415
 9066SOL    HW238832   4.515   1.490   0.517  2.6433  1.3289 -0.4155
 9067SOL     OW38833   1.480   2.416   6.790 -0.2976  0.5492 -0.1698
 9067SOL    HW138834   1.412   2.483   6.787  1.5797  2.3668 -1.8834
 9067SOL    HW238835   1.524   2.434   6.707  1.8055  1.6526  1.1742
 9068SOL     OW38836   0.502   3.693   4.000  0.1738 -0.2357  0.2455
 9068SOL    HW138837   0.438   3.724   4.063  1.2726  3.0437 -0.2482
 9068SOL    HW238838   0.440   3.650   3.942 -1.0880 -0.9651  2.1506
 9069SOL     OW38839   4.576   1.556   5.152  0.1026  0.9406 -0.0987
 9069SOL    HW138840   4.555   1.650   5.149 -0.3286  0.7861 -1.9716
 9069SOL    HW238841   4.523   1.525   5.226  0.1815  0.1245 -0.3862
 9070SOL     OW38842   0.479   3.561   3.187  0.2497  0.0045  0.1157
 9070SOL    HW138843   0.530   3.525   3.259 -0.1621 -2.5327 -0.8541
 9070SOL    HW238844   0.497   3.494   3.120  0.8388  1.4598 -1.1893
 9071SOL     OW38845   2.233   1.165   4.892  0.1959  0.3238 -0.9235
 9071SOL    HW138846   2.264   1.249   4.926  1.5284 -0.9092  0.9224
 9071SOL    HW238847   2.141   1.185   4.911  0.0019 -0.5443 -0.9780
 9072SOL     OW38848   1.155   1.084   2.529  0.0174 -0.2166 -0.4161
 9072SOL    HW138849   1.065   1.088   2.496 -0.3215 -2.0094  0.2455
 9072SOL    HW238850   1.165   0.989   2.533 -1.8313 -0.3274  2.0067
 9073SOL     OW38851   2.230   4.689   5.330 -0.0635  0.6056  0.0402
 9073SOL    HW138852   2.298   4.720   5.390  0.6622 -1.5455  0.3462
 9073SOL    HW238853   2.278   4.690   5.247  2.1516 -1.2521  1.3022
 9074SOL     OW38854   2.687   2.558   8.348  0.0032  0.7589 -0.1041
 9074SOL    HW138855   2.733   2.544   8.431  4.0230 -0.1049 -2.5212
 9074SOL    HW238856   2.634   2.638   8.360 -0.1902  0.7070 -0.6244
 9075SOL     OW38857   2.420   3.244   9.208 -0.2099 -0.1849 -0.2296
 9075SOL    HW138858   2.435   3.252   9.114  0.7246  3.6028  0.2243
 9075SOL    HW238859   2.479   3.313   9.239 -0.3435 -0.3996  0.5103
 9076SOL     OW38860   1.247   4.338   1.906  0.0193 -0.1927  0.3074
 9076SOL    HW138861   1.229   4.358   1.998  2.7244  1.7426  0.4161
 9076SOL    HW238862   1.338   4.366   1.909 -0.5517  1.8689 -1.4696
 9077SOL     OW38863   1.598   2.675   4.670  0.1488 -0.1673  0.3990
 9077SOL    HW138864   1.532   2.632   4.616  0.4912  1.7063 -1.4925
 9077SOL    HW238865   1.631   2.746   4.615 -0.2249  2.0901  3.0706
 9078SOL     OW38866   1.322   0.880   8.652 -0.0337  0.4621 -0.3338
 9078SOL    HW138867   1.257   0.904   8.586 -0.1517  0.4400 -0.2247
 9078SOL    HW238868   1.374   0.808   8.615  2.1079  1.1568  1.3129
 9079SOL     OW38869   4.687   0.422  11.407  0.2559 -0.1817  0.2607
 9079SOL    HW138870   4.638   0.417  11.325  1.5614  1.6471 -0.6321
 9079SOL    HW238871   4.726   0.335  11.400 -0.1569 -0.4442  1.2706
 9080SOL     OW38872   2.694   3.629   6.961  0.1398  0.5010  0.1082
 9080SOL    HW138873   2.708   3.689   6.888 -0.8258 -0.1375 -0.6025
 9080SOL    HW238874   2.669   3.549   6.914 -1.5109  1.3476 -0.4303
 9081SOL     OW38875   4.594   0.011  11.773  0.0188 -0.7310  0.6394
 9081SOL    HW138876   4.652   0.018  11.849  3.2165 -0.6424 -1.8053
 9081SOL    HW238877   4.599   0.101  11.742 -0.9805 -0.9475 -0.1350
 9082SOL     OW38878   4.562   3.273   4.134  0.3987 -0.6410 -0.4091
 9082SOL    HW138879   4.649   3.256   4.099 -1.1692 -3.1538 -3.1442
 9082SOL    HW238880   4.507   3.197   4.112 -0.2778  0.2008 -1.6368
 9083SOL     OW38881   1.678   0.302   0.034 -0.1148 -0.4431 -0.1191
 9083SOL    HW138882   1.626   0.347   0.100  0.1434 -1.2249  0.6188
 9083SOL    HW238883   1.640   0.215   0.045  1.5672 -0.4814  5.0590
 9084SOL     OW38884   1.195   2.209  15.171  0.3720 -0.5433  0.4035
 9084SOL    HW138885   1.169   2.280  15.113 -0.1987 -1.3623 -0.3423
 9084SOL    HW238886   1.200   2.136  15.108 -0.5188 -0.8595  0.6974
 9085SOL     OW38887   2.617   4.608   4.745 -0.7363  0.0790  0.0636
 9085SOL    HW138888   2.584   4.659   4.820  0.2565  1.8137 -0.6753
 9085SOL    HW238889   2.573   4.652   4.672  0.5431 -0.6991 -1.1753
 9086SOL     OW38890   3.633   1.535   3.185  0.1788  0.4276 -0.2272
 9086SOL    HW138891   3.691   1.551   3.110  1.2358 -1.2152  0.2438
 9086SOL    HW238892   3.549   1.574   3.162 -0.1290 -0.1486 -0.0745
 9087SOL     OW38893   0.472   0.437   4.041  0.7508 -0.3897  0.0396
 9087SOL    HW138894   0.387   0.471   4.070  0.9455  1.9699 -2.2106
 9087SOL    HW238895   0.457   0.345   4.016  0.2020 -0.3333  0.1476
 9088SOL     OW38896   2.038   3.863  11.236  0.3334  0.4653  0.0126
 9088SOL    HW138897   2.104   3.880  11.169 -0.9529  3.1241 -0.5481
 9088SOL    HW238898   2.074   3.784  11.276  1.1984 -1.0377 -3.7365
 9089SOL     OW38899   4.598   4.696   6.466 -0.2517 -0.4394  0.2295
 9089SOL    HW138900   4.603   4.618   6.522 -5.0467 -2.3357 -2.0035
 9089SOL    HW238901   4.691   4.709   6.447  0.5341 -2.2426  2.6736
 9090SOL     OW38902   0.718   3.512   7.057 -0.5624 -0.1398 -0.4930
 9090SOL    HW138903   0.657   3.464   7.001 -0.7259 -1.2679  0.6507
 9090SOL    HW238904   0.800   3.465   7.043 -0.3819  0.0791 -0.1788
 9091SOL     OW38905   4.374   4.390   8.270  0.8825  0.4896 -0.3170
 9091SOL    HW138906   4.464   4.420   8.282  1.8645 -2.6839  0.4133
 9091SOL    HW238907   4.385   4.321   8.204 -0.3651  2.2592 -2.3778
 9092SOL     OW38908   0.750   4.406   0.663  0.3868  0.5322 -0.4477
 9092SOL    HW138909   0.798   4.452   0.732  0.2894  2.2941 -1.5636
 9092SOL    HW238910   0.819   4.361   0.616 -0.2600 -1.5561  0.5931
 9093SOL     OW38911   4.609   2.584   6.479 -0.1521  0.8288  0.0281
 9093SOL    HW138912   4.582   2.565   6.389  0.3022 -0.3519  0.1389
 9093SOL    HW238913   4.589   2.499   6.519 -0.0532 -0.3297 -2.3362
 9094SOL     OW38914   2.132   0.218   9.883  0.3678 -0.2467  0.0384
 9094SOL    HW138915   2.197   0.177   9.826 -0.3816 -1.6544  0.2122
 9094SOL    HW238916   2.095   0.290   9.831  1.6557 -0.7897 -1.6178
 9095SOL     OW38917   4.244   4.593   2.317 -0.8821  0.4473 -0.6995
 9095SOL    HW138918   4.336   4.607   2.297  0.0431 -0.2806  3.1093
 9095SOL    HW238919   4.215   4.680   2.342 -0.6879  0.5467 -0.8227
 9096SOL     OW38920   2.952   2.996   2.140  0.0094  0.4602  0.6073
 9096SOL    HW138921   2.993   2.919   2.179  0.7643 -0.0801 -1.2556
 9096SOL    HW238922   2.998   3.060   2.194  4.2477 -1.9859 -0.0936
 9097SOL     OW38923   2.751   2.387   1.391  0.0949  0.0064  0.2210
 9097SOL    HW138924   2.786   2.379   1.479  0.5686 -2.1969 -0.1577
 9097SOL    HW238925   2.830   2.413   1.343  0.0307 -0.1245  0.0434
 9098SOL     OW38926   3.173   3.195   8.731 -0.2215  0.2117  0.0517
 9098SOL    HW138927   3.144   3.203   8.822 -1.7466 -1.0897 -0.3234
 9098SOL    HW238928   3.214   3.110   8.745 -0.2310  0.0563 -0.8582
 9099SOL     OW38929   3.498   3.881   0.601  0.2037  0.0171 -0.5013
 9099SOL    HW138930   3.547   3.963   0.616 -1.1934  0.3966  1.9148
 9099SOL    HW238931   3.411   3.920   0.593 -0.1000 -0.6317 -0.2843
 9100SOL     OW38932   3.699   2.608  16.882  0.7712 -0.0721  0.4067
 9100SOL    HW138933   3.726   2.700  16.892 -4.0005  1.1892  1.5725
 9100SOL    HW238934   3.784   2.563  16.885  1.0716  0.5222  0.9783
 9101SOL     OW38935   0.212   1.590   6.659  0.1744 -0.2225  0.2824
 9101SOL    HW138936   0.250   1.666   6.702  1.8376 -0.1535 -1.3283
 9101SOL    HW238937   0.221   1.516   6.719 -0.7000 -1.2996 -0.9030
 9102SOL     OW38938   3.667   2.860  11.651  0.2417 -0.3716  0.4225
 9102SOL    HW138939   3.594   2.799  11.661  0.7429 -1.2345 -1.2868
 9102SOL    HW238940   3.626   2.935  11.695 -0.9815 -0.3525 -0.7899
 9103SOL     OW38941   1.353   4.402  15.282  0.1954  0.2606 -0.5906
 9103SOL    HW138942   1.325   4.492  15.267 -0.7794  0.3249  1.7223
 9103SOL    HW238943   1.272   4.351  15.279  0.0646  0.5880 -2.9190
 9104SOL     OW38944   2.326   1.611  15.608  0.2725  0.0372  0.0880
 9104SOL    HW138945   2.258   1.679  15.614  0.4688  0.2365  0.0832
 9104SOL    HW238946   2.279   1.530  15.627 -0.5926  0.6651  0.6846
 9105SOL     OW38947   4.517   1.339   4.631  0.0682 -0.5711  0.8688
 9105SOL    HW138948   4.511   1.284   4.709 -1.5762 -0.8398  0.5710
 9105SOL    HW238949   4.588   1.391   4.669 -1.2511  0.1656  2.3486
 9106SOL     OW38950   2.606   0.778   4.480  0.2513  0.3632  0.5301
 9106SOL    HW138951   2.583   0.849   4.541  1.4102 -0.0820  1.4898
 9106SOL    HW238952   2.543   0.715   4.515  1.6713  0.1001  2.6075
 9107SOL     OW38953   1.033   0.628   2.599  0.8887  0.2450 -0.0590
 9107SOL    HW138954   1.117   0.592   2.628  0.4580  0.8073  1.8562
 9107SOL    HW238955   0.975   0.584   2.661 -1.0357  1.4203 -1.0462
 9108SOL     OW38956   2.487   1.200  16.746  0.1850 -0.2463 -0.9853
 9108SOL    HW138957   2.571   1.181  16.704  1.2047  1.0578  0.4885
 9108SOL    HW238958   2.424   1.160  16.685  0.1853 -1.7998  0.0426
 9109SOL     OW38959   4.123   1.607  12.003  0.1548 -0.4454 -0.1428
 9109SOL    HW138960   4.160   1.690  11.973 -1.2771  0.4321  0.5057
 9109SOL    HW238961   4.178   1.542  11.959  1.5835 -0.3296  1.4781
 9110SOL     OW38962   1.292   3.774   3.172  0.4028  0.1170 -0.0545
 9110SOL    HW138963   1.266   3.800   3.084 -0.4034  1.7533  0.6725
 9110SOL    HW238964   1.382   3.807   3.167  0.8004 -1.0610 -0.6968
 9111SOL     OW38965   4.704   0.252   0.212  0.3026  0.5125 -0.5904
 9111SOL    HW138966   4.632   0.305   0.247 -0.3378 -1.2796  0.7558
 9111SOL    HW238967   4.651   0.183   0.174  0.3224 -1.3849  2.8272
 9112SOL     OW38968   4.421   1.197   0.171 -0.2419 -0.2479 -0.2594
 9112SOL    HW138969   4.425   1.251   0.092  2.0063  0.6111  0.4230
 9112SOL    HW238970   4.332   1.163   0.164 -0.0443 -1.1275  1.4212
 9113SOL     OW38971   4.094   3.380   9.389 -0.1449 -0.8047 -0.5629
 9113SOL    HW138972   4.042   3.461   9.395  1.4909  0.3407 -1.8507
 9113SOL    HW238973   4.063   3.334   9.311 -0.9461  0.3415 -0.9299
 9114SOL     OW38974   1.113   2.977   7.513 -0.0144 -0.2337 -0.9593
 9114SOL    HW138975   1.062   3.022   7.446 -0.9603 -0.6971 -0.5568
 9114SOL    HW238976   1.176   2.932   7.456  0.9188 -0.7418  0.4812
 9115SOL     OW38977   1.759   2.949   6.397  0.0146 -0.7727 -0.2969
 9115SOL    HW138978   1.732   2.879   6.337  1.5952  0.2414 -2.2017
 9115SOL    HW238979   1.853   2.934   6.386  0.0644  0.8898 -2.2533
 9116SOL     OW38980   1.819   0.942   3.133 -0.1544  0.0252  0.4354
 9116SOL    HW138981   1.756   0.872   3.118  0.5362 -0.5469  0.1833
 9116SOL    HW238982   1.841   0.977   3.047 -0.7279  0.4006  0.4471
 9117SOL     OW38983   2.041   4.433   3.332 -0.3848 -0.3554  0.4318
 9117SOL    HW138984   1.999   4.518   3.338  1.9628  0.9059 -0.9390
 9117SOL    HW238985   1.964   4.377   3.336 -0.2641 -0.3360  3.1333
 9118SOL     OW38986   4.698   4.184   8.916 -0.1941  0.0151 -0.2582
 9118SOL    HW138987   4.644   4.189   8.837 -1.1401  1.3352  0.4784
 9118SOL    HW238988   4.647   4.117   8.962 -1.4946  2.0478  1.2328
 9119SOL     OW38989   4.340   3.804   2.258  0.5104 -0.0847  0.2940
 9119SOL    HW138990   4.411   3.743   2.238 -1.7941 -3.0340  1.1332
 9119SOL    HW238991   4.273   3.736   2.266 -1.0358  1.2922 -0.6952
 9120SOL     OW38992   1.399   3.852   1.730 -0.3726 -0.2161 -0.1818
 9120SOL    HW138993   1.303   3.852   1.727 -0.4107  0.1985  0.7888
 9120SOL    HW238994   1.411   3.804   1.648 -1.4896 -0.2409 -0.3362
 9121SOL     OW38995   3.261   2.985  11.689  0.2092  0.1867  0.0425
 9121SOL    HW138996   3.216   3.053  11.639 -0.2480 -0.2972 -0.2009
 9121SOL    HW238997   3.285   3.022  11.774  0.4427  0.1191  0.0069
 9122SOL     OW38998   1.552   2.710   3.238  0.1254 -0.7653 -0.1517
 9122SOL    HW138999   1.634   2.750   3.208  0.3282 -0.7404  0.4287
 9122SOL    HW239000   1.554   2.715   3.334  2.2835 -2.9227 -0.0952
 9123SOL     OW39001   2.291   3.464   8.517  0.2389 -0.0679  0.1649
 9123SOL    HW139002   2.383   3.443   8.535  0.3334  1.1918  1.1557
 9123SOL    HW239003   2.277   3.520   8.594 -2.7951  1.1583 -1.2987
 9124SOL     OW39004   3.359   3.366  13.179  0.0018  0.6075 -0.4766
 9124SOL    HW139005   3.367   3.387  13.085 -2.1695 -2.6168 -1.3512
 9124SOL    HW239006   3.443   3.321  13.185  0.1163  1.0079  0.7999
 9125SOL     OW39007   2.367   0.606  15.934 -0.0840  0.2325  0.2983
 9125SOL    HW139008   2.450   0.649  15.953 -0.2355 -0.5799  2.8693
 9125SOL    HW239009   2.307   0.673  15.970  0.4698  0.6043  0.5378
 9126SOL     OW39010   3.110   1.566  17.719  0.2450 -0.0747  0.0081
 9126SOL    HW139011   3.169   1.638  17.696  0.5724  0.0508  1.2287
 9126SOL    HW239012   3.057   1.605   0.033 -0.0677 -2.9680  1.4076
 9127SOL     OW39013   2.054   3.442   3.948  0.4575  0.0841 -0.4657
 9127SOL    HW139014   1.974   3.391   3.938  0.7349 -0.2602 -0.9111
 9127SOL    HW239015   2.132   3.387   3.953 -0.7984 -1.5757  0.6492
 9128SOL     OW39016   3.058   3.556   4.428 -0.6782 -0.3253 -0.4243
 9128SOL    HW139017   3.062   3.644   4.391  2.1031 -0.7108 -1.0163
 9128SOL    HW239018   2.971   3.544   4.466  0.4569 -3.1977  1.2301
 9129SOL     OW39019   4.732   2.295  14.976 -0.4662  0.5162  0.0678
 9129SOL    HW139020   4.642   2.269  14.961 -0.7138  2.1381 -1.2191
 9129SOL    HW239021   0.040   2.275  14.895  2.9901 -0.6372  2.3727
 9130SOL     OW39022   3.680   2.862   7.226 -0.3643  0.1700  0.2100
 9130SOL    HW139023   3.755   2.819   7.186 -0.1582  0.5453  0.1947
 9130SOL    HW239024   3.725   2.906   7.299 -1.1897  1.8278 -0.2700
 9131SOL     OW39025   3.373   1.284   4.767  0.3078  0.0588  0.0696
 9131SOL    HW139026   3.355   1.365   4.718 -1.1941 -0.8091 -0.8117
 9131SOL    HW239027   3.325   1.302   4.848 -0.1620 -0.1415 -0.1593
 9132SOL     OW39028   3.443   1.329   3.100 -0.0623  0.0181 -0.5491
 9132SOL    HW139029   3.419   1.421   3.106 -0.0299 -0.0227  0.2015
 9132SOL    HW239030   3.422   1.304   3.010 -1.4176 -2.2369  0.3869
 9133SOL     OW39031   3.909   2.890   0.489  0.6600  0.5604 -0.1412
 9133SOL    HW139032   3.972   2.841   0.542  1.1505 -1.7559 -2.8739
 9133SOL    HW239033   3.870   2.818   0.439 -0.7360  0.9405  0.4213
 9134SOL     OW39034   4.722   0.638   2.396 -0.1384 -0.6948  0.1631
 9134SOL    HW139035   4.687   0.619   2.309 -0.4131  1.9971 -0.3210
 9134SOL    HW239036   0.069   0.673   2.375 -0.9927  1.9238  1.0773
 9135SOL     OW39037   2.252   1.238  17.640  0.2040 -0.1888  0.3642
 9135SOL    HW139038   2.208   1.323  17.649  0.0272 -0.2257 -0.1658
 9135SOL    HW239039   2.206   1.207  17.563 -0.8439  1.0231  0.4894
 9136SOL     OW39040   1.816   2.374   7.045 -0.2574 -0.5288 -0.1864
 9136SOL    HW139041   1.757   2.399   7.116  0.6956  0.9468  0.0786
 9136SOL    HW239042   1.788   2.431   6.973  0.0462  0.0185  0.1330
 9137SOL     OW39043   3.278   4.531   8.477 -0.3264  0.2744 -1.0154
 9137SOL    HW139044   3.347   4.464   8.483 -0.0365  0.7225  0.6616
 9137SOL    HW239045   3.342   4.601   8.465  0.8642 -0.7473 -0.6353
 9138SOL     OW39046   0.460   0.196  17.289 -0.3203  0.2058  0.3998
 9138SOL    HW139047   0.439   0.107  17.317 -0.6260  0.1608  0.0212
 9138SOL    HW239048   0.533   0.193  17.227 -2.0581 -0.1264 -1.6098
 9139SOL     OW39049   0.653   1.245   4.358  0.4543  0.4857 -0.4091
 9139SOL    HW139050   0.613   1.170   4.314 -0.2363  0.0363  0.9961
 9139SOL    HW239051   0.693   1.193   4.428  1.7073  0.4488 -1.1557
 9140SOL     OW39052   2.150   0.592   4.800 -0.1358  0.1338 -0.5995
 9140SOL    HW139053   2.090   0.520   4.816  0.1789 -0.1189 -0.5649
 9140SOL    HW239054   2.089   0.659   4.831 -0.4287 -1.3732  2.1200
 9141SOL     OW39055   3.235   3.968  17.119  0.1597 -0.1859 -0.0874
 9141SOL    HW139056   3.162   3.986  17.060 -0.6781 -1.7053  0.4940
 9141SOL    HW239057   3.277   4.051  17.142  1.4625 -0.8138 -0.1913
 9142SOL     OW39058   1.634   1.310   5.785 -0.5432  0.2904 -0.3836
 9142SOL    HW139059   1.692   1.310   5.709  1.2929  1.5572  1.0162
 9142SOL    HW239060   1.654   1.232   5.838  1.2304  0.9712 -0.0369
 9143SOL     OW39061   1.164   1.320   9.856 -0.1998 -0.2507 -0.2284
 9143SOL    HW139062   1.125   1.244   9.813 -0.2788 -0.6642  0.5812
 9143SOL    HW239063   1.079   1.355   9.885 -0.2750  1.2530 -2.2832
 9144SOL     OW39064   1.330   2.251   6.252  0.1826 -0.7574 -0.6788
 9144SOL    HW139065   1.269   2.219   6.186 -0.0380 -0.2888 -0.7020
 9144SOL    HW239066   1.260   2.288   6.307  2.4113  0.4574  1.3811
 9145SOL     OW39067   1.657   0.429   2.963 -0.8111 -0.5803  0.5839
 9145SOL    HW139068   1.641   0.515   2.923 -0.8634 -0.5010  0.7774
 9145SOL    HW239069   1.681   0.372   2.890  3.2754  2.0552 -0.1295
 9146SOL     OW39070   3.529   4.722  12.082  0.3645  0.4456  0.2647
 9146SOL    HW139071   3.439   4.721  12.113  0.3248 -2.1778  0.0104
 9146SOL    HW239072   3.560   4.663  12.151  1.5270  1.4927  0.6301
 9147SOL     OW39073   3.649   4.662   5.073 -0.6020 -0.5405 -0.6421
 9147SOL    HW139074   3.603   4.589   5.113 -0.7847 -1.5320 -2.6883
 9147SOL    HW239075   3.693   4.698   5.150 -1.6462  0.0104 -0.2977
 9148SOL     OW39076   0.356   4.698  15.450 -0.3514 -0.4503  0.0740
 9148SOL    HW139077   0.272   4.660  15.478 -1.1912  1.1871 -0.2173
 9148SOL    HW239078   0.416   4.656  15.512 -0.4349 -0.8326 -0.1031
 9149SOL     OW39079   4.021   1.535   8.334  0.0026  0.2843  0.3430
 9149SOL    HW139080   3.953   1.471   8.354 -0.5782  1.0303  0.7662
 9149SOL    HW239081   4.096   1.498   8.379 -1.9251  0.1903  3.4711
 9150SOL     OW39082   3.941   1.960  16.099  0.3513 -0.1071 -0.2506
 9150SOL    HW139083   4.032   1.956  16.069  0.8562 -0.2893  1.3051
 9150SOL    HW239084   3.952   2.038  16.153 -0.9805 -0.4759  0.5511
 9151SOL     OW39085   3.015   0.236   9.116  0.6740 -0.1328  0.4845
 9151SOL    HW139086   2.997   0.173   9.186 -2.4798 -0.3454 -0.5009
 9151SOL    HW239087   3.106   0.251   9.138  0.3391  1.1574  0.9836
 9152SOL     OW39088   2.424   2.753   3.259  0.0404 -0.2540  0.2549
 9152SOL    HW139089   2.436   2.809   3.336 -1.4895  0.8310 -0.2840
 9152SOL    HW239090   2.472   2.793   3.187 -3.0368  0.0199 -1.6687
 9153SOL     OW39091   1.087   3.530   4.897  0.1459 -0.0153 -0.2669
 9153SOL    HW139092   1.055   3.576   4.820 -2.2728  2.0463  2.0088
 9153SOL    HW239093   1.122   3.450   4.857  1.1888 -0.3327  1.2378
 9154SOL     OW39094   3.009   2.592   5.062 -0.0063 -0.3634  0.3170
 9154SOL    HW139095   2.952   2.519   5.037 -0.1798 -0.4501  0.9909
 9154SOL    HW239096   3.058   2.605   4.981 -1.5684  3.0808 -0.0541
 9155SOL     OW39097   0.603   1.424   6.131  0.0557  0.3599 -0.0667
 9155SOL    HW139098   0.603   1.406   6.225 -0.5598  0.7751  0.0125
 9155SOL    HW239099   0.656   1.351   6.100 -0.2678  0.4017 -0.7230
 9156SOL     OW39100   3.099   1.793   5.374 -0.3086  0.3538  0.2670
 9156SOL    HW139101   3.070   1.788   5.283  1.0152  0.8012 -0.1880
 9156SOL    HW239102   3.098   1.888   5.385  0.1879  0.4075 -0.1500
 9157SOL     OW39103   3.281   2.452   2.808  0.1441  0.2030  0.1456
 9157SOL    HW139104   3.361   2.439   2.756  0.5580  0.2521  0.7654
 9157SOL    HW239105   3.211   2.419   2.752 -0.0980 -0.0954  0.6246
 9158SOL     OW39106   1.993   3.777  10.189 -0.1453  0.0913  0.1692
 9158SOL    HW139107   1.938   3.717  10.139  0.9359  0.7341 -1.8407
 9158SOL    HW239108   2.082   3.745  10.174 -0.6942 -2.1098  1.6849
 9159SOL     OW39109   2.738   3.106   3.423  0.0616  0.0252 -0.1270
 9159SOL    HW139110   2.810   3.116   3.486 -0.9602  2.1307  0.7037
 9159SOL    HW239111   2.739   3.191   3.379 -0.1040  0.2826  0.3648
 9160SOL     OW39112   2.193   3.430   7.572  0.1661 -0.0803 -0.3543
 9160SOL    HW139113   2.212   3.489   7.499 -1.4624  0.8247 -0.0259
 9160SOL    HW239114   2.275   3.381   7.563 -0.4398 -1.2348  0.3777
 9161SOL     OW39115   3.136   3.401  13.719  0.4853 -0.2076 -0.4157
 9161SOL    HW139116   3.056   3.366  13.680  1.3562 -0.0575 -2.3379
 9161SOL    HW239117   3.119   3.377  13.810  0.2644  0.5588 -0.2521
 9162SOL     OW39118   3.936   3.111  11.473 -0.6176  0.1248 -0.2311
 9162SOL    HW139119   3.862   3.161  11.507 -0.5664 -0.7716  1.1767
 9162SOL    HW239120   3.955   3.059  11.551  0.5503  0.9036  0.0116
 9163SOL     OW39121   0.547   4.552   6.200  0.3708 -0.2230 -0.6389
 9163SOL    HW139122   0.534   4.524   6.110 -1.0292  1.0040 -0.8170
 9163SOL    HW239123   0.638   4.527   6.220  1.2510  3.5665  0.2460
 9164SOL     OW39124   0.395   3.156   6.700 -0.6368 -0.5065  1.0191
 9164SOL    HW139125   0.475   3.109   6.721  0.1297 -0.8266 -2.6896
 9164SOL    HW239126   0.352   3.169   6.784 -1.2576 -0.0900  0.6412
 9165SOL     OW39127   2.262   4.709   2.578 -0.2065 -0.4113 -0.5140
 9165SOL    HW139128   2.197   0.014   2.523  0.2607 -0.9058 -1.4559
 9165SOL    HW239129   2.247   4.620   2.546  2.6183 -2.3549  3.5573
 9166SOL     OW39130   0.517   3.454   0.591  1.4038  0.2519 -0.4600
 9166SOL    HW139131   0.436   3.505   0.602  0.4923 -1.1670 -0.6259
 9166SOL    HW239132   0.467   3.373   0.598  1.3078  0.2215 -1.5324
 9167SOL     OW39133   4.488   3.304   4.806 -0.0130  0.4100  0.4854
 9167SOL    HW139134   4.438   3.222   4.809  2.7020 -1.2970 -0.6023
 9167SOL    HW239135   4.504   3.323   4.714 -1.9195  1.0071  0.2810
 9168SOL     OW39136   2.618   3.350   6.267 -0.1130 -0.3217  0.6414
 9168SOL    HW139137   2.664   3.427   6.235 -1.9038 -0.3332 -1.9426
 9168SOL    HW239138   2.540   3.342   6.212 -0.6085  3.6686  0.7817
 9169SOL     OW39139   4.066   0.047   9.092 -0.4344 -0.4937  0.1398
 9169SOL    HW139140   4.071   0.141   9.111  1.6831 -0.1328 -2.0385
 9169SOL    HW239141   4.139   0.016   9.145 -0.8147 -0.6313  0.5836
 9170SOL     OW39142   2.451   3.037  17.077  0.1674  0.1839  0.4732
 9170SOL    HW139143   2.368   3.085  17.073  0.2877  0.2630 -1.1358
 9170SOL    HW239144   2.442   2.985  17.156  1.2319 -0.4928  0.1492
 9171SOL     OW39145   3.187   3.735  16.281 -0.1981  0.9113  0.3401
 9171SOL    HW139146   3.115   3.774  16.231 -0.3391  0.4995  0.2230
 9171SOL    HW239147   3.263   3.760  16.228 -0.2116  0.1861 -0.0206
 9172SOL     OW39148   0.195   0.195   9.198  0.1246 -0.3700 -0.4396
 9172SOL    HW139149   0.101   0.182   9.189  0.0815 -0.2579 -0.1379
 9172SOL    HW239150   0.216   0.233   9.112 -0.8501 -0.1998 -0.5967
 9173SOL     OW39151   3.700   3.021   4.629 -0.0092 -0.0408 -0.7250
 9173SOL    HW139152   3.672   3.107   4.661 -0.1294 -0.7785  1.1884
 9173SOL    HW239153   3.674   2.971   4.707  0.9742  0.7952  0.1435
 9174SOL     OW39154   0.063   3.454  10.233 -0.4086 -0.1448  0.1890
 9174SOL    HW139155   0.007   3.380  10.253  0.9026 -0.4513  2.7293
 9174SOL    HW239156   0.039   3.479  10.143 -0.1452  0.4780  0.2893
 9175SOL     OW39157   3.644   4.504   2.200  0.8125  0.3572 -0.1046
 9175SOL    HW139158   3.625   4.498   2.106  1.5529  1.0765 -0.2927
 9175SOL    HW239159   3.561   4.486   2.246  1.1086 -0.4538  0.1053
 9176SOL     OW39160   4.311   0.224  12.895  0.0658  0.0047  0.0621
 9176SOL    HW139161   4.360   0.299  12.929 -2.3433  2.9858 -3.1046
 9176SOL    HW239162   4.292   0.253  12.806  0.1521  1.0053  0.3703
 9177SOL     OW39163   3.487   1.312   5.653  0.3010  0.6426 -0.4612
 9177SOL    HW139164   3.431   1.390   5.651 -3.0279 -1.6800  2.0681
 9177SOL    HW239165   3.439   1.248   5.599 -0.8109  0.5497  0.6435
 9178SOL     OW39166   3.268   4.468   2.034  0.5739 -0.2393 -0.3157
 9178SOL    HW139167   3.272   4.562   2.051 -0.9296 -0.1498 -0.4372
 9178SOL    HW239168   3.182   4.473   1.993 -0.2870  0.1203  1.5631
 9179SOL     OW39169   4.228   2.126  16.573  0.1710 -0.8201 -0.2923
 9179SOL    HW139170   4.227   2.031  16.575  0.4422 -0.8505 -1.5843
 9179SOL    HW239171   4.144   2.133  16.527 -0.8039  2.3611  1.9593
 9180SOL     OW39172   0.948   1.192   8.963  0.1328 -0.2477  0.0356
 9180SOL    HW139173   0.981   1.102   8.956  0.9887  0.0685 -0.0659
 9180SOL    HW239174   0.960   1.208   9.057  2.5198 -0.0144 -0.2969
 9181SOL     OW39175   4.246   1.425   4.619  0.3382  0.1865 -0.5072
 9181SOL    HW139176   4.243   1.461   4.708 -0.5955  2.1439 -1.3297
 9181SOL    HW239177   4.337   1.394   4.615 -0.3126 -1.9424  1.7446
 9182SOL     OW39178   0.275   1.429  11.936 -0.6842 -0.0771  0.2581
 9182SOL    HW139179   0.359   1.399  11.969  0.7925  1.5329 -1.9855
 9182SOL    HW239180   0.289   1.523  11.950 -0.0532 -0.0970 -0.2292
 9183SOL     OW39181   3.013   0.934   8.881  0.0195  0.1833  0.5265
 9183SOL    HW139182   2.968   1.004   8.930 -2.2948 -1.8156  1.2335
 9183SOL    HW239183   2.988   0.943   8.789  0.2007 -0.4687  0.4192
 9184SOL     OW39184   3.321   3.150   7.057 -0.3604  0.3353  0.1791
 9184SOL    HW139185   3.379   3.156   6.982 -1.4765  1.1333 -0.6251
 9184SOL    HW239186   3.351   3.068   7.096  0.1676  1.0997  1.3722
 9185SOL     OW39187   3.076   3.957   7.761  0.0840 -0.2243 -0.0947
 9185SOL    HW139188   3.069   4.028   7.825 -3.5426 -2.7045  2.2872
 9185SOL    HW239189   3.112   3.889   7.817 -0.9429  0.7800  1.7692
 9186SOL     OW39190   3.887   1.659  14.548 -0.5480 -0.5551 -0.4343
 9186SOL    HW139191   3.870   1.724  14.616  0.7954 -0.9540  0.2774
 9186SOL    HW239192   3.843   1.689  14.468 -2.6593 -2.0711  0.1418
 9187SOL     OW39193   1.870   2.767   8.935 -0.7224 -0.3277 -0.2636
 9187SOL    HW139194   1.796   2.819   8.965 -1.9651 -2.3412  0.1308
 9187SOL    HW239195   1.853   2.680   8.971  2.1800 -1.8845 -2.6056
 9188SOL     OW39196   3.690   4.277   3.158 -0.2673  0.3782 -0.1024
 9188SOL    HW139197   3.735   4.270   3.074  0.1040 -1.2134  0.2195
 9188SOL    HW239198   3.607   4.301   3.117  0.1265  0.0555 -1.0737
 9189SOL     OW39199   2.481   1.670   5.177  0.6312 -0.3112 -0.4341
 9189SOL    HW139200   2.498   1.644   5.086  0.1712  0.0718 -0.6254
 9189SOL    HW239201   2.499   1.764   5.172 -0.3594 -0.1295 -0.5318
 9190SOL     OW39202   3.755   2.849   4.050  0.5224  0.8287  0.3359
 9190SOL    HW139203   3.794   2.762   4.036  1.1897  1.2845 -0.6242
 9190SOL    HW239204   3.661   2.830   4.056  0.4106  1.2210 -0.1534
 9191SOL     OW39205   0.118   3.024   3.390  0.3240 -0.0304  0.3156
 9191SOL    HW139206   0.158   2.942   3.419  1.1576  1.2620  2.8182
 9191SOL    HW239207   0.027   3.016   3.420  0.1128 -0.8491 -0.5356
 9192SOL     OW39208   3.645   0.812   9.120  0.1672 -0.2035 -0.3866
 9192SOL    HW139209   3.735   0.829   9.147 -1.0183 -0.0137  3.3744
 9192SOL    HW239210   3.603   0.781   9.200 -0.0417  1.5812  0.1892
 9193SOL     OW39211   3.387   0.520   1.424  0.3899 -0.8484 -0.0489
 9193SOL    HW139212   3.342   0.581   1.483  0.9685 -0.9501  0.4908
 9193SOL    HW239213   3.438   0.591   1.384  0.6746 -1.7064 -1.2151
 9194SOL     OW39214   0.028   4.414   3.937  0.2596 -0.0678 -0.3608
 9194SOL    HW139215   0.009   4.323   3.918  0.7750 -0.7584  2.4343
 9194SOL    HW239216   4.701   4.454   3.880  2.0558  0.9435 -1.7456
 9195SOL     OW39217   1.670   4.625   4.286  0.2802  0.4996 -0.4761
 9195SOL    HW139218   1.628   4.704   4.321  1.8666  0.0054  2.5460
 9195SOL    HW239219   1.612   4.601   4.214 -1.4764 -1.1659  1.4803
 9196SOL     OW39220   2.770   0.383   1.481 -0.5774 -0.2891 -0.4836
 9196SOL    HW139221   2.782   0.366   1.388  1.4877 -0.6811 -0.1605
 9196SOL    HW239222   2.810   0.469   1.492 -1.6170 -0.3008  3.3977
 9197SOL     OW39223   1.535   1.421   3.926 -0.0688  0.3088 -0.2900
 9197SOL    HW139224   1.581   1.458   4.001 -0.7852  0.5458  0.0292
 9197SOL    HW239225   1.610   1.381   3.882  0.6472  2.4599 -1.0095
 9198SOL     OW39226   0.768   4.105  17.086 -0.3815  0.1869 -0.0452
 9198SOL    HW139227   0.684   4.150  17.090  0.5916  1.7310  3.1530
 9198SOL    HW239228   0.734   4.024  17.124  0.1007 -0.0195 -0.0500
 9199SOL     OW39229   1.014   0.557   7.462 -0.3785 -0.3348 -0.7781
 9199SOL    HW139230   1.078   0.553   7.391  2.5722 -0.7762  1.8980
 9199SOL    HW239231   1.003   0.463   7.482 -1.2421 -0.1713 -0.4951
 9200SOL     OW39232   1.019   1.600   9.031  0.4681 -0.2031  0.4166
 9200SOL    HW139233   1.041   1.518   8.986 -1.1048  0.2859 -1.2741
 9200SOL    HW239234   0.936   1.629   8.992  0.0567 -1.3325  0.4553
 9201SOL     OW39235   2.560   0.586   3.025 -0.1415  0.2429  0.1997
 9201SOL    HW139236   2.615   0.511   3.001 -2.0964 -0.5585 -1.7142
 9201SOL    HW239237   2.607   0.667   3.003 -0.3942 -0.2828 -2.2241
 9202SOL     OW39238   1.152   1.880   5.449 -0.1943 -0.3989  0.0462
 9202SOL    HW139239   1.141   1.932   5.369 -0.2281 -1.1651 -0.4443
 9202SOL    HW239240   1.081   1.919   5.501  0.4787  1.1578 -0.2150
 9203SOL     OW39241   0.066   2.460  16.363  0.2178  0.2952 -0.1402
 9203SOL    HW139242   0.088   2.372  16.391  0.9302  0.5775  0.1965
 9203SOL    HW239243   0.123   2.489  16.292  1.8922 -1.6966  0.4382
 9204SOL     OW39244   3.547   3.945   7.424  0.2147 -0.1596  0.1983
 9204SOL    HW139245   3.622   3.917   7.371 -0.2194  0.4659 -0.7327
 9204SOL    HW239246   3.546   3.873   7.488 -0.7017  1.3920  1.9373
 9205SOL     OW39247   0.198   3.221   4.057 -0.2413 -0.7909  0.0059
 9205SOL    HW139248   0.160   3.282   3.993 -0.4218  0.4611  1.3122
 9205SOL    HW239249   0.182   3.261   4.142  2.8744 -1.2200  0.7644
 9206SOL     OW39250   3.607   1.118   4.848  0.0807  0.3796  0.3649
 9206SOL    HW139251   3.520   1.151   4.825 -0.1504 -0.2962  0.2420
 9206SOL    HW239252   3.606   1.050   4.781  2.5211  0.4677  0.2436
 9207SOL     OW39253   1.066   0.012  17.655  0.3231 -0.0364 -0.0649
 9207SOL    HW139254   1.107   4.672  17.621  0.8792  0.0382  0.4307
 9207SOL    HW239255   1.031   0.053  17.576  1.2775 -1.4240 -1.1982
 9208SOL     OW39256   0.362   4.649  15.785  0.0257 -0.3024  0.0359
 9208SOL    HW139257   0.449   4.678  15.758 -0.7635 -0.2117 -2.4187
 9208SOL    HW239258   0.371   4.564  15.828 -0.2163 -0.6534 -0.6157
 9209SOL     OW39259   2.023   1.554  10.204  0.0762 -0.3689  0.0150
 9209SOL    HW139260   2.026   1.639  10.160 -0.2238 -0.2025  0.3133
 9209SOL    HW239261   2.099   1.574  10.258  0.2241  0.8896 -0.6671
 9210SOL     OW39262   3.445   2.676   6.954  0.1005 -0.0107 -0.2549
 9210SOL    HW139263   3.523   2.649   6.906  0.8234 -0.0893  0.9589
 9210SOL    HW239264   3.400   2.748   6.910 -0.7683 -0.5597 -0.2694
 9211SOL     OW39265   0.913   2.234   4.748  0.2627  0.3628  0.0412
 9211SOL    HW139266   0.869   2.286   4.681  3.7854  0.6308 -2.0459
 9211SOL    HW239267   0.834   2.203   4.793  1.0631 -1.3060  0.2977
 9212SOL     OW39268   2.420   2.148   7.540 -0.1126 -0.3857 -0.0780
 9212SOL    HW139269   2.432   2.237   7.508 -3.3702  0.3928  0.9138
 9212SOL    HW239270   2.506   2.109   7.521 -1.0343 -2.3621 -0.1887
 9213SOL     OW39271   1.594   1.977   3.463 -0.7624  0.0087 -0.1602
 9213SOL    HW139272   1.615   1.963   3.370 -1.3509 -0.3198 -0.2494
 9213SOL    HW239273   1.504   2.011   3.456 -0.7483  0.7028  3.2417
 9214SOL     OW39274   4.621   4.237   9.459  0.1936  0.1154  0.4306
 9214SOL    HW139275   4.624   4.325   9.421 -2.4568 -0.2446 -0.6165
 9214SOL    HW239276   4.694   4.192   9.417 -0.1684 -1.1838  1.1785
 9215SOL     OW39277   4.691   1.477  13.178 -0.3155  0.4653 -0.0575
 9215SOL    HW139278   0.014   1.418  13.136  1.1467  1.4099  0.7666
 9215SOL    HW239279   4.638   1.412  13.224 -0.7576  0.4830 -0.5340
 9216SOL     OW39280   0.878   4.738   9.060 -0.3571  0.4861 -0.5472
 9216SOL    HW139281   0.825   0.039   9.128  0.2289  1.5324 -0.7164
 9216SOL    HW239282   0.844   4.651   9.082 -1.9308  1.2724  0.1717
 9217SOL     OW39283   2.978   4.620  10.160 -0.6696  0.2418 -0.2091
 9217SOL    HW139284   3.059   4.608  10.210 -0.6554 -0.7448 -0.4765
 9217SOL    HW239285   2.919   4.646  10.230  0.2718  0.5196  0.4811
 9218SOL     OW39286   1.836   3.155   3.738  0.1553  0.4082 -0.1927
 9218SOL    HW139287   1.834   3.219   3.809 -2.2600 -2.6947  2.5164
 9218SOL    HW239288   1.908   3.098   3.763 -1.2860 -0.8966  0.9873
 9219SOL     OW39289   4.355   2.670  14.787 -0.1440 -0.6637 -0.0533
 9219SOL    HW139290   4.306   2.741  14.828 -0.2185 -0.8972  0.2591
 9219SOL    HW239291   4.393   2.724  14.717 -1.9005  0.4569 -0.1731
 9220SOL     OW39292   0.849   4.512   5.544  0.4264  0.3650  0.6783
 9220SOL    HW139293   0.846   4.460   5.464  3.2052 -1.1822  1.5756
 9220SOL    HW239294   0.915   4.573   5.513  2.5632 -2.7272 -0.8312
 9221SOL     OW39295   1.714   0.688  12.311 -0.4825  0.2380  0.2172
 9221SOL    HW139296   1.636   0.742  12.318 -0.1620  0.8408 -0.7794
 9221SOL    HW239297   1.721   0.680  12.216  1.1974  0.1760  0.3427
 9222SOL     OW39298   1.853   1.931   7.510  0.4969 -0.2505  0.1278
 9222SOL    HW139299   1.862   1.850   7.460  3.2845 -0.6981  1.3119
 9222SOL    HW239300   1.857   2.002   7.446  0.5994 -0.3531  0.0230
 9223SOL     OW39301   4.118   0.388   4.267 -0.2635 -0.3502  0.1337
 9223SOL    HW139302   4.035   0.384   4.314  0.5062  0.3721  1.5437
 9223SOL    HW239303   4.142   0.481   4.267  0.3660 -0.5004 -1.9647
 9224SOL     OW39304   2.241   0.569   6.069 -0.0700  0.0457 -0.2657
 9224SOL    HW139305   2.156   0.532   6.043  0.5424 -1.2809 -0.3655
 9224SOL    HW239306   2.220   0.628   6.141  0.5670  0.6202 -0.5554
 9225SOL     OW39307   0.171   3.306   9.933  0.2079 -0.6107  0.6940
 9225SOL    HW139308   0.080   3.329   9.954  1.2477  1.6997  2.6335
 9225SOL    HW239309   0.169   3.309   9.837 -0.8964 -0.3020  0.7225
 9226SOL     OW39310   3.078   3.019   5.148 -0.1875 -0.0190 -0.2338
 9226SOL    HW139311   3.168   2.993   5.171  0.2018  1.1963 -0.3804
 9226SOL    HW239312   3.075   2.985   5.058 -2.0508  0.9850 -0.5550
 9227SOL     OW39313   0.622   4.058   2.010 -0.0111 -0.1866  0.8367
 9227SOL    HW139314   0.688   4.121   1.979  0.6886  0.8286  4.3855
 9227SOL    HW239315   0.643   3.985   1.952  0.8424  0.6603  0.0626
 9228SOL     OW39316   1.761   4.320  11.596 -0.0172 -0.6066 -0.3107
 9228SOL    HW139317   1.707   4.276  11.662  0.3434 -1.7438 -0.7764
 9228SOL    HW239318   1.707   4.389  11.557  0.1637 -0.2167  0.1256
 9229SOL     OW39319   1.605   4.168  11.819  0.0703 -0.2601 -0.3249
 9229SOL    HW139320   1.592   4.085  11.773 -2.0603 -0.9011  1.4256
 9229SOL    HW239321   1.574   4.142  11.905 -0.2754 -0.4873 -0.5181
 9230SOL     OW39322   2.856   3.524   2.886  0.4568 -0.2110  0.1139
 9230SOL    HW139323   2.775   3.575   2.886  1.4540  1.3541 -1.9874
 9230SOL    HW239324   2.830   3.449   2.940  2.0719 -1.2938 -0.6267
 9231SOL     OW39325   0.525   0.082   1.840 -0.1985 -0.2641 -0.7513
 9231SOL    HW139326   0.569   0.012   1.793 -1.1445  0.2234 -2.3504
 9231SOL    HW239327   0.498   0.037   1.920 -0.4799  2.0003  0.4365
 9232SOL     OW39328   1.107   0.931  10.755 -0.4627  0.1811 -0.5562
 9232SOL    HW139329   1.176   0.866  10.772  0.3059  0.8317 -1.1836
 9232SOL    HW239330   1.031   0.887  10.792  0.5296 -1.9523 -1.0157
 9233SOL     OW39331   2.686   2.840  13.926 -0.4395  0.5115  0.3763
 9233SOL    HW139332   2.720   2.857  14.013 -3.7979  2.6548  1.2319
 9233SOL    HW239333   2.613   2.780  13.943 -0.7367  0.6706 -0.3172
 9234SOL     OW39334   2.774   1.109   4.811  0.2566  0.1611  0.1667
 9234SOL    HW139335   2.845   1.055   4.778 -0.7600  1.0491 -3.4112
 9234SOL    HW239336   2.821   1.193   4.809  1.2769 -0.4148  0.1461
 9235SOL     OW39337   3.565   3.917   7.966  0.5615  0.0070  0.2812
 9235SOL    HW139338   3.615   3.967   7.900 -1.4381  0.4696 -0.8813
 9235SOL    HW239339   3.580   3.969   8.045  0.7567 -0.9931  0.9017
 9236SOL     OW39340   3.448   0.099  17.660 -0.0521  1.2181 -0.2720
 9236SOL    HW139341   3.384   0.170  17.663 -0.2049  1.0774 -0.1667
 9236SOL    HW239342   3.405   0.020  17.695 -0.0506  0.2956 -2.3765
 9237SOL     OW39343   0.309   3.398  10.647  0.2353  0.3738 -1.0290
 9237SOL    HW139344   0.402   3.418  10.650  0.5264 -1.1635  0.3876
 9237SOL    HW239345   0.292   3.374  10.739 -3.5985 -4.0818 -2.8694
 9238SOL     OW39346   3.277   3.220   5.768 -0.3692 -0.3877  0.1284
 9238SOL    HW139347   3.224   3.223   5.848  1.7576  0.8929  1.4772
 9238SOL    HW239348   3.206   3.240   5.707 -0.5873 -0.3662  0.3896
 9239SOL     OW39349   1.736   0.172   5.045 -0.1508  0.1716 -0.2287
 9239SOL    HW139350   1.769   0.259   5.069 -0.7644  0.4987 -0.5772
 9239SOL    HW239351   1.777   0.165   4.959  0.7595  0.1353  0.2085
 9240SOL     OW39352   1.465   0.732   6.272 -0.1689 -0.1942 -0.3507
 9240SOL    HW139353   1.403   0.733   6.199 -0.2644 -0.2791 -0.2712
 9240SOL    HW239354   1.490   0.640   6.273 -0.4561 -0.2951 -2.6063
 9241SOL     OW39355   0.290   3.256   4.567  0.3074  0.5375 -0.2826
 9241SOL    HW139356   0.238   3.184   4.531 -1.1083  1.2016  0.4260
 9241SOL    HW239357   0.292   3.235   4.661 -1.3569  1.7380  0.0199
 9242SOL     OW39358   1.181   1.366   5.552  0.2241 -0.0311  0.3021
 9242SOL    HW139359   1.157   1.454   5.523  0.3072  0.0554  0.4910
 9242SOL    HW239360   1.174   1.379   5.647 -2.2766 -0.3812  0.1645
 9243SOL     OW39361   1.098   2.554  13.779  0.5613  0.0800  0.1724
 9243SOL    HW139362   1.169   2.494  13.799 -0.0584 -0.5443  0.4879
 9243SOL    HW239363   1.110   2.601  13.861  2.5003 -0.7393  0.3531
 9244SOL     OW39364   3.814   1.254   6.554  0.3005  0.0588 -0.4425
 9244SOL    HW139365   3.719   1.263   6.541 -0.1219 -1.2148  1.8279
 9244SOL    HW239366   3.820   1.229   6.646 -0.0583 -0.1236 -0.4663
 9245SOL     OW39367   0.756   1.361  14.370 -0.0280  0.3068 -0.1728
 9245SOL    HW139368   0.754   1.415  14.291  0.4644  1.1739  0.4219
 9245SOL    HW239369   0.815   1.289  14.347 -3.4147 -2.6254  0.1201
 9246SOL     OW39370   3.236   0.720   1.534  0.0613 -0.8048  0.7589
 9246SOL    HW139371   3.161   0.719   1.475  1.4102 -1.1231 -0.9192
 9246SOL    HW239372   3.281   0.787   1.483 -0.1589 -1.0157  0.2864
 9247SOL     OW39373   0.482   1.051  14.726 -0.4524  0.2850  0.5332
 9247SOL    HW139374   0.487   1.093  14.812  0.3832  3.5527 -1.0830
 9247SOL    HW239375   0.534   1.110  14.671  0.1145  0.0957  0.8597
 9248SOL     OW39376   1.195   1.501   4.038 -0.0833 -0.5044  0.0012
 9248SOL    HW139377   1.257   1.431   4.058  0.0376 -0.2422  0.5409
 9248SOL    HW239378   1.169   1.475   3.949  0.7198 -1.4873  0.0551
 9249SOL     OW39379   2.282   3.890   2.424  0.1238  0.3347 -0.0020
 9249SOL    HW139380   2.236   3.815   2.386 -0.6044 -0.0472  1.6110
 9249SOL    HW239381   2.264   3.959   2.361  1.9131  1.0924  0.3005
 9250SOL     OW39382   3.589   1.784   5.169  0.0061  0.4400 -0.1960
 9250SOL    HW139383   3.521   1.817   5.228 -0.7225 -2.1308  0.4135
 9250SOL    HW239384   3.638   1.863   5.145 -0.0359  1.0584  1.7518
 9251SOL     OW39385   1.794   3.302   5.183  0.3078 -0.0923  0.2263
 9251SOL    HW139386   1.846   3.321   5.262  1.9998 -0.8985 -0.6860
 9251SOL    HW239387   1.725   3.247   5.218  0.7861 -1.4781 -1.0080
 9252SOL     OW39388   4.103   1.175  10.295  0.2347  0.3065 -0.0802
 9252SOL    HW139389   4.095   1.194  10.389 -4.3113  1.9235 -0.7782
 9252SOL    HW239390   4.192   1.204  10.276  0.7502 -0.5321  1.0436
 9253SOL     OW39391   1.067   0.959   7.605 -0.2568 -0.0978  0.3081
 9253SOL    HW139392   1.129   0.909   7.553  0.8682  2.3988 -0.7333
 9253SOL    HW239393   0.997   0.978   7.542 -0.5642  0.9634  0.9727
 9254SOL     OW39394   0.829   0.592   8.298  0.2975 -0.1790 -0.3777
 9254SOL    HW139395   0.847   0.672   8.249  1.5706  0.4101  1.0594
 9254SOL    HW239396   0.738   0.573   8.275  0.5397 -2.6320  0.6655
 9255SOL     OW39397   0.388   2.649  17.674  0.6148 -0.8547  0.2930
 9255SOL    HW139398   0.308   2.598  17.691  0.4687 -0.5795  0.4319
 9255SOL    HW239399   0.440   2.581  17.632  0.3186 -0.4454 -0.7275
 9256SOL     OW39400   3.346   0.188   1.692 -0.4420 -0.5401  0.0186
 9256SOL    HW139401   3.256   0.175   1.723  0.4193 -0.3227  2.6102
 9256SOL    HW239402   3.386   0.216   1.774 -0.9453  1.0323 -0.2706
 9257SOL     OW39403   4.423   0.092  15.697 -0.8413  0.3729 -0.4790
 9257SOL    HW139404   4.402   0.009  15.740  1.3048  1.5666  2.9136
 9257SOL    HW239405   4.507   0.073  15.655 -0.5914 -0.3847  0.3668
 9258SOL     OW39406   0.074   3.106   9.268 -0.0447  0.2576 -0.0244
 9258SOL    HW139407   0.089   3.037   9.333  1.9836  1.4459  0.7531
 9258SOL    HW239408   0.060   3.180   9.327 -2.0516 -1.0318  1.1363
 9259SOL     OW39409   2.686   4.261   3.605 -0.0535  0.1134 -0.2294
 9259SOL    HW139410   2.732   4.177   3.611  0.0849  0.3507  1.8890
 9259SOL    HW239411   2.611   4.249   3.662  1.0322 -1.0335  0.9674
 9260SOL     OW39412   0.616   2.729  15.752 -0.2441  0.6638  0.2232
 9260SOL    HW139413   0.550   2.773  15.804 -1.7289 -1.4278  0.1096
 9260SOL    HW239414   0.678   2.789  15.711  0.4619  0.4619  0.9896
 9261SOL     OW39415   3.563   2.130   7.252 -0.0108 -0.3041 -0.3009
 9261SOL    HW139416   3.621   2.129   7.176  0.2723 -2.6443 -0.0678
 9261SOL    HW239417   3.484   2.095   7.209 -0.5026  1.3395 -0.7234
 9262SOL     OW39418   4.616   0.551   2.138  0.6987  0.2625 -1.0779
 9262SOL    HW139419   4.580   0.630   2.097 -2.4601  0.3748  1.8950
 9262SOL    HW239420   4.594   0.489   2.069  0.9809  0.4308 -1.3185
 9263SOL     OW39421   3.115   2.725  12.101 -0.0833  0.0879 -0.1887
 9263SOL    HW139422   3.029   2.762  12.083  0.1825  0.4180 -0.7860
 9263SOL    HW239423   3.165   2.798  12.138  0.8664 -0.2132 -0.8639
 9264SOL     OW39424   0.170   3.655  10.614  0.4828 -0.3151  0.0601
 9264SOL    HW139425   0.221   3.581  10.579  2.1584  1.1204 -0.5523
 9264SOL    HW239426   0.082   3.642  10.580  0.6629 -1.7124  0.1205
 9265SOL     OW39427   0.444   4.150   3.455  0.0159 -0.1208 -0.2529
 9265SOL    HW139428   0.446   4.206   3.378 -2.1084 -1.3945 -1.2407
 9265SOL    HW239429   0.357   4.155   3.496 -0.3478  0.3458 -1.0971
 9266SOL     OW39430   4.451   3.031   8.372  0.1533  0.1773 -0.3058
 9266SOL    HW139431   4.520   3.015   8.308 -0.1554 -0.0136 -0.5887
 9266SOL    HW239432   4.416   3.117   8.350  0.5148 -0.3118 -2.7377
 9267SOL     OW39433   1.095   2.630   7.204 -0.2246  0.2594  0.4732
 9267SOL    HW139434   1.107   2.635   7.299  0.7686  0.6901  0.3181
 9267SOL    HW239435   1.157   2.694   7.171 -1.0143  0.8143  0.0704
 9268SOL     OW39436   0.423   3.196  12.936  0.4300  0.0575  0.5256
 9268SOL    HW139437   0.449   3.219  13.025  0.1485 -4.3159  1.7171
 9268SOL    HW239438   0.387   3.110  12.955  0.4577  0.0202  0.4089
 9269SOL     OW39439   1.135   0.928   4.864  0.1343  0.2052 -0.0916
 9269SOL    HW139440   1.138   0.832   4.868 -1.5276  0.1457  0.0184
 9269SOL    HW239441   1.201   0.964   4.923 -1.9588  0.6650  1.9622
 9270SOL     OW39442   2.939   4.316   5.070 -0.0993 -0.0249 -0.0664
 9270SOL    HW139443   2.873   4.280   5.011  1.1317 -1.8643 -0.3615
 9270SOL    HW239444   2.947   4.240   5.128  0.6169 -0.5005 -0.7816
 9271SOL     OW39445   3.261   3.160   1.275 -0.0906 -0.0041  0.6862
 9271SOL    HW139446   3.281   3.198   1.361 -1.3169 -2.0892  1.9032
 9271SOL    HW239447   3.286   3.227   1.212 -1.6590  0.6068  0.7020
 9272SOL     OW39448   0.040   2.214   3.509  0.7839 -0.1164  0.0625
 9272SOL    HW139449   4.701   2.230   3.456  0.3356 -1.6370  0.2826
 9272SOL    HW239450   0.107   2.262   3.460  0.0435  1.1375  0.2869
 9273SOL     OW39451   0.216   3.902  16.564 -0.7065 -0.3228 -0.1240
 9273SOL    HW139452   0.292   3.914  16.621 -0.5602  0.7754 -0.5632
 9273SOL    HW239453   0.243   3.812  16.542 -0.9878 -0.9059  1.9261
 9274SOL     OW39454   1.506   3.782  10.001  0.2265  0.6579  0.4719
 9274SOL    HW139455   1.496   3.724  10.076  2.2883  1.5499  1.4550
 9274SOL    HW239456   1.598   3.809  10.006  0.9183 -1.4206 -1.3345
 9275SOL     OW39457   2.350   3.005  12.127  1.0827 -0.2258 -0.7183
 9275SOL    HW139458   2.357   2.978  12.219 -1.5726  0.1783 -0.4064
 9275SOL    HW239459   2.256   3.005  12.109  1.0463 -1.8397 -0.5299
 9276SOL     OW39460   0.192   2.882  15.173 -0.2058 -0.0627  0.1429
 9276SOL    HW139461   0.264   2.912  15.118 -1.1114  0.6470 -0.6563
 9276SOL    HW239462   0.140   2.958  15.198  1.5269  0.4857  2.0008
 9277SOL     OW39463   0.378   4.525   1.708 -0.2060 -0.0185 -0.0277
 9277SOL    HW139464   0.348   4.579   1.635 -0.9070 -2.0419 -1.2148
 9277SOL    HW239465   0.305   4.526   1.770 -0.1112 -2.5652  0.1200
 9278SOL     OW39466   2.339   0.695   9.501  0.4957 -0.4719 -0.0968
 9278SOL    HW139467   2.349   0.782   9.462  0.4652  0.3694  1.7953
 9278SOL    HW239468   2.398   0.645   9.444  1.3605  0.1570  0.2536
 9279SOL     OW39469   1.631   2.317  12.908 -0.0127  0.3739  0.5854
 9279SOL    HW139470   1.652   2.238  12.858 -1.7196  0.3441 -0.0917
 9279SOL    HW239471   1.558   2.279  12.956 -1.0572  0.4318 -0.9523
 9280SOL     OW39472   0.329   3.007   3.784 -0.4940  0.3493 -0.6381
 9280SOL    HW139473   0.248   2.964   3.754 -0.9624 -0.1359  1.2930
 9280SOL    HW239474   0.394   2.977   3.721 -0.1545 -0.4919  0.0955
 9281SOL     OW39475   1.939   2.893   1.946 -0.6175 -0.2089  0.1606
 9281SOL    HW139476   1.856   2.874   1.989 -0.3200 -2.0222 -0.0560
 9281SOL    HW239477   1.929   2.840   1.866 -2.3624 -1.1512  0.9982
 9282SOL     OW39478   0.314   2.760   6.497 -0.0825  0.2555  0.9270
 9282SOL    HW139479   0.286   2.850   6.486 -0.6281 -0.1703 -1.1283
 9282SOL    HW239480   0.245   2.715   6.545  0.9008 -2.0137  0.2420
 9283SOL     OW39481   0.342   3.987   9.089  0.0001  0.2955 -0.3719
 9283SOL    HW139482   0.299   4.060   9.043  0.2283  1.0009  0.5376
 9283SOL    HW239483   0.384   3.938   9.018 -1.1747 -2.3424  0.7523
 9284SOL     OW39484   2.984   2.445   1.240  0.3814  0.6330 -0.3047
 9284SOL    HW139485   2.983   2.358   1.199  0.4351  0.5965 -0.2301
 9284SOL    HW239486   2.993   2.502   1.163  0.1700  1.5896  0.3840
 9285SOL     OW39487   2.398   3.860   8.557 -0.4481 -0.0962 -0.2531
 9285SOL    HW139488   2.369   3.816   8.637  0.4465  0.4564  0.3681
 9285SOL    HW239489   2.341   3.816   8.494 -2.0840  2.1243 -0.3431
 9286SOL     OW39490   1.348   2.128  16.830  0.0466  0.1853 -0.1439
 9286SOL    HW139491   1.287   2.078  16.776 -0.3636  1.0038 -0.4357
 9286SOL    HW239492   1.297   2.128  16.911  0.3921  1.0526  0.0807
 9287SOL     OW39493   2.063   1.016   3.222  0.6819 -0.1825 -0.3077
 9287SOL    HW139494   2.125   0.955   3.183  0.2059 -0.9991  0.2100
 9287SOL    HW239495   1.975   0.984   3.203  0.1326  1.9512 -1.3704
 9288SOL     OW39496   1.502   4.028   9.744 -0.1536 -0.2923  0.1698
 9288SOL    HW139497   1.516   3.940   9.709 -1.9119 -0.4164 -0.2257
 9288SOL    HW239498   1.447   4.066   9.675 -0.0664 -0.6011 -0.0657
 9289SOL     OW39499   3.078   3.777   1.957  0.1222 -0.5714 -0.3351
 9289SOL    HW139500   2.983   3.772   1.964  0.1707  0.0616  0.7736
 9289SOL    HW239501   3.084   3.727   1.876  1.8085 -0.7235 -0.1328
 9290SOL     OW39502   2.791   3.332  10.232 -0.7414  0.0307  0.8372
 9290SOL    HW139503   2.839   3.414  10.219  1.5375 -1.5705 -0.9301
 9290SOL    HW239504   2.820   3.309  10.321 -1.2190  0.6430  1.1553
 9291SOL     OW39505   1.200   2.239   9.252  0.0518 -0.2904 -0.1430
 9291SOL    HW139506   1.291   2.211   9.267 -0.4034 -0.7416  1.7334
 9291SOL    HW239507   1.213   2.334   9.255 -0.3259 -0.2327 -0.3462
 9292SOL     OW39508   2.939   0.834   5.206 -0.2884  0.6805 -0.0477
 9292SOL    HW139509   2.903   0.745   5.202  0.8286  0.2685 -0.9123
 9292SOL    HW239510   2.867   0.884   5.168 -0.0681 -0.6031 -2.2131
 9293SOL     OW39511   0.191   0.190   5.564  0.1629  0.1750 -0.0511
 9293SOL    HW139512   0.148   0.126   5.507  0.9608 -0.3051 -0.1310
 9293SOL    HW239513   0.194   0.139   5.646  0.5971 -0.4739 -0.4649
 9294SOL     OW39514   2.565   2.783   1.337 -0.0166  0.3695  0.3351
 9294SOL    HW139515   2.580   2.738   1.420  1.4387  0.5077  0.1316
 9294SOL    HW239516   2.477   2.815   1.358 -0.1302  1.0755 -1.2156
 9295SOL     OW39517   3.413   2.865  17.605 -0.0679  0.2390  0.2377
 9295SOL    HW139518   3.477   2.933  17.625  1.0425 -0.5049 -0.7978
 9295SOL    HW239519   3.334   2.897  17.649 -0.1140  1.9607 -1.0879
 9296SOL     OW39520   4.154   3.921   8.732  0.2957 -0.2384  0.1321
 9296SOL    HW139521   4.236   3.871   8.723 -1.0407 -2.0549 -1.8326
 9296SOL    HW239522   4.182   4.000   8.687 -0.1700  0.0266  0.3127
 9297SOL     OW39523   1.205   4.208   9.659  0.3564 -0.1004  0.1064
 9297SOL    HW139524   1.145   4.135   9.679 -1.9423  1.3967 -1.3018
 9297SOL    HW239525   1.209   4.213   9.564  1.3549 -1.7295  0.0628
 9298SOL     OW39526   2.983   1.270  11.719 -0.7565  0.2200  0.0253
 9298SOL    HW139527   3.008   1.274  11.627 -1.3259  2.0929 -0.0432
 9298SOL    HW239528   3.040   1.330  11.768 -1.0186 -0.3556  1.0424
 9299SOL     OW39529   4.695   0.033  14.132 -0.1406  0.3588  0.6931
 9299SOL    HW139530   4.698   4.677  14.121 -0.1405  0.4365 -0.0213
 9299SOL    HW239531   4.677   0.039  14.226  0.1939 -0.3124  0.8011
 9300SOL     OW39532   4.446   4.352   2.267 -0.7380 -0.5508 -0.3349
 9300SOL    HW139533   4.439   4.330   2.360  0.3826 -0.0602 -0.1313
 9300SOL    HW239534   4.449   4.448   2.268 -0.1685 -0.5862  1.8342
 9301SOL     OW39535   2.267   4.529   3.753  0.2897  0.2731 -0.2333
 9301SOL    HW139536   2.256   4.624   3.758 -0.9963  0.1538 -0.9310
 9301SOL    HW239537   2.180   4.505   3.722  0.0607  1.8091 -0.7763
 9302SOL     OW39538   0.819   4.106   6.700 -0.0646  0.0819 -0.5197
 9302SOL    HW139539   0.831   4.061   6.783 -1.7697 -1.6880 -1.2075
 9302SOL    HW239540   0.758   4.175   6.724  1.8766  1.1248  1.3857
 9303SOL     OW39541   1.427   4.660   7.015 -0.0981 -0.2034  0.5264
 9303SOL    HW139542   1.499   4.599   7.004 -0.9360 -1.3314  1.3514
 9303SOL    HW239543   1.462   4.737   6.970 -3.3320  0.1822 -1.3544
 9304SOL     OW39544   3.617   3.162   8.244  0.4327 -0.3880 -0.0357
 9304SOL    HW139545   3.600   3.070   8.225 -1.6863 -0.1820  0.7781
 9304SOL    HW239546   3.559   3.185   8.317  1.1985 -1.8654  1.0299
 9305SOL     OW39547   1.961   1.169   8.570  0.1188 -0.0710  0.1294
 9305SOL    HW139548   1.992   1.255   8.599 -1.0594  0.3951 -0.0145
 9305SOL    HW239549   1.911   1.183   8.490  1.7422  0.2255 -0.8399
 9306SOL     OW39550   2.918   3.570   7.687  0.2225  0.5705  0.1483
 9306SOL    HW139551   2.973   3.584   7.764  1.0076 -0.3648 -0.2290
 9306SOL    HW239552   2.900   3.655   7.647 -0.7789  0.5409  0.5517
 9307SOL     OW39553   2.622   4.466   5.965 -0.1764  0.2028  0.1915
 9307SOL    HW139554   2.575   4.400   5.914  1.0736 -0.7052  0.2078
 9307SOL    HW239555   2.545   4.508   6.003  0.5399  0.1699  1.6833
 9308SOL     OW39556   2.361   2.701   9.445 -0.2826  0.0285 -1.0760
 9308SOL    HW139557   2.423   2.771   9.428  0.1885 -0.0934  0.1811
 9308SOL    HW239558   2.365   2.693   9.540  0.1126  2.7103 -0.8798
 9309SOL     OW39559   1.022   2.272   3.336 -0.6771 -0.0500  0.2323
 9309SOL    HW139560   1.007   2.179   3.353  0.0314  0.0228  1.3094
 9309SOL    HW239561   0.940   2.281   3.289 -1.7570  1.9583  2.5121
 9310SOL     OW39562   1.900   4.049   2.926  0.1451  0.1294  0.6416
 9310SOL    HW139563   1.975   4.077   2.979 -0.7859  2.5208  0.6882
 9310SOL    HW239564   1.870   4.133   2.892  1.4593  1.7536  3.4290
 9311SOL     OW39565   3.421   0.231   7.299 -0.5258  0.1545 -0.0791
 9311SOL    HW139566   3.501   0.224   7.351 -0.6417 -0.7457 -0.0339
 9311SOL    HW239567   3.408   0.150   7.250 -0.5000  0.5266 -0.7078
 9312SOL     OW39568   1.945   0.099   9.181 -0.0951 -0.5054  0.1301
 9312SOL    HW139569   1.937   0.145   9.098 -1.4933 -0.9651  0.0089
 9312SOL    HW239570   1.959   0.007   9.158 -0.5456 -1.1533  2.4291
 9313SOL     OW39571   2.295   0.933   1.475  0.3286  0.1664 -0.0740
 9313SOL    HW139572   2.270   0.976   1.557 -1.3745 -0.4795 -0.2504
 9313SOL    HW239573   2.207   0.936   1.436  0.7763 -2.1424 -1.2609
 9314SOL     OW39574   4.513   2.793   9.573  0.0065 -0.2756 -0.3397
 9314SOL    HW139575   4.556   2.818   9.654  0.6047  0.8389 -1.0112
 9314SOL    HW239576   4.541   2.705   9.547  1.3870 -0.0233  0.2920
 9315SOL     OW39577   4.424   4.561   3.510 -0.0296 -0.0734  0.1835
 9315SOL    HW139578   4.456   4.580   3.422 -0.1991 -1.0356 -0.0776
 9315SOL    HW239579   4.362   4.492   3.488  0.5301 -0.7431  0.6876
 9316SOL     OW39580   0.034   4.682   4.680  0.3683 -0.5335  0.3573
 9316SOL    HW139581   4.734   4.597   4.661  2.8661 -1.9618  1.5320
 9316SOL    HW239582   0.030   4.722   4.593  0.0986 -1.1274  0.0978
 9317SOL     OW39583   4.344   0.629   9.472 -0.5536 -0.2449  0.2608
 9317SOL    HW139584   4.388   0.677   9.402 -0.5586 -0.0587  0.3862
 9317SOL    HW239585   4.361   0.690   9.544 -2.4822 -0.0448  0.5398
 9318SOL     OW39586   0.903   1.610   5.253  0.0731 -0.6860  0.8064
 9318SOL    HW139587   0.894   1.637   5.161 -0.7327  0.6138  1.2563
 9318SOL    HW239588   0.822   1.559   5.261 -0.2429 -0.8256 -3.2920
 9319SOL     OW39589   4.236   1.773   4.172 -0.1679  0.0891  0.6553
 9319SOL    HW139590   4.325   1.804   4.187  0.7952 -2.4352  0.1113
 9319SOL    HW239591   4.233   1.733   4.259 -0.9065  1.3338  1.2059
 9320SOL     OW39592   2.448   1.613   3.435 -0.6187  0.2826 -0.0978
 9320SOL    HW139593   2.498   1.667   3.373 -0.6220 -0.9900 -1.1953
 9320SOL    HW239594   2.440   1.670   3.512 -2.5361 -1.0397  0.6679
 9321SOL     OW39595   4.151   2.695   0.563  0.7211 -0.0363 -0.0416
 9321SOL    HW139596   4.116   2.633   0.499  0.7122  0.6002 -0.6621
 9321SOL    HW239597   4.200   2.752   0.504 -0.4687  1.5996  0.5298
 9322SOL     OW39598   3.554   3.393   6.656  0.0461 -0.0656  0.0252
 9322SOL    HW139599   3.477   3.405   6.601  0.0264  0.4662  0.1710
 9322SOL    HW239600   3.617   3.346   6.601  0.0827 -0.2702  0.2393
 9323SOL     OW39601   2.814   1.177   1.981  0.0664  0.2797  0.0073
 9323SOL    HW139602   2.734   1.202   2.027 -1.5415  0.0780 -2.6525
 9323SOL    HW239603   2.845   1.113   2.044 -3.0436 -0.8484  0.4174
 9324SOL     OW39604   0.037   0.156   5.280  0.1914 -0.0862 -0.5934
 9324SOL    HW139605   0.075   0.081   5.325 -1.1718  0.5497  1.6153
 9324SOL    HW239606   0.097   0.156   5.205  0.4691  0.9200 -0.3827
 9325SOL     OW39607   1.250   0.033   3.609 -0.5936 -0.0254  0.4161
 9325SOL    HW139608   1.221   0.043   3.700  0.1390  0.7278  0.5735
 9325SOL    HW239609   1.190   0.094   3.566 -1.9574 -1.7886 -0.1889
 9326SOL     OW39610   4.219   1.441   8.878  0.1496 -0.7033  0.4156
 9326SOL    HW139611   4.207   1.445   8.973 -0.0183  0.4544  0.3515
 9326SOL    HW239612   4.291   1.379   8.873  2.5497  2.0742  0.3089
 9327SOL     OW39613   2.212   0.439   5.261 -0.2734  0.3029  0.4903
 9327SOL    HW139614   2.217   0.405   5.172  2.2457  1.7589  0.0880
 9327SOL    HW239615   2.248   0.528   5.262  0.7010 -0.0671 -2.1476
 9328SOL     OW39616   2.607   1.088   1.788 -0.3243  0.1291  0.2340
 9328SOL    HW139617   2.568   1.170   1.819  2.2271  1.6841 -0.6692
 9328SOL    HW239618   2.695   1.093   1.824 -1.0838 -0.5469  2.1609
 9329SOL     OW39619   2.531   3.093   3.183  0.0407  0.2461 -0.3603
 9329SOL    HW139620   2.615   3.127   3.212  0.2344 -2.1623  1.8514
 9329SOL    HW239621   2.566   3.024   3.126  1.2890  0.0845  0.6206
 9330SOL     OW39622   0.603   1.187   1.939  0.3117  0.0760 -0.3955
 9330SOL    HW139623   0.578   1.274   1.967 -0.2779  0.4444 -2.0909
 9330SOL    HW239624   0.643   1.209   1.855 -1.4956  0.2518 -1.1921
 9331SOL     OW39625   2.242   4.298   5.578  0.7525 -0.1301 -0.0771
 9331SOL    HW139626   2.193   4.325   5.500 -0.6775  0.9175  1.1768
 9331SOL    HW239627   2.294   4.378   5.587 -1.0674  0.9458  1.0436
 9332SOL     OW39628   0.714   3.375   6.520  0.1529 -0.2856  0.4553
 9332SOL    HW139629   0.666   3.445   6.565 -0.4575  0.5537 -1.5189
 9332SOL    HW239630   0.789   3.432   6.504 -0.1070  0.0520  0.4508
 9333SOL     OW39631   4.489   3.591   2.220  0.3013  0.3252 -0.3529
 9333SOL    HW139632   4.476   3.508   2.266  2.5638  0.1509 -0.0201
 9333SOL    HW239633   4.573   3.630   2.245  0.5749 -0.6512  0.2463
 9334SOL     OW39634   4.490   2.198   4.333 -0.1236 -0.0235 -0.3637
 9334SOL    HW139635   4.466   2.135   4.401  2.8202  0.8003  1.3967
 9334SOL    HW239636   4.405   2.192   4.288 -0.7305  2.9047  0.4249
 9335SOL     OW39637   0.047   3.550   9.204  0.0064 -0.0198  0.2184
 9335SOL    HW139638   0.102   3.475   9.178 -1.7789 -0.6944 -1.5921
 9335SOL    HW239639   0.002   3.511   9.279 -0.3447  2.1818  1.1331
 9336SOL     OW39640   0.710   4.519   2.102  0.1624  0.4340 -0.3148
 9336SOL    HW139641   0.684   4.603   2.140  0.7501  1.0595 -1.3171
 9336SOL    HW239642   0.618   4.493   2.094  0.1663  0.3160  0.0223
 9337SOL     OW39643   1.954   0.561   3.925  0.0425 -0.2860  0.9069
 9337SOL    HW139644   1.953   0.639   3.982  1.6994  1.1286 -0.9749
 9337SOL    HW239645   2.007   0.588   3.850  1.8038 -2.2560  1.4575
 9338SOL     OW39646   1.403   1.758   5.508 -0.2214 -0.6339 -0.4794
 9338SOL    HW139647   1.319   1.792   5.477 -0.3481 -0.2852  0.2552
 9338SOL    HW239648   1.428   1.834   5.560 -2.1594  0.2677 -0.8600
 9339SOL     OW39649   4.632   1.221   3.039 -0.4113 -0.5336  0.3663
 9339SOL    HW139650   4.607   1.313   3.054  1.5631 -0.2970  2.1016
 9339SOL    HW239651   4.636   1.219   2.943  2.4595 -0.2670  0.4812
 9340SOL     OW39652   3.947   0.889   1.388  0.5765  0.3162 -0.3394
 9340SOL    HW139653   3.963   0.828   1.460 -0.4093 -1.4835 -1.6454
 9340SOL    HW239654   3.998   0.843   1.321  0.6934 -0.7085  0.4404
 9341SOL     OW39655   0.326   4.590   5.887  0.2042 -0.0499  0.1129
 9341SOL    HW139656   0.313   4.518   5.825  1.1499 -1.9511  2.1318
 9341SOL    HW239657   0.420   4.575   5.898  0.4984 -0.0791 -2.3000
 9342SOL     OW39658   3.655   2.911   3.685 -0.2737  0.8844 -0.1788
 9342SOL    HW139659   3.689   2.829   3.649  2.0330  0.8626  2.0549
 9342SOL    HW239660   3.564   2.889   3.703  0.2553 -0.1829  1.2598
 9343SOL     OW39661   3.107   3.660   1.671  0.5280  0.4261  0.3555
 9343SOL    HW139662   3.033   3.696   1.624  2.0254  1.8675 -0.8854
 9343SOL    HW239663   3.153   3.613   1.602 -1.5776  0.7610 -1.2650
 9344SOL     OW39664   4.711   1.158   2.763 -0.1692  0.3318  0.6679
 9344SOL    HW139665   4.737   1.076   2.721 -1.1203 -0.5701  1.8336
 9344SOL    HW239666   0.050   1.198   2.800 -0.4950 -0.1106  1.8305
 9345SOL     OW39667   4.726   3.696   7.435  0.2619 -0.4709 -0.6438
 9345SOL    HW139668   0.024   3.781   7.414  1.3617 -1.1455 -1.3816
 9345SOL    HW239669   4.721   3.666   7.344 -2.3940  0.0484 -0.6833
 9346SOL     OW39670   2.351   2.495   7.093 -0.0410 -0.3286  0.2383
 9346SOL    HW139671   2.317   2.410   7.118 -1.6045  0.6849  1.5238
 9346SOL    HW239672   2.294   2.556   7.139  0.0298  0.1986 -0.3656
 9347SOL     OW39673   0.731   3.273   6.883  0.1382 -0.3691 -0.2278
 9347SOL    HW139674   0.638   3.270   6.906  0.2142  0.7164  0.2483
 9347SOL    HW239675   0.715   3.210   6.813  0.2566 -0.2949 -0.3241
 9348SOL     OW39676   2.074   2.062  16.861  0.7002  0.1604 -0.3690
 9348SOL    HW139677   2.057   2.078  16.954 -3.9298 -0.2936 -1.1473
 9348SOL    HW239678   1.986   2.033  16.836  0.0176  2.7471 -0.9784
 9349SOL     OW39679   0.470   1.967  13.802 -0.4959  0.5514 -0.1336
 9349SOL    HW139680   0.564   1.960  13.819 -0.0004 -1.6348 -3.6863
 9349SOL    HW239681   0.453   2.041  13.744 -0.7589  0.2994 -0.3753
 9350SOL     OW39682   1.397   1.102  17.290  0.5810 -0.2831  0.0619
 9350SOL    HW139683   1.469   1.090  17.352  1.4232  0.2325 -0.8190
 9350SOL    HW239684   1.428   1.077  17.203  0.4140 -1.5711  0.3613
 9351SOL     OW39685   4.142   2.971   6.311  0.1497 -0.2043  0.0018
 9351SOL    HW139686   4.107   2.895   6.263  0.5981  0.0396 -0.7089
 9351SOL    HW239687   4.174   2.932   6.392  0.4238 -0.0124 -0.0166
 9352SOL     OW39688   1.368   3.637   2.552  0.4132 -0.4741 -0.4637
 9352SOL    HW139689   1.407   3.623   2.638  0.2678 -1.3698 -0.5419
 9352SOL    HW239690   1.372   3.550   2.512  0.5749 -0.2674 -0.8967
 9353SOL     OW39691   2.089   0.076   2.383 -0.4769  0.1023  0.3855
 9353SOL    HW139692   2.027   0.069   2.311  0.2506 -1.0461 -0.1394
 9353SOL    HW239693   2.167   0.051   2.334 -0.2119  2.0808 -0.1827
 9354SOL     OW39694   1.416   4.431   3.746  0.0198 -0.4862 -0.4378
 9354SOL    HW139695   1.439   4.384   3.826  0.4653  0.6257  0.0840
 9354SOL    HW239696   1.321   4.442   3.755  0.0055  0.5031 -1.7807
 9355SOL     OW39697   3.203   0.968   8.512  0.2260 -0.1504  0.3946
 9355SOL    HW139698   3.258   1.029   8.463  1.3153 -1.5396 -0.1121
 9355SOL    HW239699   3.115   1.006   8.514  0.9457  1.5147  0.1699
 9356SOL     OW39700   1.151   1.865   4.882  0.0818 -0.5125 -0.0298
 9356SOL    HW139701   1.190   1.817   4.809  2.0671  0.0001  0.6900
 9356SOL    HW239702   1.105   1.931   4.830  0.3669 -1.1948 -1.1554
 9357SOL     OW39703   4.319   2.817   4.622 -0.0011 -0.4458  0.0162
 9357SOL    HW139704   4.340   2.856   4.707 -1.3956 -1.8930  1.0185
 9357SOL    HW239705   4.301   2.893   4.567  1.1744 -1.7704 -2.1967
 9358SOL     OW39706   0.080   1.118   0.011  0.3826  0.1536 -0.3929
 9358SOL    HW139707   0.134   1.106  17.689  1.1133  0.7510  0.0304
 9358SOL    HW239708   0.020   1.173  17.716  0.6518  0.0559 -0.8149
 9359SOL     OW39709   4.055   2.006   7.435 -0.5842  0.3659  0.7576
 9359SOL    HW139710   3.963   2.008   7.409 -0.5819  2.4767  0.8559
 9359SOL    HW239711   4.096   2.039   7.355 -0.4695  2.4319  1.6642
 9360SOL     OW39712   0.178   0.437   4.097 -0.9510 -0.1261  0.5479
 9360SOL    HW139713   0.113   0.387   4.047 -0.4895  0.3133 -0.4881
 9360SOL    HW239714   0.142   0.526   4.096  0.9762  0.6493  0.2230
 9361SOL     OW39715   4.270   0.407   3.726 -0.3378  0.7194  0.1063
 9361SOL    HW139716   4.265   0.353   3.804 -0.3503  0.0960 -0.3232
 9361SOL    HW239717   4.307   0.340   3.668  0.6300  0.9699  0.4295
 9362SOL     OW39718   2.668   3.460   5.187 -0.2814  0.3024  0.0839
 9362SOL    HW139719   2.638   3.446   5.276  1.4933  0.9003  0.7917
 9362SOL    HW239720   2.658   3.373   5.149  0.2893 -0.5375  1.8548
 9363SOL     OW39721   1.364   3.996   4.846  0.5942 -0.3120  0.0146
 9363SOL    HW139722   1.432   4.059   4.867 -0.0975  0.3883  0.1361
 9363SOL    HW239723   1.302   4.015   4.917  1.2463  2.3825 -0.1550
 9364SOL     OW39724   3.238   1.735   2.114  0.7781  0.4106  0.4859
 9364SOL    HW139725   3.143   1.721   2.116  1.3960 -3.2321  2.6232
 9364SOL    HW239726   3.276   1.656   2.151  0.5662  0.2544  0.3670
 9365SOL     OW39727   2.075   4.507   2.852 -0.2296  0.3791 -0.1182
 9365SOL    HW139728   2.075   4.420   2.812 -0.6319  0.2726  0.1202
 9365SOL    HW239729   2.094   4.494   2.945  1.1912  2.7290 -0.0615
 9366SOL     OW39730   2.862   0.263   2.689  0.1433 -0.3110 -0.2137
 9366SOL    HW139731   2.877   0.169   2.681 -1.0639 -0.6373  1.2469
 9366SOL    HW239732   2.947   0.283   2.650  0.3402  1.9836  1.4094
 9367SOL     OW39733   2.231   2.560  13.202 -0.1003 -0.2456  0.0051
 9367SOL    HW139734   2.178   2.543  13.124 -0.7011  1.5995  0.0214
 9367SOL    HW239735   2.272   2.475  13.217  1.6840  0.4247 -1.1434
 9368SOL     OW39736   0.904   2.548   8.163  0.0232  0.5781  1.0001
 9368SOL    HW139737   0.942   2.545   8.075 -1.9431 -3.2354  0.3013
 9368SOL    HW239738   0.849   2.626   8.152  1.0481  0.8387 -2.3881
 9369SOL     OW39739   1.535   4.642   3.608 -0.2741  0.1951  0.7598
 9369SOL    HW139740   1.515   4.555   3.641 -0.6454 -0.0237 -0.0590
 9369SOL    HW239741   1.451   4.685   3.628 -0.6954 -0.7546  1.0165
 9370SOL     OW39742   4.546   2.515  16.313  0.2663 -0.1780 -0.2941
 9370SOL    HW139743   4.638   2.495  16.330  0.2683  2.3012  2.6121
 9370SOL    HW239744   4.515   2.487  16.400  0.7660 -0.3638 -0.1749
 9371SOL     OW39745   4.329   3.131   3.830  0.0709  0.7134 -0.4525
 9371SOL    HW139746   4.329   3.131   3.734  1.6582 -0.3401 -0.4468
 9371SOL    HW239747   4.235   3.115   3.837  0.0661  1.1514  0.5134
 9372SOL     OW39748   2.466   0.199   3.125  0.1605  0.0742 -0.3100
 9372SOL    HW139749   2.379   0.196   3.085 -0.0852 -0.6814  0.2848
 9372SOL    HW239750   2.501   0.278   3.084  0.4547  0.6037  0.9654
 9373SOL     OW39751   4.423   3.455   2.749 -0.4262  0.4548  0.4762
 9373SOL    HW139752   4.378   3.523   2.699 -0.1673 -0.9582 -1.6798
 9373SOL    HW239753   4.379   3.374   2.721  2.2718 -1.0571  0.5904
 9374SOL     OW39754   4.257   1.472   0.252  0.4274  0.2652 -0.0359
 9374SOL    HW139755   4.165   1.486   0.230  0.2640  0.5726  0.8247
 9374SOL    HW239756   4.245   1.435   0.340 -1.3117  0.6366 -0.1298
 9375SOL     OW39757   2.827   3.504  14.050 -0.1576 -0.2075 -0.2594
 9375SOL    HW139758   2.813   3.509  13.955 -1.8540 -0.3038 -0.0171
 9375SOL    HW239759   2.752   3.552  14.084  1.6309 -0.3413  3.8029
 9376SOL     OW39760   0.667   1.091   8.632 -0.0079  0.2200 -0.6479
 9376SOL    HW139761   0.669   1.157   8.700  0.1215 -1.5198  1.0470
 9376SOL    HW239762   0.717   1.021   8.676 -1.7567  0.4286  1.6595
 9377SOL     OW39763   1.843   1.067   7.537 -0.1616 -0.6102  0.6599
 9377SOL    HW139764   1.760   1.049   7.580 -0.2729  0.5490  0.9316
 9377SOL    HW239765   1.910   1.070   7.606  0.7736 -1.3127 -0.2111
 9378SOL     OW39766   0.225   2.232   3.006 -0.1222 -0.3529  0.0482
 9378SOL    HW139767   0.181   2.286   2.940  0.4008 -0.9808 -0.8245
 9378SOL    HW239768   0.175   2.151   3.002 -0.6673 -0.0659  1.2457
 9379SOL     OW39769   0.889   2.319   5.477 -0.8031 -0.2662  0.2443
 9379SOL    HW139770   0.860   2.344   5.389  1.5372 -0.5784 -0.6063
 9379SOL    HW239771   0.810   2.355   5.519 -1.4770  1.2443 -2.3042
 9380SOL     OW39772   2.878   2.151   4.425  0.3876  0.0057 -0.2889
 9380SOL    HW139773   2.948   2.215   4.419  1.2731 -0.6872  2.4824
 9380SOL    HW239774   2.860   2.160   4.519 -0.4397 -0.5108 -0.3896
 9381SOL     OW39775   2.470   2.190   3.628  0.7504  0.2918  0.6446
 9381SOL    HW139776   2.474   2.185   3.723 -1.0681  1.6400  0.8058
 9381SOL    HW239777   2.505   2.279   3.623 -1.6984  1.2797  1.3049
 9382SOL     OW39778   1.029   3.635   9.258  0.2261  0.1597  0.3840
 9382SOL    HW139779   0.983   3.556   9.287  0.7991 -0.5740 -0.6961
 9382SOL    HW239780   1.073   3.663   9.337  2.4629 -0.6641 -0.5821
 9383SOL     OW39781   4.467   3.665   0.785 -0.2287  0.3076  0.2879
 9383SOL    HW139782   4.471   3.615   0.703 -0.0068 -0.2032  0.6088
 9383SOL    HW239783   4.381   3.706   0.790 -0.4182 -0.1127  0.4401
 9384SOL     OW39784   2.549   1.198   6.288  0.5149  0.0615  0.7191
 9384SOL    HW139785   2.598   1.185   6.207  0.3163  2.3114  0.2429
 9384SOL    HW239786   2.583   1.123   6.337  2.0118 -0.0424 -0.4958
 9385SOL     OW39787   2.081   2.058   5.827 -0.1746 -0.7546  0.1593
 9385SOL    HW139788   2.147   2.039   5.894 -1.7842 -1.1150  1.6342
 9385SOL    HW239789   2.066   1.974   5.785 -1.3369 -0.5319  0.1140
 9386SOL     OW39790   2.059   4.526   2.437  0.3067  0.4001  0.1285
 9386SOL    HW139791   1.990   4.464   2.414 -0.4378  0.3040  2.5697
 9386SOL    HW239792   2.007   4.607   2.445 -1.3681 -0.5547 -1.0140
 9387SOL     OW39793   2.910   1.831   2.515  0.2536  0.6104  0.5262
 9387SOL    HW139794   2.889   1.762   2.578 -0.9930 -0.0336 -0.5879
 9387SOL    HW239795   2.846   1.817   2.445  0.1749 -1.9862  1.1147
 9388SOL     OW39796   3.537   4.367   9.869 -0.3972 -0.2345 -0.4868
 9388SOL    HW139797   3.476   4.319   9.924  1.3914  0.3178  1.9639
 9388SOL    HW239798   3.476   4.422   9.820  0.9720  0.8650 -0.9579
 9389SOL     OW39799   4.145   3.933  12.031 -0.3532 -0.7427 -0.2870
 9389SOL    HW139800   4.222   3.981  12.062 -0.2172 -1.2522  0.1686
 9389SOL    HW239801   4.089   3.948  12.107  1.6243  0.5284  0.9299
 9390SOL     OW39802   4.021   0.068   6.006  0.3442 -0.3330  0.5154
 9390SOL    HW139803   4.108   0.081   5.968 -0.2587 -0.0186 -0.7558
 9390SOL    HW239804   4.040   0.089   6.098 -0.2801  1.2941  0.2760
 9391SOL     OW39805   0.241   4.140   8.901  0.2329 -1.0117  0.2448
 9391SOL    HW139806   0.240   4.236   8.901  1.9037 -0.9853 -0.2754
 9391SOL    HW239807   0.147   4.128   8.890  0.2400 -0.0456 -0.8658
 9392SOL     OW39808   1.379   3.101  14.519  0.1063 -0.5459  0.1913
 9392SOL    HW139809   1.465   3.140  14.530  0.2619 -0.5606 -0.9270
 9392SOL    HW239810   1.351   3.169  14.458  1.1414 -1.0877 -0.8716
 9393SOL     OW39811   2.600   0.929   6.339 -0.3475 -0.0529  0.2528
 9393SOL    HW139812   2.666   0.864   6.364  0.3103  0.5521  0.1049
 9393SOL    HW239813   2.550   0.875   6.277  2.7581 -1.5886 -0.9102
 9394SOL     OW39814   2.971   2.748   6.637  0.2765  0.6741 -0.7490
 9394SOL    HW139815   3.066   2.754   6.628  0.1590  3.4702 -0.0832
 9394SOL    HW239816   2.936   2.778   6.554 -1.3559 -1.3871 -0.8123
 9395SOL     OW39817   2.112   3.823   9.297  0.3569 -0.2667  0.5473
 9395SOL    HW139818   2.191   3.773   9.279  0.0512 -0.9718  1.1545
 9395SOL    HW239819   2.133   3.901   9.246  2.8326 -0.9577  0.5237
 9396SOL     OW39820   2.953   0.685   6.143 -0.6216  0.1007  0.1366
 9396SOL    HW139821   3.021   0.734   6.096  0.9763 -0.5054  1.7916
 9396SOL    HW239822   2.883   0.698   6.079 -0.4561  0.2514 -0.0137
 9397SOL     OW39823   2.227   1.307  11.201 -0.0075  1.0335  0.0920
 9397SOL    HW139824   2.323   1.310  11.210  0.1199  2.0283 -1.8385
 9397SOL    HW239825   2.209   1.380  11.143  2.6104  1.4813 -0.1773
 9398SOL     OW39826   2.737   3.272   2.968 -0.0761  0.5259  0.0756
 9398SOL    HW139827   2.672   3.220   2.921  1.0024  0.3497 -1.2381
 9398SOL    HW239828   2.709   3.263   3.058  2.6479  0.1180  0.8944
 9399SOL     OW39829   4.236   1.787   2.716 -0.4236  0.0214  0.5852
 9399SOL    HW139830   4.195   1.842   2.649  2.1010 -0.1826 -1.1295
 9399SOL    HW239831   4.165   1.724   2.734  0.6550 -1.3848 -0.0835
 9400SOL     OW39832   1.539   1.456   2.072 -0.1668 -0.1715 -0.9817
 9400SOL    HW139833   1.589   1.532   2.101 -0.4189 -0.5234  0.3439
 9400SOL    HW239834   1.554   1.387   2.136 -1.2835  0.1026 -0.4185
 9401SOL     OW39835   1.787   1.452   5.563 -0.3936  0.4945 -0.3245
 9401SOL    HW139836   1.844   1.382   5.531 -1.3790 -0.5400  0.1808
 9401SOL    HW239837   1.715   1.427   5.504 -0.5197  1.5071 -0.6029
 9402SOL     OW39838   0.981   4.684   2.509  0.1366  0.2511  0.0166
 9402SOL    HW139839   0.997   0.036   2.486 -0.4136  0.5062  0.6381
 9402SOL    HW239840   0.915   4.697   2.577 -0.4454 -3.7033  0.1754
 9403SOL     OW39841   4.305   2.394   7.372  0.4471 -0.1821 -0.0630
 9403SOL    HW139842   4.335   2.315   7.325 -0.8624  0.2313 -1.6070
 9403SOL    HW239843   4.214   2.401   7.343  1.3858  1.3555 -2.6363
 9404SOL     OW39844   1.818   3.845   3.070 -0.0825  0.2221  0.0713
 9404SOL    HW139845   1.833   3.930   3.028 -0.7996  0.5299  0.4420
 9404SOL    HW239846   1.837   3.797   2.989 -0.7237  1.5489 -0.8578
 9405SOL     OW39847   3.979   0.234  12.203  0.2812 -0.1842 -0.1044
 9405SOL    HW139848   3.925   0.276  12.136 -2.6735 -1.4226  1.4998
 9405SOL    HW239849   3.907   0.227  12.265 -0.8532 -2.3142 -1.6530
 9406SOL     OW39850   3.760   0.267  11.433 -0.2305  0.2725  0.1649
 9406SOL    HW139851   3.837   0.284  11.487 -0.0999  2.1082 -0.5723
 9406SOL    HW239852   3.807   0.262  11.350 -0.1848  0.2217  0.1943
 9407SOL     OW39853   0.031   1.900  13.745 -0.3453  0.0422  0.1604
 9407SOL    HW139854   4.723   1.835  13.694  0.2971 -2.1041  2.3026
 9407SOL    HW239855   4.734   1.885  13.832  0.0336  0.4284  0.3869
 9408SOL     OW39856   4.406   3.171  17.241  0.2427 -0.4213  0.4323
 9408SOL    HW139857   4.479   3.231  17.250  1.2121 -1.6234  0.6195
 9408SOL    HW239858   4.335   3.231  17.265 -1.4565 -1.9047 -0.9205
 9409SOL     OW39859   3.164   0.124   9.912 -0.1741 -0.4850  0.1697
 9409SOL    HW139860   3.232   0.157   9.853 -0.1269  2.3512  1.8183
 9409SOL    HW239861   3.217   0.065   9.967  0.5357 -0.0512 -0.0437
 9410SOL     OW39862   2.454   1.433   5.507  0.1154 -0.7034  0.0681
 9410SOL    HW139863   2.415   1.516   5.477  0.6870  0.2762  2.0361
 9410SOL    HW239864   2.376   1.377   5.514  0.1840 -0.7356  0.5799
 9411SOL     OW39865   2.437   3.291   7.980 -0.4358 -0.3087  0.5881
 9411SOL    HW139866   2.345   3.303   7.960  0.0264  2.1364 -0.0304
 9411SOL    HW239867   2.470   3.380   7.975  1.9297 -1.1138  1.6925
 9412SOL     OW39868   0.367   3.133  12.680  0.6564  0.2264  0.1197
 9412SOL    HW139869   0.386   3.152  12.772  4.6112 -0.0840 -0.6481
 9412SOL    HW239870   0.454   3.103  12.656 -0.3424 -3.5719  1.2160
 9413SOL     OW39871   1.088   3.132   1.009  0.3219  0.0226  0.0584
 9413SOL    HW139872   1.019   3.191   1.041  0.4138 -1.3565  2.8260
 9413SOL    HW239873   1.128   3.181   0.937 -1.6851  2.0617  0.3406
 9414SOL     OW39874   0.302   3.121   5.827  0.2739  0.7146 -0.0216
 9414SOL    HW139875   0.339   3.038   5.858  1.1260  1.0025 -0.2622
 9414SOL    HW239876   0.225   3.135   5.883  1.9971  2.7462  1.8521
 9415SOL     OW39877   0.132   2.459   7.118 -0.1924  0.7290 -0.4849
 9415SOL    HW139878   0.104   2.514   7.044  0.1883  1.3488 -0.1621
 9415SOL    HW239879   0.113   2.512   7.196 -1.1427 -1.0980  0.5353
 9416SOL     OW39880   1.353   0.731   3.780 -0.3351  0.4184 -0.2521
 9416SOL    HW139881   1.388   0.818   3.796  1.3604 -0.2047 -0.5520
 9416SOL    HW239882   1.381   0.700   3.867 -2.1788  2.1382  0.9644
 9417SOL     OW39883   0.077   0.233   1.254 -0.6350  1.0983 -0.2080
 9417SOL    HW139884   0.051   0.239   1.162 -1.9441  0.7596  0.1331
 9417SOL    HW239885   0.020   0.160   1.279  0.8196  0.1873  0.4831
 9418SOL     OW39886   2.707   0.216   5.627  0.0304  0.6952  0.3369
 9418SOL    HW139887   2.674   0.149   5.687  0.8379  0.7864  0.8844
 9418SOL    HW239888   2.781   0.250   5.677  0.2887  0.1905  0.3023
 9419SOL     OW39889   1.052   4.546   4.124 -0.1433  0.2657  0.1970
 9419SOL    HW139890   1.018   4.479   4.183 -1.0590  0.2405 -0.3540
 9419SOL    HW239891   1.023   4.628   4.164 -1.0319 -0.9251  2.0128
 9420SOL     OW39892   3.158   2.293   8.761  0.0892  0.1681  0.3443
 9420SOL    HW139893   3.208   2.286   8.680 -2.5334 -2.6305 -1.0273
 9420SOL    HW239894   3.124   2.204   8.771 -0.8832  0.1637 -3.2969
 9421SOL     OW39895   4.579   0.643   0.489  0.1969  0.5898 -0.4909
 9421SOL    HW139896   4.522   0.660   0.565 -0.8735  3.0504 -1.8576
 9421SOL    HW239897   4.585   0.737   0.474  0.2304  0.7302  0.3891
 9422SOL     OW39898   3.527   1.095   8.012  0.3328  0.4528  0.0288
 9422SOL    HW139899   3.577   1.135   7.940 -0.0458  0.4242 -0.2485
 9422SOL    HW239900   3.568   1.009   8.012  1.4540  0.9793  0.3722
 9423SOL     OW39901   2.655   3.258   6.764 -0.3426  0.3313  0.1040
 9423SOL    HW139902   2.744   3.286   6.739 -0.4393 -1.1479 -1.9481
 9423SOL    HW239903   2.604   3.339   6.755  2.2702  1.8795 -0.9937
 9424SOL     OW39904   2.346   0.010   0.625  0.0373 -0.0923  0.3277
 9424SOL    HW139905   2.311   4.677   0.676 -1.1722  1.4045  1.6246
 9424SOL    HW239906   2.434   4.715   0.640 -0.2355 -1.7913 -1.9332
 9425SOL     OW39907   3.947   0.807   5.479 -0.2749  0.3243 -0.5616
 9425SOL    HW139908   3.885   0.739   5.506  0.6674 -0.7088 -0.9663
 9425SOL    HW239909   4.028   0.777   5.519 -1.7017 -0.8169  1.4694
 9426SOL     OW39910   0.378   0.803   4.821  0.6698 -0.1508 -0.5523
 9426SOL    HW139911   0.426   0.759   4.891 -1.5144 -1.6984 -0.0331
 9426SOL    HW239912   0.285   0.813   4.844  0.7885 -1.7754  0.6377
 9427SOL     OW39913   4.394   0.655   7.740  0.2746  0.0851  0.5499
 9427SOL    HW139914   4.387   0.626   7.831 -1.7915  0.5792  0.5513
 9427SOL    HW239915   4.489   0.661   7.732  0.2189  0.8684  0.5064
 9428SOL     OW39916   0.795   4.177   3.505  0.4396  0.3296 -0.1559
 9428SOL    HW139917   0.863   4.129   3.553  0.1026 -1.2118 -1.2103
 9428SOL    HW239918   0.735   4.206   3.574  1.3704  1.0384  0.3542
 9429SOL     OW39919   2.632   2.221   2.805  0.3165  0.2084 -0.1315
 9429SOL    HW139920   2.643   2.314   2.783 -1.7857 -0.2565 -3.2174
 9429SOL    HW239921   2.722   2.190   2.813 -0.3990 -2.0808 -1.0065
 9430SOL     OW39922   2.603   2.589   1.549 -0.1972  0.0285  0.1626
 9430SOL    HW139923   2.616   2.532   1.473 -0.6516  0.4892 -0.2620
 9430SOL    HW239924   2.540   2.529   1.589 -1.0556  0.6372 -0.2762
 9431SOL     OW39925   1.683   4.726   9.067 -0.0416  0.1017  0.0156
 9431SOL    HW139926   1.729   0.031   8.996 -2.9666  1.2395 -1.1639
 9431SOL    HW239927   1.596   0.027   9.074  0.4049  1.6185 -2.8941
 9432SOL     OW39928   1.708   1.492   2.502  0.2602 -0.5433  0.2228
 9432SOL    HW139929   1.641   1.554   2.474  0.6556 -0.0001  0.4877
 9432SOL    HW239930   1.656   1.446   2.568  3.4462 -3.0297  0.9799
 9433SOL     OW39931   3.803   1.072   5.569 -0.1237 -0.6875 -0.5245
 9433SOL    HW139932   3.745   1.010   5.613  1.0316 -0.0567  1.8900
 9433SOL    HW239933   3.789   1.038   5.481 -0.8579  0.6131 -0.9142
 9434SOL     OW39934   2.677   2.331  10.179 -0.5824 -0.2666  0.7435
 9434SOL    HW139935   2.771   2.315  10.171 -0.6321 -0.2935  0.2133
 9434SOL    HW239936   2.673   2.395  10.108 -1.4968 -1.0706  0.0883
 9435SOL     OW39937   3.922   2.841  14.182  0.0669  0.5137  0.0230
 9435SOL    HW139938   3.830   2.817  14.172  0.3577 -0.4324 -0.3701
 9435SOL    HW239939   3.921   2.904  14.110 -0.1741 -0.2266 -0.6102
 9436SOL     OW39940   0.879   1.405  16.688 -0.2369 -0.9371  0.6391
 9436SOL    HW139941   0.852   1.321  16.724  1.0524 -1.4794  0.3442
 9436SOL    HW239942   0.864   1.393  16.594  1.8229  0.1643  0.1509
 9437SOL     OW39943   4.558   0.056   8.371  0.3637 -0.5409  0.1770
 9437SOL    HW139944   4.571   4.737   8.446 -0.6487  0.5123  1.1733
 9437SOL    HW239945   4.576   0.143   8.407  0.2912 -1.2172  1.8482
 9438SOL     OW39946   4.711   0.254   3.497  0.1361  0.2737  0.2181
 9438SOL    HW139947   0.044   0.283   3.441 -0.7305 -1.3581 -1.7375
 9438SOL    HW239948   4.636   0.266   3.438  0.0635  0.9116  0.4468
 9439SOL     OW39949   3.705   3.756   4.687  0.0257 -0.0559  0.1658
 9439SOL    HW139950   3.653   3.761   4.768  0.2089 -1.2502  0.3641
 9439SOL    HW239951   3.794   3.775   4.718 -0.0278 -0.1830  0.3968
 9440SOL     OW39952   1.047   2.415  10.323 -0.1744 -0.0447  0.4595
 9440SOL    HW139953   0.953   2.428  10.313 -0.2866  0.3703  2.0760
 9440SOL    HW239954   1.075   2.410  10.232  0.1963  0.8569  0.5193
 9441SOL     OW39955   4.415   0.654   4.854 -0.1508  0.3970 -0.0575
 9441SOL    HW139956   4.359   0.629   4.928  0.6398  0.3246  0.5247
 9441SOL    HW239957   4.496   0.669   4.903  0.2750 -2.0590  0.0124
 9442SOL     OW39958   2.580   0.430   2.665  0.1324 -0.0272  0.4556
 9442SOL    HW139959   2.529   0.358   2.629  0.7407  0.4693 -1.4110
 9442SOL    HW239960   2.650   0.372   2.694  0.7568 -0.3861 -1.7689
 9443SOL     OW39961   2.165   4.242   5.174 -0.5466  0.0516  0.2395
 9443SOL    HW139962   2.132   4.291   5.249 -0.0446 -0.2044  0.6230
 9443SOL    HW239963   2.246   4.205   5.209 -0.6470 -0.5832 -0.1874
 9444SOL     OW39964   3.615   3.268   7.650 -0.1617  0.4210  0.0196
 9444SOL    HW139965   3.527   3.290   7.619 -0.0582 -0.4979 -0.9056
 9444SOL    HW239966   3.603   3.177   7.680  0.0826  0.7703  1.1742
 9445SOL     OW39967   0.928   1.706   3.660 -0.2929  0.2335 -0.4717
 9445SOL    HW139968   0.900   1.650   3.733  1.9423 -1.6691 -1.0873
 9445SOL    HW239969   0.873   1.782   3.678 -0.9752 -0.8375  2.0670
 9446SOL     OW39970   0.012   2.093  11.350  0.2575 -0.6300 -0.0809
 9446SOL    HW139971   0.007   2.009  11.304  1.1435 -0.3063 -0.7861
 9446SOL    HW239972   0.094   2.128  11.314  1.6425  1.3731  5.0718
 9447SOL     OW39973   2.839   4.219   9.967 -0.0096 -0.4266 -0.0250
 9447SOL    HW139974   2.790   4.286   9.919  1.7422  1.5214  0.8563
 9447SOL    HW239975   2.845   4.147   9.904  1.0303 -1.3577  1.1410
 9448SOL     OW39976   4.038   1.358   8.659  0.6389  0.1565 -0.0262
 9448SOL    HW139977   4.079   1.384   8.742  2.3115  0.5927 -0.9787
 9448SOL    HW239978   3.980   1.434   8.649 -1.3520 -1.1134  2.0761
 9449SOL     OW39979   4.648   0.211  10.953  0.3131 -0.2911  0.1703
 9449SOL    HW139980   4.697   0.131  10.970 -1.8105 -1.6681 -0.0925
 9449SOL    HW239981   4.699   0.259  10.888 -0.3232  0.4502  0.2143
 9450SOL     OW39982   2.016   2.619   6.505  0.3702 -0.3520  0.5744
 9450SOL    HW139983   2.058   2.661   6.580  2.0466  1.1995 -1.2143
 9450SOL    HW239984   1.927   2.619   6.538  0.5373 -2.7641  0.9899
 9451SOL     OW39985   3.197   4.276   3.146  0.4717  0.3346  0.3362
 9451SOL    HW139986   3.131   4.217   3.181 -0.5817  2.0412  1.2635
 9451SOL    HW239987   3.166   4.360   3.180 -1.8031 -0.4603  0.1811
 9452SOL     OW39988   1.847   1.339   3.239  0.0289 -0.0978  0.6691
 9452SOL    HW139989   1.767   1.390   3.226  1.0408  1.4692  0.5610
 9452SOL    HW239990   1.841   1.306   3.149 -0.8784  0.4769  0.5191
 9453SOL     OW39991   0.285   1.150  16.842 -0.1982 -0.4843 -0.6859
 9453SOL    HW139992   0.217   1.188  16.786 -0.9343 -0.7613  0.0389
 9453SOL    HW239993   0.288   1.059  16.813 -1.9573 -1.7839  3.2664
 9454SOL     OW39994   4.139   4.222   4.668  0.0746  0.3769  0.2812
 9454SOL    HW139995   4.164   4.200   4.758 -0.6387 -1.1464  0.1065
 9454SOL    HW239996   4.073   4.290   4.681 -1.1146 -0.6084 -0.6110
 9455SOL     OW39997   0.875   2.809   5.322  0.1447 -0.1588  0.0036
 9455SOL    HW139998   0.783   2.816   5.347  0.5297 -0.8318  1.6350
 9455SOL    HW239999   0.868   2.874   5.252 -1.8944 -0.1621  0.2071
 9456SOL     OW40000   0.314   0.957  11.376 -0.3705 -0.0450  0.5831
 9456SOL    HW140001   0.388   1.016  11.390  0.8507 -1.4105 -0.0829
 9456SOL    HW240002   0.356   0.903  11.309 -1.4890  0.5217 -0.5752
 9457SOL     OW40003   3.015   1.308   5.599 -0.1855 -0.6006  0.2347
 9457SOL    HW140004   3.024   1.402   5.583 -0.8358 -0.6974 -0.7247
 9457SOL    HW240005   2.967   1.282   5.520 -0.1741 -0.4212  0.1676
 9458SOL     OW40006   3.955   1.870   1.125 -0.6395  0.2390 -0.3710
 9458SOL    HW140007   3.875   1.917   1.149 -1.3027 -0.5775 -0.9545
 9458SOL    HW240008   4.017   1.942   1.132  0.9360 -1.3538  2.0228
 9459SOL     OW40009   2.371   1.548   2.598 -0.0961  0.1367  0.3569
 9459SOL    HW140010   2.355   1.517   2.687 -1.7715  0.6394  0.2430
 9459SOL    HW240011   2.403   1.637   2.614 -0.3910  0.2218  0.4696
 9460SOL     OW40012   0.426   3.732   5.717 -0.0648  0.5088  0.1536
 9460SOL    HW140013   0.335   3.755   5.734  0.3811 -1.2687  4.8312
 9460SOL    HW240014   0.468   3.818   5.720 -1.2135  1.0420  0.7815
 9461SOL     OW40015   0.030   3.299  15.460  0.5582 -0.4963 -0.3841
 9461SOL    HW140016   0.054   3.381  15.502  0.7737 -0.2008 -1.0903
 9461SOL    HW240017   4.674   3.305  15.457  0.4018 -1.4054  2.7140
 9462SOL     OW40018   3.735   0.219  16.582  0.4463  0.3117  0.7291
 9462SOL    HW140019   3.757   0.238  16.490 -0.3757  2.0515  0.8870
 9462SOL    HW240020   3.739   0.123  16.576 -1.1651  0.3699 -1.5502
 9463SOL     OW40021   1.293   2.209   2.927  0.4233 -0.3619  0.7329
 9463SOL    HW140022   1.212   2.183   2.971  0.1091 -1.5430 -0.5468
 9463SOL    HW240023   1.266   2.221   2.836  1.5191  0.3338  0.4988
 9464SOL     OW40024   3.334   2.917   1.642 -0.0064 -0.1343  0.3365
 9464SOL    HW140025   3.396   2.921   1.570 -0.3366  0.9602  0.1065
 9464SOL    HW240026   3.267   2.984   1.624 -1.7608 -1.4468  1.9088
 9465SOL     OW40027   1.686   3.420   5.943  0.0462  0.1568 -0.7009
 9465SOL    HW140028   1.615   3.377   5.896 -0.1441  1.1566 -1.3291
 9465SOL    HW240029   1.683   3.363   6.020 -0.7275 -0.2949 -1.0650
 9466SOL     OW40030   1.055   3.762   1.926 -0.0723 -0.7332 -0.0880
 9466SOL    HW140031   1.004   3.692   1.967 -3.6176  1.2451 -1.1495
 9466SOL    HW240032   1.110   3.791   1.999  2.7052 -0.6359 -2.2035
 9467SOL     OW40033   3.887   0.180   3.811  0.7225 -0.0093  0.0619
 9467SOL    HW140034   3.800   0.185   3.772  1.1074 -0.4318 -0.8430
 9467SOL    HW240035   3.889   0.252   3.874 -0.4536 -0.2574  0.3836
 9468SOL     OW40036   3.858   0.497  12.549 -0.3050 -0.2418 -0.3773
 9468SOL    HW140037   3.926   0.564  12.556 -1.2413  0.5558  1.0865
 9468SOL    HW240038   3.886   0.420  12.599 -1.5232  0.1715  0.9371
 9469SOL     OW40039   1.563   1.393   1.779  0.1337 -0.3726  0.3188
 9469SOL    HW140040   1.484   1.438   1.746  0.0150  0.0383  1.1664
 9469SOL    HW240041   1.547   1.417   1.870 -1.7294  0.0131 -0.1137
 9470SOL     OW40042   4.053   2.632   3.285  0.0976 -0.3677  0.0746
 9470SOL    HW140043   4.067   2.635   3.190 -2.2508 -0.1143 -0.2566
 9470SOL    HW240044   4.076   2.541   3.300 -2.0983 -1.0499 -0.7091
 9471SOL     OW40045   0.396   0.533   0.142  0.4202 -0.2737 -0.2931
 9471SOL    HW140046   0.390   0.540   0.237 -3.9087 -0.5362 -0.5433
 9471SOL    HW240047   0.307   0.502   0.125  0.5404 -0.2095 -1.0452
 9472SOL     OW40048   1.256   2.633  14.609 -0.2545 -0.1258  0.0350
 9472SOL    HW140049   1.171   2.673  14.592  0.5408  1.2261 -0.7353
 9472SOL    HW240050   1.312   2.710  14.606  1.9236 -1.7895 -2.5449
 9473SOL     OW40051   1.664   2.422  16.651  0.1335 -0.0841 -0.2210
 9473SOL    HW140052   1.713   2.433  16.570 -1.9540  0.4706 -1.4123
 9473SOL    HW240053   1.733   2.406  16.715  0.0589  2.3621  0.4886
 9474SOL     OW40054   1.894   0.887   3.858 -0.0336 -0.2514 -0.1538
 9474SOL    HW140055   1.909   0.981   3.862 -0.9390 -0.1092  0.0501
 9474SOL    HW240056   1.915   0.865   3.949  1.5123  0.8033 -0.2612
 9475SOL     OW40057   1.121   3.860   4.432 -0.6006  0.1419  0.0816
 9475SOL    HW140058   1.154   3.872   4.343  1.6228 -3.0574  0.4540
 9475SOL    HW240059   1.201   3.849   4.483 -1.6275 -1.9851  1.2765
 9476SOL     OW40060   2.559   1.167   8.690 -0.3558  0.0613 -0.1410
 9476SOL    HW140061   2.577   1.189   8.598 -2.5432  1.4441 -0.2470
 9476SOL    HW240062   2.631   1.202   8.742 -0.2727  1.3087 -1.1002
 9477SOL     OW40063   4.352   3.788   6.521 -0.1237 -0.1844  0.7922
 9477SOL    HW140064   4.395   3.823   6.443  0.6710  0.0637  1.3461
 9477SOL    HW240065   4.394   3.702   6.528 -0.3892 -0.3823 -0.0032
 9478SOL     OW40066   2.765   0.289   4.115 -0.5502 -0.0886  0.0420
 9478SOL    HW140067   2.780   0.268   4.207 -1.7399  1.5879  0.6044
 9478SOL    HW240068   2.714   0.214   4.084 -0.2140 -0.2454 -0.1305
 9479SOL     OW40069   3.648   2.275   5.336 -0.2912  0.4061 -0.2830
 9479SOL    HW140070   3.686   2.193   5.366  1.8768  1.4251 -0.2320
 9479SOL    HW240071   3.581   2.246   5.275 -0.7959  0.1562  0.3893
 9480SOL     OW40072   3.853   3.947   3.808  0.0149 -0.3347 -0.8451
 9480SOL    HW140073   3.867   4.039   3.783 -0.0248 -0.0542  0.1606
 9480SOL    HW240074   3.878   3.957   3.899  0.5946  0.0861 -1.0494
 9481SOL     OW40075   0.248   2.065   2.191  0.6697 -0.2108  0.1110
 9481SOL    HW140076   0.156   2.047   2.171  0.0685  3.6313 -0.5716
 9481SOL    HW240077   0.300   2.001   2.143 -0.6066 -0.3019 -1.1451
 9482SOL     OW40078   2.522   1.962   3.116  0.3164  0.2492 -0.2469
 9482SOL    HW140079   2.445   1.987   3.168  1.6443 -1.1107  2.3438
 9482SOL    HW240080   2.474   1.960   3.033  0.2760 -2.9777 -0.1285
 9483SOL     OW40081   3.090   1.989   9.378 -0.3655 -0.2567  0.2096
 9483SOL    HW140082   3.132   1.928   9.438 -0.8613 -0.0141  0.8011
 9483SOL    HW240083   3.166   2.014   9.325  0.9660 -0.1682  2.1588
 9484SOL     OW40084   0.916   1.876  12.297 -0.1039 -0.1825  0.4759
 9484SOL    HW140085   0.879   1.850  12.212 -0.2020  0.0120  0.4595
 9484SOL    HW240086   0.910   1.790  12.337 -2.2820 -0.2946 -0.0790
 9485SOL     OW40087   2.154   1.544   8.008 -0.0692  0.1352  0.2558
 9485SOL    HW140088   2.242   1.573   8.033 -0.6488  0.3074  2.1445
 9485SOL    HW240089   2.179   1.452   7.999  1.0733  0.3668  1.0421
 9486SOL     OW40090   0.372   2.897   9.350 -0.4404 -0.2559  0.1183
 9486SOL    HW140091   0.388   2.854   9.265 -2.1493 -0.4470 -0.1070
 9486SOL    HW240092   0.446   2.868   9.403  1.4369 -0.9171 -2.8741
 9487SOL     OW40093   1.503   1.667   2.459  0.5800  0.7742 -0.3431
 9487SOL    HW140094   1.487   1.745   2.512 -1.8182 -0.2615  0.4187
 9487SOL    HW240095   1.503   1.709   2.372 -1.1175  0.6979 -0.3835
 9488SOL     OW40096   3.477   2.881  16.484 -0.1178  0.3816 -0.5017
 9488SOL    HW140097   3.469   2.786  16.480  0.7538  0.3609 -1.5576
 9488SOL    HW240098   3.405   2.897  16.546 -0.9000  0.2244 -1.3651
 9489SOL     OW40099   0.776   4.191  16.799  0.1636 -0.0932 -0.3635
 9489SOL    HW140100   0.725   4.272  16.790  1.6485  0.7751 -1.0469
 9489SOL    HW240101   0.777   4.185  16.894 -0.3503 -0.8360 -0.4026
 9490SOL     OW40102   2.042   2.960   7.940 -0.0824 -0.2474  0.1042
 9490SOL    HW140103   2.005   3.010   8.013 -0.3144 -0.7043  0.3016
 9490SOL    HW240104   2.132   2.947   7.969 -0.4334 -1.2736  0.7438
 9491SOL     OW40105   2.582   3.072   4.581 -0.8349 -0.0067 -0.0529
 9491SOL    HW140106   2.544   3.079   4.494  1.3266  0.1638 -0.9931
 9491SOL    HW240107   2.550   3.150   4.626 -0.9865  0.2735 -0.6448
 9492SOL     OW40108   3.803   3.792   8.842  0.2502  0.1277 -0.3245
 9492SOL    HW140109   3.773   3.701   8.842  0.6383 -0.0059  1.4866
 9492SOL    HW240110   3.741   3.825   8.777 -1.8039 -2.3015  0.3729
 9493SOL     OW40111   3.742   0.885   4.102  0.4317 -0.4775  0.1537
 9493SOL    HW140112   3.801   0.846   4.037 -1.3908  0.1093 -1.8626
 9493SOL    HW240113   3.677   0.925   4.044 -0.6773  0.0706  1.7579
 9494SOL     OW40114   3.137   4.092   2.680 -0.0980  0.5947  0.2972
 9494SOL    HW140115   3.188   4.124   2.605  1.2187 -0.2150  0.8388
 9494SOL    HW240116   3.159   4.160   2.744 -0.7200 -0.3118  1.4817
 9495SOL     OW40117   0.146   3.812   3.195  0.2245  0.0550  0.0432
 9495SOL    HW140118   0.184   3.725   3.183 -0.8017 -0.5002  0.8595
 9495SOL    HW240119   0.071   3.808   3.135  0.5784  1.7975 -0.5121
 9496SOL     OW40120   4.162   4.008   3.884  0.2009 -0.4936 -0.8440
 9496SOL    HW140121   4.135   3.927   3.927  0.4573  1.5296  3.0985
 9496SOL    HW240122   4.249   4.018   3.921 -0.2394 -1.5500  0.4667
 9497SOL     OW40123   2.924   1.848   9.245  0.1983  0.4299  0.2504
 9497SOL    HW140124   2.968   1.913   9.300  1.0705 -0.5007  0.6475
 9497SOL    HW240125   2.889   1.909   9.180 -1.0818 -1.3660 -0.7425
 9498SOL     OW40126   1.755   4.727   4.795  0.0741 -0.0243 -0.0757
 9498SOL    HW140127   1.707   4.648   4.768  0.4493 -0.4217  0.4171
 9498SOL    HW240128   1.840   4.685   4.810  0.6956  1.4076  0.3475
 9499SOL     OW40129   4.031   4.715   4.956 -0.4470  0.4469  0.3741
 9499SOL    HW140130   4.081   4.683   5.031 -3.9509  0.1949  2.5598
 9499SOL    HW240131   4.021   0.069   4.975  0.6989  1.2577 -2.9230
 9500SOL     OW40132   3.280   2.811   3.670  0.0173 -0.2401  0.4845
 9500SOL    HW140133   3.270   2.774   3.582 -1.3248 -0.1866  0.6082
 9500SOL    HW240134   3.277   2.906   3.654  0.2709 -0.2371  0.4606
 9501SOL     OW40135   2.488   2.907  11.039  0.4273 -0.5755 -0.2024
 9501SOL    HW140136   2.570   2.872  11.072  0.4469  0.4715  0.8645
 9501SOL    HW240137   2.514   2.978  10.980 -3.0249 -0.3381 -1.4561
 9502SOL     OW40138   1.163   0.382   4.912  0.2073 -0.2790 -0.1895
 9502SOL    HW140139   1.131   0.379   5.002  0.1070 -0.1743 -0.2211
 9502SOL    HW240140   1.172   0.290   4.888  0.9597 -0.6812  1.6552
 9503SOL     OW40141   0.370   3.702  10.004 -0.1085 -0.2226  0.2837
 9503SOL    HW140142   0.458   3.739  10.010  0.1813 -1.2780  2.7171
 9503SOL    HW240143   0.353   3.679  10.095  1.2654 -2.1224  0.0660
 9504SOL     OW40144   3.973   1.272   3.889 -0.0297 -0.0984  0.4146
 9504SOL    HW140145   4.067   1.269   3.910  0.1652 -0.9322 -0.5443
 9504SOL    HW240146   3.935   1.296   3.973 -0.7225 -1.9000  0.6125
 9505SOL     OW40147   3.682   4.041   4.882  0.0559  0.3085  0.0237
 9505SOL    HW140148   3.635   4.063   4.802 -2.0462 -2.7299  0.4259
 9505SOL    HW240149   3.620   4.054   4.954 -3.2794 -2.8417 -2.2994
 9506SOL     OW40150   2.100   1.845   7.605 -0.5492  0.3527  0.1603
 9506SOL    HW140151   2.006   1.857   7.596 -0.1946  1.2259 -2.3448
 9506SOL    HW240152   2.136   1.905   7.539 -1.8080 -2.0955 -2.7518
 9507SOL     OW40153   0.507   1.171  12.987  0.7519 -0.5695 -0.0926
 9507SOL    HW140154   0.462   1.128  13.060 -0.5331  2.0000  0.5979
 9507SOL    HW240155   0.437   1.169  12.921  0.7785  2.0185 -0.1771
 9508SOL     OW40156   0.649   4.635   0.491  0.2560 -0.4879  0.2507
 9508SOL    HW140157   0.587   4.598   0.428  0.3526 -0.0783 -0.0777
 9508SOL    HW240158   0.675   4.556   0.539  0.1961 -2.2329 -2.5418
 9509SOL     OW40159   0.192   4.647   7.166 -1.0172  0.0295 -0.1982
 9509SOL    HW140160   0.121   4.661   7.103 -1.4141 -1.9076 -0.1731
 9509SOL    HW240161   0.199   4.552   7.158  1.6616 -0.0151  2.9139
 9510SOL     OW40162   1.251   4.028   1.967  0.4472 -0.1855 -0.6139
 9510SOL    HW140163   1.261   4.123   1.966 -1.2780  0.0054  0.0562
 9510SOL    HW240164   1.194   4.021   2.044  2.1163  1.8937  0.8047
 9511SOL     OW40165   0.729   3.550   9.429 -0.3801  0.3528  0.1124
 9511SOL    HW140166   0.751   3.642   9.422 -3.0173  0.8927 -1.1267
 9511SOL    HW240167   0.731   3.519   9.520 -0.1025 -0.3462 -0.1279
 9512SOL     OW40168   4.232   2.128   6.312 -0.3886 -0.0337 -0.4683
 9512SOL    HW140169   4.235   2.176   6.395 -0.1736 -0.6810 -0.1034
 9512SOL    HW240170   4.310   2.073   6.312 -0.7684 -0.5940  2.9808
 9513SOL     OW40171   3.204   2.643  16.528 -0.2697  0.4081 -0.7039
 9513SOL    HW140172   3.174   2.641  16.437 -0.7039 -1.1296 -0.5264
 9513SOL    HW240173   3.298   2.634  16.513 -0.0889  1.5276 -0.2262
 9514SOL     OW40174   2.576   1.912   5.562 -0.1658  0.0136  0.0387
 9514SOL    HW140175   2.595   1.968   5.638 -1.4389  1.1304 -0.4711
 9514SOL    HW240176   2.644   1.845   5.573 -0.1653 -0.0271 -0.2055
 9515SOL     OW40177   1.693   3.884   1.065 -0.1582 -0.2693 -0.4920
 9515SOL    HW140178   1.766   3.944   1.051  0.5854 -0.9134  0.5832
 9515SOL    HW240179   1.664   3.875   0.974  1.0046 -0.0309 -0.8915
 9516SOL     OW40180   1.139   3.034  10.077 -1.0350  0.0488  0.2995
 9516SOL    HW140181   1.044   3.041  10.082 -1.0913 -0.2486 -0.5370
 9516SOL    HW240182   1.139   2.940  10.094 -1.0637 -0.3567 -1.9933
 9517SOL     OW40183   3.787   2.087  11.071  0.1426  0.6184  0.0006
 9517SOL    HW140184   3.812   2.083  11.163  1.8175  0.9723 -0.4288
 9517SOL    HW240185   3.732   2.165  11.062 -2.3051 -1.1363  0.0349
 9518SOL     OW40186   0.379   3.435   7.192  0.3244 -0.3509 -0.3833
 9518SOL    HW140187   0.427   3.494   7.252 -0.9225  0.1971  0.0721
 9518SOL    HW240188   0.435   3.357   7.199 -1.6383 -1.6562  0.5260
 9519SOL     OW40189   0.451   1.951   4.875 -0.5042  0.4367 -0.0604
 9519SOL    HW140190   0.460   1.919   4.785  2.2260 -0.1343  0.4022
 9519SOL    HW240191   0.439   1.869   4.923  0.4611 -0.1418 -0.7909
 9520SOL     OW40192   2.547   0.985   4.650  0.5274 -0.0260 -0.0344
 9520SOL    HW140193   2.463   0.974   4.694 -0.8343 -1.7618 -3.1061
 9520SOL    HW240194   2.604   1.009   4.724  2.0026 -0.3534 -1.0647
 9521SOL     OW40195   0.315   0.118   0.170  0.2434 -0.1127 -0.1164
 9521SOL    HW140196   0.405   0.096   0.196 -0.8310 -2.2867  1.7871
 9521SOL    HW240197   0.278   0.032   0.150 -0.9633  0.3050  0.2782
 9522SOL     OW40198   2.404   4.154   9.716 -0.3079 -0.2673 -0.0916
 9522SOL    HW140199   2.458   4.172   9.639 -2.8601 -1.6405 -2.1806
 9522SOL    HW240200   2.317   4.170   9.680  0.4824  1.8738 -1.0603
 9523SOL     OW40201   3.132   3.149   4.298  0.4921  0.2060 -0.3032
 9523SOL    HW140202   3.130   3.197   4.215 -2.3068 -0.4251 -0.6020
 9523SOL    HW240203   3.165   3.218   4.355  0.1699 -0.2606  0.4513
 9524SOL     OW40204   1.681   4.329   5.836  0.4084  0.1396  0.3355
 9524SOL    HW140205   1.704   4.251   5.888 -1.1546 -0.2476  0.4390
 9524SOL    HW240206   1.770   4.336   5.802  0.1069  0.9399 -0.2980
 9525SOL     OW40207   4.173   1.556  17.220  0.6152  0.1391 -0.6070
 9525SOL    HW140208   4.199   1.479  17.170  0.8052  0.9617 -1.7751
 9525SOL    HW240209   4.193   1.625  17.156  0.3289  1.8706  1.1534
 9526SOL     OW40210   0.426   4.066   7.688 -0.2138 -0.3802 -0.0386
 9526SOL    HW140211   0.403   3.979   7.720 -1.7682  0.0590  0.0854
 9526SOL    HW240212   0.505   4.096   7.732 -0.6617 -0.2767  0.7017
 9527SOL     OW40213   1.755   2.991   9.741  0.0491  0.1049  0.4335
 9527SOL    HW140214   1.709   3.035   9.813  1.6542  0.4886  1.2301
 9527SOL    HW240215   1.814   3.061   9.710 -0.8523  0.4597 -0.4761
 9528SOL     OW40216   2.983   1.519   2.950  0.2643  0.0192  0.0670
 9528SOL    HW140217   3.052   1.465   2.912 -0.1388 -0.3153 -0.1884
 9528SOL    HW240218   2.947   1.439   2.990  0.1608  0.9073  1.7639
 9529SOL     OW40219   0.017   2.307   4.212  0.1711  0.0954  0.0593
 9529SOL    HW140220   0.089   2.346   4.162  2.0847 -1.8380  1.2909
 9529SOL    HW240221   4.707   2.258   4.146 -1.0218 -0.1827  1.1557
 9530SOL     OW40222   4.255   0.422   4.569 -0.0822  0.4643 -0.2851
 9530SOL    HW140223   4.219   0.416   4.481 -0.7788  0.4978  0.0001
 9530SOL    HW240224   4.308   0.502   4.566  1.3857 -0.4520  1.4977
 9531SOL     OW40225   0.492   1.854   3.742 -0.1413 -0.3749  0.4714
 9531SOL    HW140226   0.428   1.806   3.796 -3.5833  1.9745 -1.5245
 9531SOL    HW240227   0.447   1.857   3.658  0.9897  0.8534 -0.0816
 9532SOL     OW40228   0.944   4.643   4.481 -0.4770 -0.6278 -0.1477
 9532SOL    HW140229   1.010   4.574   4.488  1.0521  1.1100  2.6432
 9532SOL    HW240230   0.970   4.692   4.559  0.5836 -0.2843 -0.7153
 9533SOL     OW40231   2.137   1.761   2.533  0.1444 -0.2813  0.2815
 9533SOL    HW140232   2.072   1.735   2.598 -0.2912  0.1995  0.0401
 9533SOL    HW240233   2.203   1.693   2.547  1.4342  1.0434  0.5985
 9534SOL     OW40234   0.169   3.566   5.938  0.2985  0.1984  0.2196
 9534SOL    HW140235   0.191   3.635   5.875 -0.0890 -0.1371 -0.2784
 9534SOL    HW240236   0.082   3.537   5.912 -0.1921  1.1728  0.7390
 9535SOL     OW40237   2.376   3.232   1.515  0.1776  0.0425  0.5302
 9535SOL    HW140238   2.382   3.174   1.591  0.3408  0.4366  0.8141
 9535SOL    HW240239   2.304   3.292   1.536 -0.1766  0.6375 -2.3797
 9536SOL     OW40240   2.009   0.551   9.225 -0.1142 -0.6754  0.3733
 9536SOL    HW140241   2.047   0.466   9.246  2.1541  0.1850 -0.2406
 9536SOL    HW240242   1.929   0.529   9.176 -1.3091  2.2354  0.9960
 9537SOL     OW40243   2.424   1.519   2.314 -0.3226 -0.5793  0.1511
 9537SOL    HW140244   2.419   1.526   2.409 -0.2796 -1.4191  0.2170
 9537SOL    HW240245   2.374   1.439   2.296  0.0558 -0.1513 -2.8639
 9538SOL     OW40246   3.721   0.866   6.860 -0.7439 -0.0368  0.0181
 9538SOL    HW140247   3.767   0.797   6.811  1.0566 -0.0621  1.7635
 9538SOL    HW240248   3.761   0.858   6.946 -1.2092  0.2885  0.2655
 9539SOL     OW40249   4.564   1.098   3.317  0.4766  0.3429  0.0290
 9539SOL    HW140250   4.579   1.128   3.227  1.6321 -1.8741 -0.5225
 9539SOL    HW240251   4.616   1.018   3.317  1.6638  1.1179 -0.6994
 9540SOL     OW40252   4.473   0.132  15.344  0.0537  0.1237 -0.3230
 9540SOL    HW140253   4.524   0.079  15.405  1.5347 -0.6457 -2.2445
 9540SOL    HW240254   4.439   0.062  15.287  1.4423  1.3900 -2.6742
 9541SOL     OW40255   3.919   0.607   2.643 -0.1574 -0.3858  0.2605
 9541SOL    HW140256   3.972   0.566   2.712 -1.0468  0.4700  1.4445
 9541SOL    HW240257   3.847   0.631   2.701 -0.2029 -2.4842  1.1024
 9542SOL     OW40258   1.193   4.518  11.949 -0.2625  0.0278  0.0912
 9542SOL    HW140259   1.277   4.518  11.902  0.3078  1.7035  1.1049
 9542SOL    HW240260   1.159   4.439  11.906 -1.4003  0.0352  0.9787
 9543SOL     OW40261   1.197   1.099   5.889  0.3197 -0.1009 -0.3568
 9543SOL    HW140262   1.264   1.106   5.957  0.5734  0.6736 -0.6907
 9543SOL    HW240263   1.131   1.044   5.931 -1.0516  1.8352  0.0332
 9544SOL     OW40264   3.513   1.046   8.356  0.4296 -0.4091  0.5709
 9544SOL    HW140265   3.471   1.128   8.329  0.4237 -0.0489  1.6775
 9544SOL    HW240266   3.587   1.079   8.408 -1.2510  1.8833  1.5289
 9545SOL     OW40267   1.053   2.722   5.118  0.3655 -0.0447  0.6321
 9545SOL    HW140268   1.039   2.750   5.027 -0.7463 -0.7549  0.5839
 9545SOL    HW240269   1.136   2.678   5.105  0.6686  0.2119  1.7806
 9546SOL     OW40270   1.173   2.298  16.564  0.1735 -0.6017 -0.2861
 9546SOL    HW140271   1.152   2.343  16.482  2.1746 -1.6459 -1.3879
 9546SOL    HW240272   1.227   2.364  16.607 -1.3135  0.1363  0.4415
 9547SOL     OW40273   2.847   2.835   0.662 -0.0532 -0.2868  0.8748
 9547SOL    HW140274   2.772   2.872   0.616  2.7055  1.8502 -1.9119
 9547SOL    HW240275   2.868   2.757   0.610  2.2597 -1.0301  2.9223
 9548SOL     OW40276   3.080   2.568   6.229 -0.5042 -0.5498  0.8268
 9548SOL    HW140277   3.045   2.577   6.318 -3.3945 -2.0008 -0.1544
 9548SOL    HW240278   3.016   2.501   6.203  0.0901  0.4172 -3.0353
 9549SOL     OW40279   2.257   0.291  16.584  0.0110  0.4905  0.2291
 9549SOL    HW140280   2.238   0.382  16.606  0.6548  0.2013  1.9881
 9549SOL    HW240281   2.284   0.245  16.664 -0.6850 -1.3260 -0.5918
 9550SOL     OW40282   1.943   0.895  12.932 -0.0115 -0.0607  0.5219
 9550SOL    HW140283   2.028   0.907  12.975 -0.7858  0.7303  1.8224
 9550SOL    HW240284   1.918   0.809  12.964 -2.3359  1.6074  3.1223
 9551SOL     OW40285   2.451   3.739  11.340  0.7102 -0.1105  0.6718
 9551SOL    HW140286   2.426   3.806  11.405  1.2471 -1.2952  2.0980
 9551SOL    HW240287   2.365   3.709  11.310  1.4823 -0.6969 -0.8991
 9552SOL     OW40288   2.589   3.639  15.011  0.3479 -0.5561  0.5595
 9552SOL    HW140289   2.583   3.603  15.099  1.8931 -1.6988  0.1962
 9552SOL    HW240290   2.561   3.727  15.037  3.9745  1.1757 -1.3955
 9553SOL     OW40291   4.076   3.095   3.765  0.5460 -0.1960  0.1888
 9553SOL    HW140292   4.048   3.162   3.703 -2.5247 -0.4043  1.3522
 9553SOL    HW240293   3.995   3.060   3.802 -0.8006 -0.0468 -2.5988
 9554SOL     OW40294   2.818   0.874   5.981  0.2851 -0.1413 -0.3383
 9554SOL    HW140295   2.849   0.860   5.891  1.7819 -0.8264  0.2891
 9554SOL    HW240296   2.896   0.920   6.013  0.5285 -1.4861  0.9924
 9555SOL     OW40297   2.710   4.081  10.188 -0.0134 -0.4766 -0.5730
 9555SOL    HW140298   2.799   4.080  10.151  0.5842 -0.0030  0.8495
 9555SOL    HW240299   2.658   4.118  10.117 -3.1918 -0.0338  1.9827
 9556SOL     OW40300   2.491   4.534   6.768  0.0637  0.6610 -0.3722
 9556SOL    HW140301   2.396   4.529   6.757  0.1932 -0.4394 -1.0004
 9556SOL    HW240302   2.514   4.603   6.704 -1.3582 -1.4853 -3.1958
 9557SOL     OW40303   2.816   4.689   5.359 -0.0251 -0.5370 -0.1811
 9557SOL    HW140304   2.893   4.735   5.393 -0.5883 -0.9020  1.5812
 9557SOL    HW240305   2.867   4.609   5.341  2.1595  0.2149  2.6227
 9558SOL     OW40306   4.000   3.996  15.128 -0.1154  0.0388 -0.6501
 9558SOL    HW140307   3.953   3.982  15.210 -0.9846 -1.0430 -1.3353
 9558SOL    HW240308   4.061   3.922  15.121  0.3268  0.3527 -0.0762
 9559SOL     OW40309   0.660   4.250   4.332  0.1036  0.1215 -0.4056
 9559SOL    HW140310   0.593   4.271   4.268  0.5000 -0.4776 -1.0194
 9559SOL    HW240311   0.657   4.335   4.377 -1.8947  0.8555 -1.9467
 9560SOL     OW40312   2.343   2.728  11.291  0.1779 -0.1062  0.1524
 9560SOL    HW140313   2.433   2.747  11.317  0.7940 -2.3751 -0.2982
 9560SOL    HW240314   2.294   2.780  11.354 -0.5256  0.5679 -0.9493
 9561SOL     OW40315   0.177   3.646   9.571 -0.2009  0.3808 -0.6491
 9561SOL    HW140316   0.192   3.699   9.492 -2.0765  0.5803 -0.8700
 9561SOL    HW240317   0.082   3.643   9.563 -0.1070  0.2352 -1.7287
 9562SOL     OW40318   0.170   3.816   5.096 -0.4469 -0.5546 -0.1501
 9562SOL    HW140319   0.195   3.733   5.056  0.6880 -0.4707  0.3857
 9562SOL    HW240320   0.253   3.863   5.107 -0.5578 -0.0341 -1.4858
 9563SOL     OW40321   4.024   4.026  17.660  0.7603 -0.0563 -0.1103
 9563SOL    HW140322   4.052   3.939  17.687  0.6741  0.3067  1.1632
 9563SOL    HW240323   3.972   4.010  17.582  1.3739 -0.1680 -0.4994
 9564SOL     OW40324   3.670   2.331   6.700 -0.1805  0.2431  0.0107
 9564SOL    HW140325   3.670   2.238   6.724  2.3376  0.7785  2.1457
 9564SOL    HW240326   3.723   2.313   6.623  1.5569  0.1398  1.2355
 9565SOL     OW40327   0.093   0.355  12.020 -0.0759  0.0480 -0.3298
 9565SOL    HW140328   4.737   0.350  12.017 -0.1082  0.9544 -0.5887
 9565SOL    HW240329   0.116   0.312  12.103  0.2666  0.8422 -0.0161
 9566SOL     OW40330   1.027   3.621   2.329  0.0794  0.6356  0.0255
 9566SOL    HW140331   1.119   3.635   2.306 -0.6057  2.5353 -1.6187
 9566SOL    HW240332   0.997   3.585   2.245 -0.6847  2.2329 -0.3778
 9567SOL     OW40333   1.819   3.009   7.768 -0.4320 -0.3608  0.1629
 9567SOL    HW140334   1.786   3.083   7.819 -0.8935 -1.3167  1.2658
 9567SOL    HW240335   1.907   3.005   7.807 -0.3556  1.5941  0.1806
 9568SOL     OW40336   1.095   3.259  15.504 -0.2981 -0.3982 -0.1096
 9568SOL    HW140337   1.064   3.341  15.467 -3.5183 -1.0790  1.0419
 9568SOL    HW240338   1.130   3.273  15.592  0.4016 -2.6766 -0.0156
 9569SOL     OW40339   0.832   4.392   1.897  0.2368  0.0751  0.4390
 9569SOL    HW140340   0.788   4.434   1.971 -0.6801 -1.3927  0.7185
 9569SOL    HW240341   0.896   4.459   1.871 -2.8314  3.3486  1.3648
 9570SOL     OW40342   4.206   3.323   6.607 -0.6808 -0.0960  0.2305
 9570SOL    HW140343   4.139   3.295   6.545 -0.7489 -0.5583  0.5149
 9570SOL    HW240344   4.284   3.343   6.556 -1.4460 -1.5711 -1.5088
 9571SOL     OW40345   1.809   2.802   4.985 -0.4778  0.5794 -0.2109
 9571SOL    HW140346   1.806   2.749   5.065 -2.0112  0.5901 -0.2478
 9571SOL    HW240347   1.797   2.889   5.022 -2.0985 -0.8459  2.6774
   4.73946   4.73946  17.75557
